 Entering Gaussian System, Link 0=/opt/software/gaussian/g16.c01/g16
 Initial command:
 /opt/software/gaussian/g16.c01/l1.exe "/scratch/arhender/14836883/Gau-17019.inp" -scrdir="/scratch/arhender/14836883/"
 Entering Link 1 = /opt/software/gaussian/g16.c01/l1.exe PID=     17020.
  
 Copyright (c) 1988-2019, Gaussian, Inc.  All Rights Reserved.
  
 This is part of the Gaussian(R) 16 program.  It is based on
 the Gaussian(R) 09 system (copyright 2009, Gaussian, Inc.),
 the Gaussian(R) 03 system (copyright 2003, Gaussian, Inc.),
 the Gaussian(R) 98 system (copyright 1998, Gaussian, Inc.),
 the Gaussian(R) 94 system (copyright 1995, Gaussian, Inc.),
 the Gaussian 92(TM) system (copyright 1992, Gaussian, Inc.),
 the Gaussian 90(TM) system (copyright 1990, Gaussian, Inc.),
 the Gaussian 88(TM) system (copyright 1988, Gaussian, Inc.),
 the Gaussian 86(TM) system (copyright 1986, Carnegie Mellon
 University), and the Gaussian 82(TM) system (copyright 1983,
 Carnegie Mellon University). Gaussian is a federally registered
 trademark of Gaussian, Inc.
  
 This software contains proprietary and confidential information,
 including trade secrets, belonging to Gaussian, Inc.
  
 This software is provided under written license and may be
 used, copied, transmitted, or stored only in accord with that
 written license.
  
 The following legend is applicable only to US Government
 contracts under FAR:
  
                    RESTRICTED RIGHTS LEGEND
  
 Use, reproduction and disclosure by the US Government is
 subject to restrictions as set forth in subparagraphs (a)
 and (c) of the Commercial Computer Software - Restricted
 Rights clause in FAR 52.227-19.
  
 Gaussian, Inc.
 340 Quinnipiac St., Bldg. 40, Wallingford CT 06492
  
  
 ---------------------------------------------------------------
 Warning -- This program may not be used in any manner that
 competes with the business of Gaussian, Inc. or will provide
 assistance to any competitor of Gaussian, Inc.  The licensee
 of this program is prohibited from giving any competitor of
 Gaussian, Inc. access to this program.  By using this program,
 the user acknowledges that Gaussian, Inc. is engaged in the
 business of creating and licensing software in the field of
 computational chemistry and represents and warrants to the
 licensee that it is not a competitor of Gaussian, Inc. and that
 it will not use this program in any manner prohibited above.
 ---------------------------------------------------------------
  

 Cite this work as:
 Gaussian 16, Revision C.01,
 M. J. Frisch, G. W. Trucks, H. B. Schlegel, G. E. Scuseria, 
 M. A. Robb, J. R. Cheeseman, G. Scalmani, V. Barone, 
 G. A. Petersson, H. Nakatsuji, X. Li, M. Caricato, A. V. Marenich, 
 J. Bloino, B. G. Janesko, R. Gomperts, B. Mennucci, H. P. Hratchian, 
 J. V. Ortiz, A. F. Izmaylov, J. L. Sonnenberg, D. Williams-Young, 
 F. Ding, F. Lipparini, F. Egidi, J. Goings, B. Peng, A. Petrone, 
 T. Henderson, D. Ranasinghe, V. G. Zakrzewski, J. Gao, N. Rega, 
 G. Zheng, W. Liang, M. Hada, M. Ehara, K. Toyota, R. Fukuda, 
 J. Hasegawa, M. Ishida, T. Nakajima, Y. Honda, O. Kitao, H. Nakai, 
 T. Vreven, K. Throssell, J. A. Montgomery, Jr., J. E. Peralta, 
 F. Ogliaro, M. J. Bearpark, J. J. Heyd, E. N. Brothers, K. N. Kudin, 
 V. N. Staroverov, T. A. Keith, R. Kobayashi, J. Normand, 
 K. Raghavachari, A. P. Rendell, J. C. Burant, S. S. Iyengar, 
 J. Tomasi, M. Cossi, J. M. Millam, M. Klene, C. Adamo, R. Cammi, 
 J. W. Ochterski, R. L. Martin, K. Morokuma, O. Farkas, 
 J. B. Foresman, and D. J. Fox, Gaussian, Inc., Wallingford CT, 2019.
 
 ******************************************
 Gaussian 16:  ES64L-G16RevC.01  3-Jul-2019
                11-Oct-2023 
 ******************************************
 %chk=MannitolConformerOpt_28.chk
 %mem=8GB
 %nprocs=16
 Will use up to   16 processors via shared memory.
 ---------------------------------------------
 # opt freq wb97xd/Def2TZVPP geom=connectivity
 ---------------------------------------------
 1/18=20,19=15,26=3,38=1,57=2/1,3;
 2/9=110,12=2,17=6,18=5,40=1/2;
 3/5=44,7=202,11=2,25=1,30=1,71=1,74=-58/1,2,3;
 4//1;
 5/5=2,38=5/2;
 6/7=2,8=2,9=2,10=2,28=1/1;
 7//1,2,3,16;
 1/18=20,19=15,26=3/3(2);
 2/9=110/2;
 99//99;
 2/9=110/2;
 3/5=44,7=202,11=2,25=1,30=1,71=1,74=-58/1,2,3;
 4/5=5,16=3,69=1/1;
 5/5=2,38=5/2;
 7//1,2,3,16;
 1/18=20,19=15,26=3/3(-5);
 2/9=110/2;
 6/7=2,8=2,9=2,10=2,19=2,28=1/1;
 99/9=1/99;
 -------------------
 Title Card Required
 -------------------
 Symbolic Z-matrix:
 Charge =  0 Multiplicity = 1
 C                     0.        0.        0. 
 C                     1.5385    0.        0. 
 C                    -0.6411    0.6096    1.2633 
 C                     2.2      -0.7866    1.1517 
 H                     1.9154    1.029     0. 
 H                    -0.3786   -1.0177   -0.1506 
 C                    -0.4945    2.1359    1.3659 
 H                    -0.2333    0.1381    2.1617 
 C                     1.789    -2.2649    1.2293 
 H                     1.9969   -0.3068    2.1139 
 H                     0.5536    2.447     1.3459 
 H                    -0.9427    2.4913    2.2991 
 H                     0.7572   -2.3682    1.5776 
 H                     2.4546   -2.8095    1.907 
 O                    -1.1914    2.7892    0.3037 
 H                    -0.9508    2.3167   -0.5241 
 O                    -2.0435    0.2976    1.2459 
 H                    -2.4382    0.9134    0.5944 
 O                    -0.4379    0.7351   -1.1669 
 H                     0.141     0.4168   -1.8938 
 O                     1.9696   -0.5382   -1.2744 
 H                     1.9054   -1.5183   -1.1953 
 O                     3.6235   -0.7289    0.9636 
 H                     3.7793   -0.9389    0.0208 
 O                     1.8841   -2.8736   -0.0623 
 H                     1.7889   -3.8352    0.0796 
 

 GradGradGradGradGradGradGradGradGradGradGradGradGradGradGradGradGradGrad
 Berny optimization.
 Initialization pass.
                           ----------------------------
                           !    Initial Parameters    !
                           ! (Angstroms and Degrees)  !
 --------------------------                            --------------------------
 ! Name  Definition              Value          Derivative Info.                !
 --------------------------------------------------------------------------------
 ! R1    R(1,2)                  1.5385         estimate D2E/DX2                !
 ! R2    R(1,3)                  1.5423         estimate D2E/DX2                !
 ! R3    R(1,6)                  1.0962         estimate D2E/DX2                !
 ! R4    R(1,19)                 1.447          estimate D2E/DX2                !
 ! R5    R(2,4)                  1.5436         estimate D2E/DX2                !
 ! R6    R(2,5)                  1.0959         estimate D2E/DX2                !
 ! R7    R(2,21)                 1.449          estimate D2E/DX2                !
 ! R8    R(3,7)                  1.5368         estimate D2E/DX2                !
 ! R9    R(3,8)                  1.0935         estimate D2E/DX2                !
 ! R10   R(3,17)                 1.4368         estimate D2E/DX2                !
 ! R11   R(4,9)                  1.5363         estimate D2E/DX2                !
 ! R12   R(4,10)                 1.0942         estimate D2E/DX2                !
 ! R13   R(4,23)                 1.437          estimate D2E/DX2                !
 ! R14   R(7,11)                 1.0935         estimate D2E/DX2                !
 ! R15   R(7,12)                 1.0946         estimate D2E/DX2                !
 ! R16   R(7,15)                 1.4285         estimate D2E/DX2                !
 ! R17   R(9,13)                 1.0939         estimate D2E/DX2                !
 ! R18   R(9,14)                 1.0949         estimate D2E/DX2                !
 ! R19   R(9,25)                 1.431          estimate D2E/DX2                !
 ! R20   R(15,16)                0.9831         estimate D2E/DX2                !
 ! R21   R(17,18)                0.9795         estimate D2E/DX2                !
 ! R22   R(19,20)                0.9823         estimate D2E/DX2                !
 ! R23   R(21,22)                0.9854         estimate D2E/DX2                !
 ! R24   R(23,24)                0.9784         estimate D2E/DX2                !
 ! R25   R(25,26)                0.9767         estimate D2E/DX2                !
 ! A1    A(2,1,3)              114.5628         estimate D2E/DX2                !
 ! A2    A(2,1,6)              110.204          estimate D2E/DX2                !
 ! A3    A(2,1,19)             107.6155         estimate D2E/DX2                !
 ! A4    A(3,1,6)              109.6282         estimate D2E/DX2                !
 ! A5    A(3,1,19)             109.5097         estimate D2E/DX2                !
 ! A6    A(6,1,19)             104.8519         estimate D2E/DX2                !
 ! A7    A(1,2,4)              115.375          estimate D2E/DX2                !
 ! A8    A(1,2,5)              110.1167         estimate D2E/DX2                !
 ! A9    A(1,2,21)             107.3084         estimate D2E/DX2                !
 ! A10   A(4,2,5)              109.336          estimate D2E/DX2                !
 ! A11   A(4,2,21)             109.8423         estimate D2E/DX2                !
 ! A12   A(5,2,21)             104.2672         estimate D2E/DX2                !
 ! A13   A(1,3,7)              114.0548         estimate D2E/DX2                !
 ! A14   A(1,3,8)              110.3359         estimate D2E/DX2                !
 ! A15   A(1,3,17)             108.0585         estimate D2E/DX2                !
 ! A16   A(7,3,8)              109.7444         estimate D2E/DX2                !
 ! A17   A(7,3,17)             108.0348         estimate D2E/DX2                !
 ! A18   A(8,3,17)             106.2795         estimate D2E/DX2                !
 ! A19   A(2,4,9)              114.4172         estimate D2E/DX2                !
 ! A20   A(2,4,10)             110.6774         estimate D2E/DX2                !
 ! A21   A(2,4,23)             107.8414         estimate D2E/DX2                !
 ! A22   A(9,4,10)             109.1387         estimate D2E/DX2                !
 ! A23   A(9,4,23)             108.0742         estimate D2E/DX2                !
 ! A24   A(10,4,23)            106.3416         estimate D2E/DX2                !
 ! A25   A(3,7,11)             111.8875         estimate D2E/DX2                !
 ! A26   A(3,7,12)             109.8981         estimate D2E/DX2                !
 ! A27   A(3,7,15)             110.9791         estimate D2E/DX2                !
 ! A28   A(11,7,12)            108.4033         estimate D2E/DX2                !
 ! A29   A(11,7,15)            108.898          estimate D2E/DX2                !
 ! A30   A(12,7,15)            106.6001         estimate D2E/DX2                !
 ! A31   A(4,9,13)             111.0563         estimate D2E/DX2                !
 ! A32   A(4,9,14)             110.3181         estimate D2E/DX2                !
 ! A33   A(4,9,25)             110.2385         estimate D2E/DX2                !
 ! A34   A(13,9,14)            109.2288         estimate D2E/DX2                !
 ! A35   A(13,9,25)            108.0533         estimate D2E/DX2                !
 ! A36   A(14,9,25)            107.859          estimate D2E/DX2                !
 ! A37   A(7,15,16)            106.6736         estimate D2E/DX2                !
 ! A38   A(3,17,18)            105.3578         estimate D2E/DX2                !
 ! A39   A(1,19,20)            104.7028         estimate D2E/DX2                !
 ! A40   A(2,21,22)            106.2276         estimate D2E/DX2                !
 ! A41   A(4,23,24)            105.9773         estimate D2E/DX2                !
 ! A42   A(9,25,26)            106.3312         estimate D2E/DX2                !
 ! D1    D(3,1,2,4)             60.0921         estimate D2E/DX2                !
 ! D2    D(3,1,2,5)            -64.2406         estimate D2E/DX2                !
 ! D3    D(3,1,2,21)          -177.1357         estimate D2E/DX2                !
 ! D4    D(6,1,2,4)            -64.0849         estimate D2E/DX2                !
 ! D5    D(6,1,2,5)            171.5824         estimate D2E/DX2                !
 ! D6    D(6,1,2,21)            58.6873         estimate D2E/DX2                !
 ! D7    D(19,1,2,4)          -177.8766         estimate D2E/DX2                !
 ! D8    D(19,1,2,5)            57.7907         estimate D2E/DX2                !
 ! D9    D(19,1,2,21)          -55.1044         estimate D2E/DX2                !
 ! D10   D(2,1,3,7)             71.4049         estimate D2E/DX2                !
 ! D11   D(2,1,3,8)            -52.6496         estimate D2E/DX2                !
 ! D12   D(2,1,3,17)          -168.4532         estimate D2E/DX2                !
 ! D13   D(6,1,3,7)           -164.1126         estimate D2E/DX2                !
 ! D14   D(6,1,3,8)             71.8329         estimate D2E/DX2                !
 ! D15   D(6,1,3,17)           -43.9707         estimate D2E/DX2                !
 ! D16   D(19,1,3,7)           -49.5888         estimate D2E/DX2                !
 ! D17   D(19,1,3,8)          -173.6433         estimate D2E/DX2                !
 ! D18   D(19,1,3,17)           70.5531         estimate D2E/DX2                !
 ! D19   D(2,1,19,20)           43.7302         estimate D2E/DX2                !
 ! D20   D(3,1,19,20)          168.8444         estimate D2E/DX2                !
 ! D21   D(6,1,19,20)          -73.5974         estimate D2E/DX2                !
 ! D22   D(1,2,4,9)             57.2828         estimate D2E/DX2                !
 ! D23   D(1,2,4,10)           -66.5101         estimate D2E/DX2                !
 ! D24   D(1,2,4,23)           177.5515         estimate D2E/DX2                !
 ! D25   D(5,2,4,9)           -177.9778         estimate D2E/DX2                !
 ! D26   D(5,2,4,10)            58.2293         estimate D2E/DX2                !
 ! D27   D(5,2,4,23)           -57.7091         estimate D2E/DX2                !
 ! D28   D(21,2,4,9)           -64.1315         estimate D2E/DX2                !
 ! D29   D(21,2,4,10)          172.0757         estimate D2E/DX2                !
 ! D30   D(21,2,4,23)           56.1372         estimate D2E/DX2                !
 ! D31   D(1,2,21,22)          -80.6902         estimate D2E/DX2                !
 ! D32   D(4,2,21,22)           45.442          estimate D2E/DX2                !
 ! D33   D(5,2,21,22)          162.505          estimate D2E/DX2                !
 ! D34   D(1,3,7,11)           -57.6886         estimate D2E/DX2                !
 ! D35   D(1,3,7,12)          -178.169          estimate D2E/DX2                !
 ! D36   D(1,3,7,15)            64.1732         estimate D2E/DX2                !
 ! D37   D(8,3,7,11)            66.6833         estimate D2E/DX2                !
 ! D38   D(8,3,7,12)           -53.7971         estimate D2E/DX2                !
 ! D39   D(8,3,7,15)          -171.4549         estimate D2E/DX2                !
 ! D40   D(17,3,7,11)         -177.8438         estimate D2E/DX2                !
 ! D41   D(17,3,7,12)           61.6758         estimate D2E/DX2                !
 ! D42   D(17,3,7,15)          -55.982          estimate D2E/DX2                !
 ! D43   D(1,3,17,18)          -76.6991         estimate D2E/DX2                !
 ! D44   D(7,3,17,18)           47.1522         estimate D2E/DX2                !
 ! D45   D(8,3,17,18)          164.8755         estimate D2E/DX2                !
 ! D46   D(2,4,9,13)           -71.6835         estimate D2E/DX2                !
 ! D47   D(2,4,9,14)           167.0599         estimate D2E/DX2                !
 ! D48   D(2,4,9,25)            48.0436         estimate D2E/DX2                !
 ! D49   D(10,4,9,13)           52.9293         estimate D2E/DX2                !
 ! D50   D(10,4,9,14)          -68.3273         estimate D2E/DX2                !
 ! D51   D(10,4,9,25)          172.6564         estimate D2E/DX2                !
 ! D52   D(23,4,9,13)          168.1775         estimate D2E/DX2                !
 ! D53   D(23,4,9,14)           46.9208         estimate D2E/DX2                !
 ! D54   D(23,4,9,25)          -72.0954         estimate D2E/DX2                !
 ! D55   D(2,4,23,24)          -46.8661         estimate D2E/DX2                !
 ! D56   D(9,4,23,24)           77.3173         estimate D2E/DX2                !
 ! D57   D(10,4,23,24)        -165.6125         estimate D2E/DX2                !
 ! D58   D(3,7,15,16)          -46.7405         estimate D2E/DX2                !
 ! D59   D(11,7,15,16)          76.8509         estimate D2E/DX2                !
 ! D60   D(12,7,15,16)        -166.3888         estimate D2E/DX2                !
 ! D61   D(4,9,25,26)          168.8899         estimate D2E/DX2                !
 ! D62   D(13,9,25,26)         -69.5812         estimate D2E/DX2                !
 ! D63   D(14,9,25,26)          48.3852         estimate D2E/DX2                !
 --------------------------------------------------------------------------------
 Trust Radius=3.00D-01 FncErr=1.00D-07 GrdErr=1.00D-06 EigMax=2.50D+02 EigMin=1.00D-04
 Number of steps in this run=    140 maximum allowed number of steps=    156.
 GradGradGradGradGradGradGradGradGradGradGradGradGradGradGradGradGradGrad

                          Input orientation:                          
 ---------------------------------------------------------------------
 Center     Atomic      Atomic             Coordinates (Angstroms)
 Number     Number       Type             X           Y           Z
 ---------------------------------------------------------------------
      1          6           0        0.000000    0.000000    0.000000
      2          6           0        1.538500    0.000000    0.000000
      3          6           0       -0.641100    0.609600    1.263300
      4          6           0        2.200000   -0.786600    1.151700
      5          1           0        1.915400    1.029000    0.000000
      6          1           0       -0.378600   -1.017700   -0.150600
      7          6           0       -0.494500    2.135900    1.365900
      8          1           0       -0.233300    0.138100    2.161700
      9          6           0        1.789000   -2.264900    1.229300
     10          1           0        1.996900   -0.306800    2.113900
     11          1           0        0.553600    2.447000    1.345900
     12          1           0       -0.942700    2.491300    2.299100
     13          1           0        0.757200   -2.368200    1.577600
     14          1           0        2.454600   -2.809500    1.907000
     15          8           0       -1.191400    2.789200    0.303700
     16          1           0       -0.950800    2.316700   -0.524100
     17          8           0       -2.043500    0.297600    1.245900
     18          1           0       -2.438200    0.913400    0.594400
     19          8           0       -0.437900    0.735100   -1.166900
     20          1           0        0.141000    0.416800   -1.893800
     21          8           0        1.969600   -0.538200   -1.274400
     22          1           0        1.905400   -1.518300   -1.195300
     23          8           0        3.623500   -0.728900    0.963600
     24          1           0        3.779300   -0.938900    0.020800
     25          8           0        1.884100   -2.873600   -0.062300
     26          1           0        1.788900   -3.835200    0.079600
 ---------------------------------------------------------------------
                    Distance matrix (angstroms):
                    1          2          3          4          5
     1  C    0.000000
     2  C    1.538500   0.000000
     3  C    1.542254   2.591948   0.000000
     4  C    2.604833   1.543611   3.167598   0.000000
     5  H    2.174304   1.095853   2.882276   2.168828   0.000000
     6  H    1.096235   2.175699   2.171664   2.898029   3.078002
     7  C    2.583076   3.249745   1.536753   3.980856   2.983040
     8  H    2.178634   2.798445   1.093497   2.792153   3.175462
     9  C    3.137112   2.589151   3.764212   1.536331   3.518087
    10  H    2.924091   2.184681   2.919307   1.094206   2.501915
    11  H    2.847056   2.961298   2.193210   3.633802   2.382576
    12  H    3.518682   4.201046   2.169018   4.683772   3.948787
    13  H    2.944579   2.950868   3.304742   2.182778   3.920614
    14  H    4.189869   3.516984   4.657033   2.174264   4.319892
    15  O    3.048164   3.914617   2.444242   5.000704   3.583677
    16  H    2.558476   3.440697   2.490964   4.729304   3.185585
    17  O    2.411789   3.804150   1.436792   4.380828   4.214274
    18  H    2.670661   4.123318   1.941466   4.971266   4.395510
    19  O    1.446991   2.410018   2.441908   3.827531   2.643114
    20  H    1.944243   2.390232   3.258241   3.868168   2.666414
    21  O    2.406882   1.449000   3.817476   2.449642   2.020680
    22  H    2.713766   1.966874   4.130053   2.476001   2.813819
    23  O    3.819630   2.409781   4.479756   1.437033   2.633694
    24  H    3.894236   2.429640   4.845781   1.948414   2.710569
    25  O    3.436756   2.894978   4.501837   2.434986   3.903223
    26  H    4.232642   3.844190   5.202143   3.257662   4.866496
                    6          7          8          9         10
     6  H    0.000000
     7  C    3.501200   0.000000
     8  H    2.589154   2.166271   0.000000
     9  C    2.856243   4.959846   3.276198   0.000000
    10  H    3.358026   3.568384   2.274646   2.158679   0.000000
    11  H    3.887500   1.093479   2.572112   4.872557   3.202554
    12  H    4.316517   1.094557   2.461641   5.588210   4.062624
    13  H    2.469933   4.679582   2.757499   1.093890   2.464517
    14  H    3.933356   5.783335   3.997252   1.094938   2.552607
    15  O    3.919122   1.428544   3.376159   5.939987   4.798677
    16  H    3.403695   1.952690   3.531944   5.618894   4.746655
    17  O    2.540102   2.406896   2.034933   4.610286   4.176548
    18  H    2.919953   2.422331   2.814090   5.326717   4.844366
    19  O    2.026990   2.894913   3.387897   4.438565   4.216332
    20  H    2.316575   3.739627   4.082261   4.434092   4.475446
    21  O    2.647053   4.493749   4.137262   3.046740   3.396302
    22  H    2.560987   5.066798   4.311281   2.539615   3.525182
    23  O    4.164331   5.032579   4.130622   2.407339   2.036464
    24  H    4.162177   5.434064   4.673793   2.679560   2.820916
    25  O    2.927793   5.726481   4.301151   1.431010   3.367051
    26  H    3.562212   6.520929   4.920523   1.946189   4.078143
                   11         12         13         14         15
    11  H    0.000000
    12  H    1.774674   0.000000
    13  H    4.825069   5.198554   0.000000
    14  H    5.617778   6.308238   1.784493   0.000000
    15  O    2.061142   2.032786   5.658501   6.870904   0.000000
    16  H    2.403559   2.828605   5.411349   6.617018   0.983055
    17  O    3.372662   2.670826   3.880778   5.506726   2.796763
    18  H    3.444931   2.762660   4.684673   6.286684   2.271044
    19  O    3.198099   3.918191   4.311730   5.511770   2.636238
    20  H    3.845466   4.801913   4.492944   5.496166   3.497510
    21  O    4.216924   5.516273   3.598988   3.938951   4.853237
    22  H    4.899864   6.033191   3.119242   3.404862   5.512869
    23  O    4.433597   5.744861   3.358568   2.566170   5.999646
    24  H    4.860591   6.265318   3.687765   2.968455   6.219857
    25  O    5.662335   6.507623   2.052950   2.051273   6.454453
    26  H    6.526524   7.239642   2.336771   2.198774   7.267399
                   16         17         18         19         20
    16  H    0.000000
    17  O    2.898906   0.000000
    18  H    2.330805   0.979515   0.000000
    19  O    1.782615   2.931034   2.671174   0.000000
    20  H    2.584130   3.826743   3.618014   0.982254   0.000000
    21  O    4.152366   4.812011   5.002825   2.725602   2.153940
    22  H    4.828624   4.985054   5.289901   3.251103   2.710281
    23  O    5.693255   5.766133   6.291078   4.814280   4.648136
    24  H    5.767989   6.077401   6.512859   4.690169   4.329069
    25  O    5.932043   5.214781   5.784021   4.431088   4.149641
    26  H    6.761382   5.755656   6.378291   5.234505   4.968842
                   21         22         23         24         25
    21  O    0.000000
    22  H    0.985380   0.000000
    23  O    2.789336   2.869820   0.000000
    24  H    2.261220   2.307836   0.978389   0.000000
    25  O    2.632601   1.766630   2.945797   2.709567   0.000000
    26  H    3.568778   2.647068   3.714339   3.514784   0.976664
                   26
    26  H    0.000000
 Stoichiometry    C6H14O6
 Framework group  C1[X(C6H14O6)]
 Deg. of freedom    72
 Full point group                 C1      NOp   1
 Largest Abelian subgroup         C1      NOp   1
 Largest concise Abelian subgroup C1      NOp   1
                         Standard orientation:                         
 ---------------------------------------------------------------------
 Center     Atomic      Atomic             Coordinates (Angstroms)
 Number     Number       Type             X           Y           Z
 ---------------------------------------------------------------------
      1          6           0        0.532375   -0.016996   -0.587761
      2          6           0       -0.585147   -0.707399    0.213158
      3          6           0        1.471594    0.869382    0.255299
      4          6           0       -1.554650    0.241763    0.949290
      5          1           0       -0.153123   -1.413295    0.931462
      6          1           0        0.102730    0.574491   -1.404634
      7          6           0        2.416501    0.081872    1.176488
      8          1           0        0.891387    1.584226    0.845293
      9          6           0       -2.266676    1.253640    0.038555
     10          1           0       -1.035819    0.780813    1.747742
     11          1           0        1.867698   -0.565256    1.866225
     12          1           0        3.026766    0.774759    1.764314
     13          1           0       -1.572781    2.023279   -0.311819
     14          1           0       -3.093961    1.730785    0.574112
     15          8           0        3.324212   -0.716928    0.415754
     16          1           0        2.789046   -1.179090   -0.267181
     17          8           0        2.275492    1.648834   -0.645020
     18          1           0        2.955989    1.031994   -0.985434
     19          8           0        1.303471   -1.050664   -1.244058
     20          1           0        0.632765   -1.671860   -1.603353
     21          8           0       -1.323341   -1.544838   -0.710620
     22          1           0       -1.945491   -0.947378   -1.187009
     23          8           0       -2.557313   -0.563620    1.590449
     24          1           0       -2.855879   -1.208104    0.917586
     25          8           0       -2.809920    0.591276   -1.107721
     26          1           0       -3.394108    1.238566   -1.547736
 ---------------------------------------------------------------------
 Rotational constants (GHZ):           1.5184061           0.5239011           0.5140288
 Standard basis: def2TZVPP (5D, 7F)
 There are   642 symmetry adapted cartesian basis functions of A   symmetry.
 There are   568 symmetry adapted basis functions of A   symmetry.
   568 basis functions,   850 primitive gaussians,   642 cartesian basis functions
    49 alpha electrons       49 beta electrons
       nuclear repulsion energy       838.1025521552 Hartrees.
 NAtoms=   26 NActive=   26 NUniq=   26 SFac= 1.00D+00 NAtFMM=   60 NAOKFM=F Big=F
 Integral buffers will be    131072 words long.
 Raffenetti 2 integral format.
 Two-electron integral symmetry is turned on.
 Nuclear repulsion after empirical dispersion term =      838.0829706593 Hartrees.
 One-electron integrals computed using PRISM.
   1 Symmetry operations used in ECPInt.
 ECPInt:  NShTT=   23436 NPrTT=   62434 LenC2=   22062 LenP2D=   46006.
 LDataN:  DoStor=T MaxTD1= 6 Len=  172
 NBasis=   568 RedAO= T EigKep=  5.26D-05  NBF=   568
 NBsUse=   568 1.00D-06 EigRej= -1.00D+00 NBFU=   568
 ExpMin= 9.52D-02 ExpMax= 2.70D+04 ExpMxC= 9.22D+02 IAcc=3 IRadAn=         5 AccDes= 0.00D+00
 Harris functional with IExCor= 4639 and IRadAn=       5 diagonalized for initial guess.
 HarFok:  IExCor= 4639 AccDes= 0.00D+00 IRadAn=         5 IDoV= 1 UseB2=F ITyADJ=14
 ICtDFT=  3500011 ScaDFX=  1.000000  1.000000  1.000000  1.000000
 FoFCou: FMM=F IPFlag=           0 FMFlag=      100000 FMFlg1=           0
         NFxFlg=           0 DoJE=T BraDBF=F KetDBF=T FulRan=T
         wScrn=  0.000000 ICntrl=       500 IOpCl=  0 I1Cent=   200000004 NGrid=           0
         NMat0=    1 NMatS0=      1 NMatT0=    0 NMatD0=    1 NMtDS0=    0 NMtDT0=    0
 Petite list used in FoFCou.
 Requested convergence on RMS density matrix=1.00D-08 within 128 cycles.
 Requested convergence on MAX density matrix=1.00D-06.
 Requested convergence on             energy=1.00D-06.
 No special actions if energy rises.
 Integral accuracy reduced to 1.0D-05 until final iterations.
 Initial convergence to 1.0D-05 achieved.  Increase integral accuracy.
 SCF Done:  E(RwB97XD) =  -688.470985778     A.U. after   14 cycles
            NFock= 14  Conv=0.20D-08     -V/T= 2.0050

 **********************************************************************

            Population analysis using the SCF Density.

 **********************************************************************

 Orbital symmetries:
       Occupied  (A) (A) (A) (A) (A) (A) (A) (A) (A) (A) (A) (A)
                 (A) (A) (A) (A) (A) (A) (A) (A) (A) (A) (A) (A)
                 (A) (A) (A) (A) (A) (A) (A) (A) (A) (A) (A) (A)
                 (A) (A) (A) (A) (A) (A) (A) (A) (A) (A) (A) (A)
                 (A)
       Virtual   (A) (A) (A) (A) (A) (A) (A) (A) (A) (A) (A) (A)
                 (A) (A) (A) (A) (A) (A) (A) (A) (A) (A) (A) (A)
                 (A) (A) (A) (A) (A) (A) (A) (A) (A) (A) (A) (A)
                 (A) (A) (A) (A) (A) (A) (A) (A) (A) (A) (A) (A)
                 (A) (A) (A) (A) (A) (A) (A) (A) (A) (A) (A) (A)
                 (A) (A) (A) (A) (A) (A) (A) (A) (A) (A) (A) (A)
                 (A) (A) (A) (A) (A) (A) (A) (A) (A) (A) (A) (A)
                 (A) (A) (A) (A) (A) (A) (A) (A) (A) (A) (A) (A)
                 (A) (A) (A) (A) (A) (A) (A) (A) (A) (A) (A) (A)
                 (A) (A) (A) (A) (A) (A) (A) (A) (A) (A) (A) (A)
                 (A) (A) (A) (A) (A) (A) (A) (A) (A) (A) (A) (A)
                 (A) (A) (A) (A) (A) (A) (A) (A) (A) (A) (A) (A)
                 (A) (A) (A) (A) (A) (A) (A) (A) (A) (A) (A) (A)
                 (A) (A) (A) (A) (A) (A) (A) (A) (A) (A) (A) (A)
                 (A) (A) (A) (A) (A) (A) (A) (A) (A) (A) (A) (A)
                 (A) (A) (A) (A) (A) (A) (A) (A) (A) (A) (A) (A)
                 (A) (A) (A) (A) (A) (A) (A) (A) (A) (A) (A) (A)
                 (A) (A) (A) (A) (A) (A) (A) (A) (A) (A) (A) (A)
                 (A) (A) (A) (A) (A) (A) (A) (A) (A) (A) (A) (A)
                 (A) (A) (A) (A) (A) (A) (A) (A) (A) (A) (A) (A)
                 (A) (A) (A) (A) (A) (A) (A) (A) (A) (A) (A) (A)
                 (A) (A) (A) (A) (A) (A) (A) (A) (A) (A) (A) (A)
                 (A) (A) (A) (A) (A) (A) (A) (A) (A) (A) (A) (A)
                 (A) (A) (A) (A) (A) (A) (A) (A) (A) (A) (A) (A)
                 (A) (A) (A) (A) (A) (A) (A) (A) (A) (A) (A) (A)
                 (A) (A) (A) (A) (A) (A) (A) (A) (A) (A) (A) (A)
                 (A) (A) (A) (A) (A) (A) (A) (A) (A) (A) (A) (A)
                 (A) (A) (A) (A) (A) (A) (A) (A) (A) (A) (A) (A)
                 (A) (A) (A) (A) (A) (A) (A) (A) (A) (A) (A) (A)
                 (A) (A) (A) (A) (A) (A) (A) (A) (A) (A) (A) (A)
                 (A) (A) (A) (A) (A) (A) (A) (A) (A) (A) (A) (A)
                 (A) (A) (A) (A) (A) (A) (A) (A) (A) (A) (A) (A)
                 (A) (A) (A) (A) (A) (A) (A) (A) (A) (A) (A) (A)
                 (A) (A) (A) (A) (A) (A) (A) (A) (A) (A) (A) (A)
                 (A) (A) (A) (A) (A) (A) (A) (A) (A) (A) (A) (A)
                 (A) (A) (A) (A) (A) (A) (A) (A) (A) (A) (A) (A)
                 (A) (A) (A) (A) (A) (A) (A) (A) (A) (A) (A) (A)
                 (A) (A) (A) (A) (A) (A) (A) (A) (A) (A) (A) (A)
                 (A) (A) (A) (A) (A) (A) (A) (A) (A) (A) (A) (A)
                 (A) (A) (A) (A) (A) (A) (A) (A) (A) (A) (A) (A)
                 (A) (A) (A) (A) (A) (A) (A) (A) (A) (A) (A) (A)
                 (A) (A) (A) (A) (A) (A) (A) (A) (A) (A) (A) (A)
                 (A) (A) (A) (A) (A) (A) (A) (A) (A) (A) (A) (A)
                 (A) (A) (A)
 The electronic state is 1-A.
 Alpha  occ. eigenvalues --  -19.29586 -19.26983 -19.26482 -19.25841 -19.24555
 Alpha  occ. eigenvalues --  -19.23433 -10.36392 -10.36046 -10.35744 -10.35229
 Alpha  occ. eigenvalues --  -10.34913 -10.33123  -1.17414  -1.15446  -1.13678
 Alpha  occ. eigenvalues --   -1.12257  -1.11143  -1.09736  -0.89952  -0.85445
 Alpha  occ. eigenvalues --   -0.80695  -0.76406  -0.72072  -0.68837  -0.66544
 Alpha  occ. eigenvalues --   -0.64440  -0.61527  -0.60012  -0.57668  -0.56725
 Alpha  occ. eigenvalues --   -0.56395  -0.55929  -0.54658  -0.53507  -0.51673
 Alpha  occ. eigenvalues --   -0.50993  -0.50320  -0.49139  -0.46612  -0.44904
 Alpha  occ. eigenvalues --   -0.43208  -0.42528  -0.41286  -0.40574  -0.40197
 Alpha  occ. eigenvalues --   -0.38103  -0.36723  -0.36273  -0.34955
 Alpha virt. eigenvalues --    0.07260   0.10635   0.11226   0.12640   0.13619
 Alpha virt. eigenvalues --    0.14154   0.14906   0.16020   0.17428   0.17750
 Alpha virt. eigenvalues --    0.18802   0.19385   0.19986   0.20717   0.21449
 Alpha virt. eigenvalues --    0.22409   0.23508   0.24549   0.25919   0.26882
 Alpha virt. eigenvalues --    0.28272   0.30229   0.31005   0.32305   0.33939
 Alpha virt. eigenvalues --    0.34063   0.35425   0.36013   0.36488   0.37523
 Alpha virt. eigenvalues --    0.38019   0.38990   0.39551   0.39858   0.40323
 Alpha virt. eigenvalues --    0.40529   0.41067   0.43141   0.43533   0.44015
 Alpha virt. eigenvalues --    0.45176   0.45387   0.46164   0.46392   0.46906
 Alpha virt. eigenvalues --    0.48181   0.48513   0.48869   0.49524   0.50752
 Alpha virt. eigenvalues --    0.51418   0.53264   0.53492   0.54303   0.54837
 Alpha virt. eigenvalues --    0.56337   0.56618   0.57843   0.58586   0.58832
 Alpha virt. eigenvalues --    0.59145   0.60033   0.60897   0.61836   0.63484
 Alpha virt. eigenvalues --    0.65434   0.66444   0.67764   0.68312   0.69656
 Alpha virt. eigenvalues --    0.70304   0.71334   0.72126   0.72904   0.74445
 Alpha virt. eigenvalues --    0.76155   0.76889   0.77160   0.78687   0.79375
 Alpha virt. eigenvalues --    0.80205   0.82406   0.83333   0.84159   0.86293
 Alpha virt. eigenvalues --    0.86619   0.87747   0.88225   0.89596   0.90734
 Alpha virt. eigenvalues --    0.91991   0.93491   0.93640   0.95727   0.96020
 Alpha virt. eigenvalues --    0.96689   0.99791   1.00935   1.01543   1.02102
 Alpha virt. eigenvalues --    1.02714   1.04544   1.05799   1.06788   1.08436
 Alpha virt. eigenvalues --    1.08884   1.09424   1.10963   1.11732   1.12707
 Alpha virt. eigenvalues --    1.12902   1.13884   1.15106   1.16179   1.16777
 Alpha virt. eigenvalues --    1.18091   1.20202   1.20312   1.21792   1.23445
 Alpha virt. eigenvalues --    1.24987   1.26120   1.27055   1.28932   1.30042
 Alpha virt. eigenvalues --    1.30143   1.31266   1.31890   1.34209   1.35660
 Alpha virt. eigenvalues --    1.36493   1.37088   1.37800   1.39011   1.41377
 Alpha virt. eigenvalues --    1.41879   1.42734   1.44109   1.45940   1.46543
 Alpha virt. eigenvalues --    1.46896   1.48381   1.49888   1.50571   1.51115
 Alpha virt. eigenvalues --    1.53367   1.55165   1.55691   1.56604   1.57535
 Alpha virt. eigenvalues --    1.59920   1.60201   1.62301   1.64265   1.65485
 Alpha virt. eigenvalues --    1.67187   1.68509   1.70473   1.71619   1.74531
 Alpha virt. eigenvalues --    1.77164   1.80196   1.80986   1.82504   1.84392
 Alpha virt. eigenvalues --    1.86545   1.87325   1.89138   1.90400   1.91863
 Alpha virt. eigenvalues --    1.92801   1.96544   1.96965   1.99663   2.00282
 Alpha virt. eigenvalues --    2.01190   2.01824   2.04170   2.05446   2.05798
 Alpha virt. eigenvalues --    2.06490   2.07142   2.07884   2.09887   2.11997
 Alpha virt. eigenvalues --    2.12989   2.14554   2.15065   2.17421   2.17574
 Alpha virt. eigenvalues --    2.19503   2.19694   2.23867   2.25194   2.26650
 Alpha virt. eigenvalues --    2.28096   2.29894   2.31045   2.31571   2.32383
 Alpha virt. eigenvalues --    2.34131   2.37655   2.38356   2.39325   2.40685
 Alpha virt. eigenvalues --    2.43147   2.44449   2.48836   2.50235   2.53787
 Alpha virt. eigenvalues --    2.56685   2.58813   2.59516   2.62131   2.63154
 Alpha virt. eigenvalues --    2.64198   2.66984   2.67742   2.68130   2.70375
 Alpha virt. eigenvalues --    2.70850   2.73489   2.75241   2.75745   2.77451
 Alpha virt. eigenvalues --    2.77684   2.80721   2.80936   2.82435   2.83999
 Alpha virt. eigenvalues --    2.85219   2.86395   2.88351   2.88918   2.91805
 Alpha virt. eigenvalues --    2.93330   2.94427   2.96579   2.98074   2.99444
 Alpha virt. eigenvalues --    3.00324   3.01078   3.02700   3.03440   3.03887
 Alpha virt. eigenvalues --    3.05435   3.06503   3.09003   3.09407   3.11043
 Alpha virt. eigenvalues --    3.12462   3.12822   3.14567   3.15202   3.16889
 Alpha virt. eigenvalues --    3.17790   3.18538   3.19721   3.20672   3.21407
 Alpha virt. eigenvalues --    3.22075   3.23521   3.24476   3.25861   3.26522
 Alpha virt. eigenvalues --    3.28173   3.29282   3.30887   3.31567   3.32513
 Alpha virt. eigenvalues --    3.32610   3.33233   3.33861   3.35126   3.36229
 Alpha virt. eigenvalues --    3.38256   3.38347   3.40045   3.41765   3.42297
 Alpha virt. eigenvalues --    3.42949   3.43696   3.44665   3.45837   3.47314
 Alpha virt. eigenvalues --    3.48141   3.48852   3.50523   3.52815   3.53314
 Alpha virt. eigenvalues --    3.56204   3.56958   3.58585   3.60369   3.61028
 Alpha virt. eigenvalues --    3.61754   3.63146   3.64264   3.64578   3.65756
 Alpha virt. eigenvalues --    3.67188   3.67956   3.68476   3.69115   3.71744
 Alpha virt. eigenvalues --    3.72300   3.73649   3.74789   3.75682   3.76343
 Alpha virt. eigenvalues --    3.77483   3.79150   3.80504   3.82107   3.83356
 Alpha virt. eigenvalues --    3.84105   3.85317   3.85938   3.86661   3.87796
 Alpha virt. eigenvalues --    3.89193   3.91673   3.91886   3.94562   3.96472
 Alpha virt. eigenvalues --    3.96851   3.97623   3.98440   3.99954   4.02042
 Alpha virt. eigenvalues --    4.02658   4.03037   4.03755   4.04680   4.05359
 Alpha virt. eigenvalues --    4.07470   4.07627   4.08938   4.10742   4.11858
 Alpha virt. eigenvalues --    4.12827   4.14232   4.14483   4.15402   4.17374
 Alpha virt. eigenvalues --    4.18475   4.19640   4.20276   4.21489   4.22547
 Alpha virt. eigenvalues --    4.24295   4.24738   4.25722   4.26809   4.28376
 Alpha virt. eigenvalues --    4.30020   4.30305   4.31513   4.31683   4.33242
 Alpha virt. eigenvalues --    4.35067   4.36187   4.37822   4.39672   4.40597
 Alpha virt. eigenvalues --    4.42046   4.43621   4.45077   4.45418   4.47833
 Alpha virt. eigenvalues --    4.49141   4.50345   4.53205   4.54452   4.54721
 Alpha virt. eigenvalues --    4.56032   4.57472   4.58262   4.60331   4.61197
 Alpha virt. eigenvalues --    4.62726   4.64098   4.66866   4.69165   4.70919
 Alpha virt. eigenvalues --    4.71882   4.73337   4.76363   4.78214   4.79252
 Alpha virt. eigenvalues --    4.81625   4.84221   4.85059   4.86950   4.88622
 Alpha virt. eigenvalues --    4.91600   4.92682   4.94192   4.95569   4.96808
 Alpha virt. eigenvalues --    4.98173   5.00378   5.02099   5.02856   5.04682
 Alpha virt. eigenvalues --    5.05115   5.06241   5.08974   5.10992   5.13031
 Alpha virt. eigenvalues --    5.14843   5.16057   5.17333   5.19091   5.21276
 Alpha virt. eigenvalues --    5.23112   5.24501   5.25859   5.27278   5.29060
 Alpha virt. eigenvalues --    5.31260   5.35610   5.37324   5.39449   5.41543
 Alpha virt. eigenvalues --    5.44458   5.47502   5.50472   5.55123   5.58128
 Alpha virt. eigenvalues --    5.60243   5.60469   5.63188   5.63969   5.64413
 Alpha virt. eigenvalues --    5.67683   5.68081   5.69518   5.70841   5.72008
 Alpha virt. eigenvalues --    5.73916   5.76607   5.77069   5.79576   5.80980
 Alpha virt. eigenvalues --    5.84816   5.87775   5.89249   5.91180   5.93856
 Alpha virt. eigenvalues --    5.98631   6.01004   6.04130   6.08147   6.12814
 Alpha virt. eigenvalues --    6.13681   6.17153   6.19016   6.19880   6.48956
 Alpha virt. eigenvalues --    6.52906   6.54859   6.55271   6.56935   6.58723
 Alpha virt. eigenvalues --    6.68350   6.71878   6.74380   6.74702   6.75327
 Alpha virt. eigenvalues --    6.77386   6.78963   6.79321   6.80810   6.82063
 Alpha virt. eigenvalues --    6.82701   6.86184   6.87263   6.87825   6.88034
 Alpha virt. eigenvalues --    6.92147   6.96027   6.96845   6.99936   7.02111
 Alpha virt. eigenvalues --    7.02515   7.03721   7.04939   7.08062   7.15762
 Alpha virt. eigenvalues --    7.18719   7.21387   7.22624   7.23325   7.28330
 Alpha virt. eigenvalues --    7.42733   7.43517   7.45423   7.46821   7.49975
 Alpha virt. eigenvalues --    7.51871   7.54715   7.55322   7.59832   7.63393
 Alpha virt. eigenvalues --    7.66766   7.76818  23.13364  23.13851  23.18865
 Alpha virt. eigenvalues --   23.22462  23.41627  23.44870  44.13205  44.15135
 Alpha virt. eigenvalues --   44.23145  44.28055  44.30950  44.39911
          Condensed to atoms (all electrons):
               1          2          3          4          5          6
     1  C    5.233492   0.071381   0.244632  -0.028437  -0.011415   0.365711
     2  C    0.071381   5.140863  -0.019795   0.263862   0.399201   0.023346
     3  C    0.244632  -0.019795   4.875060   0.020054  -0.014005  -0.033276
     4  C   -0.028437   0.263862   0.020054   4.820063  -0.030972  -0.020277
     5  H   -0.011415   0.399201  -0.014005  -0.030972   0.551190   0.005187
     6  H    0.365711   0.023346  -0.033276  -0.020277   0.005187   0.560384
     7  C   -0.041511   0.033599   0.326674  -0.008129   0.001119   0.007373
     8  H   -0.012973  -0.026192   0.400796   0.012176   0.002016  -0.001834
     9  C    0.046574  -0.027283  -0.016082   0.289248   0.005997  -0.001460
    10  H   -0.019807  -0.005259   0.003964   0.401371  -0.005616   0.000920
    11  H   -0.004821   0.003824  -0.044024  -0.004659  -0.007121  -0.000870
    12  H    0.008795  -0.002552  -0.026199   0.001043   0.000172  -0.000220
    13  H    0.005663  -0.012415  -0.003494  -0.029468  -0.000718  -0.011850
    14  H   -0.002182   0.007849   0.000612  -0.017171  -0.000144   0.000905
    15  O    0.005999  -0.009839  -0.037848   0.000800   0.000833  -0.000796
    16  H   -0.001448  -0.000114  -0.007870   0.000154   0.001291   0.001100
    17  O   -0.038597   0.012843   0.267749  -0.001333   0.000216   0.013397
    18  H    0.001694  -0.001191  -0.053999  -0.000029  -0.000041  -0.002807
    19  O    0.191888  -0.002992  -0.058204   0.009598   0.006871  -0.021120
    20  H   -0.012390  -0.030825   0.006679   0.003948  -0.001898  -0.005087
    21  O   -0.006865   0.186811   0.007560  -0.031130  -0.027040  -0.004069
    22  H    0.016073  -0.060562   0.000938   0.002359   0.004975   0.000024
    23  O    0.008796  -0.031904  -0.000946   0.274785   0.009706   0.000100
    24  H   -0.000579  -0.013628  -0.000148  -0.047529  -0.003285   0.000011
    25  O   -0.014693  -0.001708   0.002224  -0.044916  -0.000491   0.012732
    26  H    0.001595  -0.001193  -0.000123   0.003643   0.000079  -0.000181
               7          8          9         10         11         12
     1  C   -0.041511  -0.012973   0.046574  -0.019807  -0.004821   0.008795
     2  C    0.033599  -0.026192  -0.027283  -0.005259   0.003824  -0.002552
     3  C    0.326674   0.400796  -0.016082   0.003964  -0.044024  -0.026199
     4  C   -0.008129   0.012176   0.289248   0.401371  -0.004659   0.001043
     5  H    0.001119   0.002016   0.005997  -0.005616  -0.007121   0.000172
     6  H    0.007373  -0.001834  -0.001460   0.000920  -0.000870  -0.000220
     7  C    4.690978  -0.030654   0.000877   0.000583   0.409656   0.413192
     8  H   -0.030654   0.593342  -0.000587  -0.005876   0.005894  -0.005154
     9  C    0.000877  -0.000587   4.817208  -0.037611   0.000454  -0.000142
    10  H    0.000583  -0.005876  -0.037611   0.600468   0.000853  -0.000071
    11  H    0.409656   0.005894   0.000454   0.000853   0.653618  -0.036551
    12  H    0.413192  -0.005154  -0.000142  -0.000071  -0.036551   0.587898
    13  H    0.000450   0.001680   0.428507   0.001062  -0.000111   0.000008
    14  H   -0.000036   0.000012   0.416990  -0.002220   0.000002  -0.000000
    15  O    0.266619   0.004813  -0.000041  -0.000053  -0.042253  -0.036141
    16  H   -0.029610  -0.000289   0.000004  -0.000004  -0.007802   0.007313
    17  O   -0.038759  -0.022071  -0.000225   0.000027   0.005577   0.002286
    18  H   -0.018551   0.009372   0.000091  -0.000031   0.002783  -0.003119
    19  O    0.010082   0.002360  -0.001077  -0.000048   0.000085  -0.000504
    20  H    0.000476  -0.000356  -0.000652  -0.000047   0.000043   0.000093
    21  O   -0.000355   0.000243  -0.006629   0.003859   0.000186   0.000015
    22  H   -0.000042   0.000045  -0.007452   0.000109   0.000003   0.000003
    23  O   -0.000059  -0.000051  -0.043913  -0.024342   0.000084  -0.000010
    24  H    0.000018  -0.000062  -0.003108   0.009403  -0.000011  -0.000001
    25  O   -0.000087  -0.000184   0.230426   0.003033   0.000004   0.000000
    26  H    0.000004   0.000011  -0.014093  -0.000565   0.000000  -0.000000
              13         14         15         16         17         18
     1  C    0.005663  -0.002182   0.005999  -0.001448  -0.038597   0.001694
     2  C   -0.012415   0.007849  -0.009839  -0.000114   0.012843  -0.001191
     3  C   -0.003494   0.000612  -0.037848  -0.007870   0.267749  -0.053999
     4  C   -0.029468  -0.017171   0.000800   0.000154  -0.001333  -0.000029
     5  H   -0.000718  -0.000144   0.000833   0.001291   0.000216  -0.000041
     6  H   -0.011850   0.000905  -0.000796   0.001100   0.013397  -0.002807
     7  C    0.000450  -0.000036   0.266619  -0.029610  -0.038759  -0.018551
     8  H    0.001680   0.000012   0.004813  -0.000289  -0.022071   0.009372
     9  C    0.428507   0.416990  -0.000041   0.000004  -0.000225   0.000091
    10  H    0.001062  -0.002220  -0.000053  -0.000004   0.000027  -0.000031
    11  H   -0.000111   0.000002  -0.042253  -0.007802   0.005577   0.002783
    12  H    0.000008  -0.000000  -0.036141   0.007313   0.002286  -0.003119
    13  H    0.595332  -0.025645  -0.000002  -0.000003   0.000764  -0.000049
    14  H   -0.025645   0.542513   0.000000   0.000000  -0.000001   0.000001
    15  O   -0.000002   0.000000   7.928513   0.332941  -0.011965   0.031776
    16  H   -0.000003   0.000000   0.332941   0.449565   0.000496  -0.002084
    17  O    0.000764  -0.000001  -0.011965   0.000496   7.855519   0.332571
    18  H   -0.000049   0.000001   0.031776  -0.002084   0.332571   0.500422
    19  O    0.000091   0.000015  -0.033760   0.042336  -0.002177   0.004898
    20  H    0.000014   0.000006   0.001096  -0.002029  -0.000493  -0.000114
    21  O    0.000623  -0.000658  -0.000010  -0.000121  -0.000156   0.000007
    22  H    0.000617   0.000564   0.000006  -0.000010  -0.000027  -0.000002
    23  O    0.005368   0.004095   0.000000   0.000002   0.000002   0.000000
    24  H    0.000458  -0.002012  -0.000000   0.000002   0.000002  -0.000000
    25  O   -0.049593  -0.031627   0.000000   0.000001  -0.000003   0.000001
    26  H   -0.004471  -0.009787  -0.000000  -0.000000  -0.000000   0.000000
              19         20         21         22         23         24
     1  C    0.191888  -0.012390  -0.006865   0.016073   0.008796  -0.000579
     2  C   -0.002992  -0.030825   0.186811  -0.060562  -0.031904  -0.013628
     3  C   -0.058204   0.006679   0.007560   0.000938  -0.000946  -0.000148
     4  C    0.009598   0.003948  -0.031130   0.002359   0.274785  -0.047529
     5  H    0.006871  -0.001898  -0.027040   0.004975   0.009706  -0.003285
     6  H   -0.021120  -0.005087  -0.004069   0.000024   0.000100   0.000011
     7  C    0.010082   0.000476  -0.000355  -0.000042  -0.000059   0.000018
     8  H    0.002360  -0.000356   0.000243   0.000045  -0.000051  -0.000062
     9  C   -0.001077  -0.000652  -0.006629  -0.007452  -0.043913  -0.003108
    10  H   -0.000048  -0.000047   0.003859   0.000109  -0.024342   0.009403
    11  H    0.000085   0.000043   0.000186   0.000003   0.000084  -0.000011
    12  H   -0.000504   0.000093   0.000015   0.000003  -0.000010  -0.000001
    13  H    0.000091   0.000014   0.000623   0.000617   0.005368   0.000458
    14  H    0.000015   0.000006  -0.000658   0.000564   0.004095  -0.002012
    15  O   -0.033760   0.001096  -0.000010   0.000006   0.000000  -0.000000
    16  H    0.042336  -0.002029  -0.000121  -0.000010   0.000002   0.000002
    17  O   -0.002177  -0.000493  -0.000156  -0.000027   0.000002   0.000002
    18  H    0.004898  -0.000114   0.000007  -0.000002   0.000000  -0.000000
    19  O    7.941396   0.319835  -0.021358  -0.000203  -0.000159  -0.000020
    20  H    0.319835   0.481854   0.032140   0.000116  -0.000061  -0.000099
    21  O   -0.021358   0.032140   7.976000   0.335576  -0.009369   0.025666
    22  H   -0.000203   0.000116   0.335576   0.445381   0.000369  -0.000547
    23  O   -0.000159  -0.000061  -0.009369   0.000369   7.848893   0.326701
    24  H   -0.000020  -0.000099   0.025666  -0.000547   0.326701   0.506728
    25  O   -0.000010   0.000084  -0.026575   0.045203  -0.000341   0.007038
    26  H   -0.000008  -0.000008   0.001570  -0.002551  -0.000609  -0.000273
              25         26
     1  C   -0.014693   0.001595
     2  C   -0.001708  -0.001193
     3  C    0.002224  -0.000123
     4  C   -0.044916   0.003643
     5  H   -0.000491   0.000079
     6  H    0.012732  -0.000181
     7  C   -0.000087   0.000004
     8  H   -0.000184   0.000011
     9  C    0.230426  -0.014093
    10  H    0.003033  -0.000565
    11  H    0.000004   0.000000
    12  H    0.000000  -0.000000
    13  H   -0.049593  -0.004471
    14  H   -0.031627  -0.009787
    15  O    0.000000  -0.000000
    16  H    0.000001  -0.000000
    17  O   -0.000003  -0.000000
    18  H    0.000001   0.000000
    19  O   -0.000010  -0.000008
    20  H    0.000084  -0.000008
    21  O   -0.026575   0.001570
    22  H    0.045203  -0.002551
    23  O   -0.000341  -0.000609
    24  H    0.007038  -0.000273
    25  O    7.899538   0.308209
    26  H    0.308209   0.543326
 Mulliken charges:
               1
     1  C   -0.006575
     2  C    0.103875
     3  C    0.159072
     4  C    0.160945
     5  H    0.113892
     6  H    0.112656
     7  C    0.006093
     8  H    0.073524
     9  C   -0.076020
    10  H    0.075899
    11  H    0.065159
    12  H    0.089845
    13  H    0.097181
    14  H    0.117919
    15  O   -0.400689
    16  H    0.216182
    17  O   -0.375639
    18  H    0.198402
    19  O   -0.387813
    20  H    0.207678
    21  O   -0.435918
    22  H    0.219034
    23  O   -0.367139
    24  H    0.195275
    25  O   -0.338263
    26  H    0.175425
 Sum of Mulliken charges =  -0.00000
 Mulliken charges with hydrogens summed into heavy atoms:
               1
     1  C    0.106081
     2  C    0.217767
     3  C    0.232596
     4  C    0.236844
     7  C    0.161098
     9  C    0.139081
    15  O   -0.184507
    17  O   -0.177237
    19  O   -0.180136
    21  O   -0.216885
    23  O   -0.171864
    25  O   -0.162838
 Electronic spatial extent (au):  <R**2>=           2400.4782
 Charge=             -0.0000 electrons
 Dipole moment (field-independent basis, Debye):
    X=             -4.1550    Y=              1.8763    Z=             -1.0699  Tot=              4.6829
 Quadrupole moment (field-independent basis, Debye-Ang):
   XX=            -78.5261   YY=            -73.2966   ZZ=            -71.9453
   XY=             -7.5030   XZ=              7.4825   YZ=              2.3420
 Traceless Quadrupole moment (field-independent basis, Debye-Ang):
   XX=             -3.9368   YY=              1.2928   ZZ=              2.6440
   XY=             -7.5030   XZ=              7.4825   YZ=              2.3420
 Octapole moment (field-independent basis, Debye-Ang**2):
  XXX=            -71.7298  YYY=            -10.0828  ZZZ=            -20.2589  XYY=            -22.1451
  XXY=             23.3220  XXZ=            -36.1241  XZZ=              5.8529  YZZ=              2.7550
  YYZ=             -2.4792  XYZ=             11.9452
 Hexadecapole moment (field-independent basis, Debye-Ang**3):
 XXXX=          -1981.1353 YYYY=           -505.8616 ZZZZ=           -450.9733 XXXY=            -12.3284
 XXXZ=             47.2965 YYYX=            -47.4625 YYYZ=              5.8104 ZZZX=             45.3435
 ZZZY=              9.7286 XXYY=           -386.3541 XXZZ=           -387.0518 YYZZ=           -143.2366
 XXYZ=             -8.6486 YYXZ=              7.7247 ZZXY=            -14.9312
 N-N= 8.380829706593D+02 E-N=-3.292963489741D+03  KE= 6.850651597108D+02
   1 Symmetry operations used in ECPInt.
 ECPInt:  NShTT=   23436 NPrTT=   62434 LenC2=   22062 LenP2D=   46006.
 LDataN:  DoStor=T MaxTD1= 7 Len=  274
 Calling FoFJK, ICntrl=      2127 FMM=F ISym2X=0 I1Cent= 0 IOpClX= 0 NMat=1 NMatS=1 NMatT=0.
 ***** Axes restored to original set *****
 -------------------------------------------------------------------
 Center     Atomic                   Forces (Hartrees/Bohr)
 Number     Number              X              Y              Z
 -------------------------------------------------------------------
      1        6           0.004549892    0.008829277   -0.005787966
      2        6          -0.003758414   -0.011732266   -0.010931082
      3        6          -0.022047439    0.001900125   -0.010678252
      4        6           0.021015133   -0.007427924   -0.011796086
      5        1          -0.002161683   -0.003368639    0.003454974
      6        1           0.002927426   -0.000701616    0.008608850
      7        6          -0.002452294    0.004963669   -0.012987512
      8        1          -0.000116982   -0.000312701   -0.002875007
      9        6          -0.006475866    0.001297110    0.000269496
     10        1           0.000096062   -0.001924101   -0.002860828
     11        1           0.003067199   -0.002879604    0.002702984
     12        1           0.001552102   -0.003142193   -0.002547176
     13        1          -0.000508892    0.002524257    0.002996458
     14        1          -0.000930280    0.007363989    0.002403060
     15        8           0.002860583   -0.011159433   -0.002031107
     16        1          -0.001447007    0.009497570    0.014139508
     17        8           0.006588648    0.010723756   -0.008429196
     18        1           0.006174086   -0.010079535    0.013121216
     19        8           0.016112907   -0.012612817   -0.004474460
     20        1          -0.011010405    0.007310478    0.013774190
     21        8          -0.001775965   -0.008381417    0.012771132
     22        1          -0.001111005    0.017543918   -0.003633954
     23        8          -0.010267384   -0.001492239   -0.011337195
     24        1          -0.002132192    0.005397481    0.016500794
     25        8          -0.001058608   -0.022113813    0.008237817
     26        1           0.002310380    0.019976667   -0.008610657
 -------------------------------------------------------------------
 Cartesian Forces:  Max     0.022113813 RMS     0.008806128

 GradGradGradGradGradGradGradGradGradGradGradGradGradGradGradGradGradGrad
 Berny optimization.
 FormGI is forming the generalized inverse of G from B-inverse, IUseBI=4.
 Internal  Forces:  Max     0.021144012 RMS     0.005495294
 Search for a local minimum.
 Step number   1 out of a maximum of  140
 All quantities printed in internal units (Hartrees-Bohrs-Radians)
 Mixed Optimization -- RFO/linear search
 Second derivative matrix not updated -- first step.
 ITU=  0
     Eigenvalues ---    0.00230   0.00230   0.00257   0.00280   0.00285
     Eigenvalues ---    0.01044   0.01070   0.01202   0.01205   0.01282
     Eigenvalues ---    0.01314   0.03704   0.03802   0.03878   0.03904
     Eigenvalues ---    0.04615   0.04664   0.04779   0.04790   0.04888
     Eigenvalues ---    0.05040   0.05615   0.05621   0.07718   0.07756
     Eigenvalues ---    0.07796   0.07910   0.11497   0.11613   0.13779
     Eigenvalues ---    0.13857   0.16000   0.16000   0.16000   0.16000
     Eigenvalues ---    0.16000   0.16000   0.16906   0.16976   0.17114
     Eigenvalues ---    0.17305   0.19508   0.19510   0.19646   0.19696
     Eigenvalues ---    0.22032   0.22055   0.28201   0.28320   0.28652
     Eigenvalues ---    0.28808   0.28846   0.34102   0.34145   0.34248
     Eigenvalues ---    0.34291   0.34331   0.34367   0.34412   0.34414
     Eigenvalues ---    0.38376   0.38642   0.39995   0.40029   0.40845
     Eigenvalues ---    0.41199   0.50354   0.50796   0.50949   0.51479
     Eigenvalues ---    0.51699   0.52038
 RFO step:  Lambda=-1.82511579D-02 EMin= 2.30000000D-03
 Linear search not attempted -- first point.
 Iteration  1 RMS(Cart)=  0.11427059 RMS(Int)=  0.00524867
 Iteration  2 RMS(Cart)=  0.00794602 RMS(Int)=  0.00063449
 Iteration  3 RMS(Cart)=  0.00001444 RMS(Int)=  0.00063435
 Iteration  4 RMS(Cart)=  0.00000001 RMS(Int)=  0.00063435
 Variable       Old X    -DE/DX   Delta X   Delta X   Delta X     New X
                                 (Linear)    (Quad)   (Total)
    R1        2.90734  -0.00675   0.00000  -0.02215  -0.02215   2.88520
    R2        2.91444  -0.00564   0.00000  -0.01870  -0.01870   2.89574
    R3        2.07158  -0.00154   0.00000  -0.00429  -0.00429   2.06729
    R4        2.73442  -0.01174   0.00000  -0.02901  -0.02901   2.70541
    R5        2.91700  -0.00408   0.00000  -0.01358  -0.01358   2.90342
    R6        2.07086  -0.00391   0.00000  -0.01086  -0.01086   2.06000
    R7        2.73821  -0.01230   0.00000  -0.03059  -0.03059   2.70762
    R8        2.90404  -0.00241   0.00000  -0.00787  -0.00787   2.89618
    R9        2.06641  -0.00227   0.00000  -0.00627  -0.00627   2.06014
   R10        2.71514  -0.01265   0.00000  -0.03023  -0.03023   2.68491
   R11        2.90325  -0.00666   0.00000  -0.02173  -0.02173   2.88152
   R12        2.06775  -0.00338   0.00000  -0.00934  -0.00934   2.05841
   R13        2.71560  -0.01280   0.00000  -0.03061  -0.03061   2.68499
   R14        2.06638   0.00207   0.00000   0.00571   0.00571   2.07209
   R15        2.06841  -0.00383   0.00000  -0.01060  -0.01060   2.05781
   R16        2.69956  -0.01045   0.00000  -0.02428  -0.02428   2.67527
   R17        2.06715   0.00120   0.00000   0.00330   0.00330   2.07045
   R18        2.06913  -0.00274   0.00000  -0.00759  -0.00759   2.06154
   R19        2.70422   0.00132   0.00000   0.00309   0.00309   2.70731
   R20        1.85771  -0.01682   0.00000  -0.03197  -0.03197   1.82574
   R21        1.85102  -0.01755   0.00000  -0.03293  -0.03293   1.81809
   R22        1.85619  -0.01905   0.00000  -0.03610  -0.03610   1.82009
   R23        1.86210  -0.01767   0.00000  -0.03386  -0.03386   1.82824
   R24        1.84889  -0.01740   0.00000  -0.03251  -0.03251   1.81638
   R25        1.84563  -0.02114   0.00000  -0.03925  -0.03925   1.80637
    A1        1.99950   0.00309   0.00000   0.00870   0.00847   2.00797
    A2        1.92342  -0.00122   0.00000  -0.01880  -0.01916   1.90427
    A3        1.87824  -0.00204   0.00000  -0.00091  -0.00097   1.87727
    A4        1.91337  -0.00357   0.00000  -0.03657  -0.03683   1.87654
    A5        1.91131   0.00042   0.00000   0.01029   0.01032   1.92162
    A6        1.83001   0.00343   0.00000   0.04155   0.04182   1.87183
    A7        2.01367  -0.00181   0.00000  -0.00233  -0.00324   2.01044
    A8        1.92190   0.00113   0.00000  -0.01036  -0.01079   1.91111
    A9        1.87289  -0.00067   0.00000   0.01369   0.01312   1.88600
   A10        1.90827  -0.00251   0.00000  -0.03449  -0.03455   1.87372
   A11        1.91711   0.00526   0.00000   0.04323   0.04310   1.96021
   A12        1.81981  -0.00124   0.00000  -0.00878  -0.00821   1.81159
   A13        1.99063   0.00398   0.00000   0.03272   0.03063   2.02127
   A14        1.92573  -0.00465   0.00000  -0.05634  -0.05578   1.86995
   A15        1.88598   0.00269   0.00000   0.04204   0.03995   1.92592
   A16        1.91540  -0.00158   0.00000  -0.03056  -0.03017   1.88523
   A17        1.88556   0.00048   0.00000   0.03318   0.03079   1.91635
   A18        1.85493  -0.00105   0.00000  -0.02125  -0.02015   1.83477
   A19        1.99696   0.00235   0.00000   0.02466   0.02227   2.01923
   A20        1.93168  -0.00149   0.00000  -0.03696  -0.03693   1.89475
   A21        1.88219  -0.00040   0.00000   0.02801   0.02545   1.90764
   A22        1.90483  -0.00404   0.00000  -0.05110  -0.05067   1.85416
   A23        1.88625   0.00494   0.00000   0.05647   0.05479   1.94104
   A24        1.85601  -0.00137   0.00000  -0.02046  -0.01913   1.83688
   A25        1.95281  -0.00402   0.00000  -0.01455  -0.01596   1.93684
   A26        1.91808  -0.00493   0.00000  -0.04175  -0.04188   1.87620
   A27        1.93695   0.00872   0.00000   0.04179   0.04153   1.97848
   A28        1.89199   0.00172   0.00000  -0.00545  -0.00618   1.88581
   A29        1.90063   0.00130   0.00000   0.03807   0.03763   1.93826
   A30        1.86052  -0.00283   0.00000  -0.01880  -0.01810   1.84242
   A31        1.93830  -0.00166   0.00000  -0.01454  -0.01497   1.92333
   A32        1.92541  -0.00622   0.00000  -0.04984  -0.05018   1.87523
   A33        1.92403  -0.00087   0.00000   0.00039   0.00054   1.92457
   A34        1.90640   0.00126   0.00000  -0.00159  -0.00313   1.90328
   A35        1.88589   0.00319   0.00000   0.03401   0.03390   1.91978
   A36        1.88250   0.00469   0.00000   0.03472   0.03455   1.91705
   A37        1.86181  -0.00123   0.00000  -0.00691  -0.00691   1.85489
   A38        1.83884   0.00125   0.00000   0.00703   0.00703   1.84587
   A39        1.82741   0.00148   0.00000   0.00831   0.00831   1.83572
   A40        1.85402   0.00249   0.00000   0.01399   0.01399   1.86801
   A41        1.84965   0.00141   0.00000   0.00792   0.00792   1.85757
   A42        1.85583   0.01033   0.00000   0.05792   0.05792   1.91375
    D1        1.04881  -0.00414   0.00000  -0.04985  -0.04978   0.99902
    D2       -1.12121  -0.00030   0.00000   0.00694   0.00696  -1.11425
    D3       -3.09160   0.00095   0.00000   0.01510   0.01508  -3.07653
    D4       -1.11849  -0.00074   0.00000   0.00743   0.00745  -1.11104
    D5        2.99468   0.00311   0.00000   0.06422   0.06419   3.05887
    D6        1.02429   0.00436   0.00000   0.07239   0.07231   1.09659
    D7       -3.10453  -0.00306   0.00000  -0.03158  -0.03152  -3.13605
    D8        1.00864   0.00078   0.00000   0.02521   0.02522   1.03386
    D9       -0.96175   0.00203   0.00000   0.03338   0.03334  -0.92841
   D10        1.24625  -0.00268   0.00000  -0.06617  -0.06661   1.17964
   D11       -0.91891   0.00011   0.00000  -0.00565  -0.00589  -0.92480
   D12       -2.94006   0.00236   0.00000   0.02633   0.02684  -2.91322
   D13       -2.86431  -0.00485   0.00000  -0.11388  -0.11410  -2.97840
   D14        1.25372  -0.00206   0.00000  -0.05337  -0.05338   1.20034
   D15       -0.76743   0.00019   0.00000  -0.02138  -0.02065  -0.78808
   D16       -0.86549  -0.00247   0.00000  -0.07865  -0.07914  -0.94463
   D17       -3.03065   0.00032   0.00000  -0.01814  -0.01843  -3.04907
   D18        1.23138   0.00256   0.00000   0.01385   0.01431   1.24569
   D19        0.76324  -0.00167   0.00000  -0.02452  -0.02450   0.73874
   D20        2.94689   0.00108   0.00000  -0.00779  -0.00793   2.93896
   D21       -1.28452  -0.00102   0.00000  -0.02310  -0.02299  -1.30751
   D22        0.99977  -0.00372   0.00000  -0.07451  -0.07462   0.92515
   D23       -1.16082   0.00109   0.00000   0.00451   0.00441  -1.15641
   D24        3.09886   0.00377   0.00000   0.03291   0.03304   3.13190
   D25       -3.10630  -0.00563   0.00000  -0.11846  -0.11826   3.05863
   D26        1.01629  -0.00083   0.00000  -0.03944  -0.03922   0.97707
   D27       -1.00721   0.00185   0.00000  -0.01104  -0.01060  -1.01781
   D28       -1.11931  -0.00563   0.00000  -0.12442  -0.12476  -1.24406
   D29        3.00329  -0.00083   0.00000  -0.04540  -0.04572   2.95757
   D30        0.97978   0.00185   0.00000  -0.01700  -0.01710   0.96268
   D31       -1.40831   0.00160   0.00000   0.04482   0.04436  -1.36395
   D32        0.79311   0.00232   0.00000   0.07921   0.07957   0.87268
   D33        2.83625   0.00121   0.00000   0.05474   0.05484   2.89108
   D34       -1.00686   0.00125   0.00000   0.04956   0.05013  -0.95672
   D35       -3.10964   0.00507   0.00000   0.09435   0.09423  -3.01541
   D36        1.12003   0.00631   0.00000   0.11803   0.11847   1.23850
   D37        1.16384  -0.00320   0.00000  -0.02473  -0.02440   1.13945
   D38       -0.93894   0.00062   0.00000   0.02006   0.01970  -0.91924
   D39       -2.99245   0.00186   0.00000   0.04375   0.04394  -2.94852
   D40       -3.10396  -0.00503   0.00000  -0.04789  -0.04796   3.13126
   D41        1.07645  -0.00120   0.00000  -0.00310  -0.00387   1.07258
   D42       -0.97707   0.00003   0.00000   0.02059   0.02037  -0.95670
   D43       -1.33865  -0.00489   0.00000  -0.08309  -0.08367  -1.42232
   D44        0.82296   0.00189   0.00000   0.00265   0.00327   0.82623
   D45        2.87762  -0.00026   0.00000  -0.02740  -0.02744   2.85018
   D46       -1.25111   0.00120   0.00000   0.05489   0.05564  -1.19547
   D47        2.91575   0.00492   0.00000   0.10024   0.10036   3.01611
   D48        0.83852   0.00356   0.00000   0.08830   0.08867   0.92719
   D49        0.92379  -0.00225   0.00000  -0.01625  -0.01559   0.90820
   D50       -1.19254   0.00147   0.00000   0.02909   0.02914  -1.16340
   D51        3.01342   0.00011   0.00000   0.01715   0.01745   3.03087
   D52        2.93525  -0.00333   0.00000  -0.03687  -0.03729   2.89796
   D53        0.81892   0.00039   0.00000   0.00848   0.00744   0.82636
   D54       -1.25830  -0.00097   0.00000  -0.00346  -0.00425  -1.26256
   D55       -0.81797  -0.00180   0.00000  -0.00850  -0.00931  -0.82728
   D56        1.34944   0.00383   0.00000   0.07316   0.07393   1.42337
   D57       -2.89048   0.00087   0.00000   0.03117   0.03121  -2.85927
   D58       -0.81578  -0.00322   0.00000  -0.08035  -0.08115  -0.89692
   D59        1.34130  -0.00159   0.00000  -0.04470  -0.04376   1.29754
   D60       -2.90403  -0.00043   0.00000  -0.04184  -0.04199  -2.94602
   D61        2.94768  -0.00137   0.00000  -0.00864  -0.00881   2.93888
   D62       -1.21442  -0.00192   0.00000  -0.00474  -0.00512  -1.21954
   D63        0.84448   0.00382   0.00000   0.03043   0.03097   0.87545
         Item               Value     Threshold  Converged?
 Maximum Force            0.021144     0.000450     NO 
 RMS     Force            0.005495     0.000300     NO 
 Maximum Displacement     0.395723     0.001800     NO 
 RMS     Displacement     0.115520     0.001200     NO 
 Predicted change in Energy=-1.132258D-02
 GradGradGradGradGradGradGradGradGradGradGradGradGradGradGradGradGradGrad

                          Input orientation:                          
 ---------------------------------------------------------------------
 Center     Atomic      Atomic             Coordinates (Angstroms)
 Number     Number       Type             X           Y           Z
 ---------------------------------------------------------------------
      1          6           0        0.013541   -0.022781   -0.089493
      2          6           0        1.540306   -0.016953   -0.085937
      3          6           0       -0.640367    0.552455    1.171314
      4          6           0        2.194359   -0.764500    1.086237
      5          1           0        1.900172    1.011633   -0.057007
      6          1           0       -0.340350   -1.051587   -0.203863
      7          6           0       -0.452586    2.057234    1.393148
      8          1           0       -0.208226    0.029333    2.024595
      9          6           0        1.732559   -2.202927    1.293095
     10          1           0        1.961534   -0.234242    2.008796
     11          1           0        0.610533    2.325596    1.384282
     12          1           0       -0.852502    2.295493    2.377578
     13          1           0        0.691022   -2.220738    1.632663
     14          1           0        2.366261   -2.642028    2.064923
     15          8           0       -1.186059    2.854753    0.482011
     16          1           0       -0.969895    2.526107   -0.400423
     17          8           0       -2.023903    0.230581    1.201031
     18          1           0       -2.455217    0.878836    0.635920
     19          8           0       -0.418480    0.705534   -1.243836
     20          1           0        0.163407    0.418331   -1.955584
     21          8           0        1.989311   -0.500402   -1.357794
     22          1           0        1.900162   -1.463625   -1.342315
     23          8           0        3.607666   -0.691414    0.959774
     24          1           0        3.811093   -0.917392    0.047944
     25          8           0        1.863608   -2.946254    0.075404
     26          1           0        1.747052   -3.878140    0.253537
 ---------------------------------------------------------------------
                    Distance matrix (angstroms):
                    1          2          3          4          5
     1  C    0.000000
     2  C    1.526780   0.000000
     3  C    1.532360   2.580744   0.000000
     4  C    2.586204   1.536425   3.126864   0.000000
     5  H    2.151846   1.090105   2.859013   2.132651   0.000000
     6  H    1.093965   2.149706   2.134026   2.858587   3.049324
     7  C    2.596529   3.234434   1.532590   3.881069   2.954945
     8  H    2.126327   2.741140   1.090180   2.698722   3.121429
     9  C    3.101549   2.591750   3.638370   1.524835   3.490596
    10  H    2.870925   2.147685   2.844321   1.089264   2.413195
    11  H    2.836069   2.917800   2.180398   3.485115   2.338158
    12  H    3.494405   4.140271   2.130319   4.507159   3.892649
    13  H    2.873293   2.920879   3.110633   2.163152   3.842557
    14  H    4.127621   3.492766   4.476949   2.124262   4.250772
    15  O    3.169521   4.000291   2.464446   4.989119   3.634894
    16  H    2.749665   3.587084   2.544455   4.801121   3.263258
    17  O    2.425041   3.797518   1.420794   4.335561   4.194170
    18  H    2.726519   4.157850   1.920117   4.951958   4.412164
    19  O    1.431640   2.387375   2.430147   3.796994   2.622671
    20  H    1.923366   2.362394   3.231336   3.844025   2.640635
    21  O    2.395908   1.432812   3.797381   2.466795   1.996557
    22  H    2.684200   1.949575   4.103315   2.544247   2.789071
    23  O    3.803388   2.412962   4.431449   1.420835   2.617202
    24  H    3.903923   2.446465   4.820571   1.927500   2.717310
    25  O    3.463615   2.951501   4.439805   2.427185   3.960270
    26  H    4.241052   3.881591   5.115883   3.253955   4.902016
                    6          7          8          9         10
     6  H    0.000000
     7  C    3.496828   0.000000
     8  H    2.480296   2.137948   0.000000
     9  C    2.804178   4.788929   3.047084   0.000000
    10  H    3.295843   3.384946   2.185768   2.107221   0.000000
    11  H    3.851200   1.096503   2.520554   4.666345   2.961079
    12  H    4.257826   1.088946   2.382262   5.300417   3.801889
    13  H    2.409039   4.434665   2.454603   1.095637   2.387853
    14  H    3.873324   5.520892   3.710226   1.090920   2.442210
    15  O    4.055260   1.415694   3.364331   5.895448   4.666938
    16  H    3.637974   1.924668   3.562967   5.703948   4.692243
    17  O    2.540084   2.417149   2.003857   4.476766   4.092952
    18  H    2.984029   2.443879   2.774715   5.240859   4.757250
    19  O    2.043311   2.963434   3.344263   4.418386   4.138510
    20  H    2.341572   3.778817   4.016373   4.459501   4.401752
    21  O    2.657570   4.480184   4.068211   3.160969   3.377209
    22  H    2.546712   5.041293   4.243855   2.742270   3.570028
    23  O    4.131658   4.922248   4.026705   2.431419   2.004795
    24  H    4.161237   5.370003   4.578030   2.742865   2.780737
    25  O    2.919792   5.668871   4.116547   1.432648   3.332057
    26  H    3.543426   6.431624   4.714669   1.971606   4.050301
                   11         12         13         14         15
    11  H    0.000000
    12  H    1.768619   0.000000
    13  H    4.553825   4.830498   0.000000
    14  H    5.312546   5.902313   1.780662   0.000000
    15  O    2.078905   2.004297   5.532453   6.733438   0.000000
    16  H    2.392307   2.790027   5.424447   6.627028   0.966138
    17  O    3.370893   2.649587   3.683217   5.317116   2.846972
    18  H    3.471597   2.758439   4.527657   6.138826   2.353443
    19  O    3.254301   3.978817   4.250683   5.468898   2.861270
    20  H    3.871987   4.830331   4.485374   5.512064   3.701226
    21  O    4.172083   5.463143   3.686182   4.055076   4.972416
    22  H    4.843106   5.962025   3.299353   3.635266   5.612603
    23  O    4.273800   5.552016   3.361312   2.562681   5.981919
    24  H    4.748300   6.123638   3.734285   3.021608   6.276068
    25  O    5.574564   6.336653   2.079996   2.074464   6.566390
    26  H    6.407543   7.027303   2.400869   2.278709   7.347598
                   16         17         18         19         20
    16  H    0.000000
    17  O    2.990824   0.000000
    18  H    2.448201   0.962090   0.000000
    19  O    2.080840   2.963163   2.777015   0.000000
    20  H    2.854053   3.844969   3.712836   0.963152   0.000000
    21  O    4.339726   4.815371   5.062709   2.695315   2.129636
    22  H    5.004234   4.973653   5.326337   3.176641   2.633283
    23  O    5.758181   5.711641   6.271293   4.797626   4.646909
    24  H    5.909025   6.057609   6.545135   4.710825   4.370801
    25  O    6.180768   5.145100   5.796356   4.503763   4.282059
    26  H    6.987407   5.656804   6.358782   5.285994   5.084075
                   21         22         23         24         25
    21  O    0.000000
    22  H    0.967463   0.000000
    23  O    2.833139   2.968416   0.000000
    24  H    2.338562   2.425459   0.961188   0.000000
    25  O    2.837613   2.051695   2.984652   2.812425   0.000000
    26  H    3.750226   2.898288   3.757110   3.615047   0.955891
                   26
    26  H    0.000000
 Stoichiometry    C6H14O6
 Framework group  C1[X(C6H14O6)]
 Deg. of freedom    72
 Full point group                 C1      NOp   1
 Largest Abelian subgroup         C1      NOp   1
 Largest concise Abelian subgroup C1      NOp   1
                         Standard orientation:                         
 ---------------------------------------------------------------------
 Center     Atomic      Atomic             Coordinates (Angstroms)
 Number     Number       Type             X           Y           Z
 ---------------------------------------------------------------------
      1          6           0        0.507045   -0.076634   -0.649472
      2          6           0       -0.594664   -0.761103    0.156006
      3          6           0        1.433784    0.834390    0.162513
      4          6           0       -1.529364    0.187056    0.922774
      5          1           0       -0.146393   -1.435963    0.885352
      6          1           0        0.050408    0.533517   -1.434302
      7          6           0        2.343075    0.129408    1.174947
      8          1           0        0.799707    1.533358    0.708298
      9          6           0       -2.175025    1.292131    0.093889
     10          1           0       -0.953960    0.686772    1.701035
     11          1           0        1.757243   -0.492841    1.861915
     12          1           0        2.841442    0.900774    1.760121
     13          1           0       -1.417414    2.015014   -0.228428
     14          1           0       -2.901001    1.797874    0.732082
     15          8           0        3.381555   -0.619275    0.570609
     16          1           0        2.958744   -1.187142   -0.086795
     17          8           0        2.215838    1.643176   -0.705192
     18          1           0        2.948511    1.088398   -0.989847
     19          8           0        1.268502   -1.101302   -1.297417
     20          1           0        0.617063   -1.730413   -1.625303
     21          8           0       -1.310342   -1.636075   -0.724436
     22          1           0       -1.907715   -1.084178   -1.248402
     23          8           0       -2.508538   -0.576115    1.613831
     24          1           0       -2.852830   -1.213027    0.981622
     25          8           0       -2.836718    0.734099   -1.047707
     26          1           0       -3.385281    1.400296   -1.458790
 ---------------------------------------------------------------------
 Rotational constants (GHZ):           1.4550721           0.5300509           0.5173065
 Standard basis: def2TZVPP (5D, 7F)
 There are   642 symmetry adapted cartesian basis functions of A   symmetry.
 There are   568 symmetry adapted basis functions of A   symmetry.
   568 basis functions,   850 primitive gaussians,   642 cartesian basis functions
    49 alpha electrons       49 beta electrons
       nuclear repulsion energy       837.2103553700 Hartrees.
 NAtoms=   26 NActive=   26 NUniq=   26 SFac= 1.00D+00 NAtFMM=   60 NAOKFM=F Big=F
 Integral buffers will be    131072 words long.
 Raffenetti 2 integral format.
 Two-electron integral symmetry is turned on.
 Nuclear repulsion after empirical dispersion term =      837.1903397352 Hartrees.
 One-electron integrals computed using PRISM.
   1 Symmetry operations used in ECPInt.
 ECPInt:  NShTT=   23436 NPrTT=   62434 LenC2=   22067 LenP2D=   46030.
 LDataN:  DoStor=T MaxTD1= 6 Len=  172
 NBasis=   568 RedAO= T EigKep=  4.24D-05  NBF=   568
[...]
 002896,0.00044061,0.00043529,-0.00030513,-0.00091070,0.33023643,0.0409
 2341,-0.12101613,0.04591601,0.00663358,-0.00521007,0.00894440,-0.00213
 920,0.00854139,-0.00636438,0.00010045,0.00182497,-0.00160155,0.0016254
 6,0.00183785,-0.00063994,0.01484840,-0.01997778,0.03869511,0.00119471,
 -0.00339945,0.00463944,0.00101025,-0.00030625,-0.00264792,-0.00106485,
 0.00008799,-0.00010376,0.00020330,-0.00006967,0.00033458,-0.00004887,0
 .00045114,-0.00000302,0.00004563,0.00092067,-0.00032003,0.00045540,0.0
 0019468,-0.00057891,0.00045606,-0.00002403,-0.00007019,0.00341653,-0.0
 0336421,-0.00994693,-0.00312965,-0.00054406,-0.00006738,-0.00100099,0.
 00177927,0.00016391,-0.00042210,-0.00117117,0.00036926,-0.15581511,0.1
 9408152,-0.04138896,0.07097170,-0.16512082,-0.01163013,0.01241122,-0.0
 2376454,-0.01585362,0.02198200,-0.04020887,-0.00048994,-0.00142128,0.0
 0388839,0.00118438,-0.00075901,0.00039105,-0.00334870,0.01508665,-0.00
 964869,-0.00056368,0.00315439,0.00311731,0.00414933,-0.00288660,-0.005
 60595,0.00059798,-0.00089345,-0.00119120,0.00035182,-0.00013409,0.0004
 7962,-0.00013022,-0.00034103,-0.00010696,0.00005606,0.00031830,0.00033
 926,-0.00030909,-0.00031403,0.00044878,-0.00032086,0.00030820,0.000164
 36,0.00393076,-0.00880493,-0.00051799,0.00084095,-0.00012999,-0.007578
 39,0.00190382,-0.00085940,0.00309570,-0.00010662,0.00025413,-0.0005098
 4,-0.18677790,-0.01497785,0.53096883,0.00944835,-0.00401670,-0.0100041
 9,0.00022925,-0.00002090,-0.00811583,-0.00223357,0.00116080,-0.0032694
 1,0.00009697,0.00044661,0.00059238,-0.00025990,-0.00009590,0.00005953,
 -0.00022091,0.00094993,-0.00011140,0.00032851,0.00049919,0.00024902,0.
 00052658,-0.00016227,-0.00127713,0.00046795,0.00001437,-0.00032875,0.0
 0017840,-0.00014098,0.00045274,-0.00015710,-0.00010539,0.00000939,-0.0
 0004991,-0.00010209,-0.00001283,-0.00017826,-0.00008516,0.00016304,-0.
 00007729,-0.00007295,0.00006947,0.00037113,-0.00024612,-0.00059628,-0.
 00069688,0.00027031,0.00056756,0.00007357,0.00003331,0.00026260,0.0001
 3612,0.00002359,-0.00004256,-0.22016733,0.08889652,0.24527590,0.211869
 49,-0.01369445,0.00468961,0.01894615,0.00089028,0.00273217,0.00406171,
 0.00151270,-0.00190392,0.00180549,-0.00007051,-0.00029625,-0.00068959,
 -0.00035522,-0.00045236,-0.00058148,-0.00025387,-0.00100058,0.00142334
 ,0.00063124,-0.00003889,0.00062920,-0.00024777,0.00055389,0.00059223,0
 .00002616,0.00018737,0.00057347,-0.00010313,0.00008117,-0.00024359,-0.
 00015662,0.00004848,-0.00008019,-0.00014450,-0.00002950,-0.00004465,0.
 00003711,0.00001657,-0.00005154,-0.00001182,-0.00006475,-0.00007898,0.
 00050896,-0.00197222,-0.00146293,0.00010529,0.00238425,-0.00072873,0.0
 0010088,0.00000323,-0.00017122,-0.00000782,-0.00011037,0.00001699,0.09
 860733,-0.05574092,-0.09226427,-0.08583618,0.05440217,0.01986145,-0.00
 595345,-0.03462749,-0.00018072,-0.00083432,-0.00099772,-0.00324533,0.0
 0469300,-0.00452621,0.00037514,-0.00000332,-0.00138610,-0.00050873,-0.
 00012894,-0.00016011,0.00042674,-0.00028686,0.00064992,-0.00011420,0.0
 0042818,0.00020037,0.00077340,-0.00068097,-0.00115487,0.00013641,0.000
 15899,0.00021629,-0.00000282,0.00005820,0.00002623,-0.00007874,-0.0001
 7849,-0.00003748,-0.00007043,0.00007233,0.00010536,0.00000334,-0.00001
 001,-0.00006321,0.00003145,-0.00013627,-0.00000020,-0.00032540,0.00081
 023,0.00122467,0.00063967,-0.00158366,-0.00082180,-0.00009318,-0.00011
 762,0.00105054,0.00029351,-0.00005662,-0.00018828,0.20757487,-0.065717
 08,-0.29406458,-0.22813914,0.07116612,0.33328405,-0.02304212,0.0215005
 2,0.04101456,-0.08246179,-0.00106692,0.04565796,-0.00386309,-0.0008216
 3,-0.00760383,-0.00395108,-0.00154775,-0.00592816,0.00492148,-0.000036
 74,-0.00489273,0.00361278,-0.00003771,-0.00017093,-0.00081421,-0.00086
 779,0.00060170,0.00015102,-0.00030233,0.00047149,-0.00045016,-0.000198
 64,0.00074205,-0.00011961,0.00095589,-0.00198449,0.00027554,0.00020447
 ,-0.00006920,-0.00006154,0.00051406,0.00015652,0.00052324,0.00037404,-
 0.00035028,0.00008865,-0.00019452,0.00029440,0.00009442,0.00105847,0.0
 0040650,0.00022728,-0.00121125,-0.00013448,-0.00425441,0.00059588,0.00
 300849,0.00031915,-0.00039923,0.00012476,-0.00215935,0.00254637,0.0067
 3506,0.00106519,-0.00386251,0.00180488,0.12973688,0.00473037,-0.002215
 87,-0.00421232,0.01601955,-0.11057857,-0.05352371,-0.00009211,0.001149
 99,0.00172152,-0.00300171,0.00853832,0.00959996,0.01583280,-0.01366344
 ,-0.03998317,0.00147053,0.00197041,0.00112203,-0.00125354,-0.00022640,
 -0.00006951,-0.00000550,-0.00011654,-0.00032403,-0.00114463,-0.0026784
 3,-0.00564442,0.00149129,-0.00059915,0.00267031,0.00062307,0.00059186,
 0.00013637,0.00034413,0.00010511,-0.00010327,-0.00024700,0.00016611,0.
 00086802,0.00024928,0.00121646,0.00045711,0.00079154,-0.00023031,0.000
 15131,-0.00036463,0.00026888,-0.00007451,0.00151218,0.00024755,-0.0009
 4419,-0.00026311,-0.00002808,-0.00002805,0.00408418,0.00139917,-0.0033
 7369,-0.00249726,-0.00179330,-0.00135182,0.05718791,0.61047757,0.01206
 945,-0.00786641,-0.02462341,0.05027373,-0.01617921,-0.18051717,0.00015
 561,0.00122940,0.00439935,0.01321077,-0.01542285,-0.04824804,0.0051792
 2,-0.00910234,-0.01262218,-0.00059748,0.00091423,0.00073368,-0.0009314
 3,0.00070653,-0.00111735,-0.00042384,0.00003586,0.00063925,-0.00118433
 ,-0.00430851,-0.00088757,-0.00403046,0.00529555,-0.00499081,0.00027912
 ,0.00024307,0.00000326,0.00017470,-0.00016092,-0.00000947,-0.00004453,
 0.00013966,0.00023061,-0.00012371,0.00067375,0.00054986,0.00059541,-0.
 00042337,0.00136117,0.00016738,-0.00048331,-0.00068043,0.00329179,-0.0
 0043263,-0.00106232,-0.00001678,0.00021302,-0.00041287,-0.00436618,0.0
 0253007,0.00656249,0.00330985,-0.00358181,0.00014925,-0.09083520,0.064
 11849,0.30027845,0.00128205,0.00368931,0.00022699,0.00154981,0.0158594
 2,0.00192597,-0.00050368,-0.00058624,0.00059914,0.00236640,-0.00117607
 ,-0.00055482,-0.00009373,0.00031353,0.00143700,-0.00100218,-0.00097238
 ,0.00036552,0.00032668,0.00013319,-0.00025128,0.00003184,0.00002228,-0
 .00017475,0.00035388,0.00053255,0.00080757,-0.00015849,-0.00000075,0.0
 0028680,-0.00011336,-0.00005354,0.00002610,-0.00001182,-0.00014899,-0.
 00003222,-0.00016666,-0.00008290,0.00029403,-0.00009393,-0.00024748,-0
 .00030628,-0.00005826,-0.00018021,-0.00011518,-0.00005822,0.00025029,0
 .00009526,0.00008577,-0.00011208,-0.00019509,-0.00006890,0.00007216,0.
 00004663,-0.00140163,-0.00090814,0.00000459,0.00072978,0.00172194,0.00
 009475,-0.03184055,-0.09031133,0.00932964,0.03473510,0.00059154,0.0019
 5883,0.00146101,-0.00174969,-0.01682948,-0.00592114,-0.00009051,0.0000
 6195,-0.00115152,-0.00022278,0.00344405,0.00036073,0.00093989,0.001796
 51,-0.00108577,0.00016141,-0.00027758,-0.00017497,-0.00002313,-0.00003
 668,0.00015906,0.00002917,0.00001919,0.00016952,-0.00002708,0.00586959
 ,0.00437657,0.00031973,-0.00082056,0.00080804,-0.00002971,-0.00010318,
 -0.00004719,-0.00007976,0.00010781,0.00005990,0.00029286,-0.00055963,-
 0.00112815,0.00005775,-0.00087723,-0.00123129,-0.00015175,0.00018050,0
 .00016196,0.00018651,-0.00031570,-0.00011495,-0.00087866,-0.00003846,0
 .00051700,0.00011401,-0.00002727,-0.00002328,-0.00084321,-0.00000619,0
 .00113451,0.00174970,-0.00152262,0.00022611,-0.07214669,-0.48490417,-0
 .02633173,0.07335842,0.49981278,-0.00000019,-0.00071066,0.00097167,-0.
 00546334,-0.04438466,-0.00658556,0.00016429,0.00013717,0.00011342,-0.0
 0116394,-0.00174474,-0.00062493,0.00291296,-0.00237938,-0.00628514,0.0
 0090599,0.00038858,0.00025543,-0.00024163,-0.00020913,0.00007203,0.000
 01739,-0.00003285,-0.00018675,0.00020238,-0.00017826,-0.00546043,0.000
 40248,0.00041433,0.00058528,0.00012959,0.00012437,0.00002226,0.0000701
 9,0.00005014,-0.00001631,-0.00024963,0.00011373,0.00046228,0.00008227,
 0.00010374,0.00050040,0.00006866,0.00011587,-0.00010797,-0.00004412,0.
 00000822,0.00003988,-0.00007282,0.00013347,-0.00012833,-0.00000166,-0.
 00003487,0.00002995,-0.00083876,0.00023193,-0.00092650,0.00031981,0.00
 117563,0.00047324,0.01668926,0.01721020,-0.04152219,-0.01182693,0.0323
 9809,0.05713052,0.00515592,0.00281468,-0.00388159,-0.04725086,0.003209
 33,0.00036445,0.00164621,-0.00064140,-0.00027492,-0.23614068,-0.004476
 37,-0.00593665,0.00130667,0.00006949,0.00111471,-0.00010206,-0.0001716
 3,0.00021396,-0.00015669,-0.00071953,0.00013258,0.00015672,0.00006414,
 -0.00052226,-0.03893795,-0.00702465,0.00846821,-0.02256812,0.00176957,
 0.00669165,0.00001850,-0.00011027,-0.00005616,-0.00008390,0.00014032,0
 .00007335,-0.00108797,-0.00566164,0.00003624,0.00178580,0.00100500,0.0
 0015421,-0.00025298,0.00088428,-0.00015796,0.00014799,-0.00061043,-0.0
 0006079,-0.00139811,0.00041480,0.00028766,0.00019298,-0.00023991,-0.00
 008091,-0.00416905,0.00185905,-0.00353784,-0.00037243,0.00027285,0.001
 04106,0.00431256,-0.00082744,0.00216695,-0.00128302,-0.00031912,-0.000
 06862,0.39525993,-0.00172002,-0.00104879,0.00314391,0.02353223,0.00094
 040,-0.00254402,-0.00065795,0.00006991,0.00067751,-0.00112701,-0.06587
 998,-0.00171210,-0.00039669,0.00245488,-0.00202751,0.00105678,0.000363
 50,0.00017235,-0.00041396,0.00000560,-0.00009139,-0.00005990,-0.000162
 70,-0.00003950,-0.03716132,0.00130358,0.00665187,0.01311238,0.00440682
 ,0.00027614,0.00013114,0.00016417,0.00000270,0.00006870,-0.00003907,-0
 .00003557,-0.00346265,-0.00646642,0.00000518,0.00026651,0.00365734,-0.
 00127448,0.00030549,-0.00004614,0.00002848,-0.00014950,0.00013278,0.00
 003919,0.00068713,0.00017491,-0.00030024,-0.00009885,-0.00000527,0.000
 03854,0.00213369,-0.00022103,0.00125848,-0.00017231,-0.00023133,-0.000
 42719,-0.00043039,0.00322108,-0.00001328,0.00096601,-0.00145576,0.0011
 3875,-0.00014408,0.06331702,0.00129551,0.00275548,-0.00333950,-0.02535
 240,-0.00025371,-0.00125869,-0.00017193,0.00020681,-0.00197255,0.04227
 869,-0.00377104,-0.10008253,0.00027141,-0.00102570,0.00095488,-0.00016
 552,-0.00028444,0.00002610,-0.00014697,0.00027093,0.00003719,-0.000086
 79,-0.00020034,0.00091751,0.00897043,-0.00035060,-0.00004501,0.0381307
 6,0.00141144,-0.00147621,0.00002340,-0.00004280,-0.00010076,-0.0000822
 2,0.00011041,0.00006634,0.00097213,0.00186211,0.00127819,0.00043789,-0
 .00156063,0.00039998,0.00011029,-0.00013814,0.00049045,0.00018347,-0.0
 0031269,-0.00025510,0.00000746,-0.00015951,0.00075418,0.00012335,0.000
 04928,-0.00002810,-0.00269855,0.00067869,-0.00032392,0.00071122,-0.000
 28003,0.00055291,-0.00957326,0.00136895,0.00021441,0.00073503,0.001470
 64,-0.00017469,-0.11033972,0.04380266,0.60274857,-0.00038540,-0.000430
 06,0.00029223,-0.00261610,0.00296917,0.00369764,-0.00014296,-0.0000269
 4,0.00073374,-0.01742160,0.00597686,0.04702420,-0.00005651,0.00003252,
 -0.00035886,0.00004339,0.00002255,0.00000136,-0.00000522,0.00004388,-0
 .00009263,0.00000601,0.00004583,-0.00021284,-0.00168923,0.00004660,0.0
 0192730,-0.00656533,-0.00052571,0.00018233,0.00002160,0.00006683,0.000
 04260,0.00005472,-0.00006130,-0.00004022,-0.00000129,-0.00044381,-0.00
 030892,-0.00008265,0.00009359,-0.00017604,0.00008315,-0.00016795,-0.00
 008933,-0.00011586,0.00024423,0.00007735,0.00035639,-0.00003058,-0.000
 32634,-0.00009562,0.00003259,0.00002021,0.00105174,-0.00045229,-0.0000
 2999,-0.00071060,0.00039119,-0.00032144,0.00470986,-0.00198164,0.00089
 871,-0.00202338,-0.00131902,-0.00145454,-0.05941366,0.00418508,0.05564
 509,0.08464152,0.00039655,0.00004671,-0.00040974,0.00132926,0.00122501
 ,-0.00149079,0.00009151,0.00003630,-0.00043088,0.00056810,-0.00158634,
 -0.00031551,0.00046631,-0.00076791,0.00006811,-0.00030151,-0.00007372,
 -0.00001973,0.00014339,0.00008137,0.00002845,-0.00002273,-0.00003124,0
 .00018051,-0.00299578,0.00067998,0.00292366,0.00304741,-0.00007459,-0.
 00089869,-0.00005389,-0.00005857,-0.00003119,-0.00004730,0.00001469,0.
 00002273,-0.00012141,-0.00055974,-0.00044066,-0.00011493,0.00001221,-0
 .00002656,-0.00009194,-0.00003939,0.00006265,0.00008959,-0.00004520,-0
 .00003883,-0.00015320,-0.00009126,0.00017825,0.00005663,0.00002934,-0.
 00000342,-0.00054590,0.00001411,-0.00006192,0.00022533,0.00002252,0.00
 014512,-0.00113042,-0.00261718,-0.00018148,-0.00184508,0.00120482,-0.0
 0104531,0.00856886,-0.00824416,-0.04782284,-0.00889490,0.01124521,0.00
 098517,-0.00056299,-0.00107138,-0.00506063,0.00206950,0.00359159,0.000
 29899,-0.00004549,0.00035577,0.00389640,-0.00162379,-0.00488519,0.0002
 1206,-0.00030434,-0.00007041,-0.00010822,-0.00002708,0.00005341,0.0000
 7420,-0.00005454,0.00001439,0.00005358,0.00002626,-0.00013320,-0.00066
 847,0.00031654,0.00030518,-0.00011068,0.00139075,0.00123956,-0.0000094
 8,-0.00001020,0.00002422,0.00001419,-0.00002300,-0.00001735,-0.0004613
 6,-0.00059540,0.00002300,0.00013991,0.00013234,-0.00019154,-0.00004265
 ,0.00003095,-0.00013288,-0.00004557,0.00006391,0.00005922,0.00006653,-
 0.00000168,-0.00018363,-0.00001103,-0.00000298,0.00000957,-0.00024285,
 0.00020629,-0.00095711,-0.00073845,0.00041217,0.00009610,0.00344650,-0
 .00083414,-0.00074581,-0.00190253,-0.00155101,-0.00009662,0.10658092,-
 0.04937052,-0.50338178,-0.10596801,0.05026884,0.50712160,-0.00163642,-
 0.00212009,0.00095374,-0.00107244,0.00101671,0.00039962,0.00042413,0.0
 0054096,-0.00005260,0.00127770,-0.00653817,-0.01170524,0.00014601,0.00
 008550,-0.00009388,0.00027618,0.00132042,0.00011085,-0.00036973,-0.000
 26778,0.00011736,-0.00002643,-0.00021955,-0.00010415,-0.06647734,-0.00
 491748,0.01112329,-0.00016809,-0.00260739,0.00008706,0.00009921,0.0000
 7234,-0.00002908,0.00000291,0.00010674,0.00002196,0.00643401,0.0156055
 0,0.03105490,0.00682394,-0.00993534,-0.01572279,0.00003366,0.00033563,
 -0.00006451,-0.00000828,-0.00015727,0.00001378,0.00004784,0.00024191,0
 .00005673,0.00007487,-0.00009145,-0.00000960,0.00058580,0.00097650,-0.
 00060802,-0.00051025,-0.00011072,0.00002871,0.00254707,-0.00284901,0.0
 0161056,-0.00192897,0.00031141,-0.00083806,0.00304163,-0.00070885,-0.0
 0115662,0.00002621,0.00130658,-0.00042607,0.09027172,0.00006654,-0.000
 16234,-0.00092111,-0.00015749,0.00504299,0.00086187,-0.00093544,-0.000
 11638,-0.00009343,0.00555305,-0.02348325,-0.04609333,-0.00011258,0.000
 40970,-0.00045159,0.00035524,-0.00085557,-0.00019717,-0.00017679,0.000
 37278,-0.00016035,-0.00014270,0.00000574,0.00042233,0.00060899,-0.1164
 9739,-0.07120505,-0.00345134,-0.00795190,0.00121279,0.00008579,0.00013
 292,-0.00000489,0.00003017,-0.00005513,-0.00003077,0.00357786,-0.00204
 402,-0.00960548,-0.00436197,0.00862241,0.00400006,0.00039059,-0.000436
 00,0.00027976,-0.00012499,0.00019414,-0.00006103,0.00097035,-0.0000146
 5,0.00001588,-0.00012895,0.00003878,-0.00000478,0.00087408,-0.00038170
 ,0.00058965,-0.00067003,0.00007814,-0.00035213,-0.00087767,-0.01009447
 ,0.00828567,-0.00000416,-0.00565515,-0.00280625,-0.00071213,0.00280629
 ,0.00211391,0.00024920,-0.00034947,-0.00009227,0.14177746,0.65608480,-
 0.00119097,-0.00041575,-0.00011281,-0.00028013,-0.00065677,-0.00495526
 ,-0.00047496,0.00038896,-0.00146997,0.00223323,-0.00616329,-0.00383759
 ,0.00015161,-0.00012096,0.00103506,0.00038708,0.00045429,-0.00045675,-
 0.00008719,0.00038328,0.00018239,0.00005753,0.00016413,0.00074488,0.02
 115412,-0.02732778,-0.20769777,-0.00012892,0.00102526,0.00147002,0.000
 00645,-0.00001460,-0.00003481,-0.00002637,0.00010736,0.00003666,0.0046
 2341,-0.01614172,-0.02588943,0.00319096,-0.02140023,-0.03716550,0.0001
 7909,-0.00036073,0.00046290,0.00007804,-0.00012337,-0.00021568,0.00028
 536,-0.00013786,0.00053608,-0.00001324,-0.00000314,-0.00007960,0.00016
 122,0.00026520,0.00113076,0.00035676,-0.00053065,-0.00010351,0.0004811
 1,0.00792769,0.00320843,-0.00122595,-0.00274415,-0.00161701,-0.0022557
 0,-0.00008643,0.00346338,-0.00081873,-0.00057040,-0.00094924,-0.042678
 32,0.03508293,0.32260665,0.00015124,0.00042761,0.00000481,0.00008565,-
 0.00033262,0.00006516,0.00009678,0.00001838,0.00000404,-0.00043428,0.0
 0020005,-0.00011680,-0.00007825,0.00001637,-0.00002854,-0.00003222,0.0
 0004821,-0.00001767,0.00004664,0.00004958,-0.00000379,0.00003626,0.000
 00753,0.00000189,-0.00061482,0.00403262,0.00135746,0.00023212,0.000015
 81,0.00014703,-0.00002701,-0.00002541,0.00000586,0.00000405,-0.0000129
 6,-0.00000478,0.00030610,0.00126112,0.00033125,0.00018724,-0.00065165,
 0.00046671,-0.00003399,-0.00008448,-0.00000444,0.00000936,0.00005182,0
 .00000193,-0.00009698,-0.00014846,-0.00004195,-0.00001460,0.00004648,0
 .00001089,-0.00014553,-0.00021041,0.00006493,0.00011315,0.00004917,-0.
 00000525,0.00043277,0.00050209,-0.00015893,-0.00065453,-0.00023131,0.0
 0029897,0.00019257,0.00025835,-0.00012219,0.00033080,0.00002947,0.0000
 2755,-0.03991494,-0.14268308,0.01583449,0.03982240,-0.00006066,-0.0004
 1584,0.00018714,-0.00005392,0.00068468,0.00046410,0.00019093,0.0000433
 2,-0.00000016,0.00105186,-0.00044167,-0.00458297,-0.00001006,0.0001138
 1,-0.00014031,0.00021818,-0.00003408,0.00004956,-0.00003457,-0.0001043
 9,0.00003999,-0.00002084,-0.00003510,-0.00008096,-0.00494828,-0.015902
 09,0.00536242,-0.00047505,-0.00076275,0.00032452,0.00000237,-0.0000025
 9,-0.00000913,-0.00001091,0.00002792,0.00001150,0.00023856,0.00062188,
 0.00131990,-0.00048493,0.00174803,0.00123701,-0.00005477,0.00014499,-0
 .00004945,0.00002703,-0.00007469,0.00000615,-0.00015657,0.00008370,0.0
 0003384,0.00004880,-0.00002672,-0.00000329,-0.00003799,0.00029993,-0.0
 0024767,-0.00004542,-0.00004258,0.00006047,0.00019458,0.00039341,0.000
 10255,-0.00028979,-0.00102637,-0.00021810,0.00058622,0.00078236,0.0001
 0114,-0.00006593,-0.00007349,0.00018192,-0.13317455,-0.50569127,0.0309
 9874,0.13736572,0.51968961,0.00001152,-0.00001252,0.00014195,0.0004584
 0,-0.00042742,-0.00124067,0.00002676,-0.00000518,-0.00009589,0.0018257
 2,-0.00246261,-0.00753477,-0.00006600,0.00011801,0.00009896,0.00006218
 ,0.00007884,0.00006629,-0.00000107,-0.00002987,0.00002743,-0.00003339,
 -0.00002039,0.00000710,-0.01099186,-0.04108775,0.00082788,-0.00056196,
 -0.00184815,0.00035368,-0.00000469,-0.00000292,-0.00001207,-0.00000845
 ,0.00000703,0.00000380,0.00089969,-0.00030660,0.00031903,-0.00109747,-
 0.00006165,0.00021505,-0.00002639,0.00004783,-0.00002176,0.00002409,-0
 .00003116,0.00000609,-0.00009379,0.00000788,0.00000865,0.00002783,0.00
 000647,0.00001763,-0.00019921,0.00006407,-0.00006122,0.00023670,-0.000
 01285,0.00010265,-0.00009267,0.00311488,-0.00089061,0.00031000,-0.0017
 9798,0.00307606,-0.00015284,0.00068651,0.00053476,-0.00034486,-0.00009
 037,-0.00007748,0.02791038,0.07921480,-0.05029229,-0.01811863,-0.03514
 889,0.05441975\\0.00002247,-0.00001054,0.00000113,-0.00002085,0.000001
 98,-0.00000731,-0.00000698,-0.00000116,0.00001300,0.00001943,0.0000019
 5,0.00001707,0.00000033,-0.00000312,-0.00000083,-0.00000096,0.00000328
 ,-0.00000247,-0.00000314,0.00000154,-0.00000569,-0.00000471,-0.0000010
 1,-0.00000978,-0.00000976,-0.00000118,-0.00000628,0.00000106,-0.000006
 66,-0.00000688,0.00000144,0.00000289,0.00000244,0.00000083,-0.00000218
 ,0.00000136,-0.00000118,-0.00000016,0.00000132,-0.00000025,0.00000101,
 0.00000086,-0.00000132,0.00000304,0.00000208,0.,-0.00000302,-0.0000020
 3,-0.00000031,0.00000640,0.00000094,0.00000380,-0.00000585,0.00000111,
 0.00000334,0.00000750,-0.00000909,-0.00000570,-0.00000105,0.00000752,0
 .00000315,0.00000128,0.00000172,-0.00000137,0.00000459,0.00000114,-0.0
 0000440,0.00000756,-0.00000556,0.00000164,-0.00000247,0.00000559,0.000
 00009,-0.00001398,0.00000179,0.00000337,0.00000936,-0.00000316\\\@
 The archive entry for this job was punched.


 ERWIN WITH HIS PSI CAN DO
 CALCULATIONS QUITE A FEW.
 BUT ONE THING HAS NOT BEEN SEEN
 JUST WHAT DOES PSI REALLY MEAN.
 -- WALTER HUCKEL, TRANS. BY FELIX BLOCH
 Job cpu time:       0 days 12 hours 55 minutes 49.6 seconds.
 Elapsed time:       0 days  0 hours 48 minutes 54.8 seconds.
 File lengths (MBytes):  RWF=    704 Int=      0 D2E=      0 Chk=     27 Scr=      1
 Normal termination of Gaussian 16 at Wed Oct 11 16:20:05 2023.
