 Entering Gaussian System, Link 0=/opt/software/gaussian/g16.c01/g16
 Initial command:
 /opt/software/gaussian/g16.c01/l1.exe "/scratch/arhender/14836904/Gau-15568.inp" -scrdir="/scratch/arhender/14836904/"
 Entering Link 1 = /opt/software/gaussian/g16.c01/l1.exe PID=     15569.
  
 Copyright (c) 1988-2019, Gaussian, Inc.  All Rights Reserved.
  
 This is part of the Gaussian(R) 16 program.  It is based on
 the Gaussian(R) 09 system (copyright 2009, Gaussian, Inc.),
 the Gaussian(R) 03 system (copyright 2003, Gaussian, Inc.),
 the Gaussian(R) 98 system (copyright 1998, Gaussian, Inc.),
 the Gaussian(R) 94 system (copyright 1995, Gaussian, Inc.),
 the Gaussian 92(TM) system (copyright 1992, Gaussian, Inc.),
 the Gaussian 90(TM) system (copyright 1990, Gaussian, Inc.),
 the Gaussian 88(TM) system (copyright 1988, Gaussian, Inc.),
 the Gaussian 86(TM) system (copyright 1986, Carnegie Mellon
 University), and the Gaussian 82(TM) system (copyright 1983,
 Carnegie Mellon University). Gaussian is a federally registered
 trademark of Gaussian, Inc.
  
 This software contains proprietary and confidential information,
 including trade secrets, belonging to Gaussian, Inc.
  
 This software is provided under written license and may be
 used, copied, transmitted, or stored only in accord with that
 written license.
  
 The following legend is applicable only to US Government
 contracts under FAR:
  
                    RESTRICTED RIGHTS LEGEND
  
 Use, reproduction and disclosure by the US Government is
 subject to restrictions as set forth in subparagraphs (a)
 and (c) of the Commercial Computer Software - Restricted
 Rights clause in FAR 52.227-19.
  
 Gaussian, Inc.
 340 Quinnipiac St., Bldg. 40, Wallingford CT 06492
  
  
 ---------------------------------------------------------------
 Warning -- This program may not be used in any manner that
 competes with the business of Gaussian, Inc. or will provide
 assistance to any competitor of Gaussian, Inc.  The licensee
 of this program is prohibited from giving any competitor of
 Gaussian, Inc. access to this program.  By using this program,
 the user acknowledges that Gaussian, Inc. is engaged in the
 business of creating and licensing software in the field of
 computational chemistry and represents and warrants to the
 licensee that it is not a competitor of Gaussian, Inc. and that
 it will not use this program in any manner prohibited above.
 ---------------------------------------------------------------
  

 Cite this work as:
 Gaussian 16, Revision C.01,
 M. J. Frisch, G. W. Trucks, H. B. Schlegel, G. E. Scuseria, 
 M. A. Robb, J. R. Cheeseman, G. Scalmani, V. Barone, 
 G. A. Petersson, H. Nakatsuji, X. Li, M. Caricato, A. V. Marenich, 
 J. Bloino, B. G. Janesko, R. Gomperts, B. Mennucci, H. P. Hratchian, 
 J. V. Ortiz, A. F. Izmaylov, J. L. Sonnenberg, D. Williams-Young, 
 F. Ding, F. Lipparini, F. Egidi, J. Goings, B. Peng, A. Petrone, 
 T. Henderson, D. Ranasinghe, V. G. Zakrzewski, J. Gao, N. Rega, 
 G. Zheng, W. Liang, M. Hada, M. Ehara, K. Toyota, R. Fukuda, 
 J. Hasegawa, M. Ishida, T. Nakajima, Y. Honda, O. Kitao, H. Nakai, 
 T. Vreven, K. Throssell, J. A. Montgomery, Jr., J. E. Peralta, 
 F. Ogliaro, M. J. Bearpark, J. J. Heyd, E. N. Brothers, K. N. Kudin, 
 V. N. Staroverov, T. A. Keith, R. Kobayashi, J. Normand, 
 K. Raghavachari, A. P. Rendell, J. C. Burant, S. S. Iyengar, 
 J. Tomasi, M. Cossi, J. M. Millam, M. Klene, C. Adamo, R. Cammi, 
 J. W. Ochterski, R. L. Martin, K. Morokuma, O. Farkas, 
 J. B. Foresman, and D. J. Fox, Gaussian, Inc., Wallingford CT, 2019.
 
 ******************************************
 Gaussian 16:  ES64L-G16RevC.01  3-Jul-2019
                11-Oct-2023 
 ******************************************
 %chk=MannitolConformerOpt_47.chk
 %mem=8GB
 %nprocs=16
 Will use up to   16 processors via shared memory.
 ---------------------------------------------
 # opt freq wb97xd/Def2TZVPP geom=connectivity
 ---------------------------------------------
 1/18=20,19=15,26=3,38=1,57=2/1,3;
 2/9=110,12=2,17=6,18=5,40=1/2;
 3/5=44,7=202,11=2,25=1,30=1,71=1,74=-58/1,2,3;
 4//1;
 5/5=2,38=5/2;
 6/7=2,8=2,9=2,10=2,28=1/1;
 7//1,2,3,16;
 1/18=20,19=15,26=3/3(2);
 2/9=110/2;
 99//99;
 2/9=110/2;
 3/5=44,7=202,11=2,25=1,30=1,71=1,74=-58/1,2,3;
 4/5=5,16=3,69=1/1;
 5/5=2,38=5/2;
 7//1,2,3,16;
 1/18=20,19=15,26=3/3(-5);
 2/9=110/2;
 6/7=2,8=2,9=2,10=2,19=2,28=1/1;
 99/9=1/99;
 -------------------
 Title Card Required
 -------------------
 Symbolic Z-matrix:
 Charge =  0 Multiplicity = 1
 C                     0.        0.        0. 
 C                     1.5359    0.        0. 
 C                    -0.6898    0.5777    1.2509 
 C                     2.2001   -0.8079    1.1247 
 H                     1.9242    1.0244    0. 
 H                    -0.3695   -1.0173   -0.1766 
 C                    -0.3041    2.0287    1.5645 
 H                    -0.4726   -0.0659    2.1109 
 C                     1.7891   -2.2842    1.1629 
 H                     2.0174   -0.3533    2.1029 
 H                    -1.0142    2.4607    2.2782 
 H                    -0.3279    2.6525    0.6648 
 H                     2.0657   -2.8029    0.2397 
 H                     0.7172   -2.4072    1.3357 
 O                     0.9908    2.0845    2.1416 
 H                     1.202     3.024     2.2904 
 O                    -2.1061    0.5198    0.9992 
 H                    -2.5548    0.677     1.8504 
 O                    -0.4358    0.7371   -1.1666 
 H                    -1.4105    0.7838   -1.0744 
 O                     1.9858   -0.549    -1.2624 
 H                     1.42     -0.1084   -1.932 
 O                     3.6314   -0.7825    0.926 
 H                     3.7481   -0.8547   -0.0449 
 O                     2.478    -2.9339    2.2342 
 H                     3.3938   -2.5901    2.1911 
 

 GradGradGradGradGradGradGradGradGradGradGradGradGradGradGradGradGradGrad
 Berny optimization.
 Initialization pass.
                           ----------------------------
                           !    Initial Parameters    !
                           ! (Angstroms and Degrees)  !
 --------------------------                            --------------------------
 ! Name  Definition              Value          Derivative Info.                !
 --------------------------------------------------------------------------------
 ! R1    R(1,2)                  1.5359         estimate D2E/DX2                !
 ! R2    R(1,3)                  1.5409         estimate D2E/DX2                !
 ! R3    R(1,6)                  1.0966         estimate D2E/DX2                !
 ! R4    R(1,19)                 1.4471         estimate D2E/DX2                !
 ! R5    R(2,4)                  1.5358         estimate D2E/DX2                !
 ! R6    R(2,5)                  1.0955         estimate D2E/DX2                !
 ! R7    R(2,21)                 1.4483         estimate D2E/DX2                !
 ! R8    R(3,7)                  1.5338         estimate D2E/DX2                !
 ! R9    R(3,8)                  1.0959         estimate D2E/DX2                !
 ! R10   R(3,17)                 1.4397         estimate D2E/DX2                !
 ! R11   R(4,9)                  1.5329         estimate D2E/DX2                !
 ! R12   R(4,10)                 1.094          estimate D2E/DX2                !
 ! R13   R(4,23)                 1.4452         estimate D2E/DX2                !
 ! R14   R(7,11)                 1.0956         estimate D2E/DX2                !
 ! R15   R(7,12)                 1.0951         estimate D2E/DX2                !
 ! R16   R(7,15)                 1.4188         estimate D2E/DX2                !
 ! R17   R(9,13)                 1.0945         estimate D2E/DX2                !
 ! R18   R(9,14)                 1.0927         estimate D2E/DX2                !
 ! R19   R(9,25)                 1.4298         estimate D2E/DX2                !
 ! R20   R(15,16)                0.9744         estimate D2E/DX2                !
 ! R21   R(17,18)                0.975          estimate D2E/DX2                !
 ! R22   R(19,20)                0.9802         estimate D2E/DX2                !
 ! R23   R(21,22)                0.9811         estimate D2E/DX2                !
 ! R24   R(23,24)                0.9806         estimate D2E/DX2                !
 ! R25   R(25,26)                0.9792         estimate D2E/DX2                !
 ! A1    A(2,1,3)              116.594          estimate D2E/DX2                !
 ! A2    A(2,1,6)              109.6905         estimate D2E/DX2                !
 ! A3    A(2,1,19)             107.5265         estimate D2E/DX2                !
 ! A4    A(3,1,6)              109.1284         estimate D2E/DX2                !
 ! A5    A(3,1,19)             109.1874         estimate D2E/DX2                !
 ! A6    A(6,1,19)             103.9582         estimate D2E/DX2                !
 ! A7    A(1,2,4)              115.6242         estimate D2E/DX2                !
 ! A8    A(1,2,5)              110.7593         estimate D2E/DX2                !
 ! A9    A(1,2,21)             108.0983         estimate D2E/DX2                !
 ! A10   A(4,2,5)              109.7913         estimate D2E/DX2                !
 ! A11   A(4,2,21)             107.7324         estimate D2E/DX2                !
 ! A12   A(5,2,21)             104.1439         estimate D2E/DX2                !
 ! A13   A(1,3,7)              114.0848         estimate D2E/DX2                !
 ! A14   A(1,3,8)              109.1569         estimate D2E/DX2                !
 ! A15   A(1,3,17)             106.4629         estimate D2E/DX2                !
 ! A16   A(7,3,8)              110.1996         estimate D2E/DX2                !
 ! A17   A(7,3,17)             108.7345         estimate D2E/DX2                !
 ! A18   A(8,3,17)             107.9723         estimate D2E/DX2                !
 ! A19   A(2,4,9)              114.1357         estimate D2E/DX2                !
 ! A20   A(2,4,10)             111.344          estimate D2E/DX2                !
 ! A21   A(2,4,23)             108.5642         estimate D2E/DX2                !
 ! A22   A(9,4,10)             109.4584         estimate D2E/DX2                !
 ! A23   A(9,4,23)             106.6114         estimate D2E/DX2                !
 ! A24   A(10,4,23)            106.3205         estimate D2E/DX2                !
 ! A25   A(3,7,11)             110.0744         estimate D2E/DX2                !
 ! A26   A(3,7,12)             111.4354         estimate D2E/DX2                !
 ! A27   A(3,7,15)             110.4803         estimate D2E/DX2                !
 ! A28   A(11,7,12)            107.2487         estimate D2E/DX2                !
 ! A29   A(11,7,15)            108.1244         estimate D2E/DX2                !
 ! A30   A(12,7,15)            109.3675         estimate D2E/DX2                !
 ! A31   A(4,9,13)             111.5704         estimate D2E/DX2                !
 ! A32   A(4,9,14)             112.0469         estimate D2E/DX2                !
 ! A33   A(4,9,25)             109.0929         estimate D2E/DX2                !
 ! A34   A(13,9,14)            109.1454         estimate D2E/DX2                !
 ! A35   A(13,9,25)            107.1512         estimate D2E/DX2                !
 ! A36   A(14,9,25)            107.6383         estimate D2E/DX2                !
 ! A37   A(7,15,16)            107.3296         estimate D2E/DX2                !
 ! A38   A(3,17,18)            107.0752         estimate D2E/DX2                !
 ! A39   A(1,19,20)            104.3536         estimate D2E/DX2                !
 ! A40   A(2,21,22)            104.2122         estimate D2E/DX2                !
 ! A41   A(4,23,24)            104.6376         estimate D2E/DX2                !
 ! A42   A(9,25,26)            104.9578         estimate D2E/DX2                !
 ! D1    D(3,1,2,4)             60.4794         estimate D2E/DX2                !
 ! D2    D(3,1,2,5)            -65.2112         estimate D2E/DX2                !
 ! D3    D(3,1,2,21)          -178.7148         estimate D2E/DX2                !
 ! D4    D(6,1,2,4)            -64.1576         estimate D2E/DX2                !
 ! D5    D(6,1,2,5)            170.1518         estimate D2E/DX2                !
 ! D6    D(6,1,2,21)            56.6482         estimate D2E/DX2                !
 ! D7    D(19,1,2,4)          -176.5955         estimate D2E/DX2                !
 ! D8    D(19,1,2,5)            57.7138         estimate D2E/DX2                !
 ! D9    D(19,1,2,21)          -55.7897         estimate D2E/DX2                !
 ! D10   D(2,1,3,7)             57.8713         estimate D2E/DX2                !
 ! D11   D(2,1,3,8)            -65.886          estimate D2E/DX2                !
 ! D12   D(2,1,3,17)           177.8014         estimate D2E/DX2                !
 ! D13   D(6,1,3,7)           -177.2066         estimate D2E/DX2                !
 ! D14   D(6,1,3,8)             59.0361         estimate D2E/DX2                !
 ! D15   D(6,1,3,17)           -57.2765         estimate D2E/DX2                !
 ! D16   D(19,1,3,7)           -64.1884         estimate D2E/DX2                !
 ! D17   D(19,1,3,8)           172.0543         estimate D2E/DX2                !
 ! D18   D(19,1,3,17)           55.7417         estimate D2E/DX2                !
 ! D19   D(2,1,19,20)         -174.6384         estimate D2E/DX2                !
 ! D20   D(3,1,19,20)          -47.2677         estimate D2E/DX2                !
 ! D21   D(6,1,19,20)           69.0925         estimate D2E/DX2                !
 ! D22   D(1,2,4,9)             57.2647         estimate D2E/DX2                !
 ! D23   D(1,2,4,10)           -67.2769         estimate D2E/DX2                !
 ! D24   D(1,2,4,23)           176.0116         estimate D2E/DX2                !
 ! D25   D(5,2,4,9)           -176.5513         estimate D2E/DX2                !
 ! D26   D(5,2,4,10)            58.907          estimate D2E/DX2                !
 ! D27   D(5,2,4,23)           -57.8045         estimate D2E/DX2                !
 ! D28   D(21,2,4,9)           -63.7387         estimate D2E/DX2                !
 ! D29   D(21,2,4,10)          171.7197         estimate D2E/DX2                !
 ! D30   D(21,2,4,23)           55.0081         estimate D2E/DX2                !
 ! D31   D(1,2,21,22)           44.877          estimate D2E/DX2                !
 ! D32   D(4,2,21,22)          170.4806         estimate D2E/DX2                !
 ! D33   D(5,2,21,22)          -72.9567         estimate D2E/DX2                !
 ! D34   D(1,3,7,11)           164.6228         estimate D2E/DX2                !
 ! D35   D(1,3,7,12)            45.7651         estimate D2E/DX2                !
 ! D36   D(1,3,7,15)           -76.034          estimate D2E/DX2                !
 ! D37   D(8,3,7,11)           -72.1838         estimate D2E/DX2                !
 ! D38   D(8,3,7,12)           168.9585         estimate D2E/DX2                !
 ! D39   D(8,3,7,15)            47.1594         estimate D2E/DX2                !
 ! D40   D(17,3,7,11)           45.9774         estimate D2E/DX2                !
 ! D41   D(17,3,7,12)          -72.8802         estimate D2E/DX2                !
 ! D42   D(17,3,7,15)          165.3206         estimate D2E/DX2                !
 ! D43   D(1,3,17,18)          166.6624         estimate D2E/DX2                !
 ! D44   D(7,3,17,18)          -70.0006         estimate D2E/DX2                !
 ! D45   D(8,3,17,18)           49.559          estimate D2E/DX2                !
 ! D46   D(2,4,9,13)            61.1544         estimate D2E/DX2                !
 ! D47   D(2,4,9,14)           -61.5693         estimate D2E/DX2                !
 ! D48   D(2,4,9,25)           179.3447         estimate D2E/DX2                !
 ! D49   D(10,4,9,13)         -173.3039         estimate D2E/DX2                !
 ! D50   D(10,4,9,14)           63.9724         estimate D2E/DX2                !
 ! D51   D(10,4,9,25)          -55.1136         estimate D2E/DX2                !
 ! D52   D(23,4,9,13)          -58.6956         estimate D2E/DX2                !
 ! D53   D(23,4,9,14)          178.5807         estimate D2E/DX2                !
 ! D54   D(23,4,9,25)           59.4947         estimate D2E/DX2                !
 ! D55   D(2,4,23,24)          -38.7466         estimate D2E/DX2                !
 ! D56   D(9,4,23,24)           84.6424         estimate D2E/DX2                !
 ! D57   D(10,4,23,24)        -158.6409         estimate D2E/DX2                !
 ! D58   D(3,7,15,16)          177.9094         estimate D2E/DX2                !
 ! D59   D(11,7,15,16)         -61.5745         estimate D2E/DX2                !
 ! D60   D(12,7,15,16)          54.8985         estimate D2E/DX2                !
 ! D61   D(4,9,25,26)          -42.3763         estimate D2E/DX2                !
 ! D62   D(13,9,25,26)          78.5529         estimate D2E/DX2                !
 ! D63   D(14,9,25,26)        -164.1705         estimate D2E/DX2                !
 --------------------------------------------------------------------------------
 Trust Radius=3.00D-01 FncErr=1.00D-07 GrdErr=1.00D-06 EigMax=2.50D+02 EigMin=1.00D-04
 Number of steps in this run=    140 maximum allowed number of steps=    156.
 GradGradGradGradGradGradGradGradGradGradGradGradGradGradGradGradGradGrad

                          Input orientation:                          
 ---------------------------------------------------------------------
 Center     Atomic      Atomic             Coordinates (Angstroms)
 Number     Number       Type             X           Y           Z
 ---------------------------------------------------------------------
      1          6           0        0.000000    0.000000    0.000000
      2          6           0        1.535900    0.000000    0.000000
      3          6           0       -0.689800    0.577700    1.250900
      4          6           0        2.200100   -0.807900    1.124700
      5          1           0        1.924200    1.024400    0.000000
      6          1           0       -0.369500   -1.017300   -0.176600
      7          6           0       -0.304100    2.028700    1.564500
      8          1           0       -0.472600   -0.065900    2.110900
      9          6           0        1.789100   -2.284200    1.162900
     10          1           0        2.017400   -0.353300    2.102900
     11          1           0       -1.014200    2.460700    2.278200
     12          1           0       -0.327900    2.652500    0.664800
     13          1           0        2.065700   -2.802900    0.239700
     14          1           0        0.717200   -2.407200    1.335700
     15          8           0        0.990800    2.084500    2.141600
     16          1           0        1.202000    3.024000    2.290400
     17          8           0       -2.106100    0.519800    0.999200
     18          1           0       -2.554800    0.677000    1.850400
     19          8           0       -0.435800    0.737100   -1.166600
     20          1           0       -1.410500    0.783800   -1.074400
     21          8           0        1.985800   -0.549000   -1.262400
     22          1           0        1.420000   -0.108400   -1.932000
     23          8           0        3.631400   -0.782500    0.926000
     24          1           0        3.748100   -0.854700   -0.044900
     25          8           0        2.478000   -2.933900    2.234200
     26          1           0        3.393800   -2.590100    2.191100
 ---------------------------------------------------------------------
                    Distance matrix (angstroms):
                    1          2          3          4          5
     1  C    0.000000
     2  C    1.535900   0.000000
     3  C    1.540880   2.617676   0.000000
     4  C    2.599633   1.535843   3.207388   0.000000
     5  H    2.179895   1.095524   2.932113   2.167578   0.000000
     6  H    1.096639   2.167172   2.164341   2.887919   3.075839
     7  C    2.579876   3.154185   1.533790   3.809297   2.901999
     8  H    2.164161   2.914501   1.095900   2.943889   3.374804
     9  C    3.125825   2.575658   3.787237   1.532919   3.509619
    10  H    2.935458   2.186058   2.986904   1.094036   2.515737
    11  H    3.503404   4.212867   2.169394   4.727159   3.985894
    12  H    2.754130   3.309300   2.186156   4.310065   2.857380
    13  H    3.490103   2.862585   4.477026   2.186621   3.837408
    14  H    2.844834   2.872103   3.300980   2.191181   3.875154
    15  O    3.148535   3.037882   2.426563   3.295826   2.565443
    16  H    3.979361   3.808149   3.262492   4.127774   3.125045
    17  O    2.388357   3.812185   1.439657   4.507981   4.182863
    18  H    3.226347   4.540499   1.961501   5.033949   4.858612
    19  O    1.447133   2.406631   2.436028   3.819038   2.648225
    20  H    1.938605   3.232638   2.443134   4.517298   3.511759
    21  O    2.416290   1.448263   3.839917   2.410643   2.018176
    22  H    2.400161   1.938506   3.879799   3.231296   2.295665
    23  O    3.828426   2.420930   4.541858   1.445250   2.652715
    24  H    3.844578   2.371994   4.840023   1.940737   2.619092
    25  O    4.442961   3.806175   4.830442   2.414145   4.578917
    26  H    4.798689   3.867988   5.253068   2.395489   4.474959
                    6          7          8          9         10
     6  H    0.000000
     7  C    3.509106   0.000000
     8  H    2.479606   2.171243   0.000000
     9  C    2.838811   4.810808   3.306788   0.000000
    10  H    3.366646   3.369445   2.506544   2.159652   0.000000
    11  H    4.305597   1.095552   2.589407   5.622852   4.140039
    12  H    3.765251   1.095058   3.082506   5.394516   4.074727
    13  H    3.048257   5.542148   4.175587   1.094466   3.078049
    14  H    2.323745   4.557698   2.738292   1.092684   2.549043
    15  O    4.104343   1.418776   2.601289   4.547601   2.645425
    16  H    4.988768   1.945736   3.519089   5.458290   3.479395
    17  O    2.600185   2.417343   2.060884   4.802270   4.357030
    18  H    3.428545   2.640924   2.226054   5.301965   4.693643
    19  O    2.015543   3.023985   3.374636   4.416447   4.230460
    20  H    2.265764   3.120527   3.427504   4.965438   4.810273
    21  O    2.635470   4.458648   4.201936   2.988593   3.371134
    22  H    2.666428   4.445810   4.464166   3.801151   4.086231
    23  O    4.156688   4.878390   4.331318   2.388576   2.043111
    24  H    4.122913   5.227283   4.804580   2.709231   2.803528
    25  O    4.194469   5.728523   4.116633   1.429817   2.624669
    26  H    4.716156   5.949824   4.618124   1.930241   2.627838
                   11         12         13         14         15
    11  H    0.000000
    12  H    1.763761   0.000000
    13  H    6.430144   5.972556   0.000000
    14  H    5.251905   5.209885   1.782203   0.000000
    15  O    2.044556   2.059741   5.353439   4.571619   0.000000
    16  H    2.286700   2.263003   6.237316   5.535740   0.974375
    17  O    2.568108   2.796825   5.387123   4.080635   3.652965
    18  H    2.395422   3.204268   6.004422   4.525836   3.825851
    19  O    3.895124   2.652249   4.557058   4.180614   3.846409
    20  H    3.769479   2.772883   5.164808   4.529699   4.219090
    21  O    5.531197   4.395101   2.709752   3.436914   4.417303
    22  H    5.500126   4.173858   3.520446   4.056633   4.646207
    23  O    5.824808   5.248191   2.646590   3.361557   4.082908
    24  H    6.250454   5.423827   2.589778   3.674598   4.585017
    25  O    6.426438   6.445460   2.040878   2.045759   5.234948
    26  H    6.704374   6.607987   2.370041   2.815910   5.256305
                   16         17         18         19         20
    16  H    0.000000
    17  O    4.345312   0.000000
    18  H    4.451467   0.974979   0.000000
    19  O    4.456809   2.743686   3.687284   0.000000
    20  H    4.813058   2.203037   3.142496   0.980164   0.000000
    21  O    5.099319   4.795916   5.640004   2.743607   3.653294
    22  H    5.261950   4.628169   5.542783   2.178233   3.089212
    23  O    4.717310   5.883897   6.422906   4.819780   5.645853
    24  H    5.194282   6.103364   6.757575   4.614873   5.509601
    25  O    6.093267   5.870881   6.206044   5.790675   6.315739
    26  H    6.027600   6.429697   6.795282   6.083605   6.717737
                   21         22         23         24         25
    21  O    0.000000
    22  H    0.981133   0.000000
    23  O    2.748020   3.675985   0.000000
    24  H    2.163668   3.088391   0.980550   0.000000
    25  O    4.261012   5.143932   2.769520   3.336244   0.000000
    26  H    4.251496   5.201411   2.219088   2.852514   0.979156
                   26
    26  H    0.000000
 Stoichiometry    C6H14O6
 Framework group  C1[X(C6H14O6)]
 Deg. of freedom    72
 Full point group                 C1      NOp   1
 Largest Abelian subgroup         C1      NOp   1
 Largest concise Abelian subgroup C1      NOp   1
                         Standard orientation:                         
 ---------------------------------------------------------------------
 Center     Atomic      Atomic             Coordinates (Angstroms)
 Number     Number       Type             X           Y           Z
 ---------------------------------------------------------------------
      1          6           0        0.801675    0.781531    0.399075
      2          6           0       -0.361000    0.681704   -0.599530
      3          6           0        1.630260   -0.498124    0.623220
      4          6           0       -1.452436   -0.340129   -0.248193
      5          1           0        0.011979    0.492693   -1.612118
      6          1           0        0.428927    1.142135    1.365325
      7          6           0        2.265466   -1.064063   -0.653000
      8          1           0        0.998916   -1.256444    1.100036
      9          6           0       -2.104562   -0.115023    1.120712
     10          1           0       -1.072674   -1.364455   -0.306951
     11          1           0        3.044493   -1.789966   -0.395289
     12          1           0        2.739727   -0.276044   -1.247353
     13          1           0       -2.600203    0.859273    1.174966
     14          1           0       -1.382840   -0.195898    1.937128
     15          8           0        1.289401   -1.725587   -1.442055
     16          1           0        1.732881   -2.036082   -2.252194
     17          8           0        2.678727   -0.148891    1.545914
     18          1           0        3.073309   -0.983288    1.860035
     19          8           0        1.676453    1.841110   -0.055071
     20          1           0        2.439567    1.806179    0.559062
     21          8           0       -0.988655    1.983691   -0.690873
     22          1           0       -0.236191    2.609579   -0.759308
     23          8           0       -2.508321   -0.241500   -1.230091
     24          1           0       -2.589572    0.718790   -1.410978
     25          8           0       -3.108727   -1.111156    1.329880
     26          1           0       -3.575759   -1.183189    0.472303
 ---------------------------------------------------------------------
 Rotational constants (GHZ):           1.1727396           0.5662070           0.5331958
 Standard basis: def2TZVPP (5D, 7F)
 There are   642 symmetry adapted cartesian basis functions of A   symmetry.
 There are   568 symmetry adapted basis functions of A   symmetry.
   568 basis functions,   850 primitive gaussians,   642 cartesian basis functions
    49 alpha electrons       49 beta electrons
       nuclear repulsion energy       828.5221835158 Hartrees.
 NAtoms=   26 NActive=   26 NUniq=   26 SFac= 1.00D+00 NAtFMM=   60 NAOKFM=F Big=F
 Integral buffers will be    131072 words long.
 Raffenetti 2 integral format.
 Two-electron integral symmetry is turned on.
 Nuclear repulsion after empirical dispersion term =      828.5032548771 Hartrees.
 One-electron integrals computed using PRISM.
   1 Symmetry operations used in ECPInt.
 ECPInt:  NShTT=   23436 NPrTT=   62434 LenC2=   22037 LenP2D=   45700.
 LDataN:  DoStor=T MaxTD1= 6 Len=  172
 NBasis=   568 RedAO= T EigKep=  5.20D-05  NBF=   568
 NBsUse=   568 1.00D-06 EigRej= -1.00D+00 NBFU=   568
 ExpMin= 9.52D-02 ExpMax= 2.70D+04 ExpMxC= 9.22D+02 IAcc=3 IRadAn=         5 AccDes= 0.00D+00
 Harris functional with IExCor= 4639 and IRadAn=       5 diagonalized for initial guess.
 HarFok:  IExCor= 4639 AccDes= 0.00D+00 IRadAn=         5 IDoV= 1 UseB2=F ITyADJ=14
 ICtDFT=  3500011 ScaDFX=  1.000000  1.000000  1.000000  1.000000
 FoFCou: FMM=F IPFlag=           0 FMFlag=      100000 FMFlg1=           0
         NFxFlg=           0 DoJE=T BraDBF=F KetDBF=T FulRan=T
         wScrn=  0.000000 ICntrl=       500 IOpCl=  0 I1Cent=   200000004 NGrid=           0
         NMat0=    1 NMatS0=      1 NMatT0=    0 NMatD0=    1 NMtDS0=    0 NMtDT0=    0
 Petite list used in FoFCou.
 Requested convergence on RMS density matrix=1.00D-08 within 128 cycles.
 Requested convergence on MAX density matrix=1.00D-06.
 Requested convergence on             energy=1.00D-06.
 No special actions if energy rises.
 Integral accuracy reduced to 1.0D-05 until final iterations.
 Initial convergence to 1.0D-05 achieved.  Increase integral accuracy.
 SCF Done:  E(RwB97XD) =  -688.464901617     A.U. after   14 cycles
            NFock= 14  Conv=0.22D-08     -V/T= 2.0050

 **********************************************************************

            Population analysis using the SCF Density.

 **********************************************************************

 Orbital symmetries:
       Occupied  (A) (A) (A) (A) (A) (A) (A) (A) (A) (A) (A) (A)
                 (A) (A) (A) (A) (A) (A) (A) (A) (A) (A) (A) (A)
                 (A) (A) (A) (A) (A) (A) (A) (A) (A) (A) (A) (A)
                 (A) (A) (A) (A) (A) (A) (A) (A) (A) (A) (A) (A)
                 (A)
       Virtual   (A) (A) (A) (A) (A) (A) (A) (A) (A) (A) (A) (A)
                 (A) (A) (A) (A) (A) (A) (A) (A) (A) (A) (A) (A)
                 (A) (A) (A) (A) (A) (A) (A) (A) (A) (A) (A) (A)
                 (A) (A) (A) (A) (A) (A) (A) (A) (A) (A) (A) (A)
                 (A) (A) (A) (A) (A) (A) (A) (A) (A) (A) (A) (A)
                 (A) (A) (A) (A) (A) (A) (A) (A) (A) (A) (A) (A)
                 (A) (A) (A) (A) (A) (A) (A) (A) (A) (A) (A) (A)
                 (A) (A) (A) (A) (A) (A) (A) (A) (A) (A) (A) (A)
                 (A) (A) (A) (A) (A) (A) (A) (A) (A) (A) (A) (A)
                 (A) (A) (A) (A) (A) (A) (A) (A) (A) (A) (A) (A)
                 (A) (A) (A) (A) (A) (A) (A) (A) (A) (A) (A) (A)
                 (A) (A) (A) (A) (A) (A) (A) (A) (A) (A) (A) (A)
                 (A) (A) (A) (A) (A) (A) (A) (A) (A) (A) (A) (A)
                 (A) (A) (A) (A) (A) (A) (A) (A) (A) (A) (A) (A)
                 (A) (A) (A) (A) (A) (A) (A) (A) (A) (A) (A) (A)
                 (A) (A) (A) (A) (A) (A) (A) (A) (A) (A) (A) (A)
                 (A) (A) (A) (A) (A) (A) (A) (A) (A) (A) (A) (A)
                 (A) (A) (A) (A) (A) (A) (A) (A) (A) (A) (A) (A)
                 (A) (A) (A) (A) (A) (A) (A) (A) (A) (A) (A) (A)
                 (A) (A) (A) (A) (A) (A) (A) (A) (A) (A) (A) (A)
                 (A) (A) (A) (A) (A) (A) (A) (A) (A) (A) (A) (A)
                 (A) (A) (A) (A) (A) (A) (A) (A) (A) (A) (A) (A)
                 (A) (A) (A) (A) (A) (A) (A) (A) (A) (A) (A) (A)
                 (A) (A) (A) (A) (A) (A) (A) (A) (A) (A) (A) (A)
                 (A) (A) (A) (A) (A) (A) (A) (A) (A) (A) (A) (A)
                 (A) (A) (A) (A) (A) (A) (A) (A) (A) (A) (A) (A)
                 (A) (A) (A) (A) (A) (A) (A) (A) (A) (A) (A) (A)
                 (A) (A) (A) (A) (A) (A) (A) (A) (A) (A) (A) (A)
                 (A) (A) (A) (A) (A) (A) (A) (A) (A) (A) (A) (A)
                 (A) (A) (A) (A) (A) (A) (A) (A) (A) (A) (A) (A)
                 (A) (A) (A) (A) (A) (A) (A) (A) (A) (A) (A) (A)
                 (A) (A) (A) (A) (A) (A) (A) (A) (A) (A) (A) (A)
                 (A) (A) (A) (A) (A) (A) (A) (A) (A) (A) (A) (A)
                 (A) (A) (A) (A) (A) (A) (A) (A) (A) (A) (A) (A)
                 (A) (A) (A) (A) (A) (A) (A) (A) (A) (A) (A) (A)
                 (A) (A) (A) (A) (A) (A) (A) (A) (A) (A) (A) (A)
                 (A) (A) (A) (A) (A) (A) (A) (A) (A) (A) (A) (A)
                 (A) (A) (A) (A) (A) (A) (A) (A) (A) (A) (A) (A)
                 (A) (A) (A) (A) (A) (A) (A) (A) (A) (A) (A) (A)
                 (A) (A) (A) (A) (A) (A) (A) (A) (A) (A) (A) (A)
                 (A) (A) (A) (A) (A) (A) (A) (A) (A) (A) (A) (A)
                 (A) (A) (A) (A) (A) (A) (A) (A) (A) (A) (A) (A)
                 (A) (A) (A) (A) (A) (A) (A) (A) (A) (A) (A) (A)
                 (A) (A) (A)
 The electronic state is 1-A.
 Alpha  occ. eigenvalues --  -19.28217 -19.26961 -19.26599 -19.25598 -19.24925
 Alpha  occ. eigenvalues --  -19.23181 -10.36368 -10.35493 -10.34853 -10.34637
 Alpha  occ. eigenvalues --  -10.33833 -10.32022  -1.16204  -1.14309  -1.14028
 Alpha  occ. eigenvalues --   -1.12686  -1.11019  -1.09320  -0.89405  -0.84816
 Alpha  occ. eigenvalues --   -0.79844  -0.75655  -0.71537  -0.68046  -0.65030
 Alpha  occ. eigenvalues --   -0.62849  -0.61496  -0.59652  -0.58430  -0.56937
 Alpha  occ. eigenvalues --   -0.56145  -0.54287  -0.53780  -0.52595  -0.51461
 Alpha  occ. eigenvalues --   -0.50753  -0.48460  -0.47412  -0.45783  -0.44977
 Alpha  occ. eigenvalues --   -0.43847  -0.42011  -0.41403  -0.39610  -0.38051
 Alpha  occ. eigenvalues --   -0.37672  -0.37212  -0.36871  -0.33932
 Alpha virt. eigenvalues --    0.07874   0.08835   0.11555   0.12730   0.13493
 Alpha virt. eigenvalues --    0.15265   0.15784   0.16909   0.17276   0.18553
 Alpha virt. eigenvalues --    0.19344   0.19732   0.20005   0.21112   0.21364
 Alpha virt. eigenvalues --    0.22551   0.24137   0.25651   0.26209   0.26571
 Alpha virt. eigenvalues --    0.27273   0.29238   0.30627   0.32078   0.33704
 Alpha virt. eigenvalues --    0.34127   0.35510   0.36947   0.38111   0.38372
 Alpha virt. eigenvalues --    0.38916   0.39464   0.39703   0.41273   0.41391
 Alpha virt. eigenvalues --    0.41606   0.42507   0.42830   0.44106   0.44799
 Alpha virt. eigenvalues --    0.45688   0.46255   0.46992   0.47126   0.48310
 Alpha virt. eigenvalues --    0.48952   0.49828   0.50723   0.51548   0.51960
 Alpha virt. eigenvalues --    0.52692   0.52958   0.53162   0.53983   0.54370
 Alpha virt. eigenvalues --    0.55647   0.56442   0.56642   0.57586   0.58954
 Alpha virt. eigenvalues --    0.60695   0.61710   0.62642   0.63046   0.63444
 Alpha virt. eigenvalues --    0.64430   0.66976   0.67192   0.68066   0.68820
 Alpha virt. eigenvalues --    0.69118   0.70334   0.70805   0.71691   0.72956
 Alpha virt. eigenvalues --    0.73591   0.74806   0.77623   0.78325   0.79374
 Alpha virt. eigenvalues --    0.80273   0.82502   0.83491   0.84587   0.85862
 Alpha virt. eigenvalues --    0.86891   0.87224   0.89331   0.89807   0.90449
 Alpha virt. eigenvalues --    0.91354   0.93994   0.94586   0.96479   0.97200
 Alpha virt. eigenvalues --    0.98219   0.99110   0.99526   1.01593   1.01818
 Alpha virt. eigenvalues --    1.02814   1.03632   1.04483   1.05757   1.07867
 Alpha virt. eigenvalues --    1.09776   1.10121   1.10976   1.11156   1.13029
 Alpha virt. eigenvalues --    1.14081   1.14510   1.15425   1.15823   1.17154
 Alpha virt. eigenvalues --    1.17946   1.19583   1.21269   1.22261   1.23741
 Alpha virt. eigenvalues --    1.24469   1.25924   1.26322   1.27605   1.28857
 Alpha virt. eigenvalues --    1.29002   1.30643   1.31137   1.31469   1.34198
 Alpha virt. eigenvalues --    1.36306   1.37145   1.38074   1.38571   1.40085
 Alpha virt. eigenvalues --    1.40313   1.41371   1.43099   1.45151   1.46554
 Alpha virt. eigenvalues --    1.48139   1.49589   1.50673   1.51955   1.52317
 Alpha virt. eigenvalues --    1.53525   1.54432   1.56582   1.57125   1.57802
 Alpha virt. eigenvalues --    1.59012   1.61733   1.62238   1.64501   1.65257
 Alpha virt. eigenvalues --    1.66664   1.68853   1.71004   1.72210   1.73082
 Alpha virt. eigenvalues --    1.75567   1.76383   1.80650   1.84215   1.84777
 Alpha virt. eigenvalues --    1.87397   1.89465   1.90399   1.93334   1.94180
 Alpha virt. eigenvalues --    1.94664   1.94793   1.96606   1.99463   1.99724
 Alpha virt. eigenvalues --    2.00805   2.01997   2.03341   2.04131   2.05324
 Alpha virt. eigenvalues --    2.06248   2.07169   2.07610   2.08659   2.09772
 Alpha virt. eigenvalues --    2.11168   2.11913   2.12727   2.13785   2.16344
 Alpha virt. eigenvalues --    2.16917   2.18064   2.20266   2.20991   2.23673
 Alpha virt. eigenvalues --    2.24716   2.27857   2.28971   2.29650   2.32726
 Alpha virt. eigenvalues --    2.32960   2.33782   2.38093   2.40048   2.41226
 Alpha virt. eigenvalues --    2.42528   2.43608   2.46951   2.49400   2.51798
 Alpha virt. eigenvalues --    2.53131   2.55838   2.56764   2.61295   2.62553
 Alpha virt. eigenvalues --    2.64757   2.66694   2.68151   2.69570   2.71258
 Alpha virt. eigenvalues --    2.73343   2.74246   2.75702   2.76252   2.77661
 Alpha virt. eigenvalues --    2.78601   2.79084   2.80789   2.83168   2.84717
 Alpha virt. eigenvalues --    2.85175   2.86627   2.88124   2.88956   2.89254
 Alpha virt. eigenvalues --    2.90496   2.93839   2.95860   2.96184   2.97853
 Alpha virt. eigenvalues --    2.98261   2.99872   3.00360   3.02781   3.04417
 Alpha virt. eigenvalues --    3.05660   3.06561   3.08542   3.10302   3.10347
 Alpha virt. eigenvalues --    3.11639   3.13611   3.14520   3.16855   3.17120
 Alpha virt. eigenvalues --    3.18162   3.18467   3.19303   3.20670   3.21799
 Alpha virt. eigenvalues --    3.23397   3.24405   3.24489   3.25355   3.25665
 Alpha virt. eigenvalues --    3.26851   3.29441   3.29695   3.31436   3.32131
 Alpha virt. eigenvalues --    3.33269   3.34707   3.35207   3.36408   3.36990
 Alpha virt. eigenvalues --    3.38213   3.38911   3.40462   3.40855   3.42540
 Alpha virt. eigenvalues --    3.43248   3.44484   3.45354   3.46339   3.47527
 Alpha virt. eigenvalues --    3.48246   3.50159   3.50866   3.51846   3.52518
 Alpha virt. eigenvalues --    3.52949   3.53659   3.55547   3.58521   3.59299
 Alpha virt. eigenvalues --    3.60797   3.61337   3.63464   3.64768   3.66484
 Alpha virt. eigenvalues --    3.66989   3.68313   3.69781   3.70702   3.72775
 Alpha virt. eigenvalues --    3.73985   3.75067   3.75360   3.76447   3.77452
 Alpha virt. eigenvalues --    3.78481   3.79462   3.79857   3.81673   3.84228
 Alpha virt. eigenvalues --    3.84879   3.85530   3.87627   3.88545   3.89074
 Alpha virt. eigenvalues --    3.89779   3.91335   3.93139   3.93639   3.94657
 Alpha virt. eigenvalues --    3.96587   3.97056   3.97650   3.98282   4.00704
 Alpha virt. eigenvalues --    4.01301   4.02495   4.03934   4.04713   4.06515
 Alpha virt. eigenvalues --    4.07688   4.08212   4.09432   4.10091   4.11211
 Alpha virt. eigenvalues --    4.12001   4.12453   4.12937   4.14008   4.16461
 Alpha virt. eigenvalues --    4.17657   4.18656   4.20318   4.21369   4.22368
 Alpha virt. eigenvalues --    4.23462   4.24378   4.25504   4.26352   4.26692
 Alpha virt. eigenvalues --    4.28917   4.29862   4.31815   4.32243   4.33862
 Alpha virt. eigenvalues --    4.33967   4.36222   4.37549   4.39145   4.39909
 Alpha virt. eigenvalues --    4.41595   4.43598   4.45255   4.46581   4.47118
 Alpha virt. eigenvalues --    4.47937   4.49603   4.52124   4.54677   4.56418
 Alpha virt. eigenvalues --    4.56519   4.58265   4.58712   4.61471   4.62693
 Alpha virt. eigenvalues --    4.64943   4.66515   4.67261   4.68957   4.69599
 Alpha virt. eigenvalues --    4.75981   4.77560   4.78592   4.79129   4.79607
 Alpha virt. eigenvalues --    4.81187   4.84132   4.84473   4.85703   4.86692
 Alpha virt. eigenvalues --    4.90665   4.91606   4.92274   4.94586   4.96416
 Alpha virt. eigenvalues --    4.97159   4.99143   5.01647   5.03196   5.03806
 Alpha virt. eigenvalues --    5.06733   5.08406   5.08821   5.11735   5.12423
 Alpha virt. eigenvalues --    5.14462   5.15855   5.16982   5.18825   5.20134
 Alpha virt. eigenvalues --    5.20245   5.22652   5.25848   5.27513   5.28168
 Alpha virt. eigenvalues --    5.33924   5.34961   5.39978   5.43527   5.44902
 Alpha virt. eigenvalues --    5.47273   5.49107   5.52340   5.55286   5.56818
 Alpha virt. eigenvalues --    5.59721   5.60753   5.63024   5.63772   5.66716
 Alpha virt. eigenvalues --    5.67826   5.70046   5.71899   5.72982   5.74573
 Alpha virt. eigenvalues --    5.77567   5.78667   5.80035   5.82593   5.83939
 Alpha virt. eigenvalues --    5.84036   5.87731   5.91437   5.92597   5.94785
 Alpha virt. eigenvalues --    5.97737   6.01923   6.05212   6.10034   6.12869
 Alpha virt. eigenvalues --    6.14554   6.15886   6.18373   6.21458   6.53047
 Alpha virt. eigenvalues --    6.54421   6.55075   6.55295   6.55754   6.56763
 Alpha virt. eigenvalues --    6.70455   6.72608   6.73640   6.75207   6.75361
 Alpha virt. eigenvalues --    6.76937   6.77123   6.78182   6.78806   6.80721
 Alpha virt. eigenvalues --    6.81296   6.82612   6.82974   6.85179   6.87358
 Alpha virt. eigenvalues --    6.88941   6.90090   6.90184   6.97976   6.99219
 Alpha virt. eigenvalues --    7.00432   7.01940   7.04349   7.09743   7.14971
 Alpha virt. eigenvalues --    7.17060   7.19798   7.20178   7.22210   7.23324
 Alpha virt. eigenvalues --    7.40903   7.42458   7.43123   7.44631   7.45600
 Alpha virt. eigenvalues --    7.46445   7.50623   7.53096   7.56032   7.57114
 Alpha virt. eigenvalues --    7.58627   7.62031  23.11502  23.14325  23.19614
 Alpha virt. eigenvalues --   23.23767  23.42421  23.46831  44.09976  44.15820
 Alpha virt. eigenvalues --   44.19438  44.28762  44.31488  44.37862
          Condensed to atoms (all electrons):
               1          2          3          4          5          6
     1  C    5.204500   0.067520   0.171576   0.050834  -0.000420   0.418020
     2  C    0.067520   5.204872   0.019913   0.119195   0.389626  -0.022237
     3  C    0.171576   0.019913   4.931693  -0.005756  -0.015170  -0.030945
     4  C    0.050834   0.119195  -0.005756   4.934322  -0.032606  -0.009129
     5  H   -0.000420   0.389626  -0.015170  -0.032606   0.569552   0.006744
     6  H    0.418020  -0.022237  -0.030945  -0.009129   0.006744   0.567480
     7  C    0.010761   0.002763   0.260621  -0.005175   0.005631   0.006311
     8  H   -0.044385  -0.007731   0.443648   0.003898  -0.000832  -0.002800
     9  C    0.032403  -0.034271  -0.008084   0.352888   0.007643  -0.001917
    10  H   -0.037963   0.031401   0.017042   0.374668  -0.005260   0.000984
    11  H    0.007458  -0.001032  -0.038115   0.000512   0.001111  -0.000455
    12  H   -0.029341   0.003636  -0.011426  -0.000341  -0.003996   0.001123
    13  H   -0.018020   0.038363   0.002772  -0.053766   0.000407   0.002599
    14  H    0.029554  -0.041612  -0.009712   0.004507  -0.001340  -0.008387
    15  O   -0.015158  -0.010884  -0.048458  -0.009126   0.018680  -0.000659
    16  H    0.002432  -0.002103   0.005448   0.001136   0.000834   0.000071
    17  O   -0.067770   0.007005   0.247819  -0.000657  -0.000005   0.006430
    18  H    0.008827  -0.001138  -0.028627  -0.000033   0.000007  -0.000314
    19  O    0.222617  -0.033765  -0.011248   0.004571   0.002396  -0.040416
    20  H   -0.036940   0.007309  -0.004486  -0.000696  -0.000050  -0.005966
    21  O   -0.025385   0.234281   0.010821  -0.046904  -0.039043   0.003191
    22  H   -0.004891  -0.036225   0.001843   0.005857  -0.004825  -0.001423
    23  O    0.008642  -0.032312  -0.001236   0.256439   0.005589  -0.000129
    24  H    0.000751  -0.008839  -0.000167  -0.050824  -0.001915   0.000041
    25  O   -0.001836   0.011837   0.000737  -0.047047  -0.000394   0.000015
    26  H    0.000379  -0.002241  -0.000066  -0.010117  -0.000238  -0.000102
               7          8          9         10         11         12
     1  C    0.010761  -0.044385   0.032403  -0.037963   0.007458  -0.029341
     2  C    0.002763  -0.007731  -0.034271   0.031401  -0.001032   0.003636
     3  C    0.260621   0.443648  -0.008084   0.017042  -0.038115  -0.011426
     4  C   -0.005175   0.003898   0.352888   0.374668   0.000512  -0.000341
     5  H    0.005631  -0.000832   0.007643  -0.005260   0.001111  -0.003996
     6  H    0.006311  -0.002800  -0.001917   0.000984  -0.000455   0.001123
     7  C    4.805771  -0.039375   0.000678  -0.005022   0.416586   0.395751
     8  H   -0.039375   0.598850   0.000564  -0.000576  -0.011259   0.010067
     9  C    0.000678   0.000564   4.710585  -0.052621   0.000039  -0.000016
    10  H   -0.005022  -0.000576  -0.052621   0.581070  -0.000066   0.000854
    11  H    0.416586  -0.011259   0.000039  -0.000066   0.629311  -0.043510
    12  H    0.395751   0.010067  -0.000016   0.000854  -0.043510   0.609413
    13  H   -0.000120  -0.000201   0.404431   0.009815   0.000001   0.000002
    14  H    0.000513   0.001180   0.368883  -0.005124   0.000012  -0.000032
    15  O    0.257335   0.005530   0.000913   0.013916  -0.037438  -0.044599
    16  H   -0.015812  -0.000020  -0.000062  -0.001176  -0.006821  -0.008201
    17  O   -0.030959  -0.036487  -0.000351   0.000059   0.003652   0.003281
    18  H   -0.002702  -0.009397   0.000049   0.000015   0.006255  -0.000839
    19  O   -0.030723   0.004254  -0.000167   0.000020   0.000289   0.023919
    20  H    0.000791   0.001106   0.000055  -0.000003  -0.000032  -0.000529
    21  O   -0.000625  -0.000160  -0.012399   0.001764   0.000016  -0.000067
    22  H   -0.000357  -0.000056   0.001177  -0.000233   0.000003   0.000038
    23  O    0.000230   0.000035  -0.059569  -0.024561  -0.000005  -0.000015
    24  H    0.000026  -0.000024   0.002681   0.006325  -0.000000  -0.000006
    25  O   -0.000093   0.000200   0.293861   0.012678  -0.000000   0.000002
    26  H   -0.000000   0.000038  -0.049489  -0.001776   0.000000   0.000000
              13         14         15         16         17         18
     1  C   -0.018020   0.029554  -0.015158   0.002432  -0.067770   0.008827
     2  C    0.038363  -0.041612  -0.010884  -0.002103   0.007005  -0.001138
     3  C    0.002772  -0.009712  -0.048458   0.005448   0.247819  -0.028627
     4  C   -0.053766   0.004507  -0.009126   0.001136  -0.000657  -0.000033
     5  H    0.000407  -0.001340   0.018680   0.000834  -0.000005   0.000007
     6  H    0.002599  -0.008387  -0.000659   0.000071   0.006430  -0.000314
     7  C   -0.000120   0.000513   0.257335  -0.015812  -0.030959  -0.002702
     8  H   -0.000201   0.001180   0.005530  -0.000020  -0.036487  -0.009397
     9  C    0.404431   0.368883   0.000913  -0.000062  -0.000351   0.000049
    10  H    0.009815  -0.005124   0.013916  -0.001176   0.000059   0.000015
    11  H    0.000001   0.000012  -0.037438  -0.006821   0.003652   0.006255
    12  H    0.000002  -0.000032  -0.044599  -0.008201   0.003281  -0.000839
    13  H    0.617339  -0.039448  -0.000010   0.000001  -0.000004   0.000001
    14  H   -0.039448   0.664827  -0.000070   0.000005   0.000457  -0.000029
    15  O   -0.000010  -0.000070   7.884452   0.312307   0.003083  -0.000051
    16  H    0.000001   0.000005   0.312307   0.532920  -0.000365  -0.000043
    17  O   -0.000004   0.000457   0.003083  -0.000365   7.888065   0.330518
    18  H    0.000001  -0.000029  -0.000051  -0.000043   0.330518   0.514566
    19  O   -0.000006   0.000050   0.001309  -0.000017  -0.011254   0.000027
    20  H   -0.000009  -0.000040  -0.000017   0.000000   0.021293  -0.001159
    21  O    0.010375   0.001093   0.000222  -0.000011  -0.000072   0.000017
    22  H   -0.000369  -0.000065   0.000003  -0.000002  -0.000029   0.000005
    23  O   -0.001919   0.007268   0.000230   0.000003   0.000000  -0.000000
    24  H    0.001163   0.000573  -0.000025   0.000006   0.000001  -0.000000
    25  O   -0.047589  -0.033377  -0.000002  -0.000000  -0.000000  -0.000000
    26  H   -0.006205   0.011747  -0.000007   0.000000  -0.000000   0.000000
              19         20         21         22         23         24
     1  C    0.222617  -0.036940  -0.025385  -0.004891   0.008642   0.000751
     2  C   -0.033765   0.007309   0.234281  -0.036225  -0.032312  -0.008839
     3  C   -0.011248  -0.004486   0.010821   0.001843  -0.001236  -0.000167
     4  C    0.004571  -0.000696  -0.046904   0.005857   0.256439  -0.050824
     5  H    0.002396  -0.000050  -0.039043  -0.004825   0.005589  -0.001915
     6  H   -0.040416  -0.005966   0.003191  -0.001423  -0.000129   0.000041
     7  C   -0.030723   0.000791  -0.000625  -0.000357   0.000230   0.000026
     8  H    0.004254   0.001106  -0.000160  -0.000056   0.000035  -0.000024
     9  C   -0.000167   0.000055  -0.012399   0.001177  -0.059569   0.002681
    10  H    0.000020  -0.000003   0.001764  -0.000233  -0.024561   0.006325
    11  H    0.000289  -0.000032   0.000016   0.000003  -0.000005  -0.000000
    12  H    0.023919  -0.000529  -0.000067   0.000038  -0.000015  -0.000006
    13  H   -0.000006  -0.000009   0.010375  -0.000369  -0.001919   0.001163
    14  H    0.000050  -0.000040   0.001093  -0.000065   0.007268   0.000573
    15  O    0.001309  -0.000017   0.000222   0.000003   0.000230  -0.000025
    16  H   -0.000017   0.000000  -0.000011  -0.000002   0.000003   0.000006
    17  O   -0.011254   0.021293  -0.000072  -0.000029   0.000000   0.000001
    18  H    0.000027  -0.001159   0.000017   0.000005  -0.000000  -0.000000
    19  O    7.927510   0.327515  -0.010421   0.021265  -0.000067  -0.000020
    20  H    0.327515   0.488582  -0.000050  -0.001208   0.000012   0.000005
    21  O   -0.010421  -0.000050   7.918640   0.335473  -0.008191   0.022128
    22  H    0.021265  -0.001208   0.335473   0.481280   0.000089  -0.001164
    23  O   -0.000067   0.000012  -0.008191   0.000089   7.910021   0.328613
    24  H   -0.000020   0.000005   0.022128  -0.001164   0.328613   0.493949
    25  O   -0.000000  -0.000001   0.000162   0.000005  -0.013317   0.000080
    26  H    0.000001  -0.000000   0.000110   0.000006   0.027335  -0.000726
              25         26
     1  C   -0.001836   0.000379
     2  C    0.011837  -0.002241
     3  C    0.000737  -0.000066
     4  C   -0.047047  -0.010117
     5  H   -0.000394  -0.000238
     6  H    0.000015  -0.000102
     7  C   -0.000093  -0.000000
     8  H    0.000200   0.000038
     9  C    0.293861  -0.049489
    10  H    0.012678  -0.001776
    11  H   -0.000000   0.000000
    12  H    0.000002   0.000000
    13  H   -0.047589  -0.006205
    14  H   -0.033377   0.011747
    15  O   -0.000002  -0.000007
    16  H   -0.000000   0.000000
    17  O   -0.000000  -0.000000
    18  H   -0.000000   0.000000
    19  O   -0.000000   0.000001
    20  H   -0.000001  -0.000000
    21  O    0.000162   0.000110
    22  H    0.000005   0.000006
    23  O   -0.013317   0.027335
    24  H    0.000080  -0.000726
    25  O    7.879132   0.321148
    26  H    0.321148   0.511665
 Mulliken charges:
               1
     1  C    0.045834
     2  C    0.096667
     3  C    0.099566
     4  C    0.163350
     5  H    0.097873
     6  H    0.111869
     7  C   -0.032807
     8  H    0.083934
     9  C    0.042097
    10  H    0.083770
    11  H    0.073489
    12  H    0.094832
    13  H    0.080397
    14  H    0.048565
    15  O   -0.331476
    16  H    0.179469
    17  O   -0.363708
    18  H    0.184045
    19  O   -0.397639
    20  H    0.204517
    21  O   -0.394966
    22  H    0.203799
    23  O   -0.403185
    24  H    0.207369
    25  O   -0.376199
    26  H    0.198536
 Sum of Mulliken charges =  -0.00000
 Mulliken charges with hydrogens summed into heavy atoms:
               1
     1  C    0.157704
     2  C    0.194540
     3  C    0.183500
     4  C    0.247121
     7  C    0.135514
     9  C    0.171059
    15  O   -0.152007
    17  O   -0.179663
    19  O   -0.193121
    21  O   -0.191167
    23  O   -0.195816
    25  O   -0.177663
 Electronic spatial extent (au):  <R**2>=           2393.5064
 Charge=             -0.0000 electrons
 Dipole moment (field-independent basis, Debye):
    X=              4.9758    Y=             -0.7732    Z=             -0.6279  Tot=              5.0746
 Quadrupole moment (field-independent basis, Debye-Ang):
   XX=            -71.3918   YY=            -71.7794   ZZ=            -71.3165
   XY=            -10.1716   XZ=              2.3611   YZ=              1.8144
 Traceless Quadrupole moment (field-independent basis, Debye-Ang):
   XX=              0.1041   YY=             -0.2835   ZZ=              0.1794
   XY=            -10.1716   XZ=              2.3611   YZ=              1.8144
 Octapole moment (field-independent basis, Debye-Ang**2):
  XXX=             36.9707  YYY=              2.2139  ZZZ=            -17.5211  XYY=             18.4492
  XXY=             -7.6603  XXZ=            -16.2094  XZZ=             28.3303  YZZ=             -5.1511
  YYZ=             -5.8395  XYZ=             -2.9512
 Hexadecapole moment (field-independent basis, Debye-Ang**3):
 XXXX=          -1653.7819 YYYY=           -604.6228 ZZZZ=           -482.0183 XXXY=            -69.6047
 XXXZ=             80.6539 YYYX=             -6.7388 YYYZ=             12.3937 ZZZX=              2.0553
 ZZZY=             21.6089 XXYY=           -358.3335 XXZZ=           -383.2467 YYZZ=           -163.6937
 XXYZ=             16.9723 YYXZ=             17.6049 ZZXY=            -61.4799
 N-N= 8.285032548771D+02 E-N=-3.274287150703D+03  KE= 6.850269717856D+02
   1 Symmetry operations used in ECPInt.
 ECPInt:  NShTT=   23436 NPrTT=   62434 LenC2=   22037 LenP2D=   45700.
 LDataN:  DoStor=T MaxTD1= 7 Len=  274
 Calling FoFJK, ICntrl=      2127 FMM=F ISym2X=0 I1Cent= 0 IOpClX= 0 NMat=1 NMatS=1 NMatT=0.
 ***** Axes restored to original set *****
 -------------------------------------------------------------------
 Center     Atomic                   Forces (Hartrees/Bohr)
 Number     Number              X              Y              Z
 -------------------------------------------------------------------
      1        6          -0.010777257    0.005992778   -0.009130780
      2        6           0.001202469    0.000317269   -0.014308159
      3        6          -0.002085536    0.001194473   -0.000564979
      4        6           0.010383579   -0.006499997   -0.013695501
      5        1          -0.005359110   -0.000503630    0.010094295
      6        1           0.004255123   -0.001545272    0.008883292
      7        6           0.005299390    0.005763212    0.003808863
      8        1           0.004733268    0.002473257   -0.000727196
      9        6           0.009429968   -0.005486986    0.011743393
     10        1          -0.000648052    0.000513958   -0.004568420
     11        1          -0.005058180   -0.004177864   -0.001334110
     12        1          -0.003730091   -0.005195056   -0.002623257
     13        1          -0.004513651    0.006531369   -0.004262452
     14        1           0.001562809   -0.000123655    0.001158457
     15        8           0.002720714    0.013318760    0.002361099
     16        1          -0.001719555   -0.018819810   -0.002457307
     17        8           0.004353870    0.002753320    0.014066836
     18        1           0.006374631   -0.002653837   -0.017718093
     19        8          -0.010497488   -0.000643916    0.015215182
     20        1           0.018955236    0.000060972   -0.005419386
     21        8          -0.018852736    0.008166734   -0.000349115
     22        1           0.013665188   -0.010310293    0.011109900
     23        8          -0.012208849    0.003274294   -0.015445585
     24        1           0.000063659    0.000260920    0.018152010
     25        8           0.008691013    0.012661647   -0.004203695
     26        1          -0.016240411   -0.007322646    0.000214709
 -------------------------------------------------------------------
 Cartesian Forces:  Max     0.018955236 RMS     0.008461514

 GradGradGradGradGradGradGradGradGradGradGradGradGradGradGradGradGradGrad
 Berny optimization.
 FormGI is forming the generalized inverse of G from B-inverse, IUseBI=4.
 Internal  Forces:  Max     0.020092993 RMS     0.005791289
 Search for a local minimum.
 Step number   1 out of a maximum of  140
 All quantities printed in internal units (Hartrees-Bohrs-Radians)
 Mixed Optimization -- RFO/linear search
 Second derivative matrix not updated -- first step.
 ITU=  0
     Eigenvalues ---    0.00230   0.00291   0.00292   0.00319   0.00330
     Eigenvalues ---    0.01053   0.01068   0.01093   0.01167   0.01297
     Eigenvalues ---    0.01443   0.03595   0.03689   0.03905   0.03986
     Eigenvalues ---    0.04597   0.04713   0.04864   0.04873   0.04960
     Eigenvalues ---    0.05159   0.05477   0.05692   0.07631   0.07771
     Eigenvalues ---    0.08026   0.08074   0.11516   0.11552   0.13708
     Eigenvalues ---    0.13849   0.16000   0.16000   0.16000   0.16000
     Eigenvalues ---    0.16000   0.16000   0.16822   0.16837   0.17251
     Eigenvalues ---    0.17574   0.19386   0.19430   0.19512   0.19710
     Eigenvalues ---    0.21983   0.22012   0.28441   0.28885   0.28890
     Eigenvalues ---    0.29076   0.29155   0.34057   0.34140   0.34179
     Eigenvalues ---    0.34182   0.34235   0.34302   0.34350   0.34504
     Eigenvalues ---    0.38473   0.38623   0.38874   0.39633   0.41016
     Eigenvalues ---    0.42645   0.51165   0.51278   0.51353   0.51549
     Eigenvalues ---    0.52372   0.52493
 RFO step:  Lambda=-1.72182734D-02 EMin= 2.30000000D-03
 Linear search not attempted -- first point.
 Iteration  1 RMS(Cart)=  0.07243830 RMS(Int)=  0.00139172
 Iteration  2 RMS(Cart)=  0.00196562 RMS(Int)=  0.00041754
 Iteration  3 RMS(Cart)=  0.00000189 RMS(Int)=  0.00041754
 Iteration  4 RMS(Cart)=  0.00000000 RMS(Int)=  0.00041754
 Variable       Old X    -DE/DX   Delta X   Delta X   Delta X     New X
                                 (Linear)    (Quad)   (Total)
    R1        2.90243  -0.01282   0.00000  -0.04188  -0.04188   2.86055
    R2        2.91184  -0.01109   0.00000  -0.03677  -0.03677   2.87508
    R3        2.07235  -0.00143   0.00000  -0.00400  -0.00400   2.06835
    R4        2.73468  -0.01074   0.00000  -0.02662  -0.02662   2.70806
    R5        2.90232  -0.01150   0.00000  -0.03755  -0.03755   2.86477
    R6        2.07024  -0.00237   0.00000  -0.00660  -0.00660   2.06364
    R7        2.73682  -0.01018   0.00000  -0.02532  -0.02532   2.71150
    R8        2.89844  -0.00930   0.00000  -0.03019  -0.03019   2.86825
    R9        2.07095  -0.00109   0.00000  -0.00303  -0.00303   2.06793
   R10        2.72056  -0.00992   0.00000  -0.02399  -0.02399   2.69657
   R11        2.89680  -0.00563   0.00000  -0.01823  -0.01823   2.87857
   R12        2.06743  -0.00376   0.00000  -0.01043  -0.01043   2.05700
   R13        2.73113  -0.01234   0.00000  -0.03039  -0.03039   2.70074
   R14        2.07029   0.00076   0.00000   0.00212   0.00212   2.07242
   R15        2.06936  -0.00072   0.00000  -0.00201  -0.00201   2.06735
   R16        2.68110   0.00066   0.00000   0.00148   0.00148   2.68258
   R17        2.06824  -0.00064   0.00000  -0.00178  -0.00178   2.06646
   R18        2.06487  -0.00134   0.00000  -0.00369  -0.00369   2.06118
   R19        2.70196  -0.00905   0.00000  -0.02118  -0.02118   2.68078
   R20        1.84130  -0.01889   0.00000  -0.03485  -0.03485   1.80645
   R21        1.84244  -0.01883   0.00000  -0.03481  -0.03481   1.80763
   R22        1.85224  -0.01936   0.00000  -0.03647  -0.03647   1.81577
   R23        1.85407  -0.02009   0.00000  -0.03799  -0.03799   1.81608
   R24        1.85297  -0.01799   0.00000  -0.03394  -0.03394   1.81904
   R25        1.85034  -0.01777   0.00000  -0.03336  -0.03336   1.81698
    A1        2.03495   0.00189   0.00000  -0.00773  -0.00798   2.02697
    A2        1.91446  -0.00043   0.00000  -0.01517  -0.01511   1.89935
    A3        1.87669  -0.00709   0.00000  -0.04046  -0.04022   1.83647
    A4        1.90465  -0.00307   0.00000  -0.01958  -0.02053   1.88412
    A5        1.90568   0.00371   0.00000   0.01793   0.01737   1.92305
    A6        1.81441   0.00548   0.00000   0.07547   0.07550   1.88991
    A7        2.01802   0.00127   0.00000  -0.01140  -0.01183   2.00619
    A8        1.93311  -0.00199   0.00000  -0.01672  -0.01777   1.91534
    A9        1.88667   0.00131   0.00000   0.00708   0.00670   1.89337
   A10        1.91622  -0.00150   0.00000  -0.02315  -0.02343   1.89279
   A11        1.88029  -0.00423   0.00000  -0.02484  -0.02470   1.85558
   A12        1.81765   0.00563   0.00000   0.07958   0.07973   1.89738
   A13        1.99115   0.00401   0.00000   0.00883   0.00880   1.99995
   A14        1.90515   0.00048   0.00000   0.00113   0.00140   1.90655
   A15        1.85813  -0.00751   0.00000  -0.04512  -0.04500   1.81313
   A16        1.92335  -0.00358   0.00000  -0.01704  -0.01724   1.90610
   A17        1.89777   0.00270   0.00000   0.01077   0.01063   1.90841
   A18        1.88447   0.00392   0.00000   0.04340   0.04344   1.92792
   A19        1.99204   0.00002   0.00000   0.00699   0.00650   1.99854
   A20        1.94332  -0.00153   0.00000  -0.02949  -0.02953   1.91378
   A21        1.89480  -0.00079   0.00000   0.00722   0.00662   1.90143
   A22        1.91041  -0.00031   0.00000  -0.00754  -0.00755   1.90286
   A23        1.86072   0.00378   0.00000   0.03669   0.03643   1.89715
   A24        1.85564  -0.00102   0.00000  -0.01201  -0.01197   1.84368
   A25        1.92116  -0.00317   0.00000  -0.03127  -0.03118   1.88998
   A26        1.94491  -0.00400   0.00000  -0.03866  -0.03865   1.90626
   A27        1.92825  -0.00870   0.00000  -0.03699  -0.03693   1.89131
   A28        1.87184   0.00208   0.00000   0.01687   0.01482   1.88666
   A29        1.88713   0.00704   0.00000   0.04780   0.04685   1.93398
   A30        1.90882   0.00749   0.00000   0.04689   0.04571   1.95454
   A31        1.94727  -0.00574   0.00000  -0.03282  -0.03357   1.91370
   A32        1.95559  -0.00019   0.00000  -0.01310  -0.01344   1.94215
   A33        1.90403   0.00236   0.00000   0.01514   0.01514   1.91917
   A34        1.90495   0.00062   0.00000  -0.00873  -0.00938   1.89557
   A35        1.87014   0.00579   0.00000   0.06125   0.06151   1.93165
   A36        1.87864  -0.00245   0.00000  -0.01769  -0.01754   1.86110
   A37        1.87326   0.00447   0.00000   0.02523   0.02523   1.89849
   A38        1.86881   0.00475   0.00000   0.02679   0.02679   1.89560
   A39        1.82131   0.00667   0.00000   0.03766   0.03766   1.85897
   A40        1.81885   0.00651   0.00000   0.03672   0.03672   1.85557
   A41        1.82627   0.00406   0.00000   0.02288   0.02288   1.84915
   A42        1.83186   0.00048   0.00000   0.00270   0.00270   1.83456
    D1        1.05556  -0.00112   0.00000  -0.02773  -0.02773   1.02783
    D2       -1.13815   0.00163   0.00000   0.02776   0.02742  -1.11073
    D3       -3.11916  -0.00475   0.00000  -0.06214  -0.06224   3.10178
    D4       -1.11976   0.00196   0.00000   0.01799   0.01818  -1.10158
    D5        2.96971   0.00471   0.00000   0.07348   0.07334   3.04305
    D6        0.98870  -0.00168   0.00000  -0.01641  -0.01633   0.97237
    D7       -3.08217  -0.00057   0.00000  -0.04189  -0.04165  -3.12382
    D8        1.00730   0.00218   0.00000   0.01359   0.01351   1.02081
    D9       -0.97371  -0.00421   0.00000  -0.07630  -0.07616  -1.04987
   D10        1.01004  -0.00198   0.00000  -0.01075  -0.01100   0.99904
   D11       -1.14993  -0.00053   0.00000   0.00436   0.00421  -1.14571
   D12        3.10322  -0.00137   0.00000  -0.02297  -0.02318   3.08004
   D13       -3.09284  -0.00372   0.00000  -0.05404  -0.05387   3.13648
   D14        1.03037  -0.00227   0.00000  -0.03893  -0.03865   0.99172
   D15       -0.99966  -0.00310   0.00000  -0.06626  -0.06605  -1.06571
   D16       -1.12030   0.00310   0.00000   0.03426   0.03419  -1.08611
   D17        3.00291   0.00454   0.00000   0.04937   0.04941   3.05232
   D18        0.97288   0.00371   0.00000   0.02204   0.02201   0.99488
   D19       -3.04802  -0.00093   0.00000  -0.01292  -0.01335  -3.06137
   D20       -0.82498  -0.00092   0.00000  -0.03817  -0.03896  -0.86394
   D21        1.20589   0.00003   0.00000  -0.01402  -0.01280   1.19309
   D22        0.99946  -0.00169   0.00000  -0.04182  -0.04175   0.95770
   D23       -1.17420  -0.00004   0.00000  -0.01316  -0.01317  -1.18738
   D24        3.07198   0.00255   0.00000   0.01396   0.01393   3.08591
   D25       -3.08140  -0.00468   0.00000  -0.09359  -0.09344   3.10834
   D26        1.02812  -0.00304   0.00000  -0.06493  -0.06486   0.96326
   D27       -1.00888  -0.00044   0.00000  -0.03781  -0.03776  -1.04664
   D28       -1.11245  -0.00104   0.00000  -0.02475  -0.02479  -1.13724
   D29        2.99707   0.00060   0.00000   0.00391   0.00380   3.00087
   D30        0.96007   0.00320   0.00000   0.03103   0.03090   0.99097
   D31        0.78325   0.00087   0.00000   0.03062   0.03119   0.81444
   D32        2.97545   0.00058   0.00000   0.00543   0.00565   2.98109
   D33       -1.27333  -0.00027   0.00000   0.00657   0.00578  -1.26756
   D34        2.87321  -0.00320   0.00000  -0.03384  -0.03383   2.83938
   D35        0.79875  -0.00119   0.00000  -0.01007  -0.01008   0.78867
   D36       -1.32704  -0.00196   0.00000  -0.01770  -0.01782  -1.34487
   D37       -1.25985  -0.00240   0.00000  -0.03909  -0.03897  -1.29881
   D38        2.94888  -0.00040   0.00000  -0.01532  -0.01522   2.93367
   D39        0.82309  -0.00117   0.00000  -0.02295  -0.02295   0.80013
   D40        0.80246   0.00189   0.00000   0.01014   0.01015   0.81261
   D41       -1.27200   0.00390   0.00000   0.03391   0.03390  -1.23810
   D42        2.88539   0.00313   0.00000   0.02627   0.02617   2.91155
   D43        2.90881  -0.00071   0.00000   0.01607   0.01573   2.92454
   D44       -1.22174   0.00116   0.00000   0.00582   0.00558  -1.21616
   D45        0.86497   0.00065   0.00000   0.01641   0.01698   0.88195
   D46        1.06735  -0.00230   0.00000  -0.04423  -0.04374   1.02361
   D47       -1.07459   0.00125   0.00000   0.00085   0.00076  -1.07382
   D48        3.13016   0.00287   0.00000   0.02109   0.02111  -3.13192
   D49       -3.02472  -0.00457   0.00000  -0.08424  -0.08388  -3.10861
   D50        1.11653  -0.00102   0.00000  -0.03917  -0.03939   1.07714
   D51       -0.96191   0.00060   0.00000  -0.01893  -0.01904  -0.98095
   D52       -1.02443  -0.00392   0.00000  -0.08269  -0.08249  -1.10693
   D53        3.11682  -0.00037   0.00000  -0.03762  -0.03800   3.07882
   D54        1.03838   0.00125   0.00000  -0.01738  -0.01765   1.02073
   D55       -0.67626  -0.00223   0.00000  -0.04845  -0.04864  -0.72489
   D56        1.47729  -0.00040   0.00000  -0.01389  -0.01366   1.46363
   D57       -2.76881   0.00057   0.00000  -0.01079  -0.01083  -2.77964
   D58        3.10510  -0.00066   0.00000  -0.01358  -0.01362   3.09148
   D59       -1.07468  -0.00536   0.00000  -0.04412  -0.04574  -1.12041
   D60        0.95816   0.00508   0.00000   0.02787   0.02953   0.98769
   D61       -0.73961  -0.00014   0.00000  -0.03236  -0.03287  -0.77248
   D62        1.37101  -0.00228   0.00000  -0.02715  -0.02655   1.34446
   D63       -2.86531   0.00018   0.00000  -0.01472  -0.01480  -2.88012
         Item               Value     Threshold  Converged?
 Maximum Force            0.020093     0.000450     NO 
 RMS     Force            0.005791     0.000300     NO 
 Maximum Displacement     0.276338     0.001800     NO 
 RMS     Displacement     0.072747     0.001200     NO 
 Predicted change in Energy=-9.876660D-03
 GradGradGradGradGradGradGradGradGradGradGradGradGradGradGradGradGradGrad

                          Input orientation:                          
 ---------------------------------------------------------------------
 Center     Atomic      Atomic             Coordinates (Angstroms)
 Number     Number       Type             X           Y           Z
 ---------------------------------------------------------------------
      1          6           0        0.001671   -0.001634   -0.004756
      2          6           0        1.515015    0.018959   -0.032374
      3          6           0       -0.653226    0.548035    1.253698
      4          6           0        2.185505   -0.755532    1.085113
      5          1           0        1.870526    1.050969    0.000757
      6          1           0       -0.340032   -1.032602   -0.140123
      7          6           0       -0.274226    1.978895    1.589501
      8          1           0       -0.405217   -0.098487    2.101041
      9          6           0        1.750588   -2.211308    1.194329
     10          1           0        2.002729   -0.258286    2.036011
     11          1           0       -1.010993    2.372291    2.300212
     12          1           0       -0.320471    2.586426    0.680882
     13          1           0        1.960944   -2.729371    0.254564
     14          1           0        0.683202   -2.290828    1.404235
     15          8           0        1.025346    1.975043    2.160681
     16          1           0        1.288276    2.877768    2.333200
     17          8           0       -2.050010    0.483435    0.969014
     18          1           0       -2.534111    0.628892    1.781105
     19          8           0       -0.405922    0.760813   -1.147630
     20          1           0       -1.364033    0.821613   -1.107782
     21          8           0        1.955760   -0.580573   -1.259213
     22          1           0        1.422841   -0.190201   -1.957198
     23          8           0        3.601248   -0.713384    0.894287
     24          1           0        3.744695   -0.836444   -0.049569
     25          8           0        2.424514   -2.838392    2.273699
     26          1           0        3.339582   -2.553195    2.197518
 ---------------------------------------------------------------------
                    Distance matrix (angstroms):
                    1          2          3          4          5
     1  C    0.000000
     2  C    1.513736   0.000000
     3  C    1.521425   2.575882   0.000000
     4  C    2.554469   1.515972   3.128275   0.000000
     5  H    2.144906   1.092031   2.862189   2.130372   0.000000
     6  H    1.094523   2.135085   2.130550   2.820693   3.041000
     7  C    2.557395   3.110178   1.517815   3.712382   2.825795
     8  H    2.146933   2.872724   1.094299   2.859311   3.303248
     9  C    3.062544   2.556245   3.660030   1.523275   3.475838
    10  H    2.869640   2.143116   2.883793   1.088517   2.423610
    11  H    3.460331   4.166515   2.133330   4.634366   3.916190
    12  H    2.696651   3.235681   2.143334   4.196666   2.760556
    13  H    3.368464   2.799019   4.309704   2.153202   3.789929
    14  H    2.773113   2.844446   3.141313   2.171610   3.814066
    15  O    3.105524   2.979183   2.382555   3.155766   2.496700
    16  H    3.925856   3.717545   3.219069   3.945075   3.019354
    17  O    2.322265   3.732013   1.426964   4.414534   4.078017
    18  H    3.164973   4.478408   1.955102   4.967476   4.769551
    19  O    1.433045   2.341824   2.423389   3.741649   2.566164
    20  H    1.938955   3.176424   2.481266   4.460425   3.426928
    21  O    2.393177   1.434862   3.794112   2.362045   2.063182
    22  H    2.422254   1.938348   3.894214   3.186991   2.361041
    23  O    3.777807   2.397373   4.452068   1.429167   2.628067
    24  H    3.835251   2.388197   4.791346   1.930058   2.660333
    25  O    4.371353   3.782806   4.688366   2.410014   4.538755
    26  H    4.743641   3.862311   5.143048   2.408512   4.469215
                    6          7          8          9         10
     6  H    0.000000
     7  C    3.473477   0.000000
     8  H    2.428916   2.143443   0.000000
     9  C    2.746051   4.670528   3.151766   0.000000
    10  H    3.289931   3.223177   2.414118   2.141565   0.000000
    11  H    4.242490   1.096675   2.551741   5.464311   4.009022
    12  H    3.711037   1.093994   3.038552   5.250826   3.914846
    13  H    2.886052   5.380131   3.991208   1.093525   3.046565
    14  H    2.239460   4.379672   2.544907   1.090732   2.504300
    15  O    4.025405   1.419559   2.519840   4.357218   2.441020
    16  H    4.905069   1.949993   3.432188   5.235405   3.230109
    17  O    2.540193   2.403084   2.079776   4.664435   4.255975
    18  H    3.356436   2.639375   2.272363   5.173943   4.629792
    19  O    2.058094   2.998826   3.360397   4.355320   4.120162
    20  H    2.328745   3.130866   3.473105   4.919267   4.731247
    21  O    2.593714   4.431578   4.134963   2.953178   3.311280
    22  H    2.668169   4.490445   4.451912   3.758246   4.035669
    23  O    4.087248   4.769800   4.229198   2.399739   2.016411
    24  H    4.090437   5.173433   4.731963   2.722866   2.778193
    25  O    4.090248   5.563953   3.942621   1.418609   2.625137
    26  H    4.616961   5.828304   4.478662   1.910021   2.660802
                   11         12         13         14         15
    11  H    0.000000
    12  H    1.773389   0.000000
    13  H    6.248523   5.800371   0.000000
    14  H    5.041602   5.031721   1.773891   0.000000
    15  O    2.079411   2.091606   5.161409   4.345910   0.000000
    16  H    2.354408   2.324457   6.017742   5.286159   0.955933
    17  O    2.533658   2.738046   5.188480   3.918725   3.619776
    18  H    2.372509   3.153194   5.814962   4.360952   3.824387
    19  O    3.853646   2.585270   4.444051   4.124406   3.803656
    20  H    3.760807   2.720828   5.051826   4.493183   4.209796
    21  O    5.494592   4.356039   2.628475   3.411500   4.369498
    22  H    5.533124   4.208119   3.410107   4.032237   4.669391
    23  O    5.724578   5.129734   2.676573   3.356095   3.932769
    24  H    6.199518   5.364250   2.618671   3.688024   4.492719
    25  O    6.241364   6.284955   2.074534   2.021871   5.013941
    26  H    6.572554   6.489367   2.388881   2.784688   5.085469
                   16         17         18         19         20
    16  H    0.000000
    17  O    4.328740   0.000000
    18  H    4.469105   0.956558   0.000000
    19  O    4.412254   2.694466   3.622718   0.000000
    20  H    4.806545   2.213145   3.122802   0.960865   0.000000
    21  O    5.031013   4.705667   5.555653   2.718328   3.606948
    22  H    5.276179   4.590991   5.504843   2.214544   3.084144
    23  O    4.507404   5.777083   6.342774   4.732874   5.569427
    24  H    5.050441   6.029776   6.702387   4.580894   5.474310
    25  O    5.828299   5.723470   6.070640   5.715868   6.259644
    26  H    5.807033   6.306984   6.693231   6.016766   6.666208
                   21         22         23         24         25
    21  O    0.000000
    22  H    0.961029   0.000000
    23  O    2.713454   3.626313   0.000000
    24  H    2.174626   3.073709   0.962592   0.000000
    25  O    4.218880   5.090850   2.793410   3.338900   0.000000
    26  H    4.213691   5.149690   2.269755   2.856704   0.961504
                   26
    26  H    0.000000
 Stoichiometry    C6H14O6
 Framework group  C1[X(C6H14O6)]
 Deg. of freedom    72
 Full point group                 C1      NOp   1
 Largest Abelian subgroup         C1      NOp   1
 Largest concise Abelian subgroup C1      NOp   1
                         Standard orientation:                         
 ---------------------------------------------------------------------
 Center     Atomic      Atomic             Coordinates (Angstroms)
 Number     Number       Type             X           Y           Z
 ---------------------------------------------------------------------
      1          6           0        0.811170    0.763425    0.419441
      2          6           0       -0.334487    0.738914   -0.569631
      3          6           0        1.584091   -0.536908    0.582109
      4          6           0       -1.414598   -0.282270   -0.271780
      5          1           0        0.049794    0.552347   -1.574644
      6          1           0        0.423490    1.050606    1.401893
      7          6           0        2.185743   -1.078836   -0.701671
      8          1           0        0.926942   -1.294627    1.019725
      9          6           0       -2.017685   -0.175632    1.122953
     10          1           0       -1.017587   -1.286210   -0.410905
     11          1           0        2.956618   -1.812752   -0.437444
     12          1           0        2.667173   -0.261618   -1.246833
     13          1           0       -2.449850    0.819263    1.261568
     14          1           0       -1.263295   -0.337893    1.893838
     15          8           0        1.150193   -1.685819   -1.459534
     16          1           0        1.514017   -1.989550   -2.289707
     17          8           0        2.632193   -0.200950    1.490317
     18          1           0        3.044496   -1.009230    1.793123
     19          8           0        1.683596    1.802886   -0.041007
     20          1           0        2.454646    1.786089    0.532108
     21          8           0       -0.977037    2.021758   -0.553289
     22          1           0       -0.274504    2.676161   -0.595481
     23          8           0       -2.461224   -0.145028   -1.235242
     24          1           0       -2.589569    0.801635   -1.353314
     25          8           0       -3.003863   -1.179514    1.302182
     26          1           0       -3.518634   -1.173049    0.490112
 ---------------------------------------------------------------------
 Rotational constants (GHZ):           1.1846406           0.5958792           0.5548025
 Standard basis: def2TZVPP (5D, 7F)
 There are   642 symmetry adapted cartesian basis functions of A   symmetry.
 There are   568 symmetry adapted basis functions of A   symmetry.
   568 basis functions,   850 primitive gaussians,   642 cartesian basis functions
    49 alpha electrons       49 beta electrons
       nuclear repulsion energy       839.9592996684 Hartrees.
 NAtoms=   26 NActive=   26 NUniq=   26 SFac= 1.00D+00 NAtFMM=   60 NAOKFM=F Big=F
 Integral buffers will be    131072 words long.
 Raffenetti 2 integral format.
 Two-electron integral symmetry is turned on.
 Nuclear repulsion after empirical dispersion term =      839.9398590869 Hartrees.
 One-electron integrals computed using PRISM.
   1 Symmetry operations used in ECPInt.
 ECPInt:  NShTT=   23436 NPrTT=   62434 LenC2=   22130 LenP2D=   46058.
 LDataN:  DoStor=T MaxTD1= 6 Len=  172
 NBasis=   568 RedAO= T EigKep=  3.70D-05  NBF=   568
[...]
 0.00011271,0.00110405,-0.00111913,0.00489021,0.00128464,-0.00072139,0.
 00107077,0.65530829,0.00188650,-0.12015082,0.07045249,0.00585983,-0.00
 233108,0.00465413,0.00075008,0.00432554,0.00192620,-0.00100237,0.00071
 008,-0.00086460,0.00093332,0.00146736,-0.00089814,0.01412105,-0.021178
 30,0.03891269,-0.00073453,-0.00194714,0.00174098,0.00069240,0.00076186
 ,-0.00184496,-0.00146972,0.00016676,0.00012598,0.00026325,-0.00016263,
 0.00021524,0.00022765,0.00142427,-0.00082902,0.00030241,0.00217389,-0.
 00195754,-0.00019779,0.00021105,0.00012295,0.00069866,0.00014488,-0.00
 070324,-0.00161899,0.00044398,-0.00168266,0.00018027,0.00016054,0.0003
 3869,0.00008515,0.00239723,-0.00147417,-0.00002693,-0.00004057,-0.0002
 1743,-0.01843502,0.15048417,-0.00522795,0.07114003,-0.16182205,-0.0087
 2170,0.00729212,-0.01297062,-0.01351928,0.02509429,-0.04844387,0.00105
 158,-0.00088771,0.00189483,0.00074913,-0.00039229,0.00039493,-0.003608
 95,0.01305938,-0.00907420,0.00053834,0.00296178,0.00169734,0.00566195,
 -0.00346213,-0.00649033,0.00087095,-0.00041273,-0.00038974,0.00028051,
 -0.00002105,0.00032554,0.00001756,-0.00003438,0.00004711,-0.00021752,-
 0.00067700,-0.00092655,-0.00008888,0.00016825,0.00009278,-0.00040404,-
 0.00033213,0.00029861,-0.00136700,-0.00069016,-0.00060018,0.00026378,0
 .00017677,-0.00003651,0.00026921,0.00024694,0.00204819,-0.00152314,0.0
 0054799,0.00058313,0.06171313,-0.12948248,0.26205168,-0.01267299,-0.00
 096965,-0.00146633,-0.00070127,0.00228458,-0.00164940,0.00231686,-0.00
 057871,0.00093327,-0.00028090,-0.00015801,0.00049366,0.00048458,0.0001
 3438,0.00004321,0.00088787,-0.00075596,0.00141325,-0.00035960,-0.00009
 524,-0.00025720,-0.00092432,0.00009279,0.00038507,-0.00015999,0.000032
 26,-0.00007304,0.00002305,-0.00000909,-0.00001477,-0.00005411,0.000157
 57,0.00023352,-0.00003658,-0.00032868,-0.00028110,-0.00002344,0.000034
 23,0.00001931,0.00008363,0.00005991,-0.00008770,-0.00005938,-0.0001090
 0,0.00020696,-0.00003389,-0.00005060,-0.00009226,-0.00123993,-0.000153
 50,0.00037076,-0.00018385,-0.00006219,-0.00022467,-0.53130961,-0.00615
 592,-0.03477620,0.54354612,0.02588672,-0.00142374,0.00430270,0.0007962
 9,-0.00262561,0.00311748,-0.00048344,0.00165514,0.00010049,0.00080527,
 0.00077092,-0.00048112,-0.00001486,0.00025555,0.00010529,0.00092795,-0
 .00026089,-0.00024812,-0.00021329,0.00028270,-0.00108099,0.00001567,-0
 .00018094,0.00009737,0.00007891,0.00007984,0.00000017,-0.00005659,-0.0
 0000385,0.00001880,-0.00002682,-0.00006308,-0.00000015,-0.00044517,-0.
 00044100,-0.00001905,0.00004611,-0.00005995,-0.00005839,-0.00002616,-0
 .00001829,0.00011870,0.00049681,-0.00025498,0.00047527,-0.00009901,-0.
 00003755,-0.00005820,0.00031793,-0.00162352,0.00034575,-0.00029760,-0.
 00013151,-0.00057892,-0.03505690,-0.01837008,0.01593207,0.00726894,0.0
 2286120,-0.03827295,0.00061536,-0.00509633,-0.00114192,0.00389258,-0.0
 0668564,-0.00488978,0.00011892,-0.00219503,-0.00102494,-0.00035652,0.0
 0120485,0.00035184,-0.00004658,0.00002744,0.00043936,0.00070843,0.0006
 6623,-0.00043700,-0.00054308,-0.00082483,0.00039728,0.00010201,0.00064
 762,-0.00017666,-0.00007424,0.00001863,-0.00003558,-0.00003188,-0.0000
 8158,0.00005628,-0.00010653,-0.00002497,-0.00015991,-0.00028124,-0.000
 09228,0.00005215,0.00000317,-0.00002980,0.00007077,0.00007545,-0.00000
 668,0.00102600,0.00033073,0.00042725,-0.00004625,-0.00007896,0.0000479
 9,0.00012595,-0.00013958,0.00145473,0.00102877,-0.00052922,0.00114874,
 0.00719733,0.01892368,-0.03215365,0.03536277,-0.02276000,0.04053265,-0
 .02029961,0.02171000,0.04260169,-0.09158573,0.03107385,0.01516172,-0.0
 0508412,-0.00051371,-0.00665865,0.00112969,-0.00590216,-0.01319944,0.0
 0601052,0.00148206,-0.00225208,0.00400979,0.00058651,0.00015869,-0.001
 55762,-0.00075298,-0.00017354,-0.00001366,-0.00022127,0.00039619,-0.00
 020843,-0.00024729,-0.00010352,-0.00116926,0.00198666,-0.00275888,0.00
 011976,0.00038848,0.00026676,0.00010351,-0.00007445,-0.00001488,-0.000
 11047,0.00001991,0.00014122,0.00046291,0.00026377,-0.00051223,0.001440
 52,0.00025790,0.00030127,-0.00018900,-0.00007189,0.00009261,-0.0031791
 4,0.00113200,0.00316064,-0.00076425,-0.00004173,-0.00008988,-0.0013495
 8,0.00156354,0.00275871,0.00088416,0.00001878,0.00160673,0.25457592,0.
 00471898,-0.00140095,-0.00625483,0.03331222,-0.11085075,-0.03240792,-0
 .00021726,0.00138355,0.00153413,-0.00370213,0.01038360,0.01474398,0.01
 520667,-0.01085983,-0.03802117,0.00172871,0.00161215,0.00092977,-0.001
 61949,0.00024646,0.00038732,0.00014537,-0.00002115,-0.00034501,-0.0014
 8747,-0.00140256,-0.00211054,0.00221261,-0.00167468,0.00303181,0.00025
 799,0.00008754,-0.00009441,-0.00019364,0.00022305,0.00003510,-0.000103
 64,0.00067865,0.00222675,-0.00014445,0.00008760,0.00036815,0.00147712,
 -0.00048511,-0.00200411,-0.00006135,0.00028694,0.00044467,0.00102176,0
 .00015560,-0.00069208,0.00003175,-0.00010629,0.00002830,0.00149408,0.0
 0133575,-0.00050562,-0.00030220,-0.00004815,-0.00106803,-0.18750669,0.
 24249934,0.01226299,-0.00774683,-0.02477858,0.04743366,-0.06502146,-0.
 18252657,0.00036359,0.00100726,0.00454528,0.00865952,-0.01411147,-0.04
 688223,0.00606085,-0.01418925,-0.01729535,-0.00069138,0.00079618,0.000
 49389,-0.00120359,0.00042650,-0.00028263,-0.00024409,0.00004230,0.0003
 6284,0.00026315,-0.00205301,0.00094640,-0.00357465,0.00443848,-0.00326
 060,0.00028271,-0.00018229,-0.00016574,-0.00004071,-0.00010091,0.00004
 682,0.00010568,0.00137130,-0.00101460,-0.00004110,-0.00010347,-0.00025
 223,0.00127598,-0.00080969,-0.00103556,0.00006208,0.00026749,0.0002639
 3,0.00281968,-0.00069763,-0.00107983,0.00033384,-0.00008584,0.00011450
 ,-0.00387251,0.00122671,0.00424653,-0.00044398,0.00030381,0.00060015,0
 .12590898,-0.09026467,0.56884113,0.00115114,-0.00154546,0.00656116,0.0
 0688928,-0.00649932,0.01261849,0.00008504,0.00028573,-0.00039302,-0.00
 284185,0.00115580,0.00313936,-0.00012465,0.00081001,0.00016314,-0.0003
 5278,0.00008786,-0.00014912,0.00072631,0.00010707,0.00021543,0.0001802
 2,-0.00005045,-0.00041340,0.00035569,0.00026571,-0.00002155,0.00057798
 ,-0.00038919,0.00070758,-0.00007360,-0.00006015,-0.00006958,0.00001609
 ,0.00017325,0.00005426,-0.00000271,0.00003342,0.00004325,-0.00011791,-
 0.00002919,0.00016210,-0.00073865,-0.00000951,-0.00003890,0.00009605,0
 .00000194,-0.00007465,-0.00009826,0.00001455,-0.00037981,-0.00010519,0
 .00001703,-0.00003607,-0.00033014,0.00008959,-0.00205092,-0.00028919,-
 0.00014458,-0.00103284,-0.14749632,0.13500534,-0.19716639,0.14118770,0
 .00054094,0.00192317,-0.00171492,-0.00799903,0.00712328,-0.01586276,0.
 00009385,-0.00025388,0.00068562,0.00093585,-0.00118337,-0.00245879,-0.
 00031916,-0.00034373,-0.00135852,-0.00037714,-0.00048329,0.00053090,0.
 00008535,0.00010998,-0.00027520,-0.00008369,0.00001357,0.00015143,-0.0
 0009867,-0.00010522,0.00001683,-0.00031449,0.00050269,-0.00051753,-0.0
 0001960,-0.00008394,0.00003533,0.00003794,-0.00009994,-0.00000087,0.00
 013010,0.00030398,0.00012195,-0.00003855,0.00001519,0.00016875,-0.0000
 3177,-0.00010271,0.00012399,0.00002836,-0.00001309,-0.00010483,0.00021
 525,-0.00020265,-0.00006907,0.00010884,0.00001295,0.00000191,-0.000094
 98,-0.00184408,-0.00067742,-0.00029875,-0.00016325,0.00094448,0.136431
 87,-0.13395395,0.18411068,-0.12891740,0.12925930,0.00057844,0.00145286
 ,-0.00068274,-0.01678200,0.01748284,-0.03408704,-0.00023098,0.00007926
 ,-0.00107469,0.00258556,-0.00426324,-0.00562902,-0.00077310,-0.0001079
 1,0.00091525,0.00023282,-0.00000041,-0.00003765,-0.00006620,-0.0001207
 8,-0.00006414,-0.00002979,-0.00002987,0.00007637,-0.00005406,-0.000453
 58,0.00002813,-0.00084348,0.00102395,-0.00087454,-0.00003568,0.0000772
 3,0.00009181,0.00005585,-0.00008367,-0.00003126,0.00002232,0.00022622,
 0.00009220,-0.00001292,0.00005069,-0.00001238,-0.00000865,0.00014156,0
 .00036759,-0.00001167,-0.00007754,-0.00007350,-0.00071082,0.00011887,0
 .00053053,-0.00003886,-0.00000670,0.00002622,-0.00176243,0.00032653,-0
 .00027692,-0.00010558,0.00017432,0.00089210,-0.16163454,0.14786188,-0.
 29923174,0.17919156,-0.16373987,0.33781614,0.00508967,0.00268300,-0.00
 445717,-0.04704475,0.00272444,0.00277886,0.00133453,-0.00069984,-0.000
 34636,-0.21806723,-0.00510762,-0.00306994,0.00157148,-0.00000491,0.000
 98182,-0.00003553,-0.00014141,0.00019288,-0.00029247,-0.00044124,-0.00
 032321,0.00011283,0.00007320,-0.00034130,-0.04291899,-0.00560235,0.007
 98059,-0.01912573,0.00120258,0.00619655,-0.00004179,0.00017073,0.00016
 141,0.00004948,-0.00000568,-0.00007333,0.00162110,0.00066472,-0.001189
 55,-0.00053888,-0.00630931,0.00069532,0.00063710,0.00086298,0.00049937
 ,-0.00048439,0.00005432,-0.00009051,-0.00120871,0.00041930,0.00018932,
 0.00011490,-0.00007943,-0.00002701,-0.00435109,0.00119717,-0.00193392,
 -0.00000172,0.00035703,-0.00055481,0.00231259,-0.00019014,0.00031634,-
 0.00013800,0.00001594,0.00129103,0.36866060,-0.00145136,-0.00126747,0.
 00377064,0.02388620,0.00067310,-0.00348137,-0.00055725,-0.00003730,0.0
 0067810,0.00176220,-0.06607518,-0.00406579,-0.00063038,0.00262806,-0.0
 0213925,0.00094912,0.00034297,0.00025771,-0.00056849,0.00011634,-0.000
 17532,0.00003123,-0.00014865,-0.00017323,-0.03508024,-0.00164435,0.011
 00311,0.01489279,0.00325416,-0.00090845,0.00016039,-0.00005919,-0.0000
 6611,0.00000950,0.00010506,0.00003936,0.00123507,0.00321536,0.00004442
 ,-0.00240634,-0.00647057,0.00181452,0.00059551,-0.00017126,-0.00032481
 ,-0.00018087,0.00013887,0.00020185,0.00058654,0.00019188,-0.00028107,-
 0.00002417,-0.00014040,0.00004270,0.00219127,0.00007625,0.00049594,0.0
 0003785,-0.00029050,0.00033311,0.00059388,0.00222548,-0.00008270,-0.00
 010087,0.00020854,-0.00030175,-0.00202433,0.07873252,0.00066591,0.0026
 9321,-0.00360394,-0.02384532,-0.00019115,0.00074681,-0.00036735,0.0004
 4414,-0.00151838,0.04390026,-0.00770097,-0.10077715,0.00050114,-0.0011
 7016,0.00111662,-0.00009877,-0.00018751,0.00001347,-0.00061236,-0.0000
 1392,-0.00016785,-0.00020283,-0.00022614,0.00060708,0.00509041,0.00412
 601,-0.00038961,0.03886657,0.00104121,-0.00304352,0.00009892,0.0000723
 7,0.00007924,0.00010806,-0.00020122,0.00003735,-0.00060511,0.00190550,
 0.00139676,0.00008348,0.00110376,0.00129860,0.00022037,-0.00058931,0.0
 0045044,0.00019834,-0.00014814,-0.00009462,0.00019798,-0.00011308,0.00
 077627,-0.00015339,0.00008713,0.00000279,-0.00235029,0.00023802,0.0002
 8980,-0.00003598,0.00023634,-0.00035893,-0.00642776,0.00152042,-0.0019
 7489,-0.00175735,-0.00032788,0.00162361,-0.08712875,0.07261613,0.60303
 494,-0.00032540,-0.00043289,0.00032796,-0.00242699,0.00310718,0.003832
 98,0.00001843,-0.00006206,0.00059580,-0.01445155,0.00910354,0.04716696
 ,0.00000639,-0.00009202,-0.00041770,-0.00001765,0.00000785,0.00000367,
 0.00016447,0.00007166,0.00008243,0.00004605,0.00006139,-0.00015085,-0.
 00027327,-0.00033667,0.00129002,-0.00695359,-0.00049894,0.00038052,0.0
 0000219,-0.00005484,-0.00006618,-0.00004264,0.00007546,0.00001528,-0.0
 0006627,-0.00091825,-0.00038385,0.00007370,-0.00027354,-0.00048062,-0.
 00005014,0.00003638,-0.00027244,-0.00000711,0.00008809,0.00005834,0.00
 025514,-0.00005654,-0.00032751,0.00002130,-0.00001319,-0.00000010,0.00
 085634,-0.00032591,-0.00012777,-0.00006411,-0.00000591,-0.00001804,0.0
 0112648,-0.00140294,0.00151143,0.00150416,-0.00008288,-0.00095343,-0.0
 5062509,0.00328981,0.02797272,0.07137269,0.00033239,0.00010937,-0.0003
 9896,0.00171329,0.00095251,-0.00234795,0.00002112,0.00007564,-0.000380
 12,0.00131867,-0.00088691,-0.00154606,0.00039768,-0.00071420,0.0000532
 8,-0.00026339,-0.00005924,-0.00003142,0.00003978,-0.00000412,-0.000027
 62,-0.00004687,-0.00002934,0.00013205,-0.00099218,0.00082028,0.0028333
 7,0.00253288,0.00024255,-0.00058690,-0.00002300,0.00001756,0.00003888,
 0.00003364,-0.00006366,0.00000513,-0.00041644,-0.00036582,-0.00066245,
 0.00010840,-0.00046305,-0.00055082,-0.00015614,-0.00011050,0.00021434,
 0.00009679,-0.00006631,-0.00010524,-0.00013892,-0.00005613,0.00019889,
 -0.00001267,0.00004621,-0.00000847,-0.00047686,-0.00000610,0.00004837,
 0.00000912,0.00004130,-0.00003230,-0.00191254,-0.00098404,0.00017274,-
 0.00004847,-0.00062250,0.00017665,0.01018724,-0.01800891,-0.07457650,-
 0.01154460,0.02039055,0.00084358,-0.00047996,-0.00106750,-0.00391356,0
 .00130256,0.00396351,0.00033231,-0.00007952,0.00033118,0.00449997,-0.0
 0329492,-0.00794523,0.00023237,-0.00036060,-0.00025375,-0.00008784,-0.
 00001466,0.00005900,0.00013549,0.00002017,0.00006034,0.00004142,0.0000
 2843,-0.00011221,-0.00078897,0.00087319,0.00067685,0.00048082,0.001126
 23,0.00142777,-0.00002474,-0.00001125,-0.00001756,-0.00002087,0.000044
 40,-0.00000984,0.00024843,0.00005068,-0.00027916,-0.00042464,-0.000586
 61,0.00031072,-0.00014775,0.00003483,-0.00012760,0.00001940,-0.0000052
 0,0.00001300,0.00001558,-0.00000218,-0.00021715,0.00005528,-0.00002530
 ,0.00000351,-0.00037848,0.00013586,-0.00059560,-0.00007959,0.00009697,
 -0.00009392,0.00067460,-0.00044365,-0.00052791,0.00060623,0.00014605,-
 0.00064141,0.07722662,-0.07588311,-0.50052663,-0.07935812,0.07675905,0
 .50678994,-0.00041075,-0.00184691,0.00054316,0.00075037,-0.00098316,0.
 00100710,0.00053675,-0.00025825,0.00017144,-0.00426754,0.00331670,-0.0
 0147732,-0.00010150,0.00046949,-0.00042053,0.00062254,0.00075997,0.000
 49830,-0.00042635,-0.00016087,-0.00028587,-0.00000750,-0.00012240,-0.0
 0038625,-0.13994701,0.05420777,-0.07774983,0.00016917,0.00016367,0.000
 77572,0.00000854,0.00008652,0.00007206,0.00007273,0.00006942,-0.000019
 03,-0.00036395,0.00243911,-0.01212872,-0.02386703,0.02275582,-0.032346
 33,0.00036048,0.00020068,0.00027878,-0.00011556,-0.00002608,-0.0000767
 6,-0.00040841,0.00034305,-0.00004591,0.00010367,-0.00009192,-0.0000135
 8,-0.00002825,0.00117964,-0.00070232,0.00019364,-0.00017734,0.00009477
 ,0.00089806,0.00045462,-0.00079040,-0.00002089,0.00003497,0.00011056,0
 .00435137,-0.00661332,0.00504200,-0.00036415,-0.00058998,-0.00062570,0
 .63210968,-0.00209240,0.00008897,-0.00060979,-0.00583497,-0.00756868,-
 0.00330753,-0.00061304,0.00022362,0.00035553,0.02577027,-0.02698784,0.
 03767984,0.00131624,-0.00159415,0.00239686,0.00027623,0.00017930,0.000
 03003,-0.00037872,0.00011220,0.00006206,-0.00010192,-0.00004074,0.0000
 9845,0.01829690,-0.10867716,0.05997568,0.00109314,0.00397545,-0.000362
 62,0.00013974,-0.00005894,-0.00010731,-0.00002622,0.00005633,0.0000375
 6,-0.00385212,0.00979807,0.00181202,0.00259813,0.00063904,0.00157237,0
 .00037978,-0.00028213,-0.00033594,0.00002369,0.00009794,0.00017751,0.0
 0085529,-0.00002136,-0.00019368,-0.00007981,-0.00007080,0.00003661,0.0
 0108548,-0.00015379,0.00048931,-0.00007950,-0.00001244,0.00002285,0.00
 031540,0.00077916,0.00195176,-0.00027804,-0.00000251,-0.00009225,0.001
 31072,0.00184647,0.00200340,0.00077374,-0.00146201,0.00004121,0.070404
 08,0.18719576,0.00066628,-0.00107918,0.00044350,0.00164241,0.00131857,
 0.00133324,0.00026602,0.00020010,-0.00056165,-0.00865096,0.01298293,-0
 .01130065,-0.00053057,0.00070129,-0.00096861,0.00032480,0.00003098,0.0
 0006055,-0.00021046,-0.00012133,-0.00014725,-0.00000325,-0.00010023,-0
 .00010080,-0.04241837,0.06770599,-0.16088905,0.00080949,0.00121529,0.0
 0141135,-0.00004310,0.00011185,0.00009237,0.00006725,-0.00007092,-0.00
 000757,-0.02689566,0.02278142,-0.02862726,-0.00353989,0.00044019,0.005
 16390,0.00005870,0.00019165,0.00052357,-0.00004149,-0.00005081,-0.0001
 7398,-0.00040597,0.00012003,0.00032315,0.00001172,0.00004171,-0.000056
 39,-0.00060304,0.00059331,-0.00014839,0.00012521,-0.00013052,-0.000055
 62,0.00027624,0.00124818,-0.00005845,0.00012448,0.00008462,0.00033846,
 -0.00092397,0.00092528,0.00161553,-0.00060275,-0.00062451,-0.00003249,
 0.02636764,-0.14693522,0.23537691,-0.00020542,0.00017241,-0.00028836,-
 0.00140051,-0.00071392,-0.00018146,-0.00011240,0.00005809,0.00000189,0
 .00173174,-0.00090886,0.00114705,0.00027740,-0.00029405,0.00039001,0.0
 0000114,0.00001759,0.00001157,-0.00002849,0.00002589,0.00001439,-0.000
 03372,0.00000470,0.00002897,-0.03000233,-0.00219747,0.00045668,-0.0001
 3727,0.00049440,-0.00000259,0.00001778,-0.00000983,-0.00001748,-0.0000
 0688,-0.00000087,0.00001158,0.00053203,-0.00062249,0.00099029,-0.00062
 958,0.00129895,-0.00402036,0.00000790,-0.00009453,-0.00004792,0.000042
 35,0.00000814,0.00002838,0.00013742,-0.00004934,0.00000160,-0.00002085
 ,0.00001336,-0.00000122,0.00005486,-0.00006334,0.00009476,-0.00002503,
 0.00003127,-0.00001932,-0.00006670,-0.00013583,0.00040832,-0.00003952,
 0.00001685,-0.00001394,-0.00098128,-0.00058376,0.00063909,0.00022063,-
 0.00016893,0.00043816,-0.46984809,-0.11130209,0.05412924,0.50051482,0.
 00054673,0.00039835,-0.00018721,-0.00012345,0.00013929,0.00056540,0.00
 015287,-0.00003358,-0.00014290,0.00631154,-0.00138399,0.00089229,0.000
 01683,-0.00004029,-0.00003755,-0.00021771,-0.00015106,-0.00012645,0.00
 031995,-0.00000351,0.00010150,0.00002977,0.00006557,0.00004004,0.02473
 678,0.00419282,-0.00096627,-0.00009773,-0.00047455,-0.00007968,-0.0000
 7955,0.00000802,0.00002246,-0.00002068,-0.00003104,-0.00002727,-0.0005
 9301,0.00015701,0.00042875,0.00344056,-0.00280456,0.00324435,-0.000333
 92,0.00011251,0.00002260,0.00003437,-0.00004030,-0.00005113,-0.0002745
 4,-0.00006168,0.00005807,0.00002457,0.00004392,-0.00001096,-0.00047153
 ,-0.00009903,-0.00007816,-0.00000460,0.00006266,-0.00002263,-0.0005799
 1,-0.00019742,-0.00066598,0.00002532,-0.00001452,0.00008469,-0.0013171
 3,0.00055872,-0.00264167,-0.00051394,0.00120685,0.00052733,-0.14601528
 ,-0.05805975,0.03841935,0.11500368,0.05644958,-0.00029106,-0.00018466,
 0.00013273,0.00034936,-0.00001242,0.00006557,-0.00000776,-0.00001089,0
 .00012071,-0.00361437,0.00242634,0.00164383,-0.00005259,0.00006937,-0.
 00007683,0.00006560,0.00013488,0.00003039,0.00001125,0.00002772,0.0000
 3991,-0.00000109,0.00001838,-0.00001091,-0.03447453,-0.00458758,0.0009
 3894,0.00037409,-0.00035821,-0.00017773,0.00001492,-0.00001442,-0.0000
 1635,-0.00001421,0.00001878,-0.00000448,-0.00129441,-0.00000329,-0.001
 08112,-0.00150587,0.00195356,-0.00254196,0.00000458,-0.00005308,-0.000
 15483,0.00000330,0.00001124,0.00006243,0.00007824,-0.00001760,-0.00007
 688,0.00000499,-0.00000455,0.00001014,0.00025415,0.00002078,-0.0000418
 7,0.00000083,-0.00001005,0.00003090,0.00031934,-0.00014843,-0.00009458
 ,-0.00000345,-0.00001489,-0.00008138,0.00194973,-0.00433988,-0.0006337
 8,-0.00007873,0.00124659,-0.00118788,0.09210704,0.04320131,-0.04355437
 ,-0.05419934,-0.03936899,0.04665942\\0.00000168,-0.00000218,0.00000399
 ,-0.00000692,0.00000166,0.00001204,0.00000195,-0.00000038,0.00000357,-
 0.00001034,0.00000343,-0.00000193,-0.00000110,0.00000031,-0.00000050,0
 .00000086,0.00000364,-0.00000240,-0.00000218,-0.00000178,-0.00000296,-
 0.00000134,0.00000083,-0.00000108,-0.00000851,0.00000295,-0.00000473,-
 0.00000236,0.00000128,-0.00000148,-0.00000207,0.00000097,-0.00000129,-
 0.00000066,0.00000091,0.00000097,0.00000406,0.00000338,0.00000047,-0.0
 0000019,-0.00000148,-0.00000197,0.00000521,-0.00000207,0.00000235,-0.0
 0000136,-0.00000173,0.00000123,-0.00000239,-0.00000342,-0.00000295,0.0
 0000129,0.00000033,-0.00000224,-0.00000273,0.00000247,-0.00000528,0.00
 000358,0.00000035,-0.00000153,0.00000422,-0.00000354,-0.00000417,0.000
 00432,0.00000252,0.00000341,0.00000947,-0.00000926,0.00000132,0.000000
 02,0.00000354,0.00000014,0.00000458,0.00000167,0.00000729,0.00000092,-
 0.00000438,-0.00000224\\\@
 The archive entry for this job was punched.


 IT IS BY LOGIC THAT WE PROVE, BUT BY INTUITION THAT WE DISCOVER.
     -- J.H.POINCARE (1854-1912)
 Job cpu time:       0 days 21 hours  4 minutes 24.6 seconds.
 Elapsed time:       0 days  1 hours 19 minutes 13.5 seconds.
 File lengths (MBytes):  RWF=    704 Int=      0 D2E=      0 Chk=     27 Scr=      1
 Normal termination of Gaussian 16 at Wed Oct 11 17:53:58 2023.
