 Entering Gaussian System, Link 0=/opt/software/gaussian/g16.c01/g16
 Initial command:
 /opt/software/gaussian/g16.c01/l1.exe "/scratch/arhender/13209945/Gau-132733.inp" -scrdir="/scratch/arhender/13209945/"
 Entering Link 1 = /opt/software/gaussian/g16.c01/l1.exe PID=    132734.
  
 Copyright (c) 1988-2019, Gaussian, Inc.  All Rights Reserved.
  
 This is part of the Gaussian(R) 16 program.  It is based on
 the Gaussian(R) 09 system (copyright 2009, Gaussian, Inc.),
 the Gaussian(R) 03 system (copyright 2003, Gaussian, Inc.),
 the Gaussian(R) 98 system (copyright 1998, Gaussian, Inc.),
 the Gaussian(R) 94 system (copyright 1995, Gaussian, Inc.),
 the Gaussian 92(TM) system (copyright 1992, Gaussian, Inc.),
 the Gaussian 90(TM) system (copyright 1990, Gaussian, Inc.),
 the Gaussian 88(TM) system (copyright 1988, Gaussian, Inc.),
 the Gaussian 86(TM) system (copyright 1986, Carnegie Mellon
 University), and the Gaussian 82(TM) system (copyright 1983,
 Carnegie Mellon University). Gaussian is a federally registered
 trademark of Gaussian, Inc.
  
 This software contains proprietary and confidential information,
 including trade secrets, belonging to Gaussian, Inc.
  
 This software is provided under written license and may be
 used, copied, transmitted, or stored only in accord with that
 written license.
  
 The following legend is applicable only to US Government
 contracts under FAR:
  
                    RESTRICTED RIGHTS LEGEND
  
 Use, reproduction and disclosure by the US Government is
 subject to restrictions as set forth in subparagraphs (a)
 and (c) of the Commercial Computer Software - Restricted
 Rights clause in FAR 52.227-19.
  
 Gaussian, Inc.
 340 Quinnipiac St., Bldg. 40, Wallingford CT 06492
  
  
 ---------------------------------------------------------------
 Warning -- This program may not be used in any manner that
 competes with the business of Gaussian, Inc. or will provide
 assistance to any competitor of Gaussian, Inc.  The licensee
 of this program is prohibited from giving any competitor of
 Gaussian, Inc. access to this program.  By using this program,
 the user acknowledges that Gaussian, Inc. is engaged in the
 business of creating and licensing software in the field of
 computational chemistry and represents and warrants to the
 licensee that it is not a competitor of Gaussian, Inc. and that
 it will not use this program in any manner prohibited above.
 ---------------------------------------------------------------
  

 Cite this work as:
 Gaussian 16, Revision C.01,
 M. J. Frisch, G. W. Trucks, H. B. Schlegel, G. E. Scuseria, 
 M. A. Robb, J. R. Cheeseman, G. Scalmani, V. Barone, 
 G. A. Petersson, H. Nakatsuji, X. Li, M. Caricato, A. V. Marenich, 
 J. Bloino, B. G. Janesko, R. Gomperts, B. Mennucci, H. P. Hratchian, 
 J. V. Ortiz, A. F. Izmaylov, J. L. Sonnenberg, D. Williams-Young, 
 F. Ding, F. Lipparini, F. Egidi, J. Goings, B. Peng, A. Petrone, 
 T. Henderson, D. Ranasinghe, V. G. Zakrzewski, J. Gao, N. Rega, 
 G. Zheng, W. Liang, M. Hada, M. Ehara, K. Toyota, R. Fukuda, 
 J. Hasegawa, M. Ishida, T. Nakajima, Y. Honda, O. Kitao, H. Nakai, 
 T. Vreven, K. Throssell, J. A. Montgomery, Jr., J. E. Peralta, 
 F. Ogliaro, M. J. Bearpark, J. J. Heyd, E. N. Brothers, K. N. Kudin, 
 V. N. Staroverov, T. A. Keith, R. Kobayashi, J. Normand, 
 K. Raghavachari, A. P. Rendell, J. C. Burant, S. S. Iyengar, 
 J. Tomasi, M. Cossi, J. M. Millam, M. Klene, C. Adamo, R. Cammi, 
 J. W. Ochterski, R. L. Martin, K. Morokuma, O. Farkas, 
 J. B. Foresman, and D. J. Fox, Gaussian, Inc., Wallingford CT, 2019.
 
 ******************************************
 Gaussian 16:  ES64L-G16RevC.01  3-Jul-2019
                27-Sep-2023 
 ******************************************
 %chk=MannitolConformerOpt_20.chk
 %mem=8GB
 %nprocs=16
 Will use up to   16 processors via shared memory.
 ---------------------------------------------
 # opt freq wb97xd/def2tzvpp geom=connectivity
 ---------------------------------------------
 1/18=20,19=15,26=3,38=1,57=2/1,3;
 2/9=110,12=2,17=6,18=5,40=1/2;
 3/5=44,7=202,11=2,25=1,30=1,71=1,74=-58/1,2,3;
 4//1;
 5/5=2,38=5/2;
 6/7=2,8=2,9=2,10=2,28=1/1;
 7//1,2,3,16;
 1/18=20,19=15,26=3/3(2);
 2/9=110/2;
 99//99;
 2/9=110/2;
 3/5=44,7=202,11=2,25=1,30=1,71=1,74=-58/1,2,3;
 4/5=5,16=3,69=1/1;
 5/5=2,38=5/2;
 7//1,2,3,16;
 1/18=20,19=15,26=3/3(-5);
 2/9=110/2;
 6/7=2,8=2,9=2,10=2,19=2,28=1/1;
 99/9=1/99;
 --------------------------------
 Mannitol Conformer Optimziations
 --------------------------------
 Symbolic Z-matrix:
 Charge =  0 Multiplicity = 1
 C                     0.        0.        0. 
 C                     1.5428    0.        0. 
 C                    -0.6215    0.7057   -1.2255 
 C                     2.1809   -0.6978    1.2271 
 H                     1.8951    1.0378    0. 
 H                    -0.3608    0.4757    0.9187 
 C                    -0.1913    2.1623   -1.4039 
 H                    -1.7144    0.6536   -1.154 
 C                     2.0383   -2.225     1.291 
 H                     1.7917   -0.2565    2.1508 
 H                    -0.386     2.7497   -0.5023 
 H                     0.8676    2.2434   -1.6659 
 H                     1.0107   -2.5357    1.4915 
 H                     2.6833   -2.6276    2.0796 
 O                    -0.9257    2.7428   -2.4822 
 H                    -0.9297    2.0719   -3.1936 
 O                    -0.2951   -0.0236   -2.4281 
 H                     0.6814   -0.149    -2.4178 
 O                    -0.4836   -1.3524   -0.0001 
 H                    -0.5307   -1.6179   -0.9425 
 O                     2.0268   -0.5643   -1.2365 
 H                     2.1809   -1.5218   -1.0562 
 O                     3.5923   -0.406     1.1942 
 H                     3.9227   -0.7922    0.3593 
 O                     2.4663   -2.8091    0.0534 
 H                     2.4227   -3.7755    0.1853 
 

 GradGradGradGradGradGradGradGradGradGradGradGradGradGradGradGradGradGrad
 Berny optimization.
 Initialization pass.
                           ----------------------------
                           !    Initial Parameters    !
                           ! (Angstroms and Degrees)  !
 --------------------------                            --------------------------
 ! Name  Definition              Value          Derivative Info.                !
 --------------------------------------------------------------------------------
 ! R1    R(1,2)                  1.5428         estimate D2E/DX2                !
 ! R2    R(1,3)                  1.5447         estimate D2E/DX2                !
 ! R3    R(1,6)                  1.0957         estimate D2E/DX2                !
 ! R4    R(1,19)                 1.4363         estimate D2E/DX2                !
 ! R5    R(2,4)                  1.5492         estimate D2E/DX2                !
 ! R6    R(2,5)                  1.096          estimate D2E/DX2                !
 ! R7    R(2,21)                 1.4428         estimate D2E/DX2                !
 ! R8    R(3,7)                  1.5292         estimate D2E/DX2                !
 ! R9    R(3,8)                  1.0965         estimate D2E/DX2                !
 ! R10   R(3,17)                 1.4438         estimate D2E/DX2                !
 ! R11   R(4,9)                  1.5352         estimate D2E/DX2                !
 ! R12   R(4,10)                 1.0952         estimate D2E/DX2                !
 ! R13   R(4,23)                 1.4416         estimate D2E/DX2                !
 ! R14   R(7,11)                 1.0935         estimate D2E/DX2                !
 ! R15   R(7,12)                 1.0938         estimate D2E/DX2                !
 ! R16   R(7,15)                 1.428          estimate D2E/DX2                !
 ! R17   R(9,13)                 1.0921         estimate D2E/DX2                !
 ! R18   R(9,14)                 1.0954         estimate D2E/DX2                !
 ! R19   R(9,25)                 1.4339         estimate D2E/DX2                !
 ! R20   R(15,16)                0.9779         estimate D2E/DX2                !
 ! R21   R(17,18)                0.9846         estimate D2E/DX2                !
 ! R22   R(19,20)                0.9802         estimate D2E/DX2                !
 ! R23   R(21,22)                0.9864         estimate D2E/DX2                !
 ! R24   R(23,24)                0.9774         estimate D2E/DX2                !
 ! R25   R(25,26)                0.9763         estimate D2E/DX2                !
 ! A1    A(2,1,3)              113.7246         estimate D2E/DX2                !
 ! A2    A(2,1,6)              109.2262         estimate D2E/DX2                !
 ! A3    A(2,1,19)             109.6764         estimate D2E/DX2                !
 ! A4    A(3,1,6)              109.5347         estimate D2E/DX2                !
 ! A5    A(3,1,19)             107.1364         estimate D2E/DX2                !
 ! A6    A(6,1,19)             107.3373         estimate D2E/DX2                !
 ! A7    A(1,2,4)              114.3244         estimate D2E/DX2                !
 ! A8    A(1,2,5)              108.7507         estimate D2E/DX2                !
 ! A9    A(1,2,21)             109.6007         estimate D2E/DX2                !
 ! A10   A(4,2,5)              107.1052         estimate D2E/DX2                !
 ! A11   A(4,2,21)             111.3771         estimate D2E/DX2                !
 ! A12   A(5,2,21)             105.22           estimate D2E/DX2                !
 ! A13   A(1,3,7)              114.4888         estimate D2E/DX2                !
 ! A14   A(1,3,8)              109.1224         estimate D2E/DX2                !
 ! A15   A(1,3,17)             109.8211         estimate D2E/DX2                !
 ! A16   A(7,3,8)              109.467          estimate D2E/DX2                !
 ! A17   A(7,3,17)             108.6844         estimate D2E/DX2                !
 ! A18   A(8,3,17)             104.8115         estimate D2E/DX2                !
 ! A19   A(2,4,9)              116.2833         estimate D2E/DX2                !
 ! A20   A(2,4,10)             109.8889         estimate D2E/DX2                !
 ! A21   A(2,4,23)             107.0986         estimate D2E/DX2                !
 ! A22   A(9,4,10)             109.4348         estimate D2E/DX2                !
 ! A23   A(9,4,23)             107.0526         estimate D2E/DX2                !
 ! A24   A(10,4,23)            106.5953         estimate D2E/DX2                !
 ! A25   A(3,7,11)             111.4303         estimate D2E/DX2                !
 ! A26   A(3,7,12)             111.7707         estimate D2E/DX2                !
 ! A27   A(3,7,15)             109.3068         estimate D2E/DX2                !
 ! A28   A(11,7,12)            109.2696         estimate D2E/DX2                !
 ! A29   A(11,7,15)            108.2194         estimate D2E/DX2                !
 ! A30   A(12,7,15)            106.6701         estimate D2E/DX2                !
 ! A31   A(4,9,13)             112.2137         estimate D2E/DX2                !
 ! A32   A(4,9,14)             109.9308         estimate D2E/DX2                !
 ! A33   A(4,9,25)             109.9737         estimate D2E/DX2                !
 ! A34   A(13,9,14)            108.4997         estimate D2E/DX2                !
 ! A35   A(13,9,25)            108.8704         estimate D2E/DX2                !
 ! A36   A(14,9,25)            107.2104         estimate D2E/DX2                !
 ! A37   A(7,15,16)            105.8165         estimate D2E/DX2                !
 ! A38   A(3,17,18)            106.2501         estimate D2E/DX2                !
 ! A39   A(1,19,20)            105.741          estimate D2E/DX2                !
 ! A40   A(2,21,22)            105.9861         estimate D2E/DX2                !
 ! A41   A(4,23,24)            105.6916         estimate D2E/DX2                !
 ! A42   A(9,25,26)            105.8594         estimate D2E/DX2                !
 ! D1    D(3,1,2,4)            179.6897         estimate D2E/DX2                !
 ! D2    D(3,1,2,5)             60.0647         estimate D2E/DX2                !
 ! D3    D(3,1,2,21)           -54.4658         estimate D2E/DX2                !
 ! D4    D(6,1,2,4)             57.0            estimate D2E/DX2                !
 ! D5    D(6,1,2,5)            -62.625          estimate D2E/DX2                !
 ! D6    D(6,1,2,21)          -177.1555         estimate D2E/DX2                !
 ! D7    D(19,1,2,4)           -60.3792         estimate D2E/DX2                !
 ! D8    D(19,1,2,5)           179.9958         estimate D2E/DX2                !
 ! D9    D(19,1,2,21)           65.4653         estimate D2E/DX2                !
 ! D10   D(2,1,3,7)            -57.4633         estimate D2E/DX2                !
 ! D11   D(2,1,3,8)            179.4763         estimate D2E/DX2                !
 ! D12   D(2,1,3,17)            65.1092         estimate D2E/DX2                !
 ! D13   D(6,1,3,7)             65.0567         estimate D2E/DX2                !
 ! D14   D(6,1,3,8)            -58.0037         estimate D2E/DX2                !
 ! D15   D(6,1,3,17)          -172.3707         estimate D2E/DX2                !
 ! D16   D(19,1,3,7)          -178.8213         estimate D2E/DX2                !
 ! D17   D(19,1,3,8)            58.1183         estimate D2E/DX2                !
 ! D18   D(19,1,3,17)          -56.2487         estimate D2E/DX2                !
 ! D19   D(2,1,19,20)          -87.2619         estimate D2E/DX2                !
 ! D20   D(3,1,19,20)           36.6141         estimate D2E/DX2                !
 ! D21   D(6,1,19,20)          154.1835         estimate D2E/DX2                !
 ! D22   D(1,2,4,9)             70.3097         estimate D2E/DX2                !
 ! D23   D(1,2,4,10)           -54.6716         estimate D2E/DX2                !
 ! D24   D(1,2,4,23)          -170.0793         estimate D2E/DX2                !
 ! D25   D(5,2,4,9)           -169.1462         estimate D2E/DX2                !
 ! D26   D(5,2,4,10)            65.8725         estimate D2E/DX2                !
 ! D27   D(5,2,4,23)           -49.5352         estimate D2E/DX2                !
 ! D28   D(21,2,4,9)           -54.5999         estimate D2E/DX2                !
 ! D29   D(21,2,4,10)         -179.5811         estimate D2E/DX2                !
 ! D30   D(21,2,4,23)           65.0111         estimate D2E/DX2                !
 ! D31   D(1,2,21,22)          -94.0417         estimate D2E/DX2                !
 ! D32   D(4,2,21,22)           33.4706         estimate D2E/DX2                !
 ! D33   D(5,2,21,22)          149.1819         estimate D2E/DX2                !
 ! D34   D(1,3,7,11)           -54.7826         estimate D2E/DX2                !
 ! D35   D(1,3,7,12)            67.7996         estimate D2E/DX2                !
 ! D36   D(1,3,7,15)          -174.3469         estimate D2E/DX2                !
 ! D37   D(8,3,7,11)            68.0917         estimate D2E/DX2                !
 ! D38   D(8,3,7,12)          -169.326          estimate D2E/DX2                !
 ! D39   D(8,3,7,15)           -51.4725         estimate D2E/DX2                !
 ! D40   D(17,3,7,11)         -177.9694         estimate D2E/DX2                !
 ! D41   D(17,3,7,12)          -55.3871         estimate D2E/DX2                !
 ! D42   D(17,3,7,15)           62.4663         estimate D2E/DX2                !
 ! D43   D(1,3,17,18)          -51.6476         estimate D2E/DX2                !
 ! D44   D(7,3,17,18)           74.2986         estimate D2E/DX2                !
 ! D45   D(8,3,17,18)         -168.7445         estimate D2E/DX2                !
 ! D46   D(2,4,9,13)           -70.1827         estimate D2E/DX2                !
 ! D47   D(2,4,9,14)           168.9767         estimate D2E/DX2                !
 ! D48   D(2,4,9,25)            51.1588         estimate D2E/DX2                !
 ! D49   D(10,4,9,13)           55.0294         estimate D2E/DX2                !
 ! D50   D(10,4,9,14)          -65.8111         estimate D2E/DX2                !
 ! D51   D(10,4,9,25)          176.3709         estimate D2E/DX2                !
 ! D52   D(23,4,9,13)          170.1815         estimate D2E/DX2                !
 ! D53   D(23,4,9,14)           49.3409         estimate D2E/DX2                !
 ! D54   D(23,4,9,25)          -68.477          estimate D2E/DX2                !
 ! D55   D(2,4,23,24)          -61.5114         estimate D2E/DX2                !
 ! D56   D(9,4,23,24)           63.8652         estimate D2E/DX2                !
 ! D57   D(10,4,23,24)        -179.0971         estimate D2E/DX2                !
 ! D58   D(3,7,15,16)          -43.387          estimate D2E/DX2                !
 ! D59   D(11,7,15,16)        -164.9132         estimate D2E/DX2                !
 ! D60   D(12,7,15,16)          77.6198         estimate D2E/DX2                !
 ! D61   D(4,9,25,26)          175.3567         estimate D2E/DX2                !
 ! D62   D(13,9,25,26)         -61.322          estimate D2E/DX2                !
 ! D63   D(14,9,25,26)          55.8661         estimate D2E/DX2                !
 --------------------------------------------------------------------------------
 Trust Radius=3.00D-01 FncErr=1.00D-07 GrdErr=1.00D-06 EigMax=2.50D+02 EigMin=1.00D-04
 Number of steps in this run=    140 maximum allowed number of steps=    156.
 GradGradGradGradGradGradGradGradGradGradGradGradGradGradGradGradGradGrad

                          Input orientation:                          
 ---------------------------------------------------------------------
 Center     Atomic      Atomic             Coordinates (Angstroms)
 Number     Number       Type             X           Y           Z
 ---------------------------------------------------------------------
      1          6           0        0.000000    0.000000    0.000000
      2          6           0        1.542800    0.000000    0.000000
      3          6           0       -0.621500    0.705700   -1.225500
      4          6           0        2.180900   -0.697800    1.227100
      5          1           0        1.895100    1.037800    0.000000
      6          1           0       -0.360800    0.475700    0.918700
      7          6           0       -0.191300    2.162300   -1.403900
      8          1           0       -1.714400    0.653600   -1.154000
      9          6           0        2.038300   -2.225000    1.291000
     10          1           0        1.791700   -0.256500    2.150800
     11          1           0       -0.386000    2.749700   -0.502300
     12          1           0        0.867600    2.243400   -1.665900
     13          1           0        1.010700   -2.535700    1.491500
     14          1           0        2.683300   -2.627600    2.079600
     15          8           0       -0.925700    2.742800   -2.482200
     16          1           0       -0.929700    2.071900   -3.193600
     17          8           0       -0.295100   -0.023600   -2.428100
     18          1           0        0.681400   -0.149000   -2.417800
     19          8           0       -0.483600   -1.352400   -0.000100
     20          1           0       -0.530700   -1.617900   -0.942500
     21          8           0        2.026800   -0.564300   -1.236500
     22          1           0        2.180900   -1.521800   -1.056200
     23          8           0        3.592300   -0.406000    1.194200
     24          1           0        3.922700   -0.792200    0.359300
     25          8           0        2.466300   -2.809100    0.053400
     26          1           0        2.422700   -3.775500    0.185300
 ---------------------------------------------------------------------
                    Distance matrix (angstroms):
                    1          2          3          4          5
     1  C    0.000000
     2  C    1.542800   0.000000
     3  C    1.544709   2.585354   0.000000
     4  C    2.597888   1.549152   3.979762   0.000000
     5  H    2.160656   1.095967   2.818761   2.144706   0.000000
     6  H    1.095663   2.166563   2.172201   2.816461   2.499810
     7  C    2.585164   3.107021   1.529242   4.552984   2.754723
     8  H    2.167505   3.516854   1.096475   4.761227   3.808913
     9  C    3.282068   2.619700   4.690022   1.535174   3.511844
    10  H    2.811036   2.180294   4.260137   1.095191   2.512338
    11  H    2.821728   3.396090   2.180921   4.633040   2.895915
    12  H    2.925884   2.874711   2.185381   4.329534   2.298793
    13  H    3.110605   2.989561   4.533524   2.194801   3.971982
    14  H    4.292915   3.539740   5.740756   2.168707   4.287325
    15  O    3.813291   4.447219   2.412801   5.936969   4.126167
    16  H    3.918698   4.539285   2.415555   6.073686   4.387247
    17  O    2.446081   3.045341   1.443836   4.466051   3.437909
    18  H    2.516399   2.570986   1.962050   3.979319   2.954204
    19  O    1.436264   2.436244   2.399249   3.005675   3.372131
    20  H    1.946163   2.793798   2.342531   3.592565   3.718273
    21  O    2.440345   1.442783   2.937093   2.472022   2.028054
    22  H    2.861426   1.959236   3.583834   2.427434   2.783665
    23  O    3.807305   2.406533   4.984670   1.441624   2.528074
    24  H    4.017991   2.533891   5.040342   1.948296   2.754843
    25  O    3.738520   2.957490   4.850146   2.432409   3.889442
    26  H    4.489790   3.881103   5.598095   3.258228   4.845674
                    6          7          8          9         10
     6  H    0.000000
     7  C    2.875382   0.000000
     8  H    2.481928   2.158346   0.000000
     9  C    3.631538   5.610883   5.324201   0.000000
    10  H    2.586009   4.734847   4.903338   2.162189   0.000000
    11  H    2.681595   1.093540   2.565735   5.817284   4.562736
    12  H    3.363612   1.093842   3.075098   5.484560   4.655176
    13  H    3.358220   5.647951   4.959483   1.092106   2.497877
    14  H    4.499412   6.583406   6.368847   1.095446   2.534193
    15  O    4.126133   1.427955   2.598253   6.906618   6.151809
    16  H    4.447754   1.938152   2.605244   6.883604   6.433512
    17  O    3.384477   2.416179   2.023942   4.911479   5.037390
    18  H    3.550868   2.670525   2.825104   4.461631   4.702811
    19  O    2.049688   3.795946   2.621143   2.964515   3.317282
    20  H    2.806438   3.823349   2.570134   3.457868   4.100665
    21  O    3.380402   3.518855   3.935310   3.024287   3.409372
    22  H    3.788202   4.395546   4.462655   2.454419   3.469483
    23  O    4.059593   5.259460   5.898971   2.394378   2.044406
    24  H    4.502096   5.363109   6.013095   2.544002   2.835068
    25  O    4.419406   5.822489   5.561147   1.433880   3.371934
    26  H    5.134048   6.679523   6.206952   1.942778   4.079793
                   11         12         13         14         15
    11  H    0.000000
    12  H    1.783765   0.000000
    13  H    5.819060   5.729699   0.000000
    14  H    6.708365   6.407197   1.775359   0.000000
    15  O    2.052152   2.032651   6.884947   7.916824   0.000000
    16  H    2.828094   2.365072   6.851663   7.933833   0.977861
    17  O    3.377597   2.659344   4.835186   5.997586   2.837878
    18  H    3.634686   2.514677   4.592102   5.511594   3.308992
    19  O    4.133879   4.186933   2.420331   3.997567   4.809047
    20  H    4.392112   4.169915   3.023678   4.525746   4.641380
    21  O    4.164523   3.067786   3.515802   3.960394   4.604990
    22  H    5.014129   4.034008   2.981298   3.362803   5.465460
    23  O    5.353823   4.756415   3.359861   2.558461   6.621418
    24  H    5.643785   4.759195   3.577906   2.804325   6.639076
    25  O    6.272533   5.571319   2.064377   2.045854   6.982730
    26  H    7.137214   6.486327   2.288451   2.230237   7.798434
                   16         17         18         19         20
    16  H    0.000000
    17  O    2.319446   0.000000
    18  H    2.851299   0.984573   0.000000
    19  O    4.703539   2.774243   2.941202   0.000000
    20  H    4.340654   2.191873   2.409017   0.980218   0.000000
    21  O    4.418222   2.665237   1.837946   2.907214   2.781603
    22  H    5.211429   3.202700   2.446842   2.871168   2.715684
    23  O    6.770617   5.327210   4.646066   4.351435   4.799304
    24  H    6.661228   5.113725   4.316482   4.456285   4.712668
    25  O    6.774953   4.641356   4.045841   3.290402   3.375320
    26  H    7.539737   5.319121   4.791634   3.788452   3.827498
                   21         22         23         24         25
    21  O    0.000000
    22  H    0.986439   0.000000
    23  O    2.895540   2.881208   0.000000
    24  H    2.488564   2.360047   0.977432   0.000000
    25  O    2.626048   1.723313   2.888631   2.506504   0.000000
    26  H    3.534128   2.584367   3.706666   3.343704   0.976334
                   26
    26  H    0.000000
 Stoichiometry    C6H14O6
 Framework group  C1[X(C6H14O6)]
 Deg. of freedom    72
 Full point group                 C1      NOp   1
 Largest Abelian subgroup         C1      NOp   1
 Largest concise Abelian subgroup C1      NOp   1
                         Standard orientation:                         
 ---------------------------------------------------------------------
 Center     Atomic      Atomic             Coordinates (Angstroms)
 Number     Number       Type             X           Y           Z
 ---------------------------------------------------------------------
      1          6           0        0.483894   -0.307828   -0.923548
      2          6           0       -0.415769    0.640332   -0.103894
      3          6           0        1.920509   -0.434365   -0.370148
      4          6           0       -1.857921    0.783402   -0.651251
      5          1           0        0.031219    1.640997   -0.107704
      6          1           0        0.520653    0.038124   -1.962510
      7          6           0        2.677146    0.890177   -0.262109
      8          1           0        2.488277   -1.129187   -1.000321
      9          6           0       -2.767739   -0.443689   -0.498815
     10          1           0       -1.828799    1.087041   -1.703106
     11          1           0        2.696066    1.418732   -1.219240
     12          1           0        2.245453    1.542833    0.502202
     13          1           0       -2.466996   -1.264533   -1.153387
     14          1           0       -3.802715   -0.172729   -0.734203
     15          8           0        4.025151    0.633023    0.132619
     16          1           0        3.971744   -0.037624    0.842262
     17          8           0        1.890453   -1.057431    0.931984
     18          1           0        1.236887   -0.549719    1.465334
     19          8           0       -0.084255   -1.626918   -0.931518
     20          1           0        0.261187   -2.070101   -0.128346
     21          8           0       -0.416555    0.231109    1.279637
     22          1           0       -1.201130   -0.356793    1.388606
     23          8           0       -2.480588    1.863830    0.072102
     24          1           0       -2.486471    1.585817    1.009144
     25          8           0       -2.747751   -0.902537    0.859518
     26          1           0       -3.397733   -1.629636    0.905116
 ---------------------------------------------------------------------
 Rotational constants (GHZ):           1.7428259           0.5094918           0.4716229
 Standard basis: def2TZVPP (5D, 7F)
 There are   642 symmetry adapted cartesian basis functions of A   symmetry.
 There are   568 symmetry adapted basis functions of A   symmetry.
   568 basis functions,   850 primitive gaussians,   642 cartesian basis functions
    49 alpha electrons       49 beta electrons
       nuclear repulsion energy       838.7796780818 Hartrees.
 NAtoms=   26 NActive=   26 NUniq=   26 SFac= 1.00D+00 NAtFMM=   60 NAOKFM=F Big=F
 Integral buffers will be    131072 words long.
 Raffenetti 2 integral format.
 Two-electron integral symmetry is turned on.
 Nuclear repulsion after empirical dispersion term =      838.7604473707 Hartrees.
 One-electron integrals computed using PRISM.
   1 Symmetry operations used in ECPInt.
 ECPInt:  NShTT=   23436 NPrTT=   62434 LenC2=   21935 LenP2D=   45737.
 LDataN:  DoStor=T MaxTD1= 6 Len=  172
 NBasis=   568 RedAO= T EigKep=  4.08D-05  NBF=   568
 NBsUse=   568 1.00D-06 EigRej= -1.00D+00 NBFU=   568
 ExpMin= 9.52D-02 ExpMax= 2.70D+04 ExpMxC= 9.22D+02 IAcc=3 IRadAn=         5 AccDes= 0.00D+00
 Harris functional with IExCor= 4639 and IRadAn=       5 diagonalized for initial guess.
 HarFok:  IExCor= 4639 AccDes= 0.00D+00 IRadAn=         5 IDoV= 1 UseB2=F ITyADJ=14
 ICtDFT=  3500011 ScaDFX=  1.000000  1.000000  1.000000  1.000000
 FoFCou: FMM=F IPFlag=           0 FMFlag=      100000 FMFlg1=           0
         NFxFlg=           0 DoJE=T BraDBF=F KetDBF=T FulRan=T
         wScrn=  0.000000 ICntrl=       500 IOpCl=  0 I1Cent=   200000004 NGrid=           0
         NMat0=    1 NMatS0=      1 NMatT0=    0 NMatD0=    1 NMtDS0=    0 NMtDT0=    0
 Petite list used in FoFCou.
 Requested convergence on RMS density matrix=1.00D-08 within 128 cycles.
 Requested convergence on MAX density matrix=1.00D-06.
 Requested convergence on             energy=1.00D-06.
 No special actions if energy rises.
 Integral accuracy reduced to 1.0D-05 until final iterations.
 Initial convergence to 1.0D-05 achieved.  Increase integral accuracy.
 SCF Done:  E(RwB97XD) =  -688.471298720     A.U. after   14 cycles
            NFock= 14  Conv=0.21D-08     -V/T= 2.0049

 **********************************************************************

            Population analysis using the SCF Density.

 **********************************************************************

 Orbital symmetries:
       Occupied  (A) (A) (A) (A) (A) (A) (A) (A) (A) (A) (A) (A)
                 (A) (A) (A) (A) (A) (A) (A) (A) (A) (A) (A) (A)
                 (A) (A) (A) (A) (A) (A) (A) (A) (A) (A) (A) (A)
                 (A) (A) (A) (A) (A) (A) (A) (A) (A) (A) (A) (A)
                 (A)
       Virtual   (A) (A) (A) (A) (A) (A) (A) (A) (A) (A) (A) (A)
                 (A) (A) (A) (A) (A) (A) (A) (A) (A) (A) (A) (A)
                 (A) (A) (A) (A) (A) (A) (A) (A) (A) (A) (A) (A)
                 (A) (A) (A) (A) (A) (A) (A) (A) (A) (A) (A) (A)
                 (A) (A) (A) (A) (A) (A) (A) (A) (A) (A) (A) (A)
                 (A) (A) (A) (A) (A) (A) (A) (A) (A) (A) (A) (A)
                 (A) (A) (A) (A) (A) (A) (A) (A) (A) (A) (A) (A)
                 (A) (A) (A) (A) (A) (A) (A) (A) (A) (A) (A) (A)
                 (A) (A) (A) (A) (A) (A) (A) (A) (A) (A) (A) (A)
                 (A) (A) (A) (A) (A) (A) (A) (A) (A) (A) (A) (A)
                 (A) (A) (A) (A) (A) (A) (A) (A) (A) (A) (A) (A)
                 (A) (A) (A) (A) (A) (A) (A) (A) (A) (A) (A) (A)
                 (A) (A) (A) (A) (A) (A) (A) (A) (A) (A) (A) (A)
                 (A) (A) (A) (A) (A) (A) (A) (A) (A) (A) (A) (A)
                 (A) (A) (A) (A) (A) (A) (A) (A) (A) (A) (A) (A)
                 (A) (A) (A) (A) (A) (A) (A) (A) (A) (A) (A) (A)
                 (A) (A) (A) (A) (A) (A) (A) (A) (A) (A) (A) (A)
                 (A) (A) (A) (A) (A) (A) (A) (A) (A) (A) (A) (A)
                 (A) (A) (A) (A) (A) (A) (A) (A) (A) (A) (A) (A)
                 (A) (A) (A) (A) (A) (A) (A) (A) (A) (A) (A) (A)
                 (A) (A) (A) (A) (A) (A) (A) (A) (A) (A) (A) (A)
                 (A) (A) (A) (A) (A) (A) (A) (A) (A) (A) (A) (A)
                 (A) (A) (A) (A) (A) (A) (A) (A) (A) (A) (A) (A)
                 (A) (A) (A) (A) (A) (A) (A) (A) (A) (A) (A) (A)
                 (A) (A) (A) (A) (A) (A) (A) (A) (A) (A) (A) (A)
                 (A) (A) (A) (A) (A) (A) (A) (A) (A) (A) (A) (A)
                 (A) (A) (A) (A) (A) (A) (A) (A) (A) (A) (A) (A)
                 (A) (A) (A) (A) (A) (A) (A) (A) (A) (A) (A) (A)
                 (A) (A) (A) (A) (A) (A) (A) (A) (A) (A) (A) (A)
                 (A) (A) (A) (A) (A) (A) (A) (A) (A) (A) (A) (A)
                 (A) (A) (A) (A) (A) (A) (A) (A) (A) (A) (A) (A)
                 (A) (A) (A) (A) (A) (A) (A) (A) (A) (A) (A) (A)
                 (A) (A) (A) (A) (A) (A) (A) (A) (A) (A) (A) (A)
                 (A) (A) (A) (A) (A) (A) (A) (A) (A) (A) (A) (A)
                 (A) (A) (A) (A) (A) (A) (A) (A) (A) (A) (A) (A)
                 (A) (A) (A) (A) (A) (A) (A) (A) (A) (A) (A) (A)
                 (A) (A) (A) (A) (A) (A) (A) (A) (A) (A) (A) (A)
                 (A) (A) (A) (A) (A) (A) (A) (A) (A) (A) (A) (A)
                 (A) (A) (A) (A) (A) (A) (A) (A) (A) (A) (A) (A)
                 (A) (A) (A) (A) (A) (A) (A) (A) (A) (A) (A) (A)
                 (A) (A) (A) (A) (A) (A) (A) (A) (A) (A) (A) (A)
                 (A) (A) (A) (A) (A) (A) (A) (A) (A) (A) (A) (A)
                 (A) (A) (A) (A) (A) (A) (A) (A) (A) (A) (A) (A)
                 (A) (A) (A)
 The electronic state is 1-A.
 Alpha  occ. eigenvalues --  -19.29125 -19.26351 -19.25577 -19.25506 -19.25173
 Alpha  occ. eigenvalues --  -19.24059 -10.35962 -10.35314 -10.34978 -10.34962
 Alpha  occ. eigenvalues --  -10.34398 -10.33115  -1.17053  -1.15001  -1.13063
 Alpha  occ. eigenvalues --   -1.11974  -1.11520  -1.10020  -0.88912  -0.85658
 Alpha  occ. eigenvalues --   -0.80614  -0.75280  -0.71868  -0.69520  -0.66340
 Alpha  occ. eigenvalues --   -0.62382  -0.60321  -0.59473  -0.59014  -0.57226
 Alpha  occ. eigenvalues --   -0.56323  -0.55120  -0.54164  -0.52803  -0.51672
 Alpha  occ. eigenvalues --   -0.51017  -0.49696  -0.48245  -0.46519  -0.44483
 Alpha  occ. eigenvalues --   -0.43358  -0.42498  -0.41692  -0.40025  -0.39029
 Alpha  occ. eigenvalues --   -0.38351  -0.37530  -0.35743  -0.34390
 Alpha virt. eigenvalues --    0.07713   0.11084   0.11891   0.13278   0.14231
 Alpha virt. eigenvalues --    0.14741   0.15007   0.16316   0.17233   0.17695
 Alpha virt. eigenvalues --    0.18483   0.18757   0.20039   0.21301   0.21774
 Alpha virt. eigenvalues --    0.22645   0.22874   0.24371   0.24975   0.27217
 Alpha virt. eigenvalues --    0.29047   0.29824   0.30600   0.31693   0.33700
 Alpha virt. eigenvalues --    0.34402   0.35462   0.36802   0.37133   0.37846
 Alpha virt. eigenvalues --    0.38205   0.38631   0.39585   0.40084   0.41218
 Alpha virt. eigenvalues --    0.41806   0.42108   0.43529   0.44446   0.44917
 Alpha virt. eigenvalues --    0.45229   0.45731   0.46652   0.47172   0.48016
 Alpha virt. eigenvalues --    0.48463   0.49155   0.49290   0.49881   0.50635
 Alpha virt. eigenvalues --    0.51730   0.52239   0.52937   0.53083   0.54148
 Alpha virt. eigenvalues --    0.55248   0.56615   0.56706   0.57719   0.58466
 Alpha virt. eigenvalues --    0.60398   0.60869   0.61875   0.62525   0.63394
 Alpha virt. eigenvalues --    0.63694   0.65524   0.66754   0.68551   0.69060
 Alpha virt. eigenvalues --    0.70338   0.70489   0.71566   0.72160   0.73765
 Alpha virt. eigenvalues --    0.74872   0.76203   0.76334   0.78240   0.79015
 Alpha virt. eigenvalues --    0.81603   0.82121   0.83619   0.85432   0.86094
 Alpha virt. eigenvalues --    0.87011   0.88504   0.88834   0.89430   0.90174
 Alpha virt. eigenvalues --    0.92573   0.93745   0.94657   0.96193   0.96452
 Alpha virt. eigenvalues --    0.97355   0.98239   1.00734   1.00872   1.03680
 Alpha virt. eigenvalues --    1.04098   1.04433   1.06193   1.06691   1.07510
 Alpha virt. eigenvalues --    1.08463   1.09244   1.09763   1.10727   1.11492
 Alpha virt. eigenvalues --    1.13360   1.14983   1.16831   1.18774   1.18974
 Alpha virt. eigenvalues --    1.19892   1.21411   1.22151   1.22389   1.24634
 Alpha virt. eigenvalues --    1.25309   1.26673   1.27724   1.28955   1.30640
 Alpha virt. eigenvalues --    1.31293   1.32389   1.32609   1.34369   1.35530
 Alpha virt. eigenvalues --    1.36346   1.36982   1.37608   1.38888   1.40459
 Alpha virt. eigenvalues --    1.41374   1.43387   1.43650   1.45328   1.47143
 Alpha virt. eigenvalues --    1.48474   1.48950   1.50603   1.51295   1.52909
 Alpha virt. eigenvalues --    1.53336   1.54420   1.55155   1.56547   1.57513
 Alpha virt. eigenvalues --    1.59667   1.60298   1.61537   1.64593   1.64873
 Alpha virt. eigenvalues --    1.66969   1.67423   1.70128   1.70401   1.74361
 Alpha virt. eigenvalues --    1.74833   1.76018   1.79543   1.80314   1.82827
 Alpha virt. eigenvalues --    1.86404   1.87650   1.89719   1.90805   1.92071
 Alpha virt. eigenvalues --    1.95415   1.96264   1.97652   1.98001   1.99526
 Alpha virt. eigenvalues --    2.01057   2.02204   2.03110   2.03996   2.04965
 Alpha virt. eigenvalues --    2.06664   2.08917   2.09506   2.10303   2.11947
 Alpha virt. eigenvalues --    2.13805   2.14563   2.16052   2.17243   2.18551
 Alpha virt. eigenvalues --    2.20529   2.22162   2.23835   2.24949   2.25670
 Alpha virt. eigenvalues --    2.28123   2.28539   2.29778   2.30820   2.32738
 Alpha virt. eigenvalues --    2.34224   2.37229   2.39230   2.41363   2.42151
 Alpha virt. eigenvalues --    2.45652   2.46027   2.47220   2.50735   2.52640
 Alpha virt. eigenvalues --    2.55914   2.58781   2.58986   2.62340   2.64733
 Alpha virt. eigenvalues --    2.66675   2.68578   2.69909   2.70998   2.71236
 Alpha virt. eigenvalues --    2.73009   2.74253   2.74437   2.75357   2.76403
 Alpha virt. eigenvalues --    2.77679   2.78935   2.81349   2.82415   2.83578
 Alpha virt. eigenvalues --    2.84897   2.85981   2.87728   2.88908   2.90557
 Alpha virt. eigenvalues --    2.93813   2.94377   2.94958   2.97519   2.99801
 Alpha virt. eigenvalues --    3.00524   3.01538   3.02986   3.04522   3.05810
 Alpha virt. eigenvalues --    3.06519   3.08039   3.09510   3.11218   3.11949
 Alpha virt. eigenvalues --    3.12928   3.13182   3.14952   3.16339   3.17430
 Alpha virt. eigenvalues --    3.18871   3.19178   3.19564   3.20675   3.20788
 Alpha virt. eigenvalues --    3.22277   3.23599   3.24584   3.26539   3.27029
 Alpha virt. eigenvalues --    3.27511   3.28065   3.29637   3.31191   3.32023
 Alpha virt. eigenvalues --    3.33269   3.34753   3.35994   3.37104   3.37706
 Alpha virt. eigenvalues --    3.37928   3.38476   3.39554   3.41887   3.42522
 Alpha virt. eigenvalues --    3.42804   3.44004   3.45729   3.46926   3.48101
 Alpha virt. eigenvalues --    3.48454   3.50953   3.51441   3.52664   3.53618
 Alpha virt. eigenvalues --    3.54553   3.56357   3.56693   3.58678   3.59315
 Alpha virt. eigenvalues --    3.61529   3.61925   3.62477   3.64344   3.66446
 Alpha virt. eigenvalues --    3.67101   3.68340   3.69522   3.70681   3.71941
 Alpha virt. eigenvalues --    3.73869   3.74735   3.75122   3.76558   3.77104
 Alpha virt. eigenvalues --    3.78272   3.78883   3.80546   3.81430   3.82794
 Alpha virt. eigenvalues --    3.84306   3.85364   3.86557   3.87340   3.89147
 Alpha virt. eigenvalues --    3.89285   3.91468   3.92579   3.94588   3.95481
 Alpha virt. eigenvalues --    3.96904   3.97586   3.98570   4.00724   4.02622
 Alpha virt. eigenvalues --    4.03543   4.04052   4.05173   4.05290   4.05667
 Alpha virt. eigenvalues --    4.06788   4.07728   4.09101   4.10217   4.11411
 Alpha virt. eigenvalues --    4.11927   4.14224   4.15547   4.16960   4.18315
 Alpha virt. eigenvalues --    4.18805   4.19777   4.20518   4.21533   4.22556
 Alpha virt. eigenvalues --    4.23716   4.24765   4.25493   4.28625   4.29727
 Alpha virt. eigenvalues --    4.30133   4.31550   4.32922   4.33452   4.35337
 Alpha virt. eigenvalues --    4.36935   4.37944   4.38469   4.39400   4.40499
 Alpha virt. eigenvalues --    4.42681   4.42898   4.44318   4.45629   4.47137
 Alpha virt. eigenvalues --    4.49033   4.50055   4.51034   4.53013   4.54511
 Alpha virt. eigenvalues --    4.55735   4.57801   4.58652   4.60085   4.62127
 Alpha virt. eigenvalues --    4.64350   4.65806   4.66839   4.68153   4.71288
 Alpha virt. eigenvalues --    4.74392   4.75260   4.76511   4.77092   4.79960
 Alpha virt. eigenvalues --    4.81908   4.84994   4.85901   4.88267   4.88615
 Alpha virt. eigenvalues --    4.92444   4.94676   4.95267   4.95857   4.97759
 Alpha virt. eigenvalues --    4.98617   4.99720   5.01713   5.03408   5.04093
 Alpha virt. eigenvalues --    5.05142   5.07603   5.09571   5.10702   5.12921
 Alpha virt. eigenvalues --    5.13719   5.14969   5.16539   5.19244   5.19892
 Alpha virt. eigenvalues --    5.21163   5.22516   5.24966   5.26725   5.29849
 Alpha virt. eigenvalues --    5.31352   5.32593   5.36742   5.39300   5.42211
 Alpha virt. eigenvalues --    5.45062   5.49591   5.53106   5.56236   5.60313
 Alpha virt. eigenvalues --    5.60599   5.62113   5.62697   5.65890   5.66589
 Alpha virt. eigenvalues --    5.67223   5.67481   5.69597   5.71943   5.73065
 Alpha virt. eigenvalues --    5.74386   5.76113   5.77652   5.80039   5.83300
 Alpha virt. eigenvalues --    5.84979   5.86923   5.89419   5.94048   5.95288
 Alpha virt. eigenvalues --    6.00047   6.01431   6.03055   6.06913   6.12295
 Alpha virt. eigenvalues --    6.14422   6.16453   6.19751   6.20232   6.52097
 Alpha virt. eigenvalues --    6.54068   6.54565   6.54923   6.56519   6.58332
 Alpha virt. eigenvalues --    6.70220   6.71280   6.73240   6.75796   6.76939
 Alpha virt. eigenvalues --    6.77947   6.79708   6.80005   6.81372   6.83993
 Alpha virt. eigenvalues --    6.85181   6.86342   6.86778   6.87694   6.89056
 Alpha virt. eigenvalues --    6.92541   6.95481   6.98525   7.01517   7.02092
 Alpha virt. eigenvalues --    7.03267   7.04242   7.05970   7.07167   7.15330
 Alpha virt. eigenvalues --    7.18872   7.19554   7.22051   7.25719   7.30074
 Alpha virt. eigenvalues --    7.41885   7.44409   7.44619   7.46373   7.48195
 Alpha virt. eigenvalues --    7.50394   7.54833   7.55838   7.61117   7.66258
 Alpha virt. eigenvalues --    7.67443   7.79461  23.10042  23.14031  23.16601
 Alpha virt. eigenvalues --   23.21009  23.44165  23.48161  44.09755  44.15617
 Alpha virt. eigenvalues --   44.25080  44.27722  44.33721  44.43182
          Condensed to atoms (all electrons):
               1          2          3          4          5          6
     1  C    4.985790   0.192271   0.273429  -0.035416  -0.008948   0.423169
     2  C    0.192271   4.987586   0.013607   0.357017   0.386224  -0.050071
     3  C    0.273429   0.013607   4.833940   0.001402  -0.015306  -0.024347
     4  C   -0.035416   0.357017   0.001402   4.714811  -0.019694  -0.007538
     5  H   -0.008948   0.386224  -0.015306  -0.019694   0.564664   0.007235
     6  H    0.423169  -0.050071  -0.024347  -0.007538   0.007235   0.583232
     7  C   -0.062676   0.024569   0.367708   0.001116   0.004994  -0.007159
     8  H   -0.035974   0.011202   0.416789   0.000437  -0.000559  -0.004742
     9  C    0.002474  -0.020841  -0.000035   0.321767   0.008036   0.001402
    10  H   -0.010184  -0.002768   0.000383   0.388111  -0.004977   0.001129
    11  H    0.017522  -0.012796  -0.049527  -0.001064   0.000090   0.001936
    12  H   -0.014111   0.015716  -0.010675   0.002324  -0.007830  -0.000069
    13  H   -0.009526  -0.000223   0.000233  -0.029451  -0.000657  -0.000174
    14  H    0.000342   0.004682  -0.000022  -0.018297  -0.000332  -0.000090
    15  O    0.010984  -0.001545  -0.035382  -0.000046  -0.000233   0.000025
    16  H    0.004060  -0.001195  -0.019561  -0.000034  -0.000097  -0.000025
    17  O   -0.023113  -0.013874   0.227405   0.001769   0.000690   0.004210
    18  H   -0.001306  -0.006614  -0.038189  -0.000019  -0.000608  -0.000183
    19  O    0.257084  -0.062225  -0.020406  -0.010576   0.003862  -0.022533
    20  H   -0.064430   0.009045  -0.005774  -0.005085   0.000310   0.007449
    21  O   -0.025155   0.217951  -0.020916  -0.038198  -0.027396   0.004795
    22  H    0.013520  -0.047147  -0.005536  -0.000132   0.004623   0.000304
    23  O    0.006788  -0.040810  -0.000000   0.265200   0.012376   0.000133
    24  H   -0.000272  -0.001607   0.000130  -0.053164  -0.004488  -0.000018
    25  O    0.001499  -0.015362  -0.000098  -0.034473  -0.001060   0.000040
    26  H    0.000467   0.001235  -0.000037   0.001734   0.000098   0.000005
               7          8          9         10         11         12
     1  C   -0.062676  -0.035974   0.002474  -0.010184   0.017522  -0.014111
     2  C    0.024569   0.011202  -0.020841  -0.002768  -0.012796   0.015716
     3  C    0.367708   0.416789  -0.000035   0.000383  -0.049527  -0.010675
     4  C    0.001116   0.000437   0.321767   0.388111  -0.001064   0.002324
     5  H    0.004994  -0.000559   0.008036  -0.004977   0.000090  -0.007830
     6  H   -0.007159  -0.004742   0.001402   0.001129   0.001936  -0.000069
     7  C    4.687242  -0.036701  -0.000015  -0.000131   0.406987   0.387851
     8  H   -0.036701   0.570493  -0.000235   0.000067  -0.005279   0.008318
     9  C   -0.000015  -0.000235   4.812155  -0.031293   0.000082  -0.000204
    10  H   -0.000131   0.000067  -0.031293   0.591278  -0.000010   0.000060
    11  H    0.406987  -0.005279   0.000082  -0.000010   0.629124  -0.040013
    12  H    0.387851   0.008318  -0.000204   0.000060  -0.040013   0.637604
    13  H    0.000022   0.000001   0.433106   0.000450  -0.000005   0.000009
    14  H   -0.000006  -0.000001   0.413182  -0.002919   0.000000   0.000003
    15  O    0.284909   0.009992   0.000000   0.000000  -0.032036  -0.047909
    16  H   -0.042184  -0.002355   0.000003  -0.000000   0.010604  -0.005289
    17  O   -0.038892  -0.036225  -0.000678   0.000021   0.005913  -0.004656
    18  H    0.001313   0.005759   0.000294  -0.000053   0.000816   0.000481
    19  O    0.004424   0.003717   0.003330   0.000271  -0.000301  -0.000092
    20  H    0.001481  -0.003226   0.002150  -0.000179  -0.000226  -0.000038
    21  O   -0.004173  -0.001583  -0.004990   0.003158   0.000358   0.002255
    22  H    0.000342  -0.000020  -0.009701   0.000153  -0.000001  -0.000172
    23  O   -0.000123   0.000011  -0.033056  -0.022427   0.000001  -0.000052
    24  H   -0.000057   0.000004  -0.007414   0.009079  -0.000002   0.000056
    25  O   -0.000048   0.000006   0.210624   0.003180   0.000001   0.000011
    26  H    0.000002   0.000000  -0.013241  -0.000489   0.000000  -0.000001
              13         14         15         16         17         18
     1  C   -0.009526   0.000342   0.010984   0.004060  -0.023113  -0.001306
     2  C   -0.000223   0.004682  -0.001545  -0.001195  -0.013874  -0.006614
     3  C    0.000233  -0.000022  -0.035382  -0.019561   0.227405  -0.038189
     4  C   -0.029451  -0.018297  -0.000046  -0.000034   0.001769  -0.000019
     5  H   -0.000657  -0.000332  -0.000233  -0.000097   0.000690  -0.000608
     6  H   -0.000174  -0.000090   0.000025  -0.000025   0.004210  -0.000183
     7  C    0.000022  -0.000006   0.284909  -0.042184  -0.038892   0.001313
     8  H    0.000001  -0.000001   0.009992  -0.002355  -0.036225   0.005759
     9  C    0.433106   0.413182   0.000000   0.000003  -0.000678   0.000294
    10  H    0.000450  -0.002919   0.000000  -0.000000   0.000021  -0.000053
    11  H   -0.000005   0.000000  -0.032036   0.010604   0.005913   0.000816
    12  H    0.000009   0.000003  -0.047909  -0.005289  -0.004656   0.000481
    13  H    0.558863  -0.026186   0.000000   0.000000   0.000012  -0.000014
    14  H   -0.026186   0.551879   0.000000   0.000000  -0.000002   0.000010
    15  O    0.000000   0.000000   7.868846   0.318950  -0.010144   0.000156
    16  H    0.000000   0.000000   0.318950   0.517014   0.022890   0.000428
    17  O    0.000012  -0.000002  -0.010144   0.022890   7.983683   0.326286
    18  H   -0.000014   0.000010   0.000156   0.000428   0.326286   0.445386
    19  O    0.009367   0.001533  -0.000142  -0.000040  -0.013386   0.000755
    20  H   -0.001985  -0.000009  -0.000080  -0.000135   0.032024  -0.002542
    21  O    0.000702  -0.000786   0.000028   0.000125  -0.026891   0.040046
    22  H   -0.000586   0.001301   0.000002  -0.000006   0.001583  -0.000385
    23  O    0.004775   0.002099  -0.000000  -0.000000  -0.000005  -0.000050
    24  H    0.000727  -0.002747   0.000000   0.000000   0.000014  -0.000017
    25  O   -0.045556  -0.032873   0.000000   0.000000  -0.000075   0.000090
    26  H   -0.005122  -0.008582   0.000000  -0.000000  -0.000000   0.000004
              19         20         21         22         23         24
     1  C    0.257084  -0.064430  -0.025155   0.013520   0.006788  -0.000272
     2  C   -0.062225   0.009045   0.217951  -0.047147  -0.040810  -0.001607
     3  C   -0.020406  -0.005774  -0.020916  -0.005536  -0.000000   0.000130
     4  C   -0.010576  -0.005085  -0.038198  -0.000132   0.265200  -0.053164
     5  H    0.003862   0.000310  -0.027396   0.004623   0.012376  -0.004488
     6  H   -0.022533   0.007449   0.004795   0.000304   0.000133  -0.000018
     7  C    0.004424   0.001481  -0.004173   0.000342  -0.000123  -0.000057
     8  H    0.003717  -0.003226  -0.001583  -0.000020   0.000011   0.000004
     9  C    0.003330   0.002150  -0.004990  -0.009701  -0.033056  -0.007414
    10  H    0.000271  -0.000179   0.003158   0.000153  -0.022427   0.009079
    11  H   -0.000301  -0.000226   0.000358  -0.000001   0.000001  -0.000002
    12  H   -0.000092  -0.000038   0.002255  -0.000172  -0.000052   0.000056
    13  H    0.009367  -0.001985   0.000702  -0.000586   0.004775   0.000727
    14  H    0.001533  -0.000009  -0.000786   0.001301   0.002099  -0.002747
    15  O   -0.000142  -0.000080   0.000028   0.000002  -0.000000   0.000000
    16  H   -0.000040  -0.000135   0.000125  -0.000006  -0.000000   0.000000
    17  O   -0.013386   0.032024  -0.026891   0.001583  -0.000005   0.000014
    18  H    0.000755  -0.002542   0.040046  -0.000385  -0.000050  -0.000017
    19  O    7.902165   0.330163   0.002995   0.001820  -0.000041  -0.000039
    20  H    0.330163   0.494854   0.004204   0.000432   0.000032  -0.000030
    21  O    0.002995   0.004204   7.990042   0.346284  -0.003942   0.013798
    22  H    0.001820   0.000432   0.346284   0.418543   0.000185   0.000400
    23  O   -0.000041   0.000032  -0.003942   0.000185   7.849227   0.324212
    24  H   -0.000039  -0.000030   0.013798   0.000400   0.324212   0.521632
    25  O   -0.000156   0.001744  -0.028000   0.056004  -0.003885   0.011492
    26  H    0.000222  -0.000018   0.001483  -0.003532  -0.000316  -0.000383
              25         26
     1  C    0.001499   0.000467
     2  C   -0.015362   0.001235
     3  C   -0.000098  -0.000037
     4  C   -0.034473   0.001734
     5  H   -0.001060   0.000098
     6  H    0.000040   0.000005
     7  C   -0.000048   0.000002
     8  H    0.000006   0.000000
     9  C    0.210624  -0.013241
    10  H    0.003180  -0.000489
    11  H    0.000001   0.000000
    12  H    0.000011  -0.000001
    13  H   -0.045556  -0.005122
    14  H   -0.032873  -0.008582
    15  O    0.000000   0.000000
    16  H    0.000000  -0.000000
    17  O   -0.000075  -0.000000
    18  H    0.000090   0.000004
    19  O   -0.000156   0.000222
    20  H    0.001744  -0.000018
    21  O   -0.028000   0.001483
    22  H    0.056004  -0.003532
    23  O   -0.003885  -0.000316
    24  H    0.011492  -0.000383
    25  O    7.909371   0.313042
    26  H    0.313042   0.530598
 Mulliken charges:
               1
     1  C    0.101713
     2  C    0.055972
     3  C    0.110788
     4  C    0.197500
     5  H    0.098980
     6  H    0.081887
     7  C    0.019205
     8  H    0.100104
     9  C   -0.086903
    10  H    0.078090
    11  H    0.067825
    12  H    0.076424
    13  H    0.111218
    14  H    0.117823
    15  O   -0.366376
    16  H    0.196845
    17  O   -0.438558
    18  H    0.228155
    19  O   -0.391769
    20  H    0.199870
    21  O   -0.446195
    22  H    0.221722
    23  O   -0.360331
    24  H    0.188696
    25  O   -0.345518
    26  H    0.182834
 Sum of Mulliken charges =  -0.00000
 Mulliken charges with hydrogens summed into heavy atoms:
               1
     1  C    0.183600
     2  C    0.154952
     3  C    0.210892
     4  C    0.275590
     7  C    0.163454
     9  C    0.142138
    15  O   -0.169532
    17  O   -0.210403
    19  O   -0.191899
    21  O   -0.224473
    23  O   -0.171636
    25  O   -0.162685
 Electronic spatial extent (au):  <R**2>=           2476.6200
 Charge=              0.0000 electrons
 Dipole moment (field-independent basis, Debye):
    X=             -3.8424    Y=             -1.6231    Z=             -0.4452  Tot=              4.1948
 Quadrupole moment (field-independent basis, Debye-Ang):
   XX=            -77.1833   YY=            -75.7660   ZZ=            -69.6415
   XY=              7.2814   XZ=             -1.3981   YZ=             -3.2199
 Traceless Quadrupole moment (field-independent basis, Debye-Ang):
   XX=             -2.9864   YY=             -1.5691   ZZ=              4.5554
   XY=              7.2814   XZ=             -1.3981   YZ=             -3.2199
 Octapole moment (field-independent basis, Debye-Ang**2):
  XXX=            -97.8845  YYY=            -20.8260  ZZZ=              9.1143  XYY=             -4.1065
  XXY=            -51.5044  XXZ=             14.2810  XZZ=             -2.6235  YZZ=              4.8136
  YYZ=             10.2852  XYZ=              2.7995
 Hexadecapole moment (field-independent basis, Debye-Ang**3):
 XXXX=          -2327.6353 YYYY=           -510.7638 ZZZZ=           -313.3868 XXXY=             25.6241
 XXXZ=             12.5785 YYYX=             54.3138 YYYZ=            -10.1466 ZZZX=             -4.6560
 ZZZY=            -11.7153 XXYY=           -451.5147 XXZZ=           -378.2226 YYZZ=           -137.6479
 XXYZ=             -7.2793 YYXZ=            -29.6490 ZZXY=             -1.9686
 N-N= 8.387604473707D+02 E-N=-3.294610721114D+03  KE= 6.850809424126D+02
   1 Symmetry operations used in ECPInt.
 ECPInt:  NShTT=   23436 NPrTT=   62434 LenC2=   21935 LenP2D=   45737.
 LDataN:  DoStor=T MaxTD1= 7 Len=  274
 Calling FoFJK, ICntrl=      2127 FMM=F ISym2X=0 I1Cent= 0 IOpClX= 0 NMat=1 NMatS=1 NMatT=0.
 ***** Axes restored to original set *****
 -------------------------------------------------------------------
 Center     Atomic                   Forces (Hartrees/Bohr)
 Number     Number              X              Y              Z
 -------------------------------------------------------------------
      1        6          -0.003751481   -0.015767637   -0.007222773
      2        6          -0.007786976   -0.002421879   -0.005713244
      3        6           0.015782478   -0.001517493   -0.006278261
      4        6           0.022318930   -0.003535442   -0.012550934
      5        1          -0.000562895   -0.002938002    0.003544074
      6        1           0.000341022   -0.001126520   -0.001841290
      7        6          -0.010834995    0.001440507   -0.014814439
      8        1           0.004465895    0.001615454    0.002290357
      9        6          -0.007425962   -0.003012559    0.004855139
     10        1           0.000824656   -0.002018846   -0.003519780
     11        1          -0.000749626   -0.000253023   -0.002324851
     12        1           0.003228003   -0.004489028    0.006491067
     13        1          -0.000238193    0.004916026   -0.000611511
     14        1          -0.000636077    0.007656934    0.001764094
     15        8           0.000542047   -0.012917099   -0.002429581
     16        1           0.000960866    0.011765406    0.012558952
     17        8           0.005473445    0.004371657    0.008307326
     18        1          -0.015613632    0.000680635    0.001777534
     19        8           0.000660884    0.006133768   -0.013308519
     20        1           0.000878762    0.005888160    0.016647023
     21        8           0.006664794   -0.010679201    0.016514129
     22        1          -0.005102956    0.014732698   -0.007679306
     23        8          -0.006922807   -0.006702909   -0.010784708
     24        1          -0.004017045    0.008522438    0.015158785
     25        8          -0.000651260   -0.020281261    0.007932672
     26        1           0.002152124    0.019937215   -0.008761955
 -------------------------------------------------------------------
 Cartesian Forces:  Max     0.022318930 RMS     0.008484006

 GradGradGradGradGradGradGradGradGradGradGradGradGradGradGradGradGradGrad
 Berny optimization.
 FormGI is forming the generalized inverse of G from B-inverse, IUseBI=4.
 Internal  Forces:  Max     0.021013783 RMS     0.005309583
 Search for a local minimum.
 Step number   1 out of a maximum of  140
 All quantities printed in internal units (Hartrees-Bohrs-Radians)
 Mixed Optimization -- RFO/linear search
 Second derivative matrix not updated -- first step.
 ITU=  0
     Eigenvalues ---    0.00230   0.00230   0.00230   0.00301   0.00379
     Eigenvalues ---    0.01112   0.01126   0.01141   0.01212   0.01244
     Eigenvalues ---    0.01322   0.03710   0.03763   0.03867   0.03994
     Eigenvalues ---    0.04615   0.04653   0.04746   0.04785   0.04992
     Eigenvalues ---    0.05179   0.05537   0.05622   0.07568   0.07570
     Eigenvalues ---    0.07753   0.07981   0.11495   0.11523   0.13725
     Eigenvalues ---    0.13775   0.16000   0.16000   0.16000   0.16000
     Eigenvalues ---    0.16000   0.16000   0.16878   0.17250   0.17276
     Eigenvalues ---    0.17514   0.19375   0.19623   0.19840   0.20208
     Eigenvalues ---    0.22016   0.22024   0.27723   0.28106   0.28272
     Eigenvalues ---    0.28951   0.29494   0.34075   0.34132   0.34166
     Eigenvalues ---    0.34191   0.34220   0.34372   0.34407   0.34570
     Eigenvalues ---    0.39064   0.39206   0.39364   0.40102   0.40437
     Eigenvalues ---    0.41285   0.50154   0.50507   0.51343   0.51802
     Eigenvalues ---    0.51887   0.52103
 RFO step:  Lambda=-1.80359038D-02 EMin= 2.30000000D-03
 Linear search not attempted -- first point.
 Iteration  1 RMS(Cart)=  0.11032494 RMS(Int)=  0.00520511
 Iteration  2 RMS(Cart)=  0.00727260 RMS(Int)=  0.00057599
 Iteration  3 RMS(Cart)=  0.00001751 RMS(Int)=  0.00057587
 Iteration  4 RMS(Cart)=  0.00000001 RMS(Int)=  0.00057587
 Variable       Old X    -DE/DX   Delta X   Delta X   Delta X     New X
                                 (Linear)    (Quad)   (Total)
    R1        2.91547  -0.00138   0.00000  -0.00460  -0.00460   2.91087
    R2        2.91908  -0.00541   0.00000  -0.01810  -0.01810   2.90097
    R3        2.07050  -0.00214   0.00000  -0.00596  -0.00596   2.06454
    R4        2.71415  -0.01184   0.00000  -0.02825  -0.02825   2.68589
    R5        2.92747  -0.00541   0.00000  -0.01831  -0.01831   2.90917
    R6        2.07108  -0.00296   0.00000  -0.00825  -0.00825   2.06283
    R7        2.72646  -0.00863   0.00000  -0.02105  -0.02105   2.70541
    R8        2.88985  -0.00611   0.00000  -0.01952  -0.01952   2.87033
    R9        2.07204  -0.00438   0.00000  -0.01220  -0.01220   2.05983
   R10        2.72845  -0.01324   0.00000  -0.03241  -0.03241   2.69605
   R11        2.90106  -0.00832   0.00000  -0.02706  -0.02706   2.87399
   R12        2.06961  -0.00408   0.00000  -0.01131  -0.01131   2.05830
   R13        2.72427  -0.01044   0.00000  -0.02536  -0.02536   2.69891
   R14        2.06649  -0.00192   0.00000  -0.00530  -0.00530   2.06119
   R15        2.06706   0.00124   0.00000   0.00342   0.00342   2.07048
   R16        2.69844  -0.00889   0.00000  -0.02063  -0.02063   2.67781
   R17        2.06378  -0.00129   0.00000  -0.00354  -0.00354   2.06024
   R18        2.07009  -0.00192   0.00000  -0.00533  -0.00533   2.06476
   R19        2.70964   0.00130   0.00000   0.00308   0.00308   2.71272
   R20        1.84789  -0.01721   0.00000  -0.03211  -0.03211   1.81578
   R21        1.86057  -0.01555   0.00000  -0.02973  -0.02973   1.83084
   R22        1.85234  -0.01764   0.00000  -0.03320  -0.03320   1.81915
   R23        1.86410  -0.01650   0.00000  -0.03176  -0.03176   1.83234
   R24        1.84708  -0.01767   0.00000  -0.03292  -0.03292   1.81416
   R25        1.84500  -0.02101   0.00000  -0.03898  -0.03898   1.80602
    A1        1.98487   0.00122   0.00000   0.01557   0.01426   1.99913
    A2        1.90636  -0.00285   0.00000  -0.03743  -0.03725   1.86911
    A3        1.91421   0.00377   0.00000   0.04164   0.04080   1.95502
    A4        1.91174  -0.00105   0.00000  -0.02734  -0.02737   1.88437
    A5        1.86988  -0.00011   0.00000   0.02140   0.02009   1.88998
    A6        1.87339  -0.00103   0.00000  -0.01418  -0.01346   1.85993
    A7        1.99534  -0.00273   0.00000  -0.00572  -0.00694   1.98840
    A8        1.89806   0.00049   0.00000  -0.01148  -0.01225   1.88581
    A9        1.91289   0.00430   0.00000   0.04337   0.04294   1.95583
   A10        1.86934  -0.00252   0.00000  -0.04852  -0.04882   1.82052
   A11        1.94390   0.00127   0.00000   0.02201   0.02147   1.96537
   A12        1.83644  -0.00089   0.00000  -0.00309  -0.00264   1.83379
   A13        1.99821  -0.00061   0.00000   0.00604   0.00529   2.00349
   A14        1.90455  -0.00091   0.00000  -0.02136  -0.02133   1.88322
   A15        1.91674   0.00160   0.00000   0.02315   0.02258   1.93932
   A16        1.91056  -0.00066   0.00000  -0.01780  -0.01775   1.89281
   A17        1.89690   0.00211   0.00000   0.02676   0.02623   1.92314
   A18        1.82931  -0.00162   0.00000  -0.01899  -0.01861   1.81070
   A19        2.02953   0.00200   0.00000   0.02399   0.02132   2.05085
   A20        1.91792  -0.00241   0.00000  -0.04411  -0.04392   1.87400
   A21        1.86922   0.00145   0.00000   0.03914   0.03664   1.90587
   A22        1.91000  -0.00274   0.00000  -0.04314  -0.04281   1.86719
   A23        1.86842   0.00360   0.00000   0.05153   0.04940   1.91782
   A24        1.86044  -0.00195   0.00000  -0.02665  -0.02526   1.83518
   A25        1.94483  -0.00012   0.00000  -0.01126  -0.01153   1.93329
   A26        1.95077  -0.00590   0.00000  -0.03234  -0.03316   1.91761
   A27        1.90776   0.00395   0.00000   0.02176   0.02174   1.92950
   A28        1.90711   0.00060   0.00000  -0.00957  -0.01008   1.89703
   A29        1.88879  -0.00336   0.00000  -0.02264  -0.02242   1.86637
   A30        1.86174   0.00511   0.00000   0.05719   0.05745   1.91920
   A31        1.95850  -0.00264   0.00000  -0.02433  -0.02444   1.93406
   A32        1.91865  -0.00564   0.00000  -0.04541  -0.04557   1.87309
   A33        1.91940  -0.00425   0.00000  -0.01855  -0.01850   1.90090
   A34        1.89368   0.00313   0.00000   0.02306   0.02157   1.91525
   A35        1.90015   0.00437   0.00000   0.03157   0.03115   1.93130
   A36        1.87117   0.00559   0.00000   0.03768   0.03698   1.90816
   A37        1.84685  -0.00097   0.00000  -0.00543  -0.00543   1.84141
   A38        1.85441  -0.00194   0.00000  -0.01090  -0.01090   1.84352
   A39        1.84553  -0.00203   0.00000  -0.01140  -0.01140   1.83412
   A40        1.84981   0.00708   0.00000   0.03977   0.03977   1.88958
   A41        1.84467   0.00427   0.00000   0.02399   0.02399   1.86865
   A42        1.84760   0.01117   0.00000   0.06275   0.06275   1.91034
    D1        3.13618  -0.00479   0.00000  -0.09540  -0.09566   3.04052
    D2        1.04833  -0.00017   0.00000  -0.02169  -0.02194   1.02639
    D3       -0.95061  -0.00168   0.00000  -0.03498  -0.03507  -0.98568
    D4        0.99484  -0.00216   0.00000  -0.04290  -0.04314   0.95169
    D5       -1.09301   0.00246   0.00000   0.03081   0.03058  -1.06243
    D6       -3.09195   0.00095   0.00000   0.01752   0.01745  -3.07450
    D7       -1.05382  -0.00144   0.00000  -0.02798  -0.02766  -1.08147
    D8        3.14152   0.00319   0.00000   0.04573   0.04607  -3.09560
    D9        1.14258   0.00168   0.00000   0.03244   0.03293   1.17552
   D10       -1.00292   0.00268   0.00000   0.08888   0.08889  -0.91403
   D11        3.13245   0.00468   0.00000   0.12430   0.12428  -3.02645
   D12        1.13637   0.00625   0.00000   0.14619   0.14633   1.28270
   D13        1.13545  -0.00094   0.00000   0.03077   0.03079   1.16624
   D14       -1.01236   0.00106   0.00000   0.06619   0.06618  -0.94618
   D15       -3.00844   0.00263   0.00000   0.08808   0.08823  -2.92021
   D16       -3.12102  -0.00275   0.00000   0.01157   0.01145  -3.10957
   D17        1.01436  -0.00076   0.00000   0.04700   0.04684   1.06120
   D18       -0.98173   0.00081   0.00000   0.06889   0.06889  -0.91283
   D19       -1.52301  -0.00210   0.00000  -0.03650  -0.03694  -1.55995
   D20        0.63904   0.00163   0.00000   0.02168   0.02216   0.66120
   D21        2.69101  -0.00017   0.00000  -0.00645  -0.00648   2.68453
   D22        1.22714  -0.00119   0.00000  -0.02026  -0.02071   1.20643
   D23       -0.95420   0.00304   0.00000   0.05750   0.05706  -0.89714
   D24       -2.96844   0.00578   0.00000   0.09016   0.09023  -2.87822
   D25       -2.95216  -0.00406   0.00000  -0.07259  -0.07246  -3.02461
   D26        1.14969   0.00017   0.00000   0.00516   0.00531   1.15500
   D27       -0.86455   0.00291   0.00000   0.03782   0.03848  -0.82608
   D28       -0.95295  -0.00590   0.00000  -0.09259  -0.09281  -1.04575
   D29       -3.13428  -0.00167   0.00000  -0.01484  -0.01504   3.13386
   D30        1.13466   0.00107   0.00000   0.01782   0.01813   1.15278
   D31       -1.64134   0.00284   0.00000   0.06778   0.06720  -1.57413
   D32        0.58417   0.00352   0.00000   0.11005   0.11063   0.69480
   D33        2.60371   0.00066   0.00000   0.06182   0.06181   2.66553
   D34       -0.95614   0.00196   0.00000   0.01682   0.01666  -0.93948
   D35        1.18333  -0.00161   0.00000  -0.02705  -0.02665   1.15668
   D36       -3.04293   0.00364   0.00000   0.03786   0.03780  -3.00512
   D37        1.18843  -0.00018   0.00000  -0.02058  -0.02074   1.16768
   D38       -2.95530  -0.00374   0.00000  -0.06446  -0.06406  -3.01935
   D39       -0.89837   0.00151   0.00000   0.00046   0.00040  -0.89797
   D40       -3.10615  -0.00131   0.00000  -0.03808  -0.03842   3.13861
   D41       -0.96669  -0.00488   0.00000  -0.08196  -0.08173  -1.04842
   D42        1.09024   0.00038   0.00000  -0.01704  -0.01728   1.07296
   D43       -0.90142   0.00027   0.00000   0.02092   0.02057  -0.88085
   D44        1.29676   0.00204   0.00000   0.06273   0.06310   1.35985
   D45       -2.94515   0.00144   0.00000   0.04496   0.04495  -2.90020
   D46       -1.22492   0.00332   0.00000   0.09189   0.09237  -1.13255
   D47        2.94920   0.00500   0.00000   0.11026   0.11055   3.05975
   D48        0.89289   0.00412   0.00000   0.10271   0.10296   0.99585
   D49        0.96044  -0.00073   0.00000   0.01375   0.01413   0.97458
   D50       -1.14862   0.00095   0.00000   0.03212   0.03231  -1.11631
   D51        3.07825   0.00007   0.00000   0.02457   0.02473   3.10298
   D52        2.97023  -0.00248   0.00000  -0.01180  -0.01225   2.95798
   D53        0.86116  -0.00080   0.00000   0.00657   0.00593   0.86709
   D54       -1.19515  -0.00168   0.00000  -0.00098  -0.00165  -1.19680
   D55       -1.07358  -0.00227   0.00000  -0.02399  -0.02499  -1.09857
   D56        1.11466   0.00314   0.00000   0.05882   0.05984   1.17450
   D57       -3.12583   0.00078   0.00000   0.02105   0.02103  -3.10480
   D58       -0.75725   0.00024   0.00000  -0.02090  -0.02152  -0.77877
   D59       -2.87828   0.00008   0.00000  -0.00639  -0.00652  -2.88480
   D60        1.35472  -0.00161   0.00000  -0.01380  -0.01304   1.34168
   D61        3.06055  -0.00043   0.00000   0.00819   0.00808   3.06863
   D62       -1.07027  -0.00360   0.00000  -0.01332  -0.01421  -1.08448
   D63        0.97505   0.00542   0.00000   0.05090   0.05189   1.02694
         Item               Value     Threshold  Converged?
 Maximum Force            0.021014     0.000450     NO 
 RMS     Force            0.005310     0.000300     NO 
 Maximum Displacement     0.431109     0.001800     NO 
 RMS     Displacement     0.110712     0.001200     NO 
 Predicted change in Energy=-1.135049D-02
 GradGradGradGradGradGradGradGradGradGradGradGradGradGradGradGradGradGrad

                          Input orientation:                          
 ---------------------------------------------------------------------
 Center     Atomic      Atomic             Coordinates (Angstroms)
 Number     Number       Type             X           Y           Z
 ---------------------------------------------------------------------
      1          6           0        0.013304   -0.062899   -0.071470
      2          6           0        1.553629   -0.053393   -0.065754
      3          6           0       -0.624796    0.710188   -1.234133
      4          6           0        2.177446   -0.710557    1.178810
      5          1           0        1.885255    0.985481   -0.017121
      6          1           0       -0.314126    0.401208    0.861786
      7          6           0       -0.131684    2.137613   -1.396580
      8          1           0       -1.702037    0.733997   -1.069448
      9          6           0        2.031660   -2.217325    1.325064
     10          1           0        1.710531   -0.259393    2.053343
     11          1           0       -0.236867    2.691769   -0.463013
     12          1           0        0.924840    2.135887   -1.686766
     13          1           0        0.984792   -2.494913    1.450050
     14          1           0        2.600366   -2.514843    2.209308
     15          8           0       -0.899973    2.821446   -2.371311
     16          1           0       -0.988565    2.207822   -3.105402
     17          8           0       -0.485329   -0.001697   -2.462629
     18          1           0        0.453267   -0.233716   -2.524683
     19          8           0       -0.511315   -1.383848   -0.073016
     20          1           0       -0.590986   -1.620730   -1.002658
     21          8           0        2.099031   -0.561352   -1.288095
     22          1           0        2.221569   -1.518364   -1.191648
     23          8           0        3.555749   -0.345607    1.261588
     24          1           0        3.988996   -0.702651    0.482844
     25          8           0        2.589224   -2.853505    0.165285
     26          1           0        2.560718   -3.802119    0.277947
 ---------------------------------------------------------------------
                    Distance matrix (angstroms):
                    1          2          3          4          5
     1  C    0.000000
     2  C    1.540366   0.000000
     3  C    1.535129   2.587219   0.000000
     4  C    2.581893   1.539465   3.961486   0.000000
     5  H    2.146219   1.091604   2.803080   2.095751   0.000000
     6  H    1.092507   2.134363   2.141228   2.746718   2.439493
     7  C    2.572779   3.067880   1.518911   4.480713   2.701548
     8  H    2.138550   3.496677   1.090017   4.710816   3.746905
     9  C    3.265826   2.616389   4.709201   1.520852   3.475753
    10  H    2.726540   2.134860   4.147449   1.089205   2.422201
    11  H    2.793579   3.301455   2.161429   4.483337   2.759282
    12  H    2.876585   2.795711   2.153802   4.228805   2.243556
    13  H    3.028780   2.929550   4.479764   2.163313   3.882856
    14  H    4.231651   3.511453   5.714874   2.120433   4.209589
    15  O    3.800367   4.427240   2.413774   5.877832   4.082949
    16  H    3.919778   4.562379   2.424228   6.074128   4.392088
    17  O    2.443364   3.147227   1.426687   4.566501   3.546082
    18  H    2.498200   2.699934   1.928392   4.112910   3.134470
    19  O    1.421314   2.456452   2.397094   3.041352   3.370518
    20  H    1.912882   2.816685   2.342628   3.640252   3.727652
    21  O    2.465541   1.431643   3.006486   2.472657   2.013398
    22  H    2.872214   1.964668   3.615252   2.504709   2.786012
    23  O    3.795508   2.419857   4.981996   1.428202   2.489466
    24  H    4.064809   2.579439   5.121640   1.940656   2.743261
    25  O    3.805115   2.994406   4.998821   2.406038   3.907258
    26  H    4.537971   3.896833   5.726675   3.242870   4.844010
                    6          7          8          9         10
     6  H    0.000000
     7  C    2.854576   0.000000
     8  H    2.401397   2.131469   0.000000
     9  C    3.545991   5.572512   5.327709   0.000000
    10  H    2.440377   4.587087   4.731201   2.113531   0.000000
    11  H    2.647212   1.090734   2.519396   5.695844   4.339788
    12  H    3.322539   1.095653   3.040865   5.408014   4.510331
    13  H    3.228121   5.550687   4.898243   1.090234   2.426564
    14  H    4.337446   6.489367   6.309982   1.092626   2.429648
    15  O    4.080893   1.417037   2.587586   6.902671   5.990314
    16  H    4.411043   1.912915   2.612721   6.952173   6.323363
    17  O    3.353115   2.416231   1.990623   5.058741   5.028143
    18  H    3.529900   2.690351   2.774800   4.609401   4.747599
    19  O    2.024639   3.781089   2.626017   3.019277   3.274508
    20  H    2.764243   3.806741   2.604542   3.557034   4.060710
    21  O    3.372216   3.503181   4.021673   3.094411   3.377473
    22  H    3.785644   4.352697   4.525787   2.618864   3.517973
    23  O    3.961504   5.179711   5.851802   2.414581   2.009761
    24  H    4.458583   5.345965   6.071361   2.614332   2.802561
    25  O    4.416754   5.895255   5.727972   1.435510   3.326603
    26  H    5.125774   6.733015   6.368902   1.971783   4.052871
                   11         12         13         14         15
    11  H    0.000000
    12  H    1.776553   0.000000
    13  H    5.661619   5.593525   0.000000
    14  H    6.503845   6.294129   1.785203   0.000000
    15  O    2.024383   2.066044   6.813136   7.855598   0.000000
    16  H    2.789529   2.383028   6.838275   7.964303   0.960871
    17  O    3.363771   2.675781   4.866873   6.137134   2.854891
    18  H    3.644891   2.557246   4.603698   5.676640   3.344966
    19  O    4.103422   4.129802   2.406768   4.021282   4.808089
    20  H    4.360535   4.108273   3.043526   4.615289   4.658500
    21  O    4.089007   2.968629   3.532369   4.037238   4.648732
    22  H    4.929506   3.908989   3.076010   3.564121   5.474448
    23  O    5.155951   4.666078   3.356316   2.552747   6.563660
    24  H    5.502240   4.706756   3.629454   2.862344   6.668394
    25  O    6.255527   5.576226   2.086483   2.071918   7.128386
    26  H    7.109577   6.464991   2.359271   2.321380   7.928844
                   16         17         18         19         20
    16  H    0.000000
    17  O    2.355499   0.000000
    18  H    2.894343   0.968838   0.000000
    19  O    4.724746   2.760665   2.874699   0.000000
    20  H    4.386048   2.182647   2.308859   0.962650   0.000000
    21  O    4.528154   2.893383   2.084474   2.994465   2.905159
    22  H    5.277488   3.353054   2.560116   2.956025   2.820756
    23  O    6.800102   5.506213   4.896300   4.404557   4.893686
    24  H    6.791352   5.402474   4.665457   4.585390   4.901614
    25  O    7.008210   4.948902   4.319900   3.439480   3.605213
    26  H    7.756536   5.588593   5.002957   3.925378   4.041243
                   21         22         23         24         25
    21  O    0.000000
    22  H    0.969633   0.000000
    23  O    2.944394   3.028821   0.000000
    24  H    2.593869   2.567704   0.960013   0.000000
    25  O    2.758001   1.938824   2.902689   2.585803   0.000000
    26  H    3.628803   2.736835   3.728956   3.418868   0.955706
                   26
    26  H    0.000000
 Stoichiometry    C6H14O6
 Framework group  C1[X(C6H14O6)]
 Deg. of freedom    72
 Full point group                 C1      NOp   1
 Largest Abelian subgroup         C1      NOp   1
 Largest concise Abelian subgroup C1      NOp   1
                         Standard orientation:                         
 ---------------------------------------------------------------------
 Center     Atomic      Atomic             Coordinates (Angstroms)
 Number     Number       Type             X           Y           Z
 ---------------------------------------------------------------------
      1          6           0        0.480805   -0.360174   -0.843814
      2          6           0       -0.422722    0.589166   -0.034419
      3          6           0        1.935532   -0.424630   -0.357773
      4          6           0       -1.838509    0.751326   -0.616831
      5          1           0        0.006883    1.591320   -0.086632
      6          1           0        0.485595    0.002126   -1.874487
      7          6           0        2.621240    0.923635   -0.219662
      8          1           0        2.500044   -1.027487   -1.069129
      9          6           0       -2.769955   -0.448667   -0.543233
     10          1           0       -1.729634    1.005391   -1.670380
     11          1           0        2.551384    1.490115   -1.149135
     12          1           0        2.147032    1.502366    0.580746
     13          1           0       -2.391469   -1.270708   -1.151187
     14          1           0       -3.743776   -0.128214   -0.921139
     15          8           0        4.000481    0.754185    0.057784
     16          1           0        4.044987    0.069082    0.730037
     17          8           0        2.037679   -1.156264    0.862765
     18          1           0        1.371969   -0.773063    1.453218
     19          8           0       -0.035748   -1.683751   -0.881921
     20          1           0        0.339310   -2.121401   -0.110890
     21          8           0       -0.435106    0.261672    1.359208
     22          1           0       -1.155142   -0.368290    1.516954
     23          8           0       -2.463873    1.888873   -0.021291
     24          1           0       -2.543149    1.707246    0.918045
     25          8           0       -2.901739   -0.851994    0.828135
     26          1           0       -3.535936   -1.564191    0.890925
 ---------------------------------------------------------------------
 Rotational constants (GHZ):           1.7071533           0.5036033           0.4610352
 Standard basis: def2TZVPP (5D, 7F)
 There are   642 symmetry adapted cartesian basis functions of A   symmetry.
 There are   568 symmetry adapted basis functions of A   symmetry.
   568 basis functions,   850 primitive gaussians,   642 cartesian basis functions
    49 alpha electrons       49 beta electrons
       nuclear repulsion energy       834.9225390650 Hartrees.
 NAtoms=   26 NActive=   26 NUniq=   26 SFac= 1.00D+00 NAtFMM=   60 NAOKFM=F Big=F
 Integral buffers will be    131072 words long.
 Raffenetti 2 integral format.
 Two-electron integral symmetry is turned on.
 Nuclear repulsion after empirical dispersion term =      834.9032249587 Hartrees.
 One-electron integrals computed using PRISM.
   1 Symmetry operations used in ECPInt.
 ECPInt:  NShTT=   23436 NPrTT=   62434 LenC2=   21907 LenP2D=   45623.
 LDataN:  DoStor=T MaxTD1= 6 Len=  172
[...]
 0016156,-0.00023423,0.00009301,0.00351131,0.00029747,-0.00104280,-0.00
 133566,0.00098884,-0.00109877,0.10527220,-0.04814192,-0.21018879,0.019
 35738,-0.01217106,-0.02177399,-0.00503912,-0.01382353,-0.05095183,0.00
 235146,0.00095617,-0.00172311,0.00248703,-0.00291295,0.00118799,-0.000
 27389,-0.00900466,-0.02601458,-0.00361855,0.00404384,0.00488346,0.0051
 8543,-0.00044312,0.00147867,-0.00186547,-0.00139836,-0.00145334,-0.000
 53549,0.00021451,0.00003386,0.00026362,0.00015990,0.00078866,-0.000246
 49,-0.00063961,-0.00049307,0.00001097,0.00151752,-0.00008813,-0.000604
 16,0.00073811,0.00071066,-0.00004180,0.00083349,-0.00485467,0.00375437
 ,0.00004078,-0.00029350,-0.00096686,-0.00023070,0.00505445,-0.00203867
 ,-0.00024295,-0.00149218,0.00056157,0.11018369,0.35411514,-0.01275972,
 -0.03053349,-0.09720197,0.00210419,-0.00568999,0.00039444,0.00885050,0
 .02638362,-0.00469935,0.00166028,0.00046881,-0.00011780,-0.00099919,0.
 00029530,0.00099451,-0.01356468,-0.03271907,0.00280788,-0.00314437,-0.
 00109664,-0.00334157,0.00088677,-0.00038121,0.00101942,-0.00022377,0.0
 0131960,-0.00466459,0.00015398,0.00006986,0.00024284,-0.00011098,0.000
 73794,0.00042835,0.00035487,0.00012269,0.00005607,-0.00336235,-0.00045
 898,-0.00025045,-0.00138254,-0.00020142,0.00035656,0.00012213,0.002670
 01,-0.00058616,0.00011860,-0.00068750,0.00054006,0.00199448,0.01104481
 ,-0.00201427,-0.00175694,-0.00007822,-0.00009386,0.08444604,0.08842088
 ,0.58827368,-0.00409863,-0.00565864,-0.01375999,-0.00035230,-0.0040193
 8,-0.00301520,0.00321138,0.00000788,-0.00053264,0.00005015,0.00009343,
 0.00013571,-0.00061097,0.00022540,0.00042198,-0.00008620,0.00174750,0.
 00106391,-0.00021348,0.00021481,0.00026679,-0.00069494,0.00069468,0.00
 015218,-0.00001163,-0.00015153,-0.00148490,0.00000149,0.00004164,0.000
 10725,0.00002469,-0.00001082,-0.00004793,-0.00013011,-0.00025415,0.000
 05218,-0.00039523,-0.00009977,-0.00001538,-0.00014820,0.00002399,0.000
 17988,-0.00021415,-0.00003945,-0.00002507,0.00014185,-0.00003650,-0.00
 002345,-0.00337480,0.00244061,-0.00039248,-0.00023837,-0.00256875,0.00
 175035,-0.01710639,-0.02861888,-0.06092123,0.02485643,-0.00788318,-0.0
 1876913,-0.04351658,-0.00017532,-0.00150736,-0.00071808,0.00047584,-0.
 00475365,-0.00375421,-0.00001561,-0.00008336,-0.00017763,-0.00030366,0
 .00013591,0.00006312,-0.00281430,-0.00652601,0.00012528,-0.00027830,-0
 .00062194,-0.00053747,0.00045110,-0.00039632,0.00041555,-0.00002380,0.
 00014030,0.00129087,-0.00000474,-0.00006203,0.00005273,-0.00005377,0.0
 0037199,0.00018811,0.00013903,0.00020250,-0.00005510,0.00000915,0.0004
 2588,-0.00020822,0.00029566,-0.00004793,-0.00011672,-0.00001515,0.0010
 1036,-0.00017072,0.00011330,-0.00058213,0.00032655,0.00111037,0.004541
 29,-0.00198388,-0.00186029,-0.00011693,0.00083252,-0.02386186,-0.05685
 147,-0.06340728,0.03381935,0.08354588,-0.00002257,-0.00532598,-0.00175
 022,-0.00021204,0.00187803,0.00072336,-0.00048636,0.00742818,0.0041643
 0,-0.00036111,-0.00009336,-0.00039916,0.00086794,0.00017153,-0.0000545
 7,-0.00100960,0.00078213,0.00085436,0.00023000,-0.00139668,-0.00158030
 ,0.00038928,-0.00048751,-0.00003253,-0.00010591,0.00011419,-0.00023545
 ,-0.00003870,0.00004483,-0.00002841,-0.00003082,-0.00062785,0.00002415
 ,0.00012788,0.00020488,0.00008234,-0.00019780,-0.00000801,-0.00027637,
 0.00010364,-0.00004141,0.00003678,-0.00024914,0.00044568,-0.00081877,-
 0.00017320,0.00073582,0.00007967,-0.00097858,-0.00518628,0.00035329,0.
 00249035,0.00111175,-0.00036591,-0.07483329,-0.11051107,-0.48808019,0.
 07413992,0.11083554,0.48813285,-0.01576073,0.01837859,0.04175945,-0.08
 780310,0.01331820,0.05439382,0.00408406,-0.00298581,-0.00225707,-0.001
 37375,-0.00317538,-0.00565645,0.00317005,0.00295248,-0.00008751,-0.008
 78916,-0.00011153,-0.00005785,-0.00078351,-0.00052618,0.00059763,0.000
 28594,-0.00005041,0.00049767,-0.00068930,0.00091756,0.00187414,-0.0001
 7947,0.00074105,-0.00230277,0.00003052,0.00008363,-0.00003663,0.000222
 12,0.00021374,-0.00011600,0.00014576,0.00040781,-0.00064144,0.00014135
 ,-0.00049270,0.00000709,0.00019931,0.00102367,-0.00049976,-0.00007506,
 -0.00070580,0.00036633,-0.00945431,0.00470528,-0.00684342,-0.00437995,
 -0.00099798,0.00450580,0.00304008,0.00098886,-0.00054972,0.00119685,0.
 00058561,-0.00008602,0.12079624,0.00049050,-0.00462194,-0.00881418,0.0
 3086982,-0.11342679,-0.05474523,-0.00167284,-0.00024597,-0.00116121,-0
 .00356572,0.00615515,0.00539671,0.01993027,-0.01465288,-0.03841646,0.0
 0143956,0.00122366,0.00025326,-0.00130363,-0.00000132,-0.00086120,0.00
 012628,0.00002582,0.00019771,0.00049155,-0.00415350,-0.00674938,0.0010
 3948,0.00027056,0.00224190,0.00003268,0.00031388,0.00016134,0.00042541
 ,0.00019384,-0.00031982,-0.00029966,0.00015165,0.00076450,-0.00024760,
 0.00155750,0.00071233,0.00085336,-0.00022245,0.00088993,-0.00010198,-0
 .00011738,-0.00014165,0.00260422,0.00381093,0.00237147,0.00087328,-0.0
 0531014,-0.00122044,0.00013391,0.00621051,0.00345858,0.00180608,-0.000
 06854,-0.00008658,-0.07419607,0.61263056,0.01120848,-0.01028126,-0.015
 02379,0.04479349,-0.01471129,-0.17492345,0.00097514,-0.00191501,-0.007
 53180,0.02017477,-0.01994472,-0.04467827,0.00522134,-0.00845846,-0.009
 00041,0.00251441,-0.00007176,0.00122174,0.00041111,0.00054739,0.000072
 33,0.00006207,0.00009309,0.00138047,0.00031408,-0.00420560,0.00091190,
 -0.00459060,0.00418058,-0.00636456,-0.00032019,0.00060768,0.00030205,-
 0.00027780,-0.00015223,-0.00025597,-0.00011268,0.00026297,-0.00007756,
 -0.00029514,0.00038185,0.00038233,0.00013650,-0.00000365,0.00093028,0.
 00027099,-0.00062326,0.00000474,-0.01121146,0.00526105,0.00285362,0.00
 552190,-0.00370967,0.00258482,-0.00117165,0.00198212,0.00408720,0.0012
 9800,0.00093322,-0.00152897,-0.08651842,-0.00021089,0.29402788,-0.0005
 6747,0.00431593,0.00170984,-0.00281335,0.01783864,0.00084880,-0.000106
 49,0.00030105,0.00046213,0.00322811,-0.00116826,-0.00015493,-0.0002305
 8,-0.00080361,0.00008688,-0.00026985,-0.00059471,-0.00017323,0.0001224
 5,0.00012811,-0.00003896,0.00001798,-0.00002094,-0.00010378,0.00091910
 ,-0.00142483,0.00019779,-0.00029143,0.00013082,0.00005223,-0.00001745,
 -0.00006452,-0.00000158,-0.00007229,-0.00003530,0.00004275,-0.00015590
 ,-0.00004860,0.00075694,-0.00021546,0.00013130,0.00018760,0.00002040,-
 0.00029916,0.00015381,-0.00000684,0.00016492,-0.00009957,-0.00035742,-
 0.00154366,-0.00020028,-0.00001688,0.00236545,-0.00059700,0.00147655,-
 0.00179738,-0.00138303,-0.00219806,0.00017392,-0.00021066,-0.01640317,
 0.02030167,0.01183180,0.02481103,0.00118538,0.00185535,0.00170360,0.00
 227781,-0.01907594,-0.00577649,0.00048183,-0.00070715,-0.00038289,-0.0
 0096606,0.00405287,0.00017555,0.00097643,0.00156289,-0.00102575,-0.001
 03182,-0.00004403,0.00022648,0.00041061,-0.00022327,0.00024359,-0.0001
 7630,0.00011291,-0.00003632,-0.00256780,0.00680004,0.00525462,0.000477
 55,-0.00080935,0.00118820,-0.00004581,0.00003579,0.00003043,-0.0001425
 5,-0.00016547,0.00003026,0.00036894,-0.00050242,-0.00099089,0.00049569
 ,-0.00124699,-0.00157233,-0.00032775,0.00030144,-0.00028220,0.00008993
 ,-0.00013438,0.00012610,-0.00203268,0.00037669,-0.00032519,0.00247974,
 -0.00062817,0.00183659,0.00001100,-0.00189504,0.00019359,0.00000188,0.
 00078052,-0.00014882,0.03626319,-0.47909549,0.03889934,-0.03786917,0.4
 9665876,-0.00006238,-0.00146146,-0.00108911,0.00395060,-0.04268709,-0.
 00011408,-0.00012924,0.00032680,0.00044348,-0.00055111,-0.00255378,-0.
 00023424,0.00330062,-0.00288530,-0.00604160,0.00040432,0.00013407,-0.0
 0006058,0.00014136,0.00001968,-0.00013488,0.00004628,-0.00005429,-0.00
 008720,0.00071123,-0.00055966,-0.00758186,0.00028507,0.00059020,0.0006
 1554,-0.00010105,-0.00001530,0.00002530,-0.00004256,-0.00006245,-0.000
 05178,-0.00020733,0.00010201,0.00053837,0.00000925,0.00023479,0.000660
 86,-0.00001158,-0.00001368,-0.00000384,-0.00000497,0.00008190,0.000005
 04,-0.00033467,-0.00103877,-0.00068470,0.00000945,0.00252791,0.0002176
 3,-0.00024389,0.00127208,-0.00013864,-0.00030025,0.00006163,0.00048519
 ,0.00654603,0.08149296,-0.05164073,-0.01228404,-0.03285144,0.06368847,
 0.00223311,0.00475841,-0.00794938,-0.04733798,-0.00482692,-0.00283930,
 -0.00241323,-0.00084381,0.00245837,-0.22393652,-0.04498420,-0.01695246
 ,0.00110993,-0.00066032,0.00189983,0.00073321,-0.00013229,0.00022837,-
 0.00017280,-0.00083898,0.00023600,-0.00047234,0.00048127,-0.00084433,-
 0.03064406,-0.01286770,0.00346317,-0.02835462,-0.00521653,0.00294784,0
 .00000784,-0.00006585,-0.00000549,0.00002481,0.00001941,-0.00000238,0.
 00124961,-0.00471589,0.00024802,0.00152585,0.00073484,0.00068772,-0.00
 010546,0.00086671,-0.00071510,-0.00005483,-0.00021920,0.00026601,0.000
 49744,0.00004481,-0.00138802,-0.00037561,-0.00004456,0.00042157,-0.000
 85152,-0.00132065,-0.00058773,0.00004448,0.00015091,0.00041952,0.00534
 020,-0.00073663,0.00036879,-0.00123631,-0.00027114,-0.00019947,0.42503
 856,-0.00034409,-0.00135515,0.00284665,0.01214095,0.00313789,-0.000531
 59,0.00058911,0.00005013,-0.00046209,-0.02785399,-0.07922741,-0.014922
 86,0.00033264,0.00278119,-0.00167680,-0.00026801,0.00003881,0.00006963
 ,-0.00032894,0.00012263,-0.00019889,0.00018965,-0.00009343,0.00020334,
 -0.04625667,-0.01138824,0.00311692,0.01094586,0.00637698,0.00172388,-0
 .00006293,0.00003946,0.00003816,0.00008963,-0.00000217,-0.00010437,-0.
 00103230,-0.00874141,0.00025686,-0.00000728,0.00380903,-0.00142696,0.0
 0024674,-0.00003334,0.00021078,-0.00004265,-0.00003763,-0.00004049,0.0
 0000191,0.00040274,0.00022214,-0.00005743,-0.00012207,-0.00007398,0.00
 065112,0.00219452,-0.00041915,0.00011154,-0.00009924,0.00004833,-0.000
 47391,0.00247128,0.00052091,0.00065892,-0.00164324,0.00130252,0.018668
 82,0.12964615,0.00087717,0.00314462,-0.00540782,-0.03200136,-0.0052210
 5,-0.00215148,-0.00164697,-0.00025051,0.00091677,0.02629722,-0.0065036
 8,-0.09393399,0.00047548,-0.00174381,0.00155079,-0.00051207,0.00025748
 ,0.00038423,0.00022792,-0.00039766,0.00008878,-0.00032730,0.00027057,-
 0.00050702,0.00598629,0.00055759,0.00143337,0.03315784,0.00849176,0.00
 271315,-0.00002656,0.00003875,0.00001907,-0.00005000,-0.00002703,0.000
 05353,0.00011310,0.00154278,0.00130227,0.00089953,-0.00144798,0.000734
 06,-0.00017130,0.00033330,-0.00023869,0.00003366,-0.00008750,0.0001069
 2,-0.00027235,0.00007622,-0.00008374,0.00041545,-0.00015744,0.00051894
 ,-0.00041003,-0.00129558,0.00051366,0.00014344,0.00014177,0.00005322,-
 0.00489466,-0.00046781,0.00188015,0.00030748,0.00139975,-0.00046336,-0
 .16216557,0.14215273,0.50728614,-0.00057975,-0.00042032,0.00051086,-0.
 00139950,0.00201228,0.00242056,0.00010113,0.00018766,-0.00012286,-0.02
 493040,0.01270508,0.04112454,-0.00021742,0.00016029,-0.00037059,0.0002
 8400,-0.00008321,-0.00016554,-0.00015687,0.00017914,-0.00010308,0.0000
 9768,-0.00006568,0.00009506,-0.00013322,-0.00028249,0.00139842,-0.0065
 5208,-0.00225111,-0.00080137,0.00000709,-0.00000435,-0.00000412,0.0000
 6533,0.00005801,-0.00004532,0.00022164,0.00014758,-0.00020537,-0.00006
 379,-0.00004025,-0.00016849,0.00014910,-0.00024439,0.00022083,-0.00001
 506,0.00008773,-0.00008597,0.00049326,-0.00026836,0.00019427,-0.000538
 17,0.00023003,-0.00055783,0.00047035,0.00027375,-0.00005102,-0.0001914
 0,-0.00006483,-0.00005638,0.00351826,-0.00056455,0.00090832,-0.0012748
 9,-0.00135675,-0.00107876,-0.10591461,0.03272828,0.13527127,0.13630546
 ,0.00057450,0.00039093,-0.00045312,0.00004073,0.00111294,-0.00092067,-
 0.00018366,0.00004248,0.00016655,-0.00560452,0.00200928,0.00951677,0.0
 0056215,-0.00062625,0.00013237,-0.00003536,0.00002535,0.00005419,0.000
 24280,-0.00006233,0.00004594,-0.00006521,0.00001446,-0.00007168,-0.003
 21961,0.00080424,0.00289719,-0.00036424,0.00018904,0.00005421,0.000008
 37,-0.00001194,-0.00000508,-0.00006916,-0.00001902,0.00006238,0.000264
 07,-0.00042452,-0.00052094,-0.00008463,-0.00020406,-0.00002208,-0.0001
 7170,0.00002896,-0.00010359,0.00003548,0.00001875,0.00002435,-0.000039
 84,-0.00014069,-0.00005914,0.00006929,0.00006192,0.00006700,-0.0001902
 7,-0.00066600,0.00008556,-0.00004364,0.00010429,-0.00001273,-0.0003838
 0,-0.00190640,-0.00011824,-0.00147768,0.00097768,-0.00118752,0.0516964
 3,-0.05181019,-0.14230363,-0.04331739,0.05023731,0.00008907,-0.0001852
 2,-0.00111345,-0.00388315,0.00122237,0.00318464,-0.00031831,0.00011822
 ,0.00033680,-0.00076487,-0.00035177,0.00026563,0.00005155,-0.00010536,
 -0.00006845,0.00038318,-0.00002036,-0.00001981,-0.00015832,-0.00000149
 ,-0.00002667,0.00000595,0.00001121,-0.00006791,-0.00043256,-0.00007976
 ,0.00031460,-0.00105860,0.00098111,0.00143290,0.00003180,-0.00002425,-
 0.00001891,0.00004158,0.00004904,-0.00000673,-0.00016620,-0.00062649,0
 .00000672,0.00017539,0.00021063,-0.00026223,0.00008729,-0.00003159,0.0
 0000119,-0.00004156,0.00003314,-0.00001068,0.00047985,-0.00018470,-0.0
 0011577,-0.00054812,0.00018189,-0.00032402,0.00002198,0.00008945,-0.00
 020948,-0.00013742,-0.00005007,0.00008913,0.00342039,-0.00006777,-0.00
 003743,-0.00140559,-0.00175274,0.00004636,0.18204301,-0.13268097,-0.41
 991217,-0.17742603,0.13323056,0.41749244,-0.00067178,-0.00189021,-0.00
 006969,-0.00053820,-0.00038531,0.00009795,0.00026005,0.00002593,0.0001
 9648,0.00063379,-0.00133835,-0.00181808,0.00007570,0.00009334,0.000010
 98,0.00013527,0.00004154,0.00010317,-0.00006672,-0.00020005,0.00001043
 ,0.00004323,-0.00002713,0.00003837,-0.08611556,0.00262498,0.04385708,0
 .00097440,-0.00145339,-0.00030092,-0.00001261,-0.00001098,-0.00000339,
 0.00003376,0.00002721,-0.00001833,-0.00673520,0.02051109,0.03568579,0.
 01037192,-0.00631602,-0.00677248,-0.00002835,0.00028783,-0.00021661,-0
 .00000969,-0.00009364,0.00008983,0.00009879,0.00038962,-0.00043084,-0.
 00017549,-0.00015021,0.00017632,-0.00127528,0.00215716,0.00023303,0.00
 081040,-0.00041682,0.00050780,0.00348523,0.00043889,-0.00080121,-0.004
 22559,0.00138609,-0.00054230,0.00378009,-0.00017936,-0.00126996,-0.000
 23011,0.00132195,-0.00047692,0.12206469,-0.00093169,-0.00119445,-0.000
 30920,-0.00144294,0.00475237,0.00085052,-0.00009931,0.00034340,-0.0003
 4711,0.01785737,-0.02445190,-0.04440966,-0.00018453,0.00029240,-0.0004
 7537,-0.00001708,0.00022529,0.00004944,-0.00034659,0.00023439,-0.00027
 416,0.00012614,-0.00007425,0.00010438,0.02338262,-0.11436611,-0.065259
 97,-0.00170847,-0.00856683,0.00141468,0.00000171,0.00005131,0.00002119
 ,0.00011173,0.00010067,-0.00006560,0.00370247,0.00145212,-0.00178609,-
 0.00332257,0.00508427,-0.00294896,0.00030702,-0.00028026,0.00039200,-0
 .00005451,0.00006429,-0.00012232,0.00067108,0.00007893,0.00064672,-0.0
 0085304,-0.00007509,-0.00078844,0.00068908,0.00147486,0.00047419,0.000
 00334,-0.00068907,-0.00002958,0.00318083,-0.01177518,0.01064880,0.0012
 0640,-0.00573424,-0.00276632,-0.00036074,0.00242434,0.00145735,0.00024
 205,-0.00012071,-0.00017355,0.10248132,0.66479017,-0.00047930,-0.00077
 335,0.00030616,0.00029701,-0.00202808,-0.00621119,0.00050749,-0.000170
 87,-0.00085285,0.00387345,-0.00546181,-0.00282563,-0.00000237,0.000013
 81,0.00121681,-0.00049782,0.00031013,0.00022685,0.00013477,0.00002895,
 0.00000648,-0.00000045,-0.00001790,0.00013282,0.05592222,-0.02539605,-
 0.18288199,-0.00041877,0.00082889,0.00140160,-0.00007092,0.00009157,0.
 00004305,-0.00002816,-0.00007067,-0.00002081,0.00826639,-0.01226521,-0
 .01786744,0.01630299,-0.02288415,-0.03699520,-0.00003489,0.00006836,0.
 00009573,0.00005387,-0.00009946,-0.00000147,-0.00070507,0.00061520,0.0
 0066322,0.00073175,-0.00048641,0.00031579,-0.00100263,0.00173697,0.001
 91966,0.00112109,-0.00092484,0.00006325,-0.00211536,0.01224979,0.00195
 267,-0.00169542,-0.00514374,-0.00174949,-0.00194495,-0.00093089,0.0027
 9978,-0.00059135,-0.00033101,-0.00092150,-0.09587974,0.05413185,0.2780
 7507,0.00054895,0.00084061,0.00014143,0.00019332,-0.00027366,0.0002392
 7,-0.00014051,-0.00007876,-0.00000195,-0.00228408,0.00127519,0.0031667
 0,-0.00007345,-0.00000091,-0.00004149,-0.00001026,-0.00010041,-0.00005
 460,0.00005562,0.00007757,0.00001887,-0.00002818,0.00002372,-0.0000339
 6,0.00195727,0.01761022,0.00149259,0.00027963,0.00096590,0.00008208,0.
 00000822,-0.00000698,-0.00000401,-0.00002338,-0.00001699,0.00001415,0.
 00036973,0.00113972,-0.00006771,0.00018599,-0.00077930,0.00016171,-0.0
 0000986,-0.00012410,0.00006766,0.00000785,0.00004836,-0.00003459,-0.00
 004074,-0.00024047,0.00008604,0.00010177,0.00008931,-0.00004297,-0.000
 01651,-0.00136202,-0.00012757,-0.00027285,0.00044738,-0.00022416,0.000
 03553,0.00083171,-0.00071206,-0.00013618,-0.00011825,0.00068941,0.0002
 8477,-0.00044761,-0.00045775,0.00048396,0.00043493,-0.00001337,-0.0426
 8273,-0.14464169,0.01825616,0.04120612,-0.00011151,-0.00054664,-0.0000
 4537,-0.00007349,0.00045005,0.00035261,0.00006822,0.00000394,0.0000810
 8,0.00174483,-0.00050201,-0.00448956,-0.00001534,0.00010392,-0.0000948
 4,0.00001556,0.00003095,0.00002966,0.00002292,-0.00008420,0.00001924,-
 0.00000617,0.00000008,-0.00000237,-0.00610721,-0.01687917,0.00401810,-
 0.00025625,-0.00092168,0.00033139,0.00000040,-0.00000527,-0.00000080,-
 0.00001079,0.00000243,0.00000487,0.00013546,0.00158188,0.00173674,-0.0
 0063946,0.00081640,0.00096636,-0.00005483,0.00011547,-0.00010466,0.000
 00885,-0.00003365,0.00003912,-0.00002513,0.00013344,-0.00016138,0.0000
 0180,-0.00007600,0.00008260,-0.00045360,0.00060692,-0.00007247,0.00026
 938,-0.00008381,0.00015497,0.00033905,0.00058266,0.00008706,-0.0005693
 1,-0.00160976,-0.00000949,0.00068380,0.00105837,0.00003902,-0.00004822
 ,-0.00002553,0.00020845,-0.11932549,-0.51404073,0.00690892,0.12440653,
 0.52932192,0.00024569,0.00023520,0.00008283,0.00047251,-0.00032752,-0.
 00097553,0.00000158,-0.00001540,0.00008533,0.00285709,-0.00201847,-0.0
 0614205,-0.00008923,0.00011259,0.00007204,-0.00009202,-0.00004966,0.00
 000064,0.00007398,-0.00002074,0.00002233,-0.00001582,0.00000757,-0.000
 01684,-0.00821919,-0.03779523,-0.00095146,-0.00010901,-0.00160997,0.00
 040473,-0.00000534,-0.00001086,-0.00000380,-0.00002202,-0.00002298,0.0
 0001506,0.00092881,0.00016762,0.00101586,-0.00078012,-0.00062769,-0.00
 056594,-0.00004666,0.00001015,-0.00004487,0.00000705,0.00001112,0.0000
 1424,-0.00015115,-0.00013168,-0.00015102,0.00022746,0.00010092,0.00020
 492,-0.00010088,-0.00043617,-0.00023598,-0.00017675,0.00035390,0.00000
 894,-0.00130529,0.00307215,-0.00152924,0.00171002,-0.00101932,0.003349
 87,-0.00009402,0.00075620,0.00034345,-0.00031007,-0.00022765,-0.000055
 20,0.02759324,0.04956521,-0.03889137,-0.02259986,-0.01007928,0.0439430
 5\\-0.00000721,-0.00001504,0.00001356,-0.00000245,0.00000871,-0.000003
 42,0.00000163,-0.00000039,-0.00001146,0.00002610,0.00001245,0.00001363
 ,-0.00000353,0.00000134,-0.00000159,0.00000460,-0.00000385,-0.00000048
 ,-0.00001266,0.00001080,-0.00001271,0.00000112,-0.00000140,-0.00000048
 ,-0.00000601,0.00000072,-0.00000047,-0.00000346,-0.00000016,-0.0000038
 8,-0.00000060,-0.00000356,0.00000366,0.00000278,0.00000056,0.00000135,
 -0.00000355,0.00000063,0.00000156,-0.00000119,0.00000005,0.00000031,0.
 00000713,-0.00000368,0.00000211,-0.00000374,-0.00000474,0.00000057,-0.
 00000889,0.00000254,0.00000383,0.00000528,-0.00000020,0.00000144,-0.00
 001098,0.00000543,0.00000642,0.00000891,-0.00000372,-0.00000459,0.0000
 1224,0.00000436,-0.00000198,-0.00000074,-0.00000908,-0.00000158,-0.000
 01153,-0.00000547,-0.00000048,0.00000052,0.00000618,-0.00000125,0.0000
 0124,-0.00000226,-0.00000611,0.00000499,-0.00000022,0.00000204\\\@
 The archive entry for this job was punched.


 Change starts when someone sees the next step.
                            -- William Drayton
 Job cpu time:       0 days 10 hours 39 minutes 56.7 seconds.
 Elapsed time:       0 days  0 hours 40 minutes 46.8 seconds.
 File lengths (MBytes):  RWF=    704 Int=      0 D2E=      0 Chk=     27 Scr=      1
 Normal termination of Gaussian 16 at Wed Sep 27 12:45:43 2023.
