 Entering Gaussian System, Link 0=/opt/software/gaussian/g16.c01/g16
 Initial command:
 /opt/software/gaussian/g16.c01/l1.exe "/scratch/arhender/14836908/Gau-202098.inp" -scrdir="/scratch/arhender/14836908/"
 Entering Link 1 = /opt/software/gaussian/g16.c01/l1.exe PID=    202099.
  
 Copyright (c) 1988-2019, Gaussian, Inc.  All Rights Reserved.
  
 This is part of the Gaussian(R) 16 program.  It is based on
 the Gaussian(R) 09 system (copyright 2009, Gaussian, Inc.),
 the Gaussian(R) 03 system (copyright 2003, Gaussian, Inc.),
 the Gaussian(R) 98 system (copyright 1998, Gaussian, Inc.),
 the Gaussian(R) 94 system (copyright 1995, Gaussian, Inc.),
 the Gaussian 92(TM) system (copyright 1992, Gaussian, Inc.),
 the Gaussian 90(TM) system (copyright 1990, Gaussian, Inc.),
 the Gaussian 88(TM) system (copyright 1988, Gaussian, Inc.),
 the Gaussian 86(TM) system (copyright 1986, Carnegie Mellon
 University), and the Gaussian 82(TM) system (copyright 1983,
 Carnegie Mellon University). Gaussian is a federally registered
 trademark of Gaussian, Inc.
  
 This software contains proprietary and confidential information,
 including trade secrets, belonging to Gaussian, Inc.
  
 This software is provided under written license and may be
 used, copied, transmitted, or stored only in accord with that
 written license.
  
 The following legend is applicable only to US Government
 contracts under FAR:
  
                    RESTRICTED RIGHTS LEGEND
  
 Use, reproduction and disclosure by the US Government is
 subject to restrictions as set forth in subparagraphs (a)
 and (c) of the Commercial Computer Software - Restricted
 Rights clause in FAR 52.227-19.
  
 Gaussian, Inc.
 340 Quinnipiac St., Bldg. 40, Wallingford CT 06492
  
  
 ---------------------------------------------------------------
 Warning -- This program may not be used in any manner that
 competes with the business of Gaussian, Inc. or will provide
 assistance to any competitor of Gaussian, Inc.  The licensee
 of this program is prohibited from giving any competitor of
 Gaussian, Inc. access to this program.  By using this program,
 the user acknowledges that Gaussian, Inc. is engaged in the
 business of creating and licensing software in the field of
 computational chemistry and represents and warrants to the
 licensee that it is not a competitor of Gaussian, Inc. and that
 it will not use this program in any manner prohibited above.
 ---------------------------------------------------------------
  

 Cite this work as:
 Gaussian 16, Revision C.01,
 M. J. Frisch, G. W. Trucks, H. B. Schlegel, G. E. Scuseria, 
 M. A. Robb, J. R. Cheeseman, G. Scalmani, V. Barone, 
 G. A. Petersson, H. Nakatsuji, X. Li, M. Caricato, A. V. Marenich, 
 J. Bloino, B. G. Janesko, R. Gomperts, B. Mennucci, H. P. Hratchian, 
 J. V. Ortiz, A. F. Izmaylov, J. L. Sonnenberg, D. Williams-Young, 
 F. Ding, F. Lipparini, F. Egidi, J. Goings, B. Peng, A. Petrone, 
 T. Henderson, D. Ranasinghe, V. G. Zakrzewski, J. Gao, N. Rega, 
 G. Zheng, W. Liang, M. Hada, M. Ehara, K. Toyota, R. Fukuda, 
 J. Hasegawa, M. Ishida, T. Nakajima, Y. Honda, O. Kitao, H. Nakai, 
 T. Vreven, K. Throssell, J. A. Montgomery, Jr., J. E. Peralta, 
 F. Ogliaro, M. J. Bearpark, J. J. Heyd, E. N. Brothers, K. N. Kudin, 
 V. N. Staroverov, T. A. Keith, R. Kobayashi, J. Normand, 
 K. Raghavachari, A. P. Rendell, J. C. Burant, S. S. Iyengar, 
 J. Tomasi, M. Cossi, J. M. Millam, M. Klene, C. Adamo, R. Cammi, 
 J. W. Ochterski, R. L. Martin, K. Morokuma, O. Farkas, 
 J. B. Foresman, and D. J. Fox, Gaussian, Inc., Wallingford CT, 2019.
 
 ******************************************
 Gaussian 16:  ES64L-G16RevC.01  3-Jul-2019
                11-Oct-2023 
 ******************************************
 %chk=MannitolConformerOpt_48.chk
 %mem=8GB
 %nprocs=16
 Will use up to   16 processors via shared memory.
 ---------------------------------------------
 # opt freq wb97xd/Def2TZVPP geom=connectivity
 ---------------------------------------------
 1/18=20,19=15,26=3,38=1,57=2/1,3;
 2/9=110,12=2,17=6,18=5,40=1/2;
 3/5=44,7=202,11=2,25=1,30=1,71=1,74=-58/1,2,3;
 4//1;
 5/5=2,38=5/2;
 6/7=2,8=2,9=2,10=2,28=1/1;
 7//1,2,3,16;
 1/18=20,19=15,26=3/3(2);
 2/9=110/2;
 99//99;
 2/9=110/2;
 3/5=44,7=202,11=2,25=1,30=1,71=1,74=-58/1,2,3;
 4/5=5,16=3,69=1/1;
 5/5=2,38=5/2;
 7//1,2,3,16;
 1/18=20,19=15,26=3/3(-5);
 2/9=110/2;
 6/7=2,8=2,9=2,10=2,19=2,28=1/1;
 99/9=1/99;
 -------------------
 Title Card Required
 -------------------
 Symbolic Z-matrix:
 Charge =  0 Multiplicity = 1
 C                     0.        0.        0. 
 C                     1.5443    0.        0. 
 C                    -0.6723    1.0724    0.88 
 C                     2.2388   -0.8194    1.1062 
 H                     1.9308    1.0231    0. 
 H                    -0.3795   -0.9953    0.2574 
 C                    -0.4089    2.5131    0.4205 
 H                    -0.4086    0.9882    1.9352 
 C                     1.8308   -0.5002    2.5396 
 H                     3.3223   -0.6843    1.0034 
 H                     0.6516    2.7704    0.4657 
 H                    -0.7775    2.6909   -0.5945 
 H                     1.8224    0.5757    2.7354 
 H                     2.5231   -0.9736    3.2438 
 O                    -1.1091    3.4126    1.2834 
 H                    -2.0245    3.071     1.3172 
 O                    -2.1032    0.87      0.8003 
 H                    -2.3026    0.1186    1.3916 
 O                    -0.4315    0.2144   -1.3698 
 H                    -1.4052    0.3144   -1.3193 
 O                     1.9834   -0.5956   -1.249 
 H                     1.2897   -0.3367   -1.8968 
 O                     1.9792   -2.2202    0.8802 
 H                     2.1523   -2.3408   -0.0788 
 O                     0.5383   -1.0481    2.8033 
 H                     0.616    -1.9853    2.5221 
 

 GradGradGradGradGradGradGradGradGradGradGradGradGradGradGradGradGradGrad
 Berny optimization.
 Initialization pass.
                           ----------------------------
                           !    Initial Parameters    !
                           ! (Angstroms and Degrees)  !
 --------------------------                            --------------------------
 ! Name  Definition              Value          Derivative Info.                !
 --------------------------------------------------------------------------------
 ! R1    R(1,2)                  1.5443         estimate D2E/DX2                !
 ! R2    R(1,3)                  1.5416         estimate D2E/DX2                !
 ! R3    R(1,6)                  1.0959         estimate D2E/DX2                !
 ! R4    R(1,19)                 1.4521         estimate D2E/DX2                !
 ! R5    R(2,4)                  1.5419         estimate D2E/DX2                !
 ! R6    R(2,5)                  1.0937         estimate D2E/DX2                !
 ! R7    R(2,21)                 1.4517         estimate D2E/DX2                !
 ! R8    R(3,7)                  1.535          estimate D2E/DX2                !
 ! R9    R(3,8)                  1.0909         estimate D2E/DX2                !
 ! R10   R(3,17)                 1.4473         estimate D2E/DX2                !
 ! R11   R(4,9)                  1.5241         estimate D2E/DX2                !
 ! R12   R(4,10)                 1.0967         estimate D2E/DX2                !
 ! R13   R(4,23)                 1.4425         estimate D2E/DX2                !
 ! R14   R(7,11)                 1.0922         estimate D2E/DX2                !
 ! R15   R(7,12)                 1.0944         estimate D2E/DX2                !
 ! R16   R(7,15)                 1.4297         estimate D2E/DX2                !
 ! R17   R(9,13)                 1.0936         estimate D2E/DX2                !
 ! R18   R(9,14)                 1.0951         estimate D2E/DX2                !
 ! R19   R(9,25)                 1.4284         estimate D2E/DX2                !
 ! R20   R(15,16)                0.9776         estimate D2E/DX2                !
 ! R21   R(17,18)                0.9767         estimate D2E/DX2                !
 ! R22   R(19,20)                0.9801         estimate D2E/DX2                !
 ! R23   R(21,22)                0.9838         estimate D2E/DX2                !
 ! R24   R(23,24)                0.9819         estimate D2E/DX2                !
 ! R25   R(25,26)                0.9816         estimate D2E/DX2                !
 ! A1    A(2,1,3)              115.8562         estimate D2E/DX2                !
 ! A2    A(2,1,6)              110.2615         estimate D2E/DX2                !
 ! A3    A(2,1,19)             107.2872         estimate D2E/DX2                !
 ! A4    A(3,1,6)              110.2863         estimate D2E/DX2                !
 ! A5    A(3,1,19)             107.83           estimate D2E/DX2                !
 ! A6    A(6,1,19)             104.6416         estimate D2E/DX2                !
 ! A7    A(1,2,4)              116.7707         estimate D2E/DX2                !
 ! A8    A(1,2,5)              110.6952         estimate D2E/DX2                !
 ! A9    A(1,2,21)             107.6057         estimate D2E/DX2                !
 ! A10   A(4,2,5)              109.7525         estimate D2E/DX2                !
 ! A11   A(4,2,21)             105.2468         estimate D2E/DX2                !
 ! A12   A(5,2,21)             106.0755         estimate D2E/DX2                !
 ! A13   A(1,3,7)              114.0296         estimate D2E/DX2                !
 ! A14   A(1,3,8)              113.1444         estimate D2E/DX2                !
 ! A15   A(1,3,17)             107.6045         estimate D2E/DX2                !
 ! A16   A(7,3,8)              108.6944         estimate D2E/DX2                !
 ! A17   A(7,3,17)             106.5242         estimate D2E/DX2                !
 ! A18   A(8,3,17)             106.3468         estimate D2E/DX2                !
 ! A19   A(2,4,9)              116.2858         estimate D2E/DX2                !
 ! A20   A(2,4,10)             108.1967         estimate D2E/DX2                !
 ! A21   A(2,4,23)             108.8208         estimate D2E/DX2                !
 ! A22   A(9,4,10)             109.076          estimate D2E/DX2                !
 ! A23   A(9,4,23)             107.611          estimate D2E/DX2                !
 ! A24   A(10,4,23)            106.4239         estimate D2E/DX2                !
 ! A25   A(3,7,11)             112.0454         estimate D2E/DX2                !
 ! A26   A(3,7,12)             111.8592         estimate D2E/DX2                !
 ! A27   A(3,7,15)             109.0141         estimate D2E/DX2                !
 ! A28   A(11,7,12)            109.0952         estimate D2E/DX2                !
 ! A29   A(11,7,15)            107.5988         estimate D2E/DX2                !
 ! A30   A(12,7,15)            107.0139         estimate D2E/DX2                !
 ! A31   A(4,9,13)             112.1157         estimate D2E/DX2                !
 ! A32   A(4,9,14)             110.1814         estimate D2E/DX2                !
 ! A33   A(4,9,25)             109.604          estimate D2E/DX2                !
 ! A34   A(13,9,14)            108.3614         estimate D2E/DX2                !
 ! A35   A(13,9,25)            109.7165         estimate D2E/DX2                !
 ! A36   A(14,9,25)            106.7084         estimate D2E/DX2                !
 ! A37   A(7,15,16)            105.0469         estimate D2E/DX2                !
 ! A38   A(3,17,18)            106.0262         estimate D2E/DX2                !
 ! A39   A(1,19,20)            105.1694         estimate D2E/DX2                !
 ! A40   A(2,21,22)            104.1975         estimate D2E/DX2                !
 ! A41   A(4,23,24)            103.9198         estimate D2E/DX2                !
 ! A42   A(9,25,26)            103.9885         estimate D2E/DX2                !
 ! D1    D(3,1,2,4)             87.1567         estimate D2E/DX2                !
 ! D2    D(3,1,2,5)            -39.3719         estimate D2E/DX2                !
 ! D3    D(3,1,2,21)          -154.8666         estimate D2E/DX2                !
 ! D4    D(6,1,2,4)            -38.9715         estimate D2E/DX2                !
 ! D5    D(6,1,2,5)           -165.5001         estimate D2E/DX2                !
 ! D6    D(6,1,2,21)            79.0052         estimate D2E/DX2                !
 ! D7    D(19,1,2,4)          -152.3671         estimate D2E/DX2                !
 ! D8    D(19,1,2,5)            81.1043         estimate D2E/DX2                !
 ! D9    D(19,1,2,21)          -34.3904         estimate D2E/DX2                !
 ! D10   D(2,1,3,7)             64.8585         estimate D2E/DX2                !
 ! D11   D(2,1,3,8)            -60.0473         estimate D2E/DX2                !
 ! D12   D(2,1,3,17)          -177.2254         estimate D2E/DX2                !
 ! D13   D(6,1,3,7)           -169.0258         estimate D2E/DX2                !
 ! D14   D(6,1,3,8)             66.0683         estimate D2E/DX2                !
 ! D15   D(6,1,3,17)           -51.1097         estimate D2E/DX2                !
 ! D16   D(19,1,3,7)           -55.3241         estimate D2E/DX2                !
 ! D17   D(19,1,3,8)           179.7701         estimate D2E/DX2                !
 ! D18   D(19,1,3,17)           62.592          estimate D2E/DX2                !
 ! D19   D(2,1,19,20)         -173.5293         estimate D2E/DX2                !
 ! D20   D(3,1,19,20)          -48.0862         estimate D2E/DX2                !
 ! D21   D(6,1,19,20)           69.3305         estimate D2E/DX2                !
 ! D22   D(1,2,4,9)            -54.2965         estimate D2E/DX2                !
 ! D23   D(1,2,4,10)          -177.394          estimate D2E/DX2                !
 ! D24   D(1,2,4,23)            67.3619         estimate D2E/DX2                !
 ! D25   D(5,2,4,9)             72.697          estimate D2E/DX2                !
 ! D26   D(5,2,4,10)           -50.4004         estimate D2E/DX2                !
 ! D27   D(5,2,4,23)          -165.6446         estimate D2E/DX2                !
 ! D28   D(21,2,4,9)          -173.5481         estimate D2E/DX2                !
 ! D29   D(21,2,4,10)           63.3544         estimate D2E/DX2                !
 ! D30   D(21,2,4,23)          -51.8898         estimate D2E/DX2                !
 ! D31   D(1,2,21,22)           32.5044         estimate D2E/DX2                !
 ! D32   D(4,2,21,22)          157.6944         estimate D2E/DX2                !
 ! D33   D(5,2,21,22)          -86.0045         estimate D2E/DX2                !
 ! D34   D(1,3,7,11)           -62.6605         estimate D2E/DX2                !
 ! D35   D(1,3,7,12)            60.2098         estimate D2E/DX2                !
 ! D36   D(1,3,7,15)           178.3552         estimate D2E/DX2                !
 ! D37   D(8,3,7,11)            64.5811         estimate D2E/DX2                !
 ! D38   D(8,3,7,12)          -172.5486         estimate D2E/DX2                !
 ! D39   D(8,3,7,15)           -54.4032         estimate D2E/DX2                !
 ! D40   D(17,3,7,11)          178.8056         estimate D2E/DX2                !
 ! D41   D(17,3,7,12)          -58.3241         estimate D2E/DX2                !
 ! D42   D(17,3,7,15)           59.8213         estimate D2E/DX2                !
 ! D43   D(1,3,17,18)           78.4103         estimate D2E/DX2                !
 ! D44   D(7,3,17,18)         -158.9226         estimate D2E/DX2                !
 ! D45   D(8,3,17,18)          -43.11           estimate D2E/DX2                !
 ! D46   D(2,4,9,13)           -47.1819         estimate D2E/DX2                !
 ! D47   D(2,4,9,14)          -167.9549         estimate D2E/DX2                !
 ! D48   D(2,4,9,25)            74.9116         estimate D2E/DX2                !
 ! D49   D(10,4,9,13)           75.4566         estimate D2E/DX2                !
 ! D50   D(10,4,9,14)          -45.3163         estimate D2E/DX2                !
 ! D51   D(10,4,9,25)         -162.4498         estimate D2E/DX2                !
 ! D52   D(23,4,9,13)         -169.478          estimate D2E/DX2                !
 ! D53   D(23,4,9,14)           69.7491         estimate D2E/DX2                !
 ! D54   D(23,4,9,25)          -47.3844         estimate D2E/DX2                !
 ! D55   D(2,4,23,24)           46.3971         estimate D2E/DX2                !
 ! D56   D(9,4,23,24)          173.1998         estimate D2E/DX2                !
 ! D57   D(10,4,23,24)         -69.9893         estimate D2E/DX2                !
 ! D58   D(3,7,15,16)          -50.2717         estimate D2E/DX2                !
 ! D59   D(11,7,15,16)        -171.9939         estimate D2E/DX2                !
 ! D60   D(12,7,15,16)          70.8786         estimate D2E/DX2                !
 ! D61   D(4,9,25,26)           51.2875         estimate D2E/DX2                !
 ! D62   D(13,9,25,26)         174.8037         estimate D2E/DX2                !
 ! D63   D(14,9,25,26)         -68.0055         estimate D2E/DX2                !
 --------------------------------------------------------------------------------
 Trust Radius=3.00D-01 FncErr=1.00D-07 GrdErr=1.00D-06 EigMax=2.50D+02 EigMin=1.00D-04
 Number of steps in this run=    140 maximum allowed number of steps=    156.
 GradGradGradGradGradGradGradGradGradGradGradGradGradGradGradGradGradGrad

                          Input orientation:                          
 ---------------------------------------------------------------------
 Center     Atomic      Atomic             Coordinates (Angstroms)
 Number     Number       Type             X           Y           Z
 ---------------------------------------------------------------------
      1          6           0        0.000000    0.000000    0.000000
      2          6           0        1.544300    0.000000    0.000000
      3          6           0       -0.672300    1.072400    0.880000
      4          6           0        2.238800   -0.819400    1.106200
      5          1           0        1.930800    1.023100    0.000000
      6          1           0       -0.379500   -0.995300    0.257400
      7          6           0       -0.408900    2.513100    0.420500
      8          1           0       -0.408600    0.988200    1.935200
      9          6           0        1.830800   -0.500200    2.539600
     10          1           0        3.322300   -0.684300    1.003400
     11          1           0        0.651600    2.770400    0.465700
     12          1           0       -0.777500    2.690900   -0.594500
     13          1           0        1.822400    0.575700    2.735400
     14          1           0        2.523100   -0.973600    3.243800
     15          8           0       -1.109100    3.412600    1.283400
     16          1           0       -2.024500    3.071000    1.317200
     17          8           0       -2.103200    0.870000    0.800300
     18          1           0       -2.302600    0.118600    1.391600
     19          8           0       -0.431500    0.214400   -1.369800
     20          1           0       -1.405200    0.314400   -1.319300
     21          8           0        1.983400   -0.595600   -1.249000
     22          1           0        1.289700   -0.336700   -1.896800
     23          8           0        1.979200   -2.220200    0.880200
     24          1           0        2.152300   -2.340800   -0.078800
     25          8           0        0.538300   -1.048100    2.803300
     26          1           0        0.616000   -1.985300    2.522100
 ---------------------------------------------------------------------
                    Distance matrix (angstroms):
                    1          2          3          4          5
     1  C    0.000000
     2  C    1.544300   0.000000
     3  C    1.541567   2.614911   0.000000
     4  C    2.628178   1.541890   3.479163   0.000000
     5  H    2.185114   1.093671   2.748265   2.171025   0.000000
     6  H    1.095855   2.181257   2.179162   2.758060   3.078584
     7  C    2.580638   3.210527   1.534971   4.311155   2.805551
     8  H    2.210993   2.921533   1.090905   3.311100   3.036282
     9  C    3.170425   2.604199   3.390111   1.524135   2.963108
    10  H    3.537337   2.153221   4.365553   1.096719   2.420392
    11  H    2.883847   2.947695   2.192615   3.976947   2.215014
    12  H    2.863369   3.603488   2.191976   4.930786   3.235719
    13  H    3.336913   2.809125   3.148452   2.184945   2.773866
    14  H    4.223289   3.525363   4.470374   2.161929   3.854850
    15  O    3.810913   4.509267   2.414552   5.399042   4.074042
    16  H    3.907001   4.889007   2.452344   5.775419   4.644708
    17  O    2.412640   3.834271   1.447340   4.669112   4.115468
    18  H    2.693062   4.092586   1.956872   4.646032   4.547125
    19  O    1.452072   2.413733   2.419865   3.785475   2.847948
    20  H    1.952943   3.246375   2.438981   4.521868   3.656734
    21  O    2.418391   1.451740   3.790463   2.379555   2.045228
    22  H    2.318306   1.943203   3.680438   3.186189   2.420313
    23  O    3.101818   2.427587   4.227489   1.442466   3.360966
    24  H    3.180872   2.419756   4.532946   1.930380   3.372105
    25  O    3.040850   3.157379   3.108240   2.413328   3.753321
    26  H    3.268312   3.341279   3.702126   2.448995   4.140067
                    6          7          8          9         10
     6  H    0.000000
     7  C    3.512312   0.000000
     8  H    2.598102   2.149334   0.000000
     9  C    3.215430   4.311243   2.756002   0.000000
    10  H    3.789005   4.948231   4.193462   2.149041   0.000000
    11  H    3.909866   1.092203   2.541592   4.048259   4.399626
    12  H    3.804236   1.094397   3.071589   5.177734   5.545595
    13  H    3.668363   3.753795   2.405792   1.093604   2.614789
    14  H    4.164630   5.359545   3.762440   1.095118   2.396207
    15  O    4.584166   1.429677   2.606388   5.052826   6.041547
    16  H    4.512649   1.930152   2.707603   5.395467   6.541332
    17  O    2.597157   2.390539   2.042948   4.514307   5.647402
    18  H    2.495094   3.203555   2.153820   4.334260   5.695160
    19  O    2.028265   2.913710   3.394454   4.572971   4.531088
    20  H    2.292020   2.975533   3.469725   5.101605   5.361119
    21  O    2.830600   4.263138   4.285932   3.792872   2.621798
    22  H    2.803669   4.046787   4.395885   4.472266   3.558574
    23  O    2.729785   5.321511   4.136236   2.394584   2.044036
    24  H    2.886765   5.510843   4.657966   3.216705   2.298706
    25  O    2.706797   4.388288   2.407641   1.428387   3.335063
    26  H    2.664580   5.069787   3.199369   1.918741   3.364983
                   11         12         13         14         15
    11  H    0.000000
    12  H    1.781199   0.000000
    13  H    3.367346   4.724594   0.000000
    14  H    5.023732   6.249405   1.774762   0.000000
    15  O    2.044778   2.038950   4.330127   6.022856   0.000000
    16  H    2.824345   2.313889   4.799631   6.383670   0.977645
    17  O    3.363391   2.649269   4.386520   5.547270   2.772442
    18  H    4.076350   3.589882   4.362381   5.283079   3.505223
    19  O    3.327958   2.617987   4.697156   5.605917   4.210356
    20  H    3.667232   2.562634   5.189053   6.157302   4.057162
    21  O    4.005477   4.341891   4.156117   4.540860   5.660589
    22  H    3.955079   3.890458   4.751160   5.324724   5.470390
    23  O    5.180774   5.821773   3.359079   2.726984   6.436505
    24  H    5.354713   5.845313   4.066267   3.611980   6.752328
    25  O    4.478633   5.220775   2.071292   2.034459   4.992181
    26  H    5.181383   5.789809   2.838947   2.276273   5.800661
                   16         17         18         19         20
    16  H    0.000000
    17  O    2.262251   0.000000
    18  H    2.966402   0.976728   0.000000
    19  O    4.232940   2.816687   3.336993   0.000000
    20  H    3.864390   2.299696   2.862279   0.980123   0.000000
    21  O    6.007712   4.800824   5.084550   2.549987   3.509366
    22  H    5.738130   4.499138   4.891369   1.882543   2.831947
    23  O    6.649615   5.120714   4.905642   4.098933   4.766147
    24  H    6.977253   5.402900   5.296873   3.856391   4.609201
    25  O    5.073798   3.829966   3.380059   4.466451   4.757040
    26  H    5.830111   4.302486   3.771293   4.591603   4.912252
                   21         22         23         24         25
    21  O    0.000000
    22  H    0.983816   0.000000
    23  O    2.678215   3.425597   0.000000
    24  H    2.107989   2.840003   0.981931   0.000000
    25  O    4.325992   4.812653   2.673635   3.547192   0.000000
    26  H    4.245261   4.764287   2.146935   3.041591   0.981557
                   26
    26  H    0.000000
 Stoichiometry    C6H14O6
 Framework group  C1[X(C6H14O6)]
 Deg. of freedom    72
 Full point group                 C1      NOp   1
 Largest Abelian subgroup         C1      NOp   1
 Largest concise Abelian subgroup C1      NOp   1
                         Standard orientation:                         
 ---------------------------------------------------------------------
 Center     Atomic      Atomic             Coordinates (Angstroms)
 Number     Number       Type             X           Y           Z
 ---------------------------------------------------------------------
      1          6           0        0.156159    0.648030    0.487131
      2          6           0       -0.880054    0.756094   -0.652802
      3          6           0        1.336652   -0.310496    0.233965
      4          6           0       -2.028973   -0.272193   -0.646759
      5          1           0       -0.384249    0.750622   -1.627616
      6          1           0       -0.342001    0.396469    1.430237
      7          6           0        2.255735    0.120286   -0.917490
      8          1           0        1.023045   -1.341447    0.064064
      9          6           0       -1.620837   -1.740049   -0.604181
     10          1           0       -2.649017   -0.098172   -1.534483
     11          1           0        1.730867    0.141251   -1.875082
     12          1           0        2.705976    1.100840   -0.734457
     13          1           0       -0.834913   -1.970053   -1.329020
     14          1           0       -2.484510   -2.378676   -0.817511
     15          8           0        3.328540   -0.817648   -1.033017
     16          1           0        3.688246   -0.904546   -0.128114
     17          8           0        2.153014   -0.324728    1.429015
     18          1           0        1.690448   -0.904350    2.064679
     19          8           0        0.700676    1.976769    0.702686
     20          1           0        1.424265    1.855105    1.352501
     21          8           0       -1.526089    2.051056   -0.537649
     22          1           0       -0.823781    2.640169   -0.180433
     23          8           0       -2.872744   -0.020506    0.495787
     24          1           0       -3.010182    0.951604    0.478370
     25          8           0       -1.176604   -2.075999    0.711145
     26          1           0       -1.900622   -1.760406    1.293943
 ---------------------------------------------------------------------
 Rotational constants (GHZ):           1.2172527           0.6273183           0.5196235
 Standard basis: def2TZVPP (5D, 7F)
 There are   642 symmetry adapted cartesian basis functions of A   symmetry.
 There are   568 symmetry adapted basis functions of A   symmetry.
   568 basis functions,   850 primitive gaussians,   642 cartesian basis functions
    49 alpha electrons       49 beta electrons
       nuclear repulsion energy       837.8450560462 Hartrees.
 NAtoms=   26 NActive=   26 NUniq=   26 SFac= 1.00D+00 NAtFMM=   60 NAOKFM=F Big=F
 Integral buffers will be    131072 words long.
 Raffenetti 2 integral format.
 Two-electron integral symmetry is turned on.
 Nuclear repulsion after empirical dispersion term =      837.8257642752 Hartrees.
 One-electron integrals computed using PRISM.
   1 Symmetry operations used in ECPInt.
 ECPInt:  NShTT=   23436 NPrTT=   62434 LenC2=   22160 LenP2D=   46197.
 LDataN:  DoStor=T MaxTD1= 6 Len=  172
 NBasis=   568 RedAO= T EigKep=  6.59D-05  NBF=   568
 NBsUse=   568 1.00D-06 EigRej= -1.00D+00 NBFU=   568
 ExpMin= 9.52D-02 ExpMax= 2.70D+04 ExpMxC= 9.22D+02 IAcc=3 IRadAn=         5 AccDes= 0.00D+00
 Harris functional with IExCor= 4639 and IRadAn=       5 diagonalized for initial guess.
 HarFok:  IExCor= 4639 AccDes= 0.00D+00 IRadAn=         5 IDoV= 1 UseB2=F ITyADJ=14
 ICtDFT=  3500011 ScaDFX=  1.000000  1.000000  1.000000  1.000000
 FoFCou: FMM=F IPFlag=           0 FMFlag=      100000 FMFlg1=           0
         NFxFlg=           0 DoJE=T BraDBF=F KetDBF=T FulRan=T
         wScrn=  0.000000 ICntrl=       500 IOpCl=  0 I1Cent=   200000004 NGrid=           0
         NMat0=    1 NMatS0=      1 NMatT0=    0 NMatD0=    1 NMtDS0=    0 NMtDT0=    0
 Petite list used in FoFCou.
 Requested convergence on RMS density matrix=1.00D-08 within 128 cycles.
 Requested convergence on MAX density matrix=1.00D-06.
 Requested convergence on             energy=1.00D-06.
 No special actions if energy rises.
 Integral accuracy reduced to 1.0D-05 until final iterations.
 Initial convergence to 1.0D-05 achieved.  Increase integral accuracy.
 SCF Done:  E(RwB97XD) =  -688.468200293     A.U. after   14 cycles
            NFock= 14  Conv=0.20D-08     -V/T= 2.0050

 **********************************************************************

            Population analysis using the SCF Density.

 **********************************************************************

 Orbital symmetries:
       Occupied  (A) (A) (A) (A) (A) (A) (A) (A) (A) (A) (A) (A)
                 (A) (A) (A) (A) (A) (A) (A) (A) (A) (A) (A) (A)
                 (A) (A) (A) (A) (A) (A) (A) (A) (A) (A) (A) (A)
                 (A) (A) (A) (A) (A) (A) (A) (A) (A) (A) (A) (A)
                 (A)
       Virtual   (A) (A) (A) (A) (A) (A) (A) (A) (A) (A) (A) (A)
                 (A) (A) (A) (A) (A) (A) (A) (A) (A) (A) (A) (A)
                 (A) (A) (A) (A) (A) (A) (A) (A) (A) (A) (A) (A)
                 (A) (A) (A) (A) (A) (A) (A) (A) (A) (A) (A) (A)
                 (A) (A) (A) (A) (A) (A) (A) (A) (A) (A) (A) (A)
                 (A) (A) (A) (A) (A) (A) (A) (A) (A) (A) (A) (A)
                 (A) (A) (A) (A) (A) (A) (A) (A) (A) (A) (A) (A)
                 (A) (A) (A) (A) (A) (A) (A) (A) (A) (A) (A) (A)
                 (A) (A) (A) (A) (A) (A) (A) (A) (A) (A) (A) (A)
                 (A) (A) (A) (A) (A) (A) (A) (A) (A) (A) (A) (A)
                 (A) (A) (A) (A) (A) (A) (A) (A) (A) (A) (A) (A)
                 (A) (A) (A) (A) (A) (A) (A) (A) (A) (A) (A) (A)
                 (A) (A) (A) (A) (A) (A) (A) (A) (A) (A) (A) (A)
                 (A) (A) (A) (A) (A) (A) (A) (A) (A) (A) (A) (A)
                 (A) (A) (A) (A) (A) (A) (A) (A) (A) (A) (A) (A)
                 (A) (A) (A) (A) (A) (A) (A) (A) (A) (A) (A) (A)
                 (A) (A) (A) (A) (A) (A) (A) (A) (A) (A) (A) (A)
                 (A) (A) (A) (A) (A) (A) (A) (A) (A) (A) (A) (A)
                 (A) (A) (A) (A) (A) (A) (A) (A) (A) (A) (A) (A)
                 (A) (A) (A) (A) (A) (A) (A) (A) (A) (A) (A) (A)
                 (A) (A) (A) (A) (A) (A) (A) (A) (A) (A) (A) (A)
                 (A) (A) (A) (A) (A) (A) (A) (A) (A) (A) (A) (A)
                 (A) (A) (A) (A) (A) (A) (A) (A) (A) (A) (A) (A)
                 (A) (A) (A) (A) (A) (A) (A) (A) (A) (A) (A) (A)
                 (A) (A) (A) (A) (A) (A) (A) (A) (A) (A) (A) (A)
                 (A) (A) (A) (A) (A) (A) (A) (A) (A) (A) (A) (A)
                 (A) (A) (A) (A) (A) (A) (A) (A) (A) (A) (A) (A)
                 (A) (A) (A) (A) (A) (A) (A) (A) (A) (A) (A) (A)
                 (A) (A) (A) (A) (A) (A) (A) (A) (A) (A) (A) (A)
                 (A) (A) (A) (A) (A) (A) (A) (A) (A) (A) (A) (A)
                 (A) (A) (A) (A) (A) (A) (A) (A) (A) (A) (A) (A)
                 (A) (A) (A) (A) (A) (A) (A) (A) (A) (A) (A) (A)
                 (A) (A) (A) (A) (A) (A) (A) (A) (A) (A) (A) (A)
                 (A) (A) (A) (A) (A) (A) (A) (A) (A) (A) (A) (A)
                 (A) (A) (A) (A) (A) (A) (A) (A) (A) (A) (A) (A)
                 (A) (A) (A) (A) (A) (A) (A) (A) (A) (A) (A) (A)
                 (A) (A) (A) (A) (A) (A) (A) (A) (A) (A) (A) (A)
                 (A) (A) (A) (A) (A) (A) (A) (A) (A) (A) (A) (A)
                 (A) (A) (A) (A) (A) (A) (A) (A) (A) (A) (A) (A)
                 (A) (A) (A) (A) (A) (A) (A) (A) (A) (A) (A) (A)
                 (A) (A) (A) (A) (A) (A) (A) (A) (A) (A) (A) (A)
                 (A) (A) (A) (A) (A) (A) (A) (A) (A) (A) (A) (A)
                 (A) (A) (A) (A) (A) (A) (A) (A) (A) (A) (A) (A)
                 (A) (A) (A)
 The electronic state is 1-A.
 Alpha  occ. eigenvalues --  -19.27763 -19.26931 -19.26072 -19.25830 -19.25769
 Alpha  occ. eigenvalues --  -19.24480 -10.35574 -10.35428 -10.35278 -10.35081
 Alpha  occ. eigenvalues --  -10.34550 -10.33515  -1.16214  -1.14961  -1.13740
 Alpha  occ. eigenvalues --   -1.12042  -1.11157  -1.10436  -0.89269  -0.85469
 Alpha  occ. eigenvalues --   -0.80606  -0.75611  -0.71308  -0.68741  -0.64194
 Alpha  occ. eigenvalues --   -0.63357  -0.60809  -0.60572  -0.59243  -0.58228
 Alpha  occ. eigenvalues --   -0.57038  -0.53943  -0.53389  -0.52592  -0.51724
 Alpha  occ. eigenvalues --   -0.50933  -0.49315  -0.46943  -0.45822  -0.45009
 Alpha  occ. eigenvalues --   -0.44099  -0.43288  -0.42069  -0.41139  -0.38324
 Alpha  occ. eigenvalues --   -0.37754  -0.37283  -0.36507  -0.35268
 Alpha virt. eigenvalues --    0.08385   0.10633   0.11213   0.11508   0.14301
 Alpha virt. eigenvalues --    0.14433   0.14994   0.16184   0.17328   0.18913
 Alpha virt. eigenvalues --    0.19586   0.20006   0.20224   0.21147   0.21584
 Alpha virt. eigenvalues --    0.22484   0.23143   0.23974   0.25540   0.26072
 Alpha virt. eigenvalues --    0.27812   0.28467   0.29441   0.31981   0.33776
 Alpha virt. eigenvalues --    0.34941   0.35289   0.36183   0.37257   0.38076
 Alpha virt. eigenvalues --    0.38515   0.38774   0.39655   0.40603   0.41001
 Alpha virt. eigenvalues --    0.41405   0.41966   0.43091   0.44163   0.45259
 Alpha virt. eigenvalues --    0.45962   0.46351   0.46753   0.47999   0.48213
 Alpha virt. eigenvalues --    0.49552   0.49923   0.49957   0.50523   0.50833
 Alpha virt. eigenvalues --    0.51754   0.52028   0.52371   0.53291   0.54271
 Alpha virt. eigenvalues --    0.55675   0.56358   0.57183   0.57647   0.57989
 Alpha virt. eigenvalues --    0.60283   0.61672   0.62160   0.62801   0.64134
 Alpha virt. eigenvalues --    0.64870   0.65644   0.68049   0.68606   0.68691
 Alpha virt. eigenvalues --    0.69464   0.70246   0.70718   0.72518   0.72719
 Alpha virt. eigenvalues --    0.73036   0.75484   0.76054   0.76475   0.78902
 Alpha virt. eigenvalues --    0.80697   0.82486   0.83978   0.84934   0.86460
 Alpha virt. eigenvalues --    0.87344   0.88407   0.89336   0.89636   0.91849
 Alpha virt. eigenvalues --    0.92224   0.94092   0.94234   0.95440   0.96942
 Alpha virt. eigenvalues --    0.97132   0.98088   0.99115   0.99299   1.01517
 Alpha virt. eigenvalues --    1.03297   1.03841   1.06002   1.06503   1.07724
 Alpha virt. eigenvalues --    1.09052   1.09841   1.10463   1.11165   1.11677
 Alpha virt. eigenvalues --    1.13130   1.13880   1.16362   1.17302   1.18210
 Alpha virt. eigenvalues --    1.18791   1.20272   1.21257   1.22929   1.23796
 Alpha virt. eigenvalues --    1.25147   1.26074   1.26455   1.27158   1.28879
 Alpha virt. eigenvalues --    1.30680   1.31531   1.32695   1.33063   1.35812
 Alpha virt. eigenvalues --    1.36276   1.36831   1.38542   1.38620   1.39578
 Alpha virt. eigenvalues --    1.40375   1.41321   1.42686   1.45460   1.46017
 Alpha virt. eigenvalues --    1.47206   1.47740   1.48644   1.51607   1.52366
 Alpha virt. eigenvalues --    1.53709   1.54853   1.55048   1.56001   1.57282
 Alpha virt. eigenvalues --    1.59660   1.60466   1.60851   1.64047   1.65082
 Alpha virt. eigenvalues --    1.67477   1.67881   1.69969   1.71018   1.72481
 Alpha virt. eigenvalues --    1.73948   1.77948   1.79343   1.81894   1.84769
 Alpha virt. eigenvalues --    1.86401   1.88118   1.89489   1.92227   1.93445
 Alpha virt. eigenvalues --    1.95322   1.96298   1.97181   1.97593   1.98527
 Alpha virt. eigenvalues --    2.00211   2.00612   2.01739   2.03025   2.03987
 Alpha virt. eigenvalues --    2.06059   2.06451   2.08186   2.10065   2.10935
 Alpha virt. eigenvalues --    2.11400   2.13428   2.14544   2.15561   2.16178
 Alpha virt. eigenvalues --    2.17040   2.18229   2.19048   2.21106   2.24624
 Alpha virt. eigenvalues --    2.26115   2.26757   2.29381   2.29971   2.31328
 Alpha virt. eigenvalues --    2.33676   2.34626   2.35665   2.38816   2.41220
 Alpha virt. eigenvalues --    2.42272   2.44452   2.49081   2.50266   2.54900
 Alpha virt. eigenvalues --    2.55868   2.57474   2.58751   2.60431   2.62115
 Alpha virt. eigenvalues --    2.65200   2.65920   2.66434   2.69515   2.69909
 Alpha virt. eigenvalues --    2.71253   2.73240   2.74695   2.76219   2.77714
 Alpha virt. eigenvalues --    2.78218   2.80997   2.81061   2.81886   2.82805
 Alpha virt. eigenvalues --    2.85028   2.87892   2.88725   2.90500   2.91324
 Alpha virt. eigenvalues --    2.91646   2.92071   2.95048   2.96446   2.97216
 Alpha virt. eigenvalues --    2.97963   2.99084   3.01764   3.04199   3.04317
 Alpha virt. eigenvalues --    3.05363   3.07243   3.09042   3.10054   3.10109
 Alpha virt. eigenvalues --    3.11096   3.13100   3.13688   3.14225   3.15255
 Alpha virt. eigenvalues --    3.15836   3.17494   3.18593   3.19767   3.20691
 Alpha virt. eigenvalues --    3.22200   3.22762   3.25112   3.25858   3.26383
 Alpha virt. eigenvalues --    3.27648   3.29739   3.31063   3.31702   3.32408
 Alpha virt. eigenvalues --    3.32951   3.34162   3.36192   3.36938   3.37786
 Alpha virt. eigenvalues --    3.38007   3.39936   3.40301   3.41471   3.42498
 Alpha virt. eigenvalues --    3.43574   3.44393   3.45985   3.46545   3.47887
 Alpha virt. eigenvalues --    3.48922   3.50341   3.51546   3.52548   3.54797
 Alpha virt. eigenvalues --    3.55662   3.55790   3.56822   3.57600   3.58898
 Alpha virt. eigenvalues --    3.60686   3.61486   3.62628   3.65535   3.65816
 Alpha virt. eigenvalues --    3.67324   3.68157   3.69682   3.70090   3.71394
 Alpha virt. eigenvalues --    3.72771   3.74125   3.74993   3.76333   3.77585
 Alpha virt. eigenvalues --    3.78087   3.79716   3.80570   3.82603   3.82747
 Alpha virt. eigenvalues --    3.85091   3.85366   3.88180   3.88837   3.89560
 Alpha virt. eigenvalues --    3.90441   3.91695   3.93248   3.93518   3.95804
 Alpha virt. eigenvalues --    3.96836   3.97508   3.98535   4.00022   4.00846
 Alpha virt. eigenvalues --    4.02144   4.02898   4.04335   4.04952   4.06568
 Alpha virt. eigenvalues --    4.08013   4.09872   4.10121   4.11282   4.11410
 Alpha virt. eigenvalues --    4.12731   4.13284   4.13847   4.15183   4.16226
 Alpha virt. eigenvalues --    4.17521   4.19181   4.20585   4.22578   4.23212
 Alpha virt. eigenvalues --    4.24294   4.24784   4.25643   4.26652   4.27879
 Alpha virt. eigenvalues --    4.28944   4.30111   4.30719   4.32108   4.33804
 Alpha virt. eigenvalues --    4.34236   4.34499   4.36590   4.37396   4.40373
 Alpha virt. eigenvalues --    4.43317   4.43713   4.44520   4.45120   4.47024
 Alpha virt. eigenvalues --    4.47601   4.50480   4.51008   4.53090   4.54600
 Alpha virt. eigenvalues --    4.54953   4.55959   4.56512   4.58468   4.61180
 Alpha virt. eigenvalues --    4.62529   4.62931   4.65690   4.70302   4.72498
 Alpha virt. eigenvalues --    4.73095   4.77006   4.78039   4.80515   4.80903
 Alpha virt. eigenvalues --    4.83365   4.85366   4.86294   4.88461   4.90059
 Alpha virt. eigenvalues --    4.91338   4.93459   4.94033   4.95194   4.97377
 Alpha virt. eigenvalues --    4.98337   5.00261   5.01368   5.03061   5.04447
 Alpha virt. eigenvalues --    5.05284   5.06083   5.07403   5.08374   5.08743
 Alpha virt. eigenvalues --    5.12215   5.12986   5.16451   5.17842   5.18911
 Alpha virt. eigenvalues --    5.19981   5.21543   5.23941   5.26906   5.30107
 Alpha virt. eigenvalues --    5.32898   5.34468   5.37631   5.40900   5.42079
 Alpha virt. eigenvalues --    5.44395   5.47229   5.54333   5.56346   5.58604
 Alpha virt. eigenvalues --    5.59853   5.61164   5.63436   5.64337   5.66666
 Alpha virt. eigenvalues --    5.67558   5.69891   5.70436   5.72285   5.72538
 Alpha virt. eigenvalues --    5.73437   5.75902   5.78397   5.84444   5.85050
 Alpha virt. eigenvalues --    5.86353   5.87748   5.92431   5.93699   5.95149
 Alpha virt. eigenvalues --    5.98749   6.00804   6.02474   6.08681   6.11702
 Alpha virt. eigenvalues --    6.14683   6.15909   6.17061   6.25021   6.51361
 Alpha virt. eigenvalues --    6.52753   6.53665   6.54126   6.55015   6.56628
 Alpha virt. eigenvalues --    6.68199   6.71501   6.73404   6.74087   6.75162
 Alpha virt. eigenvalues --    6.76537   6.76949   6.77306   6.79260   6.80018
 Alpha virt. eigenvalues --    6.80745   6.81080   6.82061   6.87644   6.88051
 Alpha virt. eigenvalues --    6.88502   6.91978   6.93014   6.98783   7.00889
 Alpha virt. eigenvalues --    7.02397   7.03241   7.03875   7.06164   7.17257
 Alpha virt. eigenvalues --    7.17837   7.19282   7.19783   7.22403   7.25229
 Alpha virt. eigenvalues --    7.40662   7.41458   7.43372   7.44264   7.45810
 Alpha virt. eigenvalues --    7.48164   7.50698   7.53290   7.55426   7.56959
 Alpha virt. eigenvalues --    7.62019   7.72588  23.10524  23.15539  23.20172
 Alpha virt. eigenvalues --   23.20421  23.43439  23.45704  44.10163  44.13326
 Alpha virt. eigenvalues --   44.23418  44.25787  44.32973  44.35488
          Condensed to atoms (all electrons):
               1          2          3          4          5          6
     1  C    5.167019   0.075419   0.198912   0.011941  -0.041838   0.390345
     2  C    0.075419   5.122400  -0.009360   0.194031   0.456620  -0.036217
     3  C    0.198912  -0.009360   5.055329   0.004099  -0.005795  -0.024679
     4  C    0.011941   0.194031   0.004099   5.006357  -0.055917   0.000810
     5  H   -0.041838   0.456620  -0.005795  -0.055917   0.582242   0.007095
     6  H    0.390345  -0.036217  -0.024679   0.000810   0.007095   0.582915
     7  C   -0.007827   0.001914   0.258782  -0.001121   0.003275   0.007373
     8  H   -0.039948   0.005484   0.437888  -0.003423   0.001304   0.001541
     9  C    0.003647   0.032160  -0.002399   0.227817  -0.003362  -0.014084
    10  H    0.007410  -0.047283   0.001685   0.461243  -0.005128   0.001167
    11  H   -0.018873   0.008654  -0.005828  -0.000120  -0.002512  -0.000569
    12  H    0.007118  -0.002967  -0.037570  -0.000237   0.000559   0.000424
    13  H   -0.007656   0.005891   0.005779  -0.048540   0.001013   0.000342
    14  H    0.001223   0.004278  -0.000403  -0.025099  -0.000560   0.000099
    15  O    0.010120  -0.000285  -0.042329  -0.000195  -0.000171  -0.000429
    16  H   -0.000507   0.000122  -0.004807   0.000018  -0.000080  -0.000180
    17  O   -0.042751   0.012646   0.216584  -0.000866   0.000343   0.001801
    18  H    0.011437  -0.000102  -0.046567   0.000189   0.000064   0.005266
    19  O    0.219537  -0.034648  -0.045768   0.003851   0.000286  -0.033651
    20  H   -0.050122   0.016297   0.004703  -0.000891  -0.000152  -0.003984
    21  O    0.001200   0.234462   0.005537  -0.072362  -0.031466   0.002500
    22  H   -0.014111  -0.036028   0.001825   0.008778  -0.000639   0.000465
    23  O   -0.018587  -0.034290   0.003977   0.257633   0.004607   0.022362
    24  H    0.003210  -0.008806  -0.000201  -0.049428   0.001727  -0.000247
    25  O    0.027111  -0.038150  -0.016050  -0.012915   0.000082   0.010625
    26  H   -0.002423  -0.000470   0.001896  -0.014052  -0.000058   0.001209
               7          8          9         10         11         12
     1  C   -0.007827  -0.039948   0.003647   0.007410  -0.018873   0.007118
     2  C    0.001914   0.005484   0.032160  -0.047283   0.008654  -0.002967
     3  C    0.258782   0.437888  -0.002399   0.001685  -0.005828  -0.037570
     4  C   -0.001121  -0.003423   0.227817   0.461243  -0.000120  -0.000237
     5  H    0.003275   0.001304  -0.003362  -0.005128  -0.002512   0.000559
     6  H    0.007373   0.001541  -0.014084   0.001167  -0.000569   0.000424
     7  C    4.718155  -0.035654  -0.001645  -0.000330   0.390072   0.415295
     8  H   -0.035654   0.549874  -0.001363  -0.000235  -0.006527   0.009408
     9  C   -0.001645  -0.001363   4.809911  -0.048825  -0.000874   0.000223
    10  H   -0.000330  -0.000235  -0.048825   0.575078   0.000075  -0.000016
    11  H    0.390072  -0.006527  -0.000874   0.000075   0.625961  -0.036123
    12  H    0.415295   0.009408   0.000223  -0.000016  -0.036123   0.605770
    13  H   -0.001583  -0.007593   0.423348   0.002221   0.000435   0.000043
    14  H    0.000120   0.001050   0.423438  -0.004828  -0.000032   0.000002
    15  O    0.280415   0.012566   0.000048  -0.000003  -0.032295  -0.045369
    16  H   -0.048497  -0.002375  -0.000046  -0.000000   0.010962  -0.008227
    17  O   -0.051984  -0.037535  -0.000308   0.000013   0.003692  -0.004260
    18  H    0.010879  -0.010807  -0.000352  -0.000003  -0.000550  -0.000439
    19  O   -0.009054   0.003455   0.000271  -0.000110   0.000445   0.015798
    20  H   -0.004309   0.000888   0.000068   0.000031   0.000236   0.000414
    21  O   -0.000360   0.000148   0.003782  -0.000395  -0.000070  -0.000022
    22  H    0.000209  -0.000017  -0.001044  -0.000366  -0.000144   0.000137
    23  O   -0.000150   0.000396  -0.052507  -0.036967   0.000014   0.000001
    24  H    0.000012   0.000037   0.010733  -0.006157   0.000000   0.000002
    25  O    0.002276   0.011824   0.216481   0.004386   0.000033  -0.000037
    26  H   -0.000141  -0.001960  -0.025891   0.001119   0.000013   0.000001
              13         14         15         16         17         18
     1  C   -0.007656   0.001223   0.010120  -0.000507  -0.042751   0.011437
     2  C    0.005891   0.004278  -0.000285   0.000122   0.012646  -0.000102
     3  C    0.005779  -0.000403  -0.042329  -0.004807   0.216584  -0.046567
     4  C   -0.048540  -0.025099  -0.000195   0.000018  -0.000866   0.000189
     5  H    0.001013  -0.000560  -0.000171  -0.000080   0.000343   0.000064
     6  H    0.000342   0.000099  -0.000429  -0.000180   0.001801   0.005266
     7  C   -0.001583   0.000120   0.280415  -0.048497  -0.051984   0.010879
     8  H   -0.007593   0.001050   0.012566  -0.002375  -0.037535  -0.010807
     9  C    0.423348   0.423438   0.000048  -0.000046  -0.000308  -0.000352
    10  H    0.002221  -0.004828  -0.000003  -0.000000   0.000013  -0.000003
    11  H    0.000435  -0.000032  -0.032295   0.010962   0.003692  -0.000550
    12  H    0.000043   0.000002  -0.045369  -0.008227  -0.004260  -0.000439
    13  H    0.599605  -0.028944   0.000199   0.000008   0.000009  -0.000088
    14  H   -0.028944   0.567924   0.000002  -0.000000  -0.000010   0.000007
    15  O    0.000199   0.000002   7.875083   0.319367  -0.009542  -0.000413
    16  H    0.000008  -0.000000   0.319367   0.519716   0.021842  -0.001643
    17  O    0.000009  -0.000010  -0.009542   0.021842   7.957467   0.318349
    18  H   -0.000088   0.000007  -0.000413  -0.001643   0.318349   0.512075
    19  O   -0.000009   0.000016   0.000143   0.000019  -0.012514   0.000228
    20  H   -0.000004   0.000000  -0.000089  -0.000012   0.023426  -0.001571
    21  O    0.000067  -0.000166   0.000002   0.000003  -0.000201   0.000002
    22  H   -0.000006   0.000026   0.000002   0.000001  -0.000138   0.000005
    23  O    0.003026  -0.000301   0.000000   0.000000   0.000020  -0.000043
    24  H   -0.000391  -0.000496   0.000000  -0.000000   0.000001  -0.000002
    25  O   -0.036265  -0.036040  -0.000015  -0.000008   0.000229   0.002177
    26  H    0.008979  -0.006128  -0.000001   0.000001   0.000026  -0.000162
              19         20         21         22         23         24
     1  C    0.219537  -0.050122   0.001200  -0.014111  -0.018587   0.003210
     2  C   -0.034648   0.016297   0.234462  -0.036028  -0.034290  -0.008806
     3  C   -0.045768   0.004703   0.005537   0.001825   0.003977  -0.000201
     4  C    0.003851  -0.000891  -0.072362   0.008778   0.257633  -0.049428
     5  H    0.000286  -0.000152  -0.031466  -0.000639   0.004607   0.001727
     6  H   -0.033651  -0.003984   0.002500   0.000465   0.022362  -0.000247
     7  C   -0.009054  -0.004309  -0.000360   0.000209  -0.000150   0.000012
     8  H    0.003455   0.000888   0.000148  -0.000017   0.000396   0.000037
     9  C    0.000271   0.000068   0.003782  -0.001044  -0.052507   0.010733
    10  H   -0.000110   0.000031  -0.000395  -0.000366  -0.036967  -0.006157
    11  H    0.000445   0.000236  -0.000070  -0.000144   0.000014   0.000000
    12  H    0.015798   0.000414  -0.000022   0.000137   0.000001   0.000002
    13  H   -0.000009  -0.000004   0.000067  -0.000006   0.003026  -0.000391
    14  H    0.000016   0.000000  -0.000166   0.000026  -0.000301  -0.000496
    15  O    0.000143  -0.000089   0.000002   0.000002   0.000000   0.000000
    16  H    0.000019  -0.000012   0.000003   0.000001   0.000000  -0.000000
    17  O   -0.012514   0.023426  -0.000201  -0.000138   0.000020   0.000001
    18  H    0.000228  -0.001571   0.000002   0.000005  -0.000043  -0.000002
    19  O    7.952935   0.321132  -0.027137   0.034289  -0.000249  -0.000001
    20  H    0.321132   0.498098   0.000266  -0.002540   0.000068  -0.000012
    21  O   -0.027137   0.000266   7.939206   0.334310  -0.015309   0.036538
    22  H    0.034289  -0.002540   0.334310   0.452578  -0.000025  -0.001440
    23  O   -0.000249   0.000068  -0.015309  -0.000025   7.933414   0.332722
    24  H   -0.000001  -0.000012   0.036538  -0.001440   0.332722   0.470972
    25  O    0.000303   0.000039   0.000126   0.000084  -0.013568   0.000064
    26  H   -0.000023   0.000001   0.000030   0.000001   0.022779  -0.001434
              25         26
     1  C    0.027111  -0.002423
     2  C   -0.038150  -0.000470
     3  C   -0.016050   0.001896
     4  C   -0.012915  -0.014052
     5  H    0.000082  -0.000058
     6  H    0.010625   0.001209
     7  C    0.002276  -0.000141
     8  H    0.011824  -0.001960
     9  C    0.216481  -0.025891
    10  H    0.004386   0.001119
    11  H    0.000033   0.000013
    12  H   -0.000037   0.000001
    13  H   -0.036265   0.008979
    14  H   -0.036040  -0.006128
    15  O   -0.000015  -0.000001
    16  H   -0.000008   0.000001
    17  O    0.000229   0.000026
    18  H    0.002177  -0.000162
    19  O    0.000303  -0.000023
    20  H    0.000039   0.000001
    21  O    0.000126   0.000030
    22  H    0.000084   0.000001
    23  O   -0.013568   0.022779
    24  H    0.000064  -0.001434
    25  O    7.947900   0.314235
    26  H    0.314235   0.493831
 Mulliken charges:
               1
     1  C    0.108998
     2  C    0.078231
     3  C    0.044762
     4  C    0.108397
     5  H    0.088461
     6  H    0.077702
     7  C    0.073878
     8  H    0.111576
     9  C    0.000770
    10  H    0.096218
    11  H    0.063926
    12  H    0.080070
    13  H    0.080113
    14  H    0.104822
    15  O   -0.366810
    16  H    0.194322
    17  O   -0.396337
    18  H    0.202061
    19  O   -0.389544
    20  H    0.198015
    21  O   -0.410690
    22  H    0.223788
    23  O   -0.409023
    24  H    0.212595
    25  O   -0.384927
    26  H    0.208623
 Sum of Mulliken charges =  -0.00000
 Mulliken charges with hydrogens summed into heavy atoms:
               1
     1  C    0.186700
     2  C    0.166693
     3  C    0.156338
     4  C    0.204615
     7  C    0.217874
     9  C    0.185705
    15  O   -0.172488
    17  O   -0.194276
    19  O   -0.191528
    21  O   -0.186902
    23  O   -0.196428
    25  O   -0.176304
 Electronic spatial extent (au):  <R**2>=           2316.9074
 Charge=             -0.0000 electrons
 Dipole moment (field-independent basis, Debye):
    X=             -0.6809    Y=             -0.0441    Z=              1.1048  Tot=              1.2986
 Quadrupole moment (field-independent basis, Debye-Ang):
   XX=            -79.6281   YY=            -76.0506   ZZ=            -68.1431
   XY=              4.1027   XZ=              6.7598   YZ=              0.5456
 Traceless Quadrupole moment (field-independent basis, Debye-Ang):
   XX=             -5.0208   YY=             -1.4433   ZZ=              6.4642
   XY=              4.1027   XZ=              6.7598   YZ=              0.5456
 Octapole moment (field-independent basis, Debye-Ang**2):
  XXX=            -11.2258  YYY=             10.1152  ZZZ=             20.8912  XYY=              2.3230
  XXY=              6.0196  XXZ=             21.7125  XZZ=             -5.9299  YZZ=             -2.8315
  YYZ=              8.1189  XYZ=            -12.5669
 Hexadecapole moment (field-independent basis, Debye-Ang**3):
 XXXX=          -1728.9196 YYYY=           -762.5913 ZZZZ=           -340.5474 XXXY=              7.2810
 XXXZ=             79.4132 YYYX=              0.9507 YYYZ=             15.8378 ZZZX=             13.2854
 ZZZY=            -17.3287 XXYY=           -383.9659 XXZZ=           -361.6845 YYZZ=           -180.5742
 XXYZ=            -13.5257 YYXZ=              8.2616 ZZXY=             13.3942
 N-N= 8.378257642752D+02 E-N=-3.292632800475D+03  KE= 6.850109918073D+02
   1 Symmetry operations used in ECPInt.
 ECPInt:  NShTT=   23436 NPrTT=   62434 LenC2=   22160 LenP2D=   46197.
 LDataN:  DoStor=T MaxTD1= 7 Len=  274
 Calling FoFJK, ICntrl=      2127 FMM=F ISym2X=0 I1Cent= 0 IOpClX= 0 NMat=1 NMatS=1 NMatT=0.
 ***** Axes restored to original set *****
 -------------------------------------------------------------------
 Center     Atomic                   Forces (Hartrees/Bohr)
 Number     Number              X              Y              Z
 -------------------------------------------------------------------
      1        6          -0.007991256    0.002842375   -0.008087330
      2        6           0.003577047   -0.007264593   -0.020902943
      3        6          -0.002765098   -0.000777574   -0.005181539
      4        6          -0.000877186   -0.012775623   -0.008091715
      5        1          -0.001819356    0.001095997    0.005349869
      6        1           0.005165446    0.002826924    0.007743442
      7        6          -0.017501235    0.005864209    0.009015231
      8        1           0.006599851   -0.001616714   -0.003230649
      9        6          -0.009724866   -0.015405762    0.001018125
     10        1          -0.002103333    0.006612476   -0.000617293
     11        1          -0.002816932   -0.001811767    0.001229879
     12        1           0.005248126   -0.006660331   -0.001836455
     13        1          -0.002732152   -0.002543164   -0.001923732
     14        1           0.005031367    0.003929702   -0.003744595
     15        8          -0.008290400   -0.011733565   -0.001870973
     16        1           0.016306552    0.007218392    0.000348377
     17        8           0.005687370   -0.011997546    0.008596180
     18        1           0.001471935    0.015077575   -0.011412550
     19        8          -0.012001468    0.004167497    0.013495951
     20        1           0.019511402   -0.001980503   -0.002510954
     21        8          -0.016581911    0.010504173    0.005002966
     22        1           0.014700197   -0.007818778    0.011134102
     23        8           0.005566236    0.013103937   -0.011766215
     24        1          -0.005939341    0.001094304    0.018001282
     25        8           0.006361696   -0.011211452   -0.004432541
     26        1          -0.004082691    0.019259813    0.004674081
 -------------------------------------------------------------------
 Cartesian Forces:  Max     0.020902943 RMS     0.008795046

 GradGradGradGradGradGradGradGradGradGradGradGradGradGradGradGradGradGrad
 Berny optimization.
 FormGI is forming the generalized inverse of G from B-inverse, IUseBI=4.
 Internal  Forces:  Max     0.020052311 RMS     0.005824200
 Search for a local minimum.
 Step number   1 out of a maximum of  140
 All quantities printed in internal units (Hartrees-Bohrs-Radians)
 Mixed Optimization -- RFO/linear search
 Second derivative matrix not updated -- first step.
 ITU=  0
     Eigenvalues ---    0.00230   0.00230   0.00230   0.00303   0.00447
     Eigenvalues ---    0.01003   0.01007   0.01066   0.01130   0.01299
     Eigenvalues ---    0.01316   0.03571   0.03629   0.03800   0.03820
     Eigenvalues ---    0.04704   0.04711   0.04803   0.04931   0.05101
     Eigenvalues ---    0.05149   0.05433   0.05730   0.07795   0.07903
     Eigenvalues ---    0.08013   0.08103   0.11482   0.11526   0.13704
     Eigenvalues ---    0.13766   0.16000   0.16000   0.16000   0.16000
     Eigenvalues ---    0.16000   0.16000   0.16709   0.17199   0.17219
     Eigenvalues ---    0.17508   0.19213   0.19224   0.19428   0.19701
     Eigenvalues ---    0.22005   0.22006   0.28141   0.28352   0.28381
     Eigenvalues ---    0.28969   0.29972   0.34048   0.34145   0.34228
     Eigenvalues ---    0.34309   0.34392   0.34399   0.34559   0.34708
     Eigenvalues ---    0.37975   0.38018   0.38596   0.39249   0.41036
     Eigenvalues ---    0.41222   0.50651   0.51012   0.51084   0.51361
     Eigenvalues ---    0.51845   0.52026
 RFO step:  Lambda=-1.69635291D-02 EMin= 2.30000000D-03
 Linear search not attempted -- first point.
 Iteration  1 RMS(Cart)=  0.08769553 RMS(Int)=  0.00178574
 Iteration  2 RMS(Cart)=  0.00287128 RMS(Int)=  0.00042951
 Iteration  3 RMS(Cart)=  0.00000270 RMS(Int)=  0.00042951
 Iteration  4 RMS(Cart)=  0.00000000 RMS(Int)=  0.00042951
 Variable       Old X    -DE/DX   Delta X   Delta X   Delta X     New X
                                 (Linear)    (Quad)   (Total)
    R1        2.91830  -0.00863   0.00000  -0.02892  -0.02892   2.88939
    R2        2.91314  -0.00868   0.00000  -0.02887  -0.02887   2.88427
    R3        2.07086  -0.00254   0.00000  -0.00708  -0.00708   2.06378
    R4        2.74402  -0.01227   0.00000  -0.03093  -0.03093   2.71309
    R5        2.91375  -0.00986   0.00000  -0.03281  -0.03281   2.88094
    R6        2.06674   0.00038   0.00000   0.00106   0.00106   2.06780
    R7        2.74339  -0.01555   0.00000  -0.03917  -0.03917   2.70422
    R8        2.90068  -0.00996   0.00000  -0.03246  -0.03246   2.86821
    R9        2.06151  -0.00141   0.00000  -0.00386  -0.00386   2.05765
   R10        2.73508  -0.00735   0.00000  -0.01825  -0.01825   2.71683
   R11        2.88020  -0.00401   0.00000  -0.01267  -0.01267   2.86753
   R12        2.07250  -0.00121   0.00000  -0.00337  -0.00337   2.06912
   R13        2.72587  -0.01470   0.00000  -0.03590  -0.03590   2.68997
   R14        2.06396  -0.00311   0.00000  -0.00858  -0.00858   2.05538
   R15        2.06811  -0.00115   0.00000  -0.00318  -0.00318   2.06493
   R16        2.70170  -0.00769   0.00000  -0.01799  -0.01799   2.68371
   R17        2.06661  -0.00282   0.00000  -0.00783  -0.00783   2.05879
   R18        2.06947  -0.00093   0.00000  -0.00258  -0.00258   2.06690
   R19        2.69926  -0.00510   0.00000  -0.01189  -0.01189   2.68737
   R20        1.84748  -0.01778   0.00000  -0.03320  -0.03320   1.81428
   R21        1.84575  -0.01881   0.00000  -0.03501  -0.03501   1.81073
   R22        1.85216  -0.01972   0.00000  -0.03716  -0.03716   1.81500
   R23        1.85914  -0.01976   0.00000  -0.03774  -0.03774   1.82140
   R24        1.85558  -0.01876   0.00000  -0.03560  -0.03560   1.81998
   R25        1.85487  -0.02005   0.00000  -0.03799  -0.03799   1.81688
    A1        2.02207   0.00016   0.00000  -0.01306  -0.01346   2.00861
    A2        1.92443  -0.00094   0.00000  -0.02324  -0.02384   1.90058
    A3        1.87251  -0.00358   0.00000  -0.01657  -0.01631   1.85621
    A4        1.92486  -0.00212   0.00000  -0.02230  -0.02351   1.90135
    A5        1.88199   0.00259   0.00000   0.01808   0.01795   1.89994
    A6        1.82634   0.00445   0.00000   0.06755   0.06774   1.89408
    A7        2.03803  -0.00397   0.00000  -0.02936  -0.02949   2.00854
    A8        1.93200  -0.00111   0.00000  -0.01055  -0.01201   1.91999
    A9        1.87807   0.00743   0.00000   0.04434   0.04386   1.92194
   A10        1.91554   0.00150   0.00000  -0.01156  -0.01198   1.90356
   A11        1.83690  -0.00509   0.00000  -0.02670  -0.02606   1.81084
   A12        1.85137   0.00178   0.00000   0.04255   0.04223   1.89360
   A13        1.99019   0.00483   0.00000   0.01463   0.01461   2.00480
   A14        1.97474  -0.00475   0.00000  -0.03683  -0.03690   1.93784
   A15        1.87805   0.00093   0.00000   0.00683   0.00696   1.88501
   A16        1.89707  -0.00019   0.00000  -0.00447  -0.00445   1.89262
   A17        1.85920  -0.00506   0.00000  -0.02376  -0.02374   1.83546
   A18        1.85610   0.00422   0.00000   0.04723   0.04742   1.90352
   A19        2.02957   0.00205   0.00000   0.00035   0.00031   2.02988
   A20        1.88839  -0.00413   0.00000  -0.03093  -0.03120   1.85719
   A21        1.89928   0.00364   0.00000   0.01877   0.01871   1.91799
   A22        1.90373   0.00114   0.00000   0.00105   0.00101   1.90474
   A23        1.87817  -0.00602   0.00000  -0.03022  -0.03010   1.84806
   A24        1.85745   0.00360   0.00000   0.04632   0.04654   1.90399
   A25        1.95556  -0.00231   0.00000  -0.03015  -0.03063   1.92493
   A26        1.95231  -0.00535   0.00000  -0.02701  -0.02841   1.92390
   A27        1.90266   0.00415   0.00000   0.02367   0.02348   1.92613
   A28        1.90407   0.00109   0.00000  -0.00859  -0.00954   1.89453
   A29        1.87795  -0.00273   0.00000  -0.02161  -0.02131   1.85664
   A30        1.86775   0.00563   0.00000   0.06862   0.06868   1.93643
   A31        1.95679  -0.00221   0.00000  -0.02488  -0.02500   1.93178
   A32        1.92303  -0.00613   0.00000  -0.02638  -0.02798   1.89505
   A33        1.91295   0.00919   0.00000   0.04280   0.04251   1.95546
   A34        1.89126   0.00164   0.00000  -0.00409  -0.00445   1.88681
   A35        1.91491  -0.00620   0.00000  -0.04356  -0.04296   1.87195
   A36        1.86241   0.00386   0.00000   0.05941   0.05931   1.92173
   A37        1.83341   0.00264   0.00000   0.01491   0.01491   1.84833
   A38        1.85051   0.00434   0.00000   0.02451   0.02451   1.87502
   A39        1.83555   0.00276   0.00000   0.01560   0.01560   1.85115
   A40        1.81859   0.00560   0.00000   0.03165   0.03165   1.85024
   A41        1.81374   0.00325   0.00000   0.01836   0.01836   1.83210
   A42        1.81494   0.00386   0.00000   0.02180   0.02180   1.83674
    D1        1.52117  -0.00151   0.00000  -0.05680  -0.05642   1.46475
    D2       -0.68717   0.00073   0.00000  -0.00623  -0.00633  -0.69350
    D3       -2.70293  -0.00504   0.00000  -0.07669  -0.07681  -2.77975
    D4       -0.68018   0.00209   0.00000   0.00466   0.00488  -0.67530
    D5       -2.88852   0.00434   0.00000   0.05523   0.05497  -2.83355
    D6        1.37890  -0.00144   0.00000  -0.01523  -0.01551   1.36339
    D7       -2.65931  -0.00076   0.00000  -0.05435  -0.05397  -2.71327
    D8        1.41554   0.00149   0.00000  -0.00378  -0.00388   1.41166
    D9       -0.60023  -0.00428   0.00000  -0.07424  -0.07436  -0.67458
   D10        1.13199   0.00080   0.00000   0.00213   0.00195   1.13394
   D11       -1.04802   0.00104   0.00000   0.02711   0.02678  -1.02124
   D12       -3.09317  -0.00201   0.00000  -0.01418  -0.01428  -3.10745
   D13       -2.95006  -0.00220   0.00000  -0.05982  -0.05954  -3.00960
   D14        1.15311  -0.00196   0.00000  -0.03484  -0.03471   1.11840
   D15       -0.89203  -0.00502   0.00000  -0.07613  -0.07577  -0.96780
   D16       -0.96559   0.00338   0.00000   0.01851   0.01848  -0.94711
   D17        3.13758   0.00363   0.00000   0.04350   0.04331  -3.10229
   D18        1.09244   0.00057   0.00000   0.00220   0.00225   1.09469
   D19       -3.02866  -0.00013   0.00000   0.00107   0.00098  -3.02767
   D20       -0.83926  -0.00057   0.00000  -0.01397  -0.01461  -0.85387
   D21        1.21004   0.00041   0.00000   0.00242   0.00315   1.21320
   D22       -0.94765   0.00326   0.00000   0.01772   0.01791  -0.92974
   D23       -3.09611   0.00360   0.00000   0.04095   0.04083  -3.05528
   D24        1.17569  -0.00036   0.00000  -0.00707  -0.00689   1.16879
   D25        1.26880  -0.00022   0.00000  -0.03178  -0.03162   1.23719
   D26       -0.87965   0.00012   0.00000  -0.00855  -0.00870  -0.88835
   D27       -2.89104  -0.00384   0.00000  -0.05657  -0.05642  -2.94746
   D28       -3.02899  -0.00008   0.00000  -0.00153  -0.00157  -3.03055
   D29        1.10574   0.00025   0.00000   0.02170   0.02135   1.12710
   D30       -0.90565  -0.00370   0.00000  -0.02632  -0.02637  -0.93202
   D31        0.56731   0.00147   0.00000  -0.01139  -0.01049   0.55682
   D32        2.75229  -0.00206   0.00000  -0.03707  -0.03698   2.71530
   D33       -1.50106  -0.00189   0.00000  -0.04334  -0.04433  -1.54539
   D34       -1.09363   0.00183   0.00000   0.02175   0.02139  -1.07225
   D35        1.05086  -0.00242   0.00000  -0.03180  -0.03134   1.01952
   D36        3.11289   0.00395   0.00000   0.05179   0.05168  -3.11862
   D37        1.12715  -0.00098   0.00000  -0.01990  -0.02031   1.10684
   D38       -3.01154  -0.00523   0.00000  -0.07345  -0.07304  -3.08458
   D39       -0.94951   0.00114   0.00000   0.01014   0.00999  -0.93953
   D40        3.12075   0.00126   0.00000   0.02070   0.02039   3.14114
   D41       -1.01795  -0.00299   0.00000  -0.03285  -0.03233  -1.05028
   D42        1.04408   0.00338   0.00000   0.05073   0.05069   1.09477
   D43        1.36852  -0.00165   0.00000   0.00737   0.00756   1.37608
   D44       -2.77372   0.00173   0.00000   0.01506   0.01521  -2.75851
   D45       -0.75241   0.00112   0.00000   0.02106   0.02072  -0.73169
   D46       -0.82348   0.00113   0.00000   0.00774   0.00812  -0.81536
   D47       -2.93137   0.00477   0.00000   0.04786   0.04758  -2.88379
   D48        1.30745  -0.00179   0.00000  -0.03443  -0.03431   1.27315
   D49        1.31697  -0.00195   0.00000  -0.03234  -0.03210   1.28487
   D50       -0.79092   0.00169   0.00000   0.00778   0.00736  -0.78356
   D51       -2.83528  -0.00487   0.00000  -0.07451  -0.07453  -2.90981
   D52       -2.95795  -0.00032   0.00000   0.00663   0.00693  -2.95102
   D53        1.21735   0.00331   0.00000   0.04674   0.04638   1.26373
   D54       -0.82701  -0.00325   0.00000  -0.03554  -0.03551  -0.86252
   D55        0.80978  -0.00208   0.00000  -0.04781  -0.04741   0.76238
   D56        3.02291  -0.00115   0.00000  -0.05518  -0.05503   2.96787
   D57       -1.22154  -0.00096   0.00000  -0.04542  -0.04597  -1.26752
   D58       -0.87741  -0.00035   0.00000  -0.01693  -0.01781  -0.89522
   D59       -3.00186   0.00166   0.00000   0.01865   0.01849  -2.98338
   D60        1.23707  -0.00112   0.00000   0.00439   0.00543   1.24250
   D61        0.89514  -0.00082   0.00000  -0.01564  -0.01441   0.88073
   D62        3.05090  -0.00159   0.00000  -0.04727  -0.04697   3.00393
   D63       -1.18692  -0.00074   0.00000  -0.04173  -0.04325  -1.23017
         Item               Value     Threshold  Converged?
 Maximum Force            0.020052     0.000450     NO 
 RMS     Force            0.005824     0.000300     NO 
 Maximum Displacement     0.324201     0.001800     NO 
 RMS     Displacement     0.087639     0.001200     NO 
 Predicted change in Energy=-9.675451D-03
 GradGradGradGradGradGradGradGradGradGradGradGradGradGradGradGradGradGrad

                          Input orientation:                          
 ---------------------------------------------------------------------
 Center     Atomic      Atomic             Coordinates (Angstroms)
 Number     Number       Type             X           Y           Z
 ---------------------------------------------------------------------
      1          6           0        0.010330   -0.016126   -0.035692
      2          6           0        1.539144    0.002883   -0.049888
      3          6           0       -0.641196    1.017618    0.878882
      4          6           0        2.205663   -0.781233    1.074879
      5          1           0        1.900926    1.035365   -0.028972
      6          1           0       -0.328278   -1.012188    0.257404
      7          6           0       -0.405763    2.462588    0.478476
      8          1           0       -0.314873    0.888304    1.909615
      9          6           0        1.762699   -0.441200    2.485823
     10          1           0        3.281560   -0.599902    0.982981
     11          1           0        0.657125    2.692180    0.502247
     12          1           0       -0.777037    2.639472   -0.533892
     13          1           0        1.741399    0.638083    2.632871
     14          1           0        2.484302   -0.865956    3.189506
     15          8           0       -1.025822    3.339960    1.407234
     16          1           0       -1.933504    3.037952    1.488760
     17          8           0       -2.065732    0.835886    0.811023
     18          1           0       -2.286412    0.087411    1.367110
     19          8           0       -0.409537    0.229190   -1.386535
     20          1           0       -1.365197    0.319905   -1.355478
     21          8           0        2.028199   -0.625500   -1.238904
     22          1           0        1.372491   -0.447615   -1.922570
     23          8           0        1.952392   -2.172440    0.911592
     24          1           0        2.085012   -2.340958   -0.027323
     25          8           0        0.457900   -0.931227    2.768186
     26          1           0        0.474309   -1.857154    2.509766
 ---------------------------------------------------------------------
                    Distance matrix (angstroms):
                    1          2          3          4          5
     1  C    0.000000
     2  C    1.528999   0.000000
     3  C    1.526289   2.578020   0.000000
     4  C    2.576479   1.524528   3.373261   0.000000
     5  H    2.163338   1.094232   2.699425   2.147413   0.000000
     6  H    1.092108   2.147571   2.145756   2.672539   3.040367
     7  C    2.565449   3.179935   1.517792   4.206854   2.759580
     8  H    2.169786   2.839190   1.088862   3.136438   2.947797
     9  C    3.099923   2.583992   3.238691   1.517433   2.919511
    10  H    3.475548   2.113334   4.244434   1.094933   2.367340
    11  H    2.835956   2.883597   2.152127   3.845839   2.138754
    12  H    2.814312   3.542676   2.155178   4.815171   3.162212
    13  H    3.247433   2.764341   2.982831   2.158087   2.696050
    14  H    4.152668   3.484519   4.319210   2.134587   3.783378
    15  O    3.797231   4.454025   2.412543   5.247589   3.992455
    16  H    3.928083   4.861930   2.474623   5.647139   4.584399
    17  O    2.398516   3.798709   1.437683   4.574878   4.059526
    18  H    2.693250   4.080430   1.952021   4.584614   4.514583
    19  O    1.435704   2.373857   2.409855   3.730789   2.798416
    20  H    1.935672   3.200041   2.450173   4.457598   3.597090
    21  O    2.427108   1.431014   3.782926   2.325799   2.058789
    22  H    2.366849   1.933303   3.748330   3.128926   2.462557
    23  O    3.052645   2.413969   4.111477   1.423470   3.343250
    24  H    3.115962   2.406673   4.419667   1.913674   3.381339
    25  O    2.983197   3.159619   2.928392   2.438128   3.711321
    26  H    3.175534   3.338478   3.488330   2.492808   4.104521
                    6          7          8          9         10
     6  H    0.000000
     7  C    3.482664   0.000000
     8  H    2.518304   2.129504   0.000000
     9  C    3.108708   4.142904   2.532963   0.000000
    10  H    3.705046   4.819722   4.000967   2.142582   0.000000
    11  H    3.841004   1.087662   2.485846   3.869746   4.237519
    12  H    3.763264   1.092713   3.041531   5.005944   5.409866
    13  H    3.556656   3.546906   2.194075   1.089462   2.574265
    14  H    4.065613   5.175072   3.542729   1.093754   2.361177
    15  O    4.555203   1.420157   2.601625   4.820412   5.852866
    16  H    4.527320   1.919820   2.723614   5.173060   6.378612
    17  O    2.596270   2.347817   2.067646   4.369529   5.539366
    18  H    2.504967   3.157210   2.196067   4.233940   5.623368
    19  O    2.061591   2.909700   3.362737   4.490344   4.463876
    20  H    2.334751   2.979093   3.476650   5.011847   5.282687
    21  O    2.818057   4.290671   4.206515   3.738723   2.551145
    22  H    2.821993   4.170910   4.395170   4.425634   3.479937
    23  O    2.641136   5.218426   3.937600   2.347633   2.060257
    24  H    2.769597   5.434506   4.465346   3.166839   2.341734
    25  O    2.632235   4.184097   2.155230   1.422096   3.357051
    26  H    2.535990   4.853951   2.918995   1.914536   3.434008
                   11         12         13         14         15
    11  H    0.000000
    12  H    1.770080   0.000000
    13  H    3.151908   4.514030   0.000000
    14  H    4.818741   6.065315   1.767450   0.000000
    15  O    2.017655   2.078593   4.057073   5.760833   0.000000
    16  H    2.793586   2.363752   4.535777   6.135964   0.960074
    17  O    3.309852   2.592769   4.225222   5.408905   2.776197
    18  H    4.024577   3.522078   4.257776   5.195166   3.488520
    19  O    3.282010   2.582928   4.577046   5.523930   4.226328
    20  H    3.628859   2.530084   5.065482   6.073037   4.107127
    21  O    3.989794   4.361930   4.082835   4.458325   5.661623
    22  H    4.031104   4.009863   4.697539   5.248281   5.584373
    23  O    5.050723   5.717840   3.302478   2.679314   6.285060
    24  H    5.258497   5.766509   4.008664   3.561327   6.633858
    25  O    4.278230   5.017837   2.031851   2.070767   4.721935
    26  H    4.975942   5.572196   2.801228   2.341920   5.520504
                   16         17         18         19         20
    16  H    0.000000
    17  O    2.307793   0.000000
    18  H    2.974060   0.958200   0.000000
    19  O    4.298714   2.817858   3.335465   0.000000
    20  H    3.974977   2.334676   2.883605   0.960458   0.000000
    21  O    6.046166   4.806050   5.090719   2.587440   3.524559
    22  H    5.892024   4.576164   4.949325   1.980156   2.899243
    23  O    6.525450   5.020503   4.825130   4.077734   4.728401
    24  H    6.883288   5.293754   5.191413   3.830913   4.555011
    25  O    4.807300   3.649917   3.245287   4.400083   4.679062
    26  H    5.549963   4.073082   3.564910   4.507236   4.802445
                   21         22         23         24         25
    21  O    0.000000
    22  H    0.963844   0.000000
    23  O    2.650170   3.368053   0.000000
    24  H    2.100941   2.772075   0.963092   0.000000
    25  O    4.314636   4.803494   2.687203   3.528414   0.000000
    26  H    4.240763   4.736996   2.199612   3.043887   0.961453
                   26
    26  H    0.000000
 Stoichiometry    C6H14O6
 Framework group  C1[X(C6H14O6)]
 Deg. of freedom    72
 Full point group                 C1      NOp   1
 Largest Abelian subgroup         C1      NOp   1
 Largest concise Abelian subgroup C1      NOp   1
                         Standard orientation:                         
 ---------------------------------------------------------------------
 Center     Atomic      Atomic             Coordinates (Angstroms)
 Number     Number       Type             X           Y           Z
 ---------------------------------------------------------------------
      1          6           0        0.109335    0.698434    0.487638
      2          6           0       -0.911227    0.759345   -0.649279
      3          6           0        1.290122   -0.238450    0.247745
      4          6           0       -1.964841   -0.342370   -0.631634
      5          1           0       -0.396984    0.746701   -1.615062
      6          1           0       -0.400935    0.397824    1.405220
      7          6           0        2.202938    0.165044   -0.895782
      8          1           0        0.950675   -1.258361    0.074035
      9          6           0       -1.446882   -1.767124   -0.565328
     10          1           0       -2.557630   -0.218091   -1.543793
     11          1           0        1.651832    0.173178   -1.833451
     12          1           0        2.607393    1.165095   -0.721612
     13          1           0       -0.641760   -1.917687   -1.283686
     14          1           0       -2.263829   -2.447244   -0.822879
     15          8           0        3.247057   -0.784629   -1.053201
     16          1           0        3.637433   -0.893066   -0.182804
     17          8           0        2.122243   -0.213711    1.419878
     18          1           0        1.708327   -0.774253    2.077610
     19          8           0        0.604719    2.035129    0.658191
     20          1           0        1.317650    1.974602    1.298930
     21          8           0       -1.677571    1.964470   -0.558773
     22          1           0       -1.087310    2.627269   -0.182895
     23          8           0       -2.813220   -0.183127    0.500250
     24          1           0       -3.005642    0.759859    0.536259
     25          8           0       -0.930585   -2.087941    0.720313
     26          1           0       -1.617040   -1.826625    1.340703
 ---------------------------------------------------------------------
 Rotational constants (GHZ):           1.2215022           0.6577339           0.5393876
 Standard basis: def2TZVPP (5D, 7F)
 There are   642 symmetry adapted cartesian basis functions of A   symmetry.
 There are   568 symmetry adapted basis functions of A   symmetry.
   568 basis functions,   850 primitive gaussians,   642 cartesian basis functions
    49 alpha electrons       49 beta electrons
       nuclear repulsion energy       848.1278182923 Hartrees.
 NAtoms=   26 NActive=   26 NUniq=   26 SFac= 1.00D+00 NAtFMM=   60 NAOKFM=F Big=F
 Integral buffers will be    131072 words long.
 Raffenetti 2 integral format.
 Two-electron integral symmetry is turned on.
 Nuclear repulsion after empirical dispersion term =      848.1079932211 Hartrees.
 One-electron integrals computed using PRISM.
   1 Symmetry operations used in ECPInt.
 ECPInt:  NShTT=   23436 NPrTT=   62434 LenC2=   22241 LenP2D=   46483.
 LDataN:  DoStor=T MaxTD1= 6 Len=  172
 NBasis=   568 RedAO= T EigKep=  5.63D-05  NBF=   568
[...]
 0030025,0.00001640,-0.00008994,-0.00054788,-0.00025630,0.00170553,0.00
 142619,0.00929544,0.00017518,0.00079861,0.00055682,0.64423173,0.007111
 88,-0.07431043,0.03282940,0.00448217,0.00026494,0.00005629,-0.00494003
 ,0.00731891,-0.02305839,0.00029386,-0.00024372,-0.00018131,0.00150430,
 0.00089156,-0.00018275,0.01141737,0.00093798,0.03437051,-0.00172999,-0
 .00089153,0.00352321,0.00322211,-0.00310300,-0.00289410,-0.00036456,-0
 .00071589,-0.00021383,0.00014787,-0.00006945,0.00020133,-0.00037990,-0
 .00016301,-0.00078976,-0.00006787,0.00090823,-0.00308503,0.00012936,0.
 00018784,0.00012918,0.00007959,0.00011651,0.00009410,0.00072985,0.0001
 2115,-0.00225239,-0.00028956,-0.00011188,0.00035168,0.00061261,0.00334
 875,-0.00091643,-0.00009219,-0.00116366,-0.00118925,-0.10725904,0.0816
 1351,-0.00402241,0.02614149,-0.20471246,-0.00913167,0.00265642,-0.0136
 1635,-0.01263043,0.00262316,-0.04975789,0.00025629,-0.00151794,0.00200
 172,-0.00015989,-0.00074090,0.00080779,-0.00835559,0.01027046,-0.02943
 129,0.00027447,0.00378823,-0.00048455,0.00470066,-0.00593332,-0.002732
 81,0.00155598,0.00022958,0.00020516,-0.00052301,0.00039251,-0.00064620
 ,0.00003241,-0.00008101,-0.00015570,-0.00010962,-0.00179321,0.00015638
 ,0.00015631,0.00002561,0.00010990,-0.00032481,0.00010615,-0.00003881,0
 .00083434,-0.00238347,0.00094005,-0.00039090,0.00059444,-0.00039005,-0
 .00056222,0.00072093,0.00205894,-0.00122303,-0.00023671,-0.00051449,0.
 03291195,-0.03939001,0.33862582,-0.01425165,0.00128009,-0.00388871,-0.
 00063711,0.00182650,-0.00135409,0.00325307,0.00046231,0.00131417,-0.00
 051708,-0.00024948,0.00015992,0.00026751,-0.00001385,0.00001675,0.0004
 2862,-0.00040938,0.00149068,-0.00010858,-0.00065594,-0.00073063,-0.001
 29296,0.00028727,0.00038330,-0.00005656,-0.00002760,-0.00007126,0.0000
 4557,0.00005531,-0.00011084,-0.00000791,-0.00013848,0.00013818,0.00003
 796,-0.00054422,0.00010122,-0.00000205,0.00000150,-0.00002149,0.000024
 86,-0.00001084,0.00003354,-0.00066942,0.00056584,0.00055683,0.00023731
 ,0.00032345,0.00010711,-0.00214246,-0.00067903,-0.00104495,-0.00011668
 ,-0.00020520,0.00048824,-0.51205499,0.08033428,-0.00366644,0.52690416,
 0.00727968,-0.00096081,0.00188718,0.00003753,-0.00024160,-0.00102097,-
 0.00143610,0.00154042,-0.00167612,0.00004728,0.00025383,0.00029414,-0.
 00001418,-0.00009655,0.00015940,0.00080015,-0.00034207,0.00024784,0.00
 031690,-0.00008945,-0.00158998,0.00004756,0.00005000,0.00023382,-0.000
 02083,0.00015246,0.00011088,-0.00011648,-0.00004145,-0.00004374,0.0002
 1762,0.00007676,0.00050298,-0.00042275,-0.00093406,0.00041013,-0.00003
 986,-0.00005030,-0.00003015,-0.00000071,-0.00002955,-0.00002819,-0.000
 12956,0.00012588,0.00075952,0.00008947,-0.00003153,-0.00033333,-0.0007
 0752,-0.00369065,-0.00039213,0.00018977,0.00090822,0.00170349,0.075275
 05,-0.01717807,0.00531991,-0.08175515,0.02113520,-0.04453603,0.0066046
 0,-0.00469178,-0.00090115,0.00149757,-0.00826583,-0.00577244,-0.001971
 85,-0.00300018,-0.00188366,-0.00072908,0.00086624,0.00002316,-0.000061
 55,0.00011567,0.00002686,0.00097392,-0.00032878,0.00009505,-0.00081160
 ,0.00021008,0.00034140,0.00052536,0.00038980,-0.00025817,-0.00001998,0
 .00031239,-0.00031168,0.00033426,-0.00047945,0.00019026,0.00035196,0.0
 0008314,-0.00011600,-0.00009991,-0.00004690,-0.00004359,-0.00005371,-0
 .00005232,0.00008740,-0.00003646,-0.00002584,0.00029543,0.00065236,-0.
 00010946,0.00001619,-0.00081365,-0.00004260,0.00074695,0.00158379,0.00
 417554,0.00068029,0.00059352,0.00009058,0.04359086,-0.00166338,-0.0440
 6650,0.00643805,-0.00724066,0.05341080,-0.01941099,0.02611474,0.034304
 24,-0.10022874,0.02627195,0.00563225,-0.00354005,-0.00467557,-0.005022
 01,0.00792897,-0.00856818,-0.01598590,0.00668671,0.00180169,-0.0030838
 9,0.00214894,-0.00029553,-0.00027291,-0.00063129,-0.00104876,0.0000918
 6,-0.00009897,0.00035659,0.00035892,-0.00318719,0.00263041,-0.00152405
 ,0.00189491,-0.00102309,0.00070672,0.00026137,0.00015305,0.00014057,-0
 .00002630,-0.00000711,0.00000689,-0.00012242,0.00006656,0.00011151,0.0
 0026959,-0.00013712,-0.00109823,-0.00001055,0.00121334,0.00032383,0.00
 007993,-0.00051363,-0.00009619,-0.00462059,0.00231229,0.00226259,0.000
 19265,0.00033247,-0.00025185,-0.00959347,0.00494630,0.00264299,0.00130
 435,0.00105804,0.00289471,0.36834496,0.00732796,-0.00307558,-0.0069168
 9,0.03596591,-0.11031181,-0.05040906,-0.00035080,0.00173048,0.00083230
 ,-0.00207470,0.00031437,0.00737583,0.01354149,-0.01583959,-0.03902627,
 0.00198887,0.00118064,-0.00005059,-0.00164723,-0.00008936,-0.00007671,
 0.00007828,-0.00019037,-0.00008507,0.00090917,-0.00106492,0.00164875,-
 0.00020425,0.00042813,-0.00006220,0.00084709,0.00043514,0.00052320,-0.
 00000118,0.00005854,0.00001193,-0.00013390,0.00037794,0.00056518,-0.00
 007594,0.00014134,0.00021904,0.00110585,-0.00016214,-0.00036912,-0.000
 01469,-0.00008108,-0.00002904,0.00148941,-0.00018111,-0.00052909,-0.00
 002364,-0.00016154,0.00006613,0.00300639,0.00174967,-0.00055756,-0.000
 33620,0.00037693,-0.00104557,-0.13704789,0.16053689,0.01083731,-0.0119
 8683,-0.02147589,0.04741903,-0.06865547,-0.17459299,-0.00048263,0.0026
 0754,0.00363386,0.01096917,-0.01371664,-0.05241314,0.00327256,-0.01518
 901,-0.01308221,-0.00041970,0.00069709,0.00059009,-0.00077885,0.000381
 90,-0.00083576,-0.00040431,0.00032437,0.00028007,-0.00698489,0.0047220
 6,-0.00090988,0.00076428,-0.00087758,0.00203461,0.00042139,0.00044928,
 0.00029150,0.00011875,-0.00028730,0.00020460,0.00002824,-0.00001118,0.
 00083943,0.00063524,-0.00046588,-0.00261016,0.00083658,-0.00073836,0.0
 0006241,-0.00008116,0.00014625,-0.00012250,0.00347236,-0.00099138,0.00
 004668,-0.00019322,-0.00017382,0.00004503,-0.00846685,0.00286433,0.003
 85957,-0.00028120,0.00036621,0.00083707,0.18965326,0.03101034,0.537287
 15,0.00157944,0.00053125,0.00898856,0.01086786,-0.00383920,0.00989029,
 0.00005162,0.00028192,-0.00103215,-0.00195669,0.00107911,0.00368563,-0
 .00028736,0.00090018,0.00031539,-0.00023091,0.00020114,-0.00067850,0.0
 0038925,0.00038129,0.00034871,0.00035607,-0.00044891,-0.00038974,0.001
 59527,-0.00052475,0.00048631,-0.00003970,0.00022781,-0.00010475,-0.000
 22802,-0.00015968,-0.00021163,0.00003377,0.00024002,-0.00009600,0.0000
 4060,0.00001817,-0.00006394,-0.00016691,0.00007411,0.00048457,-0.00012
 014,-0.00045957,-0.00026272,-0.00006482,0.00020869,0.00008839,-0.00036
 315,-0.00027864,-0.00077978,-0.00017882,-0.00000064,0.00009193,-0.0002
 4290,-0.00012176,-0.00006622,-0.00084445,-0.00074661,-0.00221551,-0.24
 946258,0.07658036,-0.25210526,0.24013963,0.00066222,0.00200728,-0.0025
 8256,-0.01353508,0.00290033,-0.01722120,-0.00005294,-0.00005738,0.0005
 2629,0.00130144,-0.00273883,-0.00111912,-0.00014152,-0.00116601,-0.001
 97641,-0.00019063,-0.00030013,0.00071866,0.00009792,0.00000230,-0.0004
 8923,-0.00011852,0.00009936,0.00011246,-0.00029823,0.00034723,-0.00020
 804,0.00010112,-0.00015554,0.00010210,-0.00000334,0.00002712,-0.000014
 30,0.00009861,-0.00014581,0.00011137,-0.00002941,0.00005854,0.00005120
 ,0.00000262,0.00005219,-0.00015654,-0.00009979,-0.00001014,0.00024816,
 0.00002797,0.00000924,-0.00004277,0.00017997,-0.00011866,0.00023583,0.
 00003033,0.00005512,0.00002040,-0.00074946,-0.00165407,-0.00080742,-0.
 00025416,-0.00075128,0.00127542,0.08683073,-0.04101083,0.07124187,-0.0
 7462891,0.04085343,0.00063498,0.00084027,-0.00148715,-0.02126837,0.004
 44128,-0.03371300,-0.00013546,-0.00054112,-0.00155355,0.00234904,-0.00
 348198,-0.00563479,-0.00021417,0.00037214,0.00041128,0.00014432,0.0000
 1683,-0.00022577,0.00002998,-0.00026068,0.00012631,0.00002211,0.000001
 12,0.00001664,-0.00143671,0.00084656,-0.00051612,0.00008212,-0.0001284
 9,0.00028854,-0.00004284,-0.00002810,-0.00002971,-0.00001737,-0.000012
 21,-0.00000027,-0.00002603,0.00000922,0.00006716,0.00017027,-0.0001251
 5,-0.00039969,-0.00018228,0.00043462,0.00011806,0.00004514,-0.00014267
 ,0.00000272,-0.00125629,0.00051584,0.00059002,0.00010228,0.00005448,-0
 .00005729,-0.00204200,0.00052587,-0.00100421,-0.00030393,0.00051543,0.
 00064510,-0.21032116,0.04787283,-0.27607856,0.23331859,-0.05165196,0.3
 1782078,-0.00052067,-0.00130180,0.00334332,0.00573507,0.01573492,0.001
 81426,0.00075852,0.00061083,-0.00073207,-0.07405467,-0.03031210,0.0003
 8710,-0.00039877,0.00230309,-0.00314170,0.00117976,0.00159053,-0.00045
 840,-0.00032826,-0.00028422,0.00017113,-0.00000480,-0.00010664,-0.0000
 0848,-0.00095823,0.00539537,0.00476143,0.00221716,-0.03824861,-0.00445
 116,0.00000461,-0.00001730,-0.00001133,0.00003701,-0.00000132,-0.00001
 897,0.00018626,0.00051131,0.00133349,0.00025020,-0.00007961,0.00045739
 ,-0.00014338,0.00057559,0.00015393,0.00006747,-0.00014789,-0.00000406,
 -0.00030565,0.00026998,0.00009613,0.00018953,-0.00011454,-0.00010043,0
 .00041736,0.00076013,-0.00141142,0.00026670,-0.00023427,0.00018359,0.0
 0336282,0.00077846,0.00014360,-0.00020832,-0.00049349,0.00022693,0.070
 89736,-0.00438856,-0.00082259,-0.00019170,-0.00167132,-0.04657710,0.00
 081929,-0.00113467,0.00033235,0.00024984,-0.02999685,-0.22161246,0.015
 65002,0.00313769,-0.00110478,0.00562508,0.00162405,0.00037852,-0.00011
 354,-0.00085848,0.00028996,0.00003133,-0.00007771,-0.00008428,0.000138
 83,0.00021840,-0.02843509,-0.01065498,-0.01076879,-0.02976844,-0.00330
 509,0.00031848,0.00032995,0.00018190,0.00000940,0.00005248,-0.00001307
 ,0.00053529,0.00078206,-0.00273632,-0.00046439,0.00115724,0.00021391,0
 .00074666,-0.00041479,-0.00029096,-0.00011583,0.00001827,-0.00000482,0
 .00125596,0.00001542,0.00000987,-0.00018062,-0.00017573,0.00004758,0.0
 0193542,0.00089132,0.00109760,-0.00003692,0.00003624,0.00013364,0.0003
 3437,0.00318483,-0.00158054,-0.00028047,0.00008159,-0.00092861,0.03951
 735,0.38187769,0.00019030,-0.00062301,0.00114017,0.00572444,0.02208721
 ,-0.00202411,0.00024693,0.00006720,-0.00141388,-0.00083155,-0.03001055
 ,-0.09829102,-0.00259322,0.00271931,-0.00325587,-0.00010649,0.00035661
 ,-0.00045483,-0.00003266,-0.00008692,0.00004498,-0.00044470,0.00031380
 ,0.00011952,-0.00030409,-0.04634740,-0.00903036,-0.00103842,0.00225439
 ,0.00406247,-0.00003028,0.00002391,-0.00022779,0.00014529,-0.00016869,
 0.00014197,0.00262833,-0.00148481,-0.00740142,-0.00051400,0.00061712,0
 .00230076,-0.00023946,0.00027137,0.00041062,0.00000283,0.00000670,-0.0
 0006204,-0.00025671,0.00029119,0.00076821,-0.00004335,-0.00003965,-0.0
 0024090,-0.00063759,0.00041594,0.00052531,0.00016506,-0.00017024,0.000
 04769,-0.00165968,0.00973501,-0.00379436,0.00134294,0.00203209,0.00129
 129,-0.03080943,0.10842387,0.61107933,-0.00012387,0.00114720,-0.000696
 84,0.00169258,0.00177321,0.00100444,-0.00036796,-0.00022227,0.00052842
 ,0.00073409,-0.00312531,-0.00644369,-0.00010552,-0.00043722,0.00020507
 ,-0.00079918,-0.00014796,0.00036947,0.00012639,0.00017893,-0.00007998,
 0.00007713,-0.00008129,0.00000171,-0.00133130,-0.00045020,0.00152080,-
 0.00020383,-0.00097384,-0.00097805,-0.00001601,0.00000778,0.00001115,-
 0.00000959,0.00002928,-0.00000931,0.00029771,0.00009649,0.00008981,0.0
 0000992,0.00010590,0.00010364,0.00009367,-0.00031292,-0.00012809,-0.00
 003571,0.00007749,0.00001655,0.00020448,-0.00018142,-0.00018568,-0.000
 07170,0.00005517,0.00010828,0.00008844,-0.00049100,0.00035166,-0.00011
 795,0.00015747,0.00002033,-0.00316377,-0.00215489,-0.00017714,-0.00011
 177,0.00108761,-0.00021856,-0.01055733,0.00063460,0.03179649,0.0124939
 9,0.00089593,0.00018960,0.00031733,0.00224479,-0.00454121,-0.00347494,
 0.00022569,-0.00018066,-0.00050992,0.00201438,-0.01772965,-0.04601774,
 -0.00032384,0.00082957,-0.00024122,0.00011565,-0.00007774,0.00000661,0
 .00008926,-0.00018824,-0.00005060,-0.00007998,0.00002539,0.00003231,-0
 .00138887,-0.00868472,0.00041567,-0.00067686,-0.00007996,-0.00021870,-
 0.00004889,-0.00004650,-0.00007680,0.00003362,-0.00003793,0.00003277,0
 .00051711,-0.00021430,-0.00196349,-0.00012125,0.00007933,0.00026174,-0
 .00022751,0.00029186,0.00019713,0.00004671,-0.00005771,-0.00001833,-0.
 00059689,0.00018237,0.00024429,0.00009665,0.00004009,-0.00005482,-0.00
 095987,0.00018980,-0.00005045,0.00010492,0.00002062,0.00012416,-0.0012
 2898,0.00093381,-0.00045185,0.00085743,0.00155360,0.00078170,-0.003284
 42,-0.06073200,-0.06408567,0.00141423,0.08746724,0.00049332,-0.0004982
 7,0.00020355,-0.00115824,0.00464374,0.00372207,0.00019162,0.00019456,0
 .00023836,0.00072137,-0.00656845,-0.00406960,0.00012618,-0.00070318,-0
 .00147732,0.00034183,-0.00000078,0.00008609,-0.00003259,0.00000447,0.0
 0005122,0.00009473,-0.00011304,-0.00005798,-0.00055215,-0.00009347,-0.
 00004967,0.00070585,0.00154993,0.00016309,0.00000938,-0.00001248,0.000
 03316,-0.00002440,0.00004593,-0.00004128,-0.00005546,0.00044323,0.0002
 2180,0.00005266,0.00009763,-0.00012338,0.00004023,-0.00001681,-0.00009
 961,0.00000418,-0.00000476,0.00002395,0.00013165,-0.00007845,-0.000239
 46,0.00002772,-0.00002940,0.00004561,0.00011742,-0.00015470,-0.0008664
 1,-0.00006274,-0.00001868,-0.00012261,0.00047294,-0.00005844,-0.003370
 81,-0.00089538,-0.00035902,-0.00078798,0.02695176,-0.11243962,-0.49615
 728,-0.02687926,0.11407347,0.50243619,-0.00178473,-0.00152933,0.001852
 96,-0.00185364,0.00208965,-0.00145102,-0.00047729,0.00206960,0.0018368
 6,-0.02565871,-0.01227739,0.01399973,0.00029207,0.00025296,-0.00017847
 ,0.00071150,0.00119487,0.00088028,-0.00101754,-0.00069481,-0.00105768,
 -0.00132677,0.00029997,-0.00351472,-0.20458490,-0.03552646,0.04681421,
 0.00115125,0.00131956,0.00389363,0.00032110,0.00027569,0.00003867,0.00
 020447,0.00055540,-0.00014810,-0.00238568,-0.00729048,0.00253326,-0.04
 033637,-0.02064381,0.01131133,0.00033754,0.00049496,-0.00005694,0.0000
 5423,-0.00040441,0.00008050,0.00012761,0.00040403,-0.00121790,0.000721
 65,-0.00042952,0.00063059,0.00140877,0.00037899,-0.00153728,0.00006326
 ,0.00001570,0.00045775,0.00203749,-0.00009044,0.00209326,-0.00078097,0
 .00011221,0.00030636,0.00284131,-0.00033111,0.00017899,-0.00028803,-0.
 00078943,-0.00081182,0.31074419,-0.00021551,-0.00168183,-0.00029453,-0
 .00034893,-0.00010520,-0.00101890,0.00008034,-0.00298485,-0.00112836,-
 0.00258622,-0.00345017,0.00145621,0.00011364,0.00054139,-0.00024148,0.
 00037892,0.00054314,0.00014797,-0.00028695,0.00030629,0.00109078,0.000
 63332,-0.00127023,0.00329229,-0.07787805,-0.11998397,0.01986321,0.0005
 3406,0.00112220,-0.00091539,0.00013645,0.00021531,-0.00010695,0.000115
 56,-0.00045568,0.00017305,-0.03974699,-0.01597245,0.01231818,-0.004057
 95,0.00637879,-0.00332322,0.00035710,-0.00018166,-0.00008301,-0.000134
 54,0.00005533,0.00000612,0.00152789,0.00034873,0.00114995,-0.00005324,
 -0.00045248,0.00004779,0.00004878,0.00076514,0.00014987,-0.00000633,-0
 .00023832,-0.00015752,0.00013280,0.00103622,0.00093923,-0.00006562,0.0
 0003811,0.00006102,0.00527769,0.00133560,-0.00644611,0.00206507,0.0009
 3469,0.00024419,0.06908870,0.59338835,-0.00069427,-0.00181472,0.000346
 11,-0.00011207,-0.00032669,0.00349807,0.00027264,0.00134899,0.00014936
 ,0.03911401,0.01507875,-0.00939145,0.00019810,0.00009180,-0.00018850,0
 .00098652,0.00137241,0.00097628,-0.00018624,-0.00061045,-0.00072901,-0
 .00133755,0.00155867,-0.00346747,0.03303724,-0.00478415,-0.08156656,0.
 00220141,-0.00245745,-0.00708363,0.00002222,-0.00005151,-0.00007859,0.
 00006147,0.00018144,0.00000049,-0.00336803,-0.00089035,0.00262492,-0.0
 0967140,-0.00842961,0.01170021,-0.00034638,0.00062061,0.00051801,0.000
 10173,-0.00016287,-0.00011099,-0.00114577,0.00052920,-0.00000303,0.000
 37055,-0.00005343,-0.00032505,-0.00072888,0.00141634,-0.00150515,0.000
 30221,-0.00012596,-0.00000089,-0.00027430,-0.00001754,-0.00100339,-0.0
 0010521,-0.00004131,0.00030235,0.00375913,0.00026545,-0.00144148,0.001
 01408,0.00125212,0.00096377,-0.09278724,0.14347120,0.15409751,0.000437
 69,0.00123635,-0.00044533,0.00042543,-0.00018529,0.00002456,0.00023037
 ,0.00032225,0.00009453,-0.00000797,-0.00398047,0.00166003,-0.00022832,
 0.00016795,-0.00015264,-0.00013890,-0.00040742,-0.00049297,0.00004331,
 -0.00000774,-0.00014327,0.00029874,-0.00024553,0.00030961,-0.00521966,
 -0.04328047,-0.01020083,0.00023304,0.00037353,-0.00041055,-0.00004305,
 -0.00003062,-0.00002938,0.00001115,0.00005647,-0.00001248,-0.00513209,
 -0.00163024,0.00159054,-0.00102695,-0.00078170,-0.00054021,-0.00007251
 ,-0.00004249,-0.00000207,0.00002476,0.00004674,0.00000740,-0.00045009,
 -0.00022570,-0.00015353,-0.00011525,0.00031606,-0.00002487,-0.00030218
 ,-0.00041476,0.00039790,-0.00001354,0.00009182,-0.00005004,-0.00041579
 ,0.00053650,-0.00028981,0.00023401,0.00006272,0.00003305,-0.00093106,0
 .00003807,-0.00287996,0.00148511,0.00107042,-0.00001076,-0.04052182,0.
 04488999,0.02931604,0.05119558,0.00002350,-0.00060582,0.00047389,-0.00
 013713,-0.00058952,0.00082971,0.00022583,-0.00014808,-0.00004676,0.001
 40361,0.00139908,-0.00042156,0.00011926,-0.00001989,0.00003788,0.00020
 540,0.00042092,0.00040591,-0.00003929,-0.00016822,-0.00004150,0.000098
 74,-0.00042403,0.00008094,-0.00422947,-0.02341046,-0.00395716,0.000098
 93,-0.00100370,-0.00080516,0.00000208,-0.00001764,0.00001127,0.0000066
 5,0.00004630,-0.00002639,-0.00353700,0.00034634,0.00036121,0.00143477,
 0.00074559,-0.00033142,-0.00008213,0.00019956,0.00003118,0.00004049,-0
 .00007065,0.00000422,-0.00027183,0.00010050,-0.00008213,0.00020027,-0.
 00001192,0.00004336,-0.00013513,0.00029941,-0.00062435,0.00008132,-0.0
 0000087,0.00005437,-0.00000948,-0.00031661,-0.00062463,-0.00002674,0.0
 0002323,0.00001177,0.00130099,-0.00103626,-0.00015266,-0.00025210,-0.0
 0016735,-0.00014758,0.00145490,-0.46023243,-0.14742093,0.00202356,0.48
 464251,0.00005354,0.00149981,-0.00062211,0.00008422,0.00018321,-0.0005
 0021,-0.00053922,0.00047341,0.00061805,0.00317140,0.00597877,0.0002664
 2,-0.00007567,-0.00036771,0.00027564,-0.00077268,-0.00030561,-0.000617
 32,0.00008742,0.00018765,-0.00015141,0.00033807,-0.00028006,-0.0000295
 2,0.00058882,0.01298541,0.00497039,-0.00077900,-0.00099992,0.00022012,
 -0.00001817,-0.00001458,0.00005440,-0.00004917,0.00009930,-0.00005800,
 0.00293093,0.00253816,-0.00136286,0.00029369,-0.00076346,0.00006545,0.
 00013075,-0.00030310,-0.00020388,-0.00003216,0.00005354,0.00004305,0.0
 0021887,-0.00026164,-0.00044655,-0.00012449,0.00009056,0.00019368,0.00
 042264,-0.00080682,0.00063226,-0.00015896,0.00015922,0.00004905,-0.000
 01312,-0.00062740,0.00027759,-0.00003450,-0.00000597,-0.00019216,-0.00
 263574,-0.00062898,0.00186302,-0.00134528,-0.00052475,-0.00072546,0.01
 585278,-0.17069556,-0.06828189,-0.01759495,0.15233651,0.06366226\\0.00
 000047,-0.00000757,0.00000869,-0.00000513,0.00000747,0.00001024,0.0000
 0083,0.00000892,0.00000026,0.00000301,0.00001486,-0.00000639,0.0000019
 8,0.00000068,0.00000009,-0.00000058,0.00000050,0.00000118,0.00000950,-
 0.00001012,-0.00000728,-0.00000233,0.00000048,-0.00000468,0.00000468,0
 .00000681,-0.00000837,0.00000002,-0.00000272,-0.00000293,-0.00000269,0
 .00000092,0.00000104,-0.00000202,-0.00000254,0.00000144,-0.00000071,-0
 .00000386,0.00000465,0.00000266,-0.00000168,-0.00000208,-0.00000865,0.
 00000470,0.00001408,-0.00000090,0.00000182,-0.00000332,-0.00000557,-0.
 00000581,-0.00000582,0.00000057,0.00000302,0.00000324,0.00000055,0.000
 00408,-0.00000794,0.00000118,-0.00000053,0.00000421,0.00001799,-0.0000
 1148,-0.00000073,-0.00000484,0.00000331,0.00000072,0.00000262,-0.00000
 628,-0.00000215,-0.00000020,0.00000229,-0.00000296,-0.00001509,-0.0000
 0342,-0.00000027,0.00000265,-0.00000385,0.00000509\\\@
 The archive entry for this job was punched.


 IN THE FIGHT BETWEEN YOU AND THE WORLD, BACK THE WORLD

                                        -- FRANZ KAFKA
 Job cpu time:       0 days 10 hours 21 minutes 16.4 seconds.
 Elapsed time:       0 days  0 hours 39 minutes 22.6 seconds.
 File lengths (MBytes):  RWF=    704 Int=      0 D2E=      0 Chk=     27 Scr=      1
 Normal termination of Gaussian 16 at Wed Oct 11 15:58:36 2023.
