 Entering Gaussian System, Link 0=/opt/software/gaussian/g16.c01/g16
 Initial command:
 /opt/software/gaussian/g16.c01/l1.exe "/scratch/arhender/14836885/Gau-1993.inp" -scrdir="/scratch/arhender/14836885/"
 Entering Link 1 = /opt/software/gaussian/g16.c01/l1.exe PID=      1994.
  
 Copyright (c) 1988-2019, Gaussian, Inc.  All Rights Reserved.
  
 This is part of the Gaussian(R) 16 program.  It is based on
 the Gaussian(R) 09 system (copyright 2009, Gaussian, Inc.),
 the Gaussian(R) 03 system (copyright 2003, Gaussian, Inc.),
 the Gaussian(R) 98 system (copyright 1998, Gaussian, Inc.),
 the Gaussian(R) 94 system (copyright 1995, Gaussian, Inc.),
 the Gaussian 92(TM) system (copyright 1992, Gaussian, Inc.),
 the Gaussian 90(TM) system (copyright 1990, Gaussian, Inc.),
 the Gaussian 88(TM) system (copyright 1988, Gaussian, Inc.),
 the Gaussian 86(TM) system (copyright 1986, Carnegie Mellon
 University), and the Gaussian 82(TM) system (copyright 1983,
 Carnegie Mellon University). Gaussian is a federally registered
 trademark of Gaussian, Inc.
  
 This software contains proprietary and confidential information,
 including trade secrets, belonging to Gaussian, Inc.
  
 This software is provided under written license and may be
 used, copied, transmitted, or stored only in accord with that
 written license.
  
 The following legend is applicable only to US Government
 contracts under FAR:
  
                    RESTRICTED RIGHTS LEGEND
  
 Use, reproduction and disclosure by the US Government is
 subject to restrictions as set forth in subparagraphs (a)
 and (c) of the Commercial Computer Software - Restricted
 Rights clause in FAR 52.227-19.
  
 Gaussian, Inc.
 340 Quinnipiac St., Bldg. 40, Wallingford CT 06492
  
  
 ---------------------------------------------------------------
 Warning -- This program may not be used in any manner that
 competes with the business of Gaussian, Inc. or will provide
 assistance to any competitor of Gaussian, Inc.  The licensee
 of this program is prohibited from giving any competitor of
 Gaussian, Inc. access to this program.  By using this program,
 the user acknowledges that Gaussian, Inc. is engaged in the
 business of creating and licensing software in the field of
 computational chemistry and represents and warrants to the
 licensee that it is not a competitor of Gaussian, Inc. and that
 it will not use this program in any manner prohibited above.
 ---------------------------------------------------------------
  

 Cite this work as:
 Gaussian 16, Revision C.01,
 M. J. Frisch, G. W. Trucks, H. B. Schlegel, G. E. Scuseria, 
 M. A. Robb, J. R. Cheeseman, G. Scalmani, V. Barone, 
 G. A. Petersson, H. Nakatsuji, X. Li, M. Caricato, A. V. Marenich, 
 J. Bloino, B. G. Janesko, R. Gomperts, B. Mennucci, H. P. Hratchian, 
 J. V. Ortiz, A. F. Izmaylov, J. L. Sonnenberg, D. Williams-Young, 
 F. Ding, F. Lipparini, F. Egidi, J. Goings, B. Peng, A. Petrone, 
 T. Henderson, D. Ranasinghe, V. G. Zakrzewski, J. Gao, N. Rega, 
 G. Zheng, W. Liang, M. Hada, M. Ehara, K. Toyota, R. Fukuda, 
 J. Hasegawa, M. Ishida, T. Nakajima, Y. Honda, O. Kitao, H. Nakai, 
 T. Vreven, K. Throssell, J. A. Montgomery, Jr., J. E. Peralta, 
 F. Ogliaro, M. J. Bearpark, J. J. Heyd, E. N. Brothers, K. N. Kudin, 
 V. N. Staroverov, T. A. Keith, R. Kobayashi, J. Normand, 
 K. Raghavachari, A. P. Rendell, J. C. Burant, S. S. Iyengar, 
 J. Tomasi, M. Cossi, J. M. Millam, M. Klene, C. Adamo, R. Cammi, 
 J. W. Ochterski, R. L. Martin, K. Morokuma, O. Farkas, 
 J. B. Foresman, and D. J. Fox, Gaussian, Inc., Wallingford CT, 2019.
 
 ******************************************
 Gaussian 16:  ES64L-G16RevC.01  3-Jul-2019
                11-Oct-2023 
 ******************************************
 %chk=MannitolConformerOpt_30.chk
 %mem=8GB
 %nprocs=16
 Will use up to   16 processors via shared memory.
 ---------------------------------------------
 # opt freq wb97xd/Def2TZVPP geom=connectivity
 ---------------------------------------------
 1/18=20,19=15,26=3,38=1,57=2/1,3;
 2/9=110,12=2,17=6,18=5,40=1/2;
 3/5=44,7=202,11=2,25=1,30=1,71=1,74=-58/1,2,3;
 4//1;
 5/5=2,38=5/2;
 6/7=2,8=2,9=2,10=2,28=1/1;
 7//1,2,3,16;
 1/18=20,19=15,26=3/3(2);
 2/9=110/2;
 99//99;
 2/9=110/2;
 3/5=44,7=202,11=2,25=1,30=1,71=1,74=-58/1,2,3;
 4/5=5,16=3,69=1/1;
 5/5=2,38=5/2;
 7//1,2,3,16;
 1/18=20,19=15,26=3/3(-5);
 2/9=110/2;
 6/7=2,8=2,9=2,10=2,19=2,28=1/1;
 99/9=1/99;
 -------------------
 Title Card Required
 -------------------
 Symbolic Z-matrix:
 Charge =  0 Multiplicity = 1
 C                     0.        0.        0. 
 C                     1.5393    0.        0. 
 C                    -0.5651    1.1072   -0.9059 
 C                     2.167    -0.7542    1.1848 
 H                     1.9348    1.0223    0. 
 H                    -0.3678    0.1517    1.0216 
 C                    -2.0949    1.0512   -0.9978 
 H                    -0.151     1.0302   -1.9183 
 C                     1.7156   -2.2086    1.3514 
 H                     1.9869   -0.2064    2.117 
 H                    -2.5473    1.1835   -0.0099 
 H                    -2.4571    0.1155   -1.4337 
 H                     1.898    -2.7903    0.4426 
 H                     0.6626   -2.2767    1.6363 
 O                    -2.5447    2.1431   -1.8096 
 H                    -2.3649    1.9015   -2.7359 
 O                    -0.1932    2.395    -0.3938 
 H                    -0.8255    3.0266   -0.7945 
 O                    -0.4572   -1.2785   -0.4678 
 H                     0.1544   -1.5016   -1.204 
 O                     1.9859   -0.618    -1.2289 
 H                     2.9591   -0.6819   -1.1151 
 O                     3.597    -0.7633    0.9782 
 H                     3.9318   -1.3844    1.6594 
 O                     2.5013   -2.7959    2.3975 
 H                     2.1789   -3.7091    2.5036 
 

 GradGradGradGradGradGradGradGradGradGradGradGradGradGradGradGradGradGrad
 Berny optimization.
 Initialization pass.
                           ----------------------------
                           !    Initial Parameters    !
                           ! (Angstroms and Degrees)  !
 --------------------------                            --------------------------
 ! Name  Definition              Value          Derivative Info.                !
 --------------------------------------------------------------------------------
 ! R1    R(1,2)                  1.5393         estimate D2E/DX2                !
 ! R2    R(1,3)                  1.5381         estimate D2E/DX2                !
 ! R3    R(1,6)                  1.0963         estimate D2E/DX2                !
 ! R4    R(1,19)                 1.4361         estimate D2E/DX2                !
 ! R5    R(2,4)                  1.5384         estimate D2E/DX2                !
 ! R6    R(2,5)                  1.0961         estimate D2E/DX2                !
 ! R7    R(2,21)                 1.4462         estimate D2E/DX2                !
 ! R8    R(3,7)                  1.5336         estimate D2E/DX2                !
 ! R9    R(3,8)                  1.0965         estimate D2E/DX2                !
 ! R10   R(3,17)                 1.4349         estimate D2E/DX2                !
 ! R11   R(4,9)                  1.5319         estimate D2E/DX2                !
 ! R12   R(4,10)                 1.0961         estimate D2E/DX2                !
 ! R13   R(4,23)                 1.4449         estimate D2E/DX2                !
 ! R14   R(7,11)                 1.0946         estimate D2E/DX2                !
 ! R15   R(7,12)                 1.094          estimate D2E/DX2                !
 ! R16   R(7,15)                 1.433          estimate D2E/DX2                !
 ! R17   R(9,13)                 1.0943         estimate D2E/DX2                !
 ! R18   R(9,14)                 1.093          estimate D2E/DX2                !
 ! R19   R(9,25)                 1.4341         estimate D2E/DX2                !
 ! R20   R(15,16)                0.974          estimate D2E/DX2                !
 ! R21   R(17,18)                0.9794         estimate D2E/DX2                !
 ! R22   R(19,20)                0.9828         estimate D2E/DX2                !
 ! R23   R(21,22)                0.9819         estimate D2E/DX2                !
 ! R24   R(23,24)                0.9808         estimate D2E/DX2                !
 ! R25   R(25,26)                0.9742         estimate D2E/DX2                !
 ! A1    A(2,1,3)              111.5548         estimate D2E/DX2                !
 ! A2    A(2,1,6)              109.6018         estimate D2E/DX2                !
 ! A3    A(2,1,19)             108.5637         estimate D2E/DX2                !
 ! A4    A(3,1,6)              109.0233         estimate D2E/DX2                !
 ! A5    A(3,1,19)             109.3913         estimate D2E/DX2                !
 ! A6    A(6,1,19)             108.6577         estimate D2E/DX2                !
 ! A7    A(1,2,4)              114.0811         estimate D2E/DX2                !
 ! A8    A(1,2,5)              111.1501         estimate D2E/DX2                !
 ! A9    A(1,2,21)             107.9871         estimate D2E/DX2                !
 ! A10   A(4,2,5)              108.06           estimate D2E/DX2                !
 ! A11   A(4,2,21)             108.5985         estimate D2E/DX2                !
 ! A12   A(5,2,21)             106.6852         estimate D2E/DX2                !
 ! A13   A(1,3,7)              112.0548         estimate D2E/DX2                !
 ! A14   A(1,3,8)              110.7616         estimate D2E/DX2                !
 ! A15   A(1,3,17)             109.9145         estimate D2E/DX2                !
 ! A16   A(7,3,8)              108.5919         estimate D2E/DX2                !
 ! A17   A(7,3,17)             108.2219         estimate D2E/DX2                !
 ! A18   A(8,3,17)             107.1365         estimate D2E/DX2                !
 ! A19   A(2,4,9)              115.4026         estimate D2E/DX2                !
 ! A20   A(2,4,10)             110.0555         estimate D2E/DX2                !
 ! A21   A(2,4,23)             107.265          estimate D2E/DX2                !
 ! A22   A(9,4,10)             109.4851         estimate D2E/DX2                !
 ! A23   A(9,4,23)             107.5296         estimate D2E/DX2                !
 ! A24   A(10,4,23)            106.7001         estimate D2E/DX2                !
 ! A25   A(3,7,11)             110.7193         estimate D2E/DX2                !
 ! A26   A(3,7,12)             112.6678         estimate D2E/DX2                !
 ! A27   A(3,7,15)             108.6163         estimate D2E/DX2                !
 ! A28   A(11,7,12)            109.0363         estimate D2E/DX2                !
 ! A29   A(11,7,15)            106.8252         estimate D2E/DX2                !
 ! A30   A(12,7,15)            108.7885         estimate D2E/DX2                !
 ! A31   A(4,9,13)             111.4217         estimate D2E/DX2                !
 ! A32   A(4,9,14)             111.8009         estimate D2E/DX2                !
 ! A33   A(4,9,25)             107.8604         estimate D2E/DX2                !
 ! A34   A(13,9,14)            110.1165         estimate D2E/DX2                !
 ! A35   A(13,9,25)            107.2643         estimate D2E/DX2                !
 ! A36   A(14,9,25)            108.1905         estimate D2E/DX2                !
 ! A37   A(7,15,16)            106.9655         estimate D2E/DX2                !
 ! A38   A(3,17,18)            105.392          estimate D2E/DX2                !
 ! A39   A(1,19,20)            104.3587         estimate D2E/DX2                !
 ! A40   A(2,21,22)            103.6147         estimate D2E/DX2                !
 ! A41   A(4,23,24)            104.0358         estimate D2E/DX2                !
 ! A42   A(9,25,26)            106.3802         estimate D2E/DX2                !
 ! D1    D(3,1,2,4)            161.769          estimate D2E/DX2                !
 ! D2    D(3,1,2,5)             39.2897         estimate D2E/DX2                !
 ! D3    D(3,1,2,21)           -77.4076         estimate D2E/DX2                !
 ! D4    D(6,1,2,4)             40.9256         estimate D2E/DX2                !
 ! D5    D(6,1,2,5)            -81.5537         estimate D2E/DX2                !
 ! D6    D(6,1,2,21)           161.749          estimate D2E/DX2                !
 ! D7    D(19,1,2,4)           -77.6181         estimate D2E/DX2                !
 ! D8    D(19,1,2,5)           159.9026         estimate D2E/DX2                !
 ! D9    D(19,1,2,21)           43.2052         estimate D2E/DX2                !
 ! D10   D(2,1,3,7)            175.6993         estimate D2E/DX2                !
 ! D11   D(2,1,3,8)             54.2681         estimate D2E/DX2                !
 ! D12   D(2,1,3,17)           -63.9282         estimate D2E/DX2                !
 ! D13   D(6,1,3,7)            -63.12           estimate D2E/DX2                !
 ! D14   D(6,1,3,8)            175.4488         estimate D2E/DX2                !
 ! D15   D(6,1,3,17)            57.2525         estimate D2E/DX2                !
 ! D16   D(19,1,3,7)            55.5722         estimate D2E/DX2                !
 ! D17   D(19,1,3,8)           -65.859          estimate D2E/DX2                !
 ! D18   D(19,1,3,17)          175.9446         estimate D2E/DX2                !
 ! D19   D(2,1,19,20)          -40.2154         estimate D2E/DX2                !
 ! D20   D(3,1,19,20)           81.7272         estimate D2E/DX2                !
 ! D21   D(6,1,19,20)         -159.3538         estimate D2E/DX2                !
 ! D22   D(1,2,4,9)             55.2821         estimate D2E/DX2                !
 ! D23   D(1,2,4,10)           -69.2223         estimate D2E/DX2                !
 ! D24   D(1,2,4,23)           175.0682         estimate D2E/DX2                !
 ! D25   D(5,2,4,9)            179.4362         estimate D2E/DX2                !
 ! D26   D(5,2,4,10)            54.9318         estimate D2E/DX2                !
 ! D27   D(5,2,4,23)           -60.7777         estimate D2E/DX2                !
 ! D28   D(21,2,4,9)           -65.2003         estimate D2E/DX2                !
 ! D29   D(21,2,4,10)          170.2953         estimate D2E/DX2                !
 ! D30   D(21,2,4,23)           54.5858         estimate D2E/DX2                !
 ! D31   D(1,2,21,22)         -173.4889         estimate D2E/DX2                !
 ! D32   D(4,2,21,22)          -49.3024         estimate D2E/DX2                !
 ! D33   D(5,2,21,22)           66.9506         estimate D2E/DX2                !
 ! D34   D(1,3,7,11)            60.6004         estimate D2E/DX2                !
 ! D35   D(1,3,7,12)           -61.8038         estimate D2E/DX2                !
 ! D36   D(1,3,7,15)           177.5992         estimate D2E/DX2                !
 ! D37   D(8,3,7,11)          -176.729          estimate D2E/DX2                !
 ! D38   D(8,3,7,12)            60.8667         estimate D2E/DX2                !
 ! D39   D(8,3,7,15)           -59.7303         estimate D2E/DX2                !
 ! D40   D(17,3,7,11)          -60.7511         estimate D2E/DX2                !
 ! D41   D(17,3,7,12)          176.8446         estimate D2E/DX2                !
 ! D42   D(17,3,7,15)           56.2476         estimate D2E/DX2                !
 ! D43   D(1,3,17,18)         -160.0195         estimate D2E/DX2                !
 ! D44   D(7,3,17,18)          -37.3545         estimate D2E/DX2                !
 ! D45   D(8,3,17,18)           79.5664         estimate D2E/DX2                !
 ! D46   D(2,4,9,13)            56.2113         estimate D2E/DX2                !
 ! D47   D(2,4,9,14)           -67.4884         estimate D2E/DX2                !
 ! D48   D(2,4,9,25)           173.6866         estimate D2E/DX2                !
 ! D49   D(10,4,9,13)         -178.9877         estimate D2E/DX2                !
 ! D50   D(10,4,9,14)           57.3126         estimate D2E/DX2                !
 ! D51   D(10,4,9,25)          -61.5125         estimate D2E/DX2                !
 ! D52   D(23,4,9,13)          -63.4295         estimate D2E/DX2                !
 ! D53   D(23,4,9,14)          172.8708         estimate D2E/DX2                !
 ! D54   D(23,4,9,25)           54.0458         estimate D2E/DX2                !
 ! D55   D(2,4,23,24)         -170.1271         estimate D2E/DX2                !
 ! D56   D(9,4,23,24)          -45.4282         estimate D2E/DX2                !
 ! D57   D(10,4,23,24)          71.9574         estimate D2E/DX2                !
 ! D58   D(3,7,15,16)           76.5234         estimate D2E/DX2                !
 ! D59   D(11,7,15,16)        -164.0121         estimate D2E/DX2                !
 ! D60   D(12,7,15,16)         -46.4435         estimate D2E/DX2                !
 ! D61   D(4,9,25,26)          178.3117         estimate D2E/DX2                !
 ! D62   D(13,9,25,26)         -61.558          estimate D2E/DX2                !
 ! D63   D(14,9,25,26)          57.2074         estimate D2E/DX2                !
 --------------------------------------------------------------------------------
 Trust Radius=3.00D-01 FncErr=1.00D-07 GrdErr=1.00D-06 EigMax=2.50D+02 EigMin=1.00D-04
 Number of steps in this run=    140 maximum allowed number of steps=    156.
 GradGradGradGradGradGradGradGradGradGradGradGradGradGradGradGradGradGrad

                          Input orientation:                          
 ---------------------------------------------------------------------
 Center     Atomic      Atomic             Coordinates (Angstroms)
 Number     Number       Type             X           Y           Z
 ---------------------------------------------------------------------
      1          6           0        0.000000    0.000000    0.000000
      2          6           0        1.539300    0.000000    0.000000
      3          6           0       -0.565100    1.107200   -0.905900
      4          6           0        2.167000   -0.754200    1.184800
      5          1           0        1.934800    1.022300    0.000000
      6          1           0       -0.367800    0.151700    1.021600
      7          6           0       -2.094900    1.051200   -0.997800
      8          1           0       -0.151000    1.030200   -1.918300
      9          6           0        1.715600   -2.208600    1.351400
     10          1           0        1.986900   -0.206400    2.117000
     11          1           0       -2.547300    1.183500   -0.009900
     12          1           0       -2.457100    0.115500   -1.433700
     13          1           0        1.898000   -2.790300    0.442600
     14          1           0        0.662600   -2.276700    1.636300
     15          8           0       -2.544700    2.143100   -1.809600
     16          1           0       -2.364900    1.901500   -2.735900
     17          8           0       -0.193200    2.395000   -0.393800
     18          1           0       -0.825500    3.026600   -0.794500
     19          8           0       -0.457200   -1.278500   -0.467800
     20          1           0        0.154400   -1.501600   -1.204000
     21          8           0        1.985900   -0.618000   -1.228900
     22          1           0        2.959100   -0.681900   -1.115100
     23          8           0        3.597000   -0.763300    0.978200
     24          1           0        3.931800   -1.384400    1.659400
     25          8           0        2.501300   -2.795900    2.397500
     26          1           0        2.178900   -3.709100    2.503600
 ---------------------------------------------------------------------
                    Distance matrix (angstroms):
                    1          2          3          4          5
     1  C    0.000000
     2  C    1.539300   0.000000
     3  C    1.538143   2.544611   0.000000
     4  C    2.582336   1.538368   3.911548   0.000000
     5  H    2.188275   1.096138   2.660331   2.147934   0.000000
     6  H    1.096338   2.168804   2.160362   2.696757   2.665254
     7  C    2.547397   3.912549   1.533581   5.117324   4.151496
     8  H    2.182656   2.756502   1.096522   4.264556   2.833813
     9  C    3.106039   2.595241   4.614274   1.531926   3.508995
    10  H    2.910681   2.173623   4.168474   1.096138   2.448287
    11  H    2.808827   4.254535   2.176638   5.235133   4.485009
    12  H    2.847135   4.247358   2.200388   5.384721   4.708138
    13  H    3.403538   2.847865   4.803730   2.183787   3.838381
    14  H    2.880951   2.937591   4.406905   2.187482   3.896071
    15  O    3.787219   4.954451   2.410099   6.289745   4.959513
    16  H    4.085781   5.132604   2.686837   6.554598   5.171611
    17  O    2.434837   2.982056   1.434916   4.240281   2.562766
    18  H    3.236200   3.922221   1.940184   5.212210   3.502528
    19  O    1.436117   2.416487   2.427991   3.145219   3.351743
    20  H    1.930870   2.371153   2.722569   3.211780   3.315043
    21  O    2.415764   1.446226   3.096489   2.424313   2.050217
    22  H    3.234920   1.929836   3.957857   2.433555   2.279679
    23  O    3.804985   2.402838   4.936768   1.444876   2.628336
    24  H    4.486560   3.224008   5.745515   1.933111   3.540314
    25  O    4.452142   3.806640   5.962336   2.398111   4.543961
    26  H    4.977252   4.520456   6.507762   3.235863   5.358521
                    6          7          8          9         10
     6  H    0.000000
     7  C    2.805343   0.000000
     8  H    3.076000   2.150932   0.000000
     9  C    3.165492   5.537594   4.966383   0.000000
    10  H    2.621593   5.286268   4.731114   2.160683   0.000000
    11  H    2.622751   1.094585   3.067205   5.615318   5.197547
    12  H    3.224125   1.093953   2.527768   5.528983   5.697388
    13  H    3.758252   5.724956   4.936443   1.094332   3.080269
    14  H    2.708636   5.061344   4.922673   1.092984   2.504193
    15  O    4.089042   1.433033   2.642000   6.861441   6.440011
    16  H    4.600980   1.953689   2.515748   7.088683   6.850697
    17  O    2.658239   2.405634   2.046597   5.280376   4.221876
    18  H    3.431145   2.356886   2.388198   6.202370   5.180610
    19  O    2.066828   2.896630   2.743684   2.982555   3.715402
    20  H    2.821239   3.408615   2.648302   3.076892   4.008072
    21  O    3.346206   4.415038   2.785350   3.043192   3.371122
    22  H    4.040871   5.344185   3.639937   3.156062   3.408481
    23  O    4.069244   6.292433   5.064964   2.401632   2.049250
    24  H    4.610092   7.022391   5.941337   2.384473   2.319422
    25  O    4.337416   6.888635   6.348218   1.434075   2.654957
    26  H    4.856725   7.292847   6.887859   1.947745   3.529197
                   11         12         13         14         15
    11  H    0.000000
    12  H    1.782124   0.000000
    13  H    5.979677   5.561571   0.000000
    14  H    4.998641   4.987990   1.793019   0.000000
    15  O    2.039549   2.064010   7.010594   6.457216   0.000000
    16  H    2.824866   2.212244   7.091415   6.763080   0.974028
    17  O    2.675238   3.376797   5.653319   5.165122   2.756355
    18  H    2.641441   3.397823   6.540963   6.020650   2.183266
    19  O    3.261845   2.622174   2.943015   2.584104   4.226752
    20  H    3.991844   3.080212   2.722532   2.987700   4.575558
    21  O    5.028048   4.507795   2.742358   3.565358   5.337342
    22  H    5.917907   5.483847   2.828023   3.922691   6.225333
    23  O    6.520644   6.575840   2.698555   3.366627   7.344349
    24  H    7.166548   7.254999   2.755631   3.388864   8.149986
    25  O    6.864369   6.909419   2.045883   2.056651   8.219217
    26  H    7.252047   7.184872   2.273944   2.259014   8.669737
                   16         17         18         19         20
    16  H    0.000000
    17  O    3.231912   0.000000
    18  H    2.721146   0.979430   0.000000
    19  O    4.346953   3.683717   4.333159   0.000000
    20  H    4.502741   3.995090   4.651074   0.982761   0.000000
    21  O    5.248656   3.811042   4.623395   2.642777   2.033657
    22  H    6.135627   4.463696   5.308385   3.527894   2.923380
    23  O    7.512653   5.120826   6.088047   4.335076   4.142291
    24  H    8.352499   5.959456   6.936170   4.878475   4.741471
    25  O    8.491011   6.480519   7.426841   4.389211   4.489316
    26  H    8.920612   7.161133   8.079204   4.656829   4.766336
                   21         22         23         24         25
    21  O    0.000000
    22  H    0.981912   0.000000
    23  O    2.736429   2.189851   0.000000
    24  H    3.565974   3.022830   0.980760   0.000000
    25  O    4.261416   4.125159   2.710431   2.140900   0.000000
    26  H    4.850124   4.782012   3.607713   3.031429   0.974235
                   26
    26  H    0.000000
 Stoichiometry    C6H14O6
 Framework group  C1[X(C6H14O6)]
 Deg. of freedom    72
 Full point group                 C1      NOp   1
 Largest Abelian subgroup         C1      NOp   1
 Largest concise Abelian subgroup C1      NOp   1
                         Standard orientation:                         
 ---------------------------------------------------------------------
 Center     Atomic      Atomic             Coordinates (Angstroms)
 Number     Number       Type             X           Y           Z
 ---------------------------------------------------------------------
      1          6           0       -0.538807    0.323432   -0.204309
      2          6           0        0.532467   -0.735464    0.112795
      3          6           0       -1.958845   -0.227958    0.008640
      4          6           0        1.916638   -0.425985   -0.482914
      5          1           0        0.224955   -1.726932   -0.239264
      6          1           0       -0.435128    0.651233   -1.245343
      7          6           0       -3.031717    0.847479   -0.201713
      8          1           0       -2.068866   -0.638542    1.019421
      9          6           0        2.504317    0.937615   -0.106050
     10          1           0        1.886111   -0.521929   -1.574418
     11          1           0       -2.990573    1.241141   -1.222229
     12          1           0       -2.940751    1.677638    0.504894
     13          1           0        2.565988    1.059991    0.979668
     14          1           0        1.934716    1.760532   -0.545342
     15          8           0       -4.321697    0.244262   -0.041509
     16          1           0       -4.463351    0.125986    0.914878
     17          8           0       -2.210498   -1.299024   -0.912486
     18          1           0       -3.185572   -1.379728   -0.957219
     19          8           0       -0.332474    1.454504    0.656234
     20          1           0       -0.101148    1.059952    1.526082
     21          8           0        0.658916   -0.826172    1.550624
     22          1           0        1.422335   -1.430454    1.677848
     23          8           0        2.826812   -1.440002   -0.002271
     24          1           0        3.711347   -1.112189   -0.270646
     25          8           0        3.842737    0.996309   -0.617671
     26          1           0        4.185264    1.879571   -0.390389
 ---------------------------------------------------------------------
 Rotational constants (GHZ):           1.9561361           0.4154049           0.3868255
 Standard basis: def2TZVPP (5D, 7F)
 There are   642 symmetry adapted cartesian basis functions of A   symmetry.
 There are   568 symmetry adapted basis functions of A   symmetry.
   568 basis functions,   850 primitive gaussians,   642 cartesian basis functions
    49 alpha electrons       49 beta electrons
       nuclear repulsion energy       810.4752443788 Hartrees.
 NAtoms=   26 NActive=   26 NUniq=   26 SFac= 1.00D+00 NAtFMM=   60 NAOKFM=F Big=F
 Integral buffers will be    131072 words long.
 Raffenetti 2 integral format.
 Two-electron integral symmetry is turned on.
 Nuclear repulsion after empirical dispersion term =      810.4576442736 Hartrees.
 One-electron integrals computed using PRISM.
   1 Symmetry operations used in ECPInt.
 ECPInt:  NShTT=   23436 NPrTT=   62434 LenC2=   21446 LenP2D=   44360.
 LDataN:  DoStor=T MaxTD1= 6 Len=  172
 NBasis=   568 RedAO= T EigKep=  4.83D-05  NBF=   568
 NBsUse=   568 1.00D-06 EigRej= -1.00D+00 NBFU=   568
 ExpMin= 9.52D-02 ExpMax= 2.70D+04 ExpMxC= 9.22D+02 IAcc=3 IRadAn=         5 AccDes= 0.00D+00
 Harris functional with IExCor= 4639 and IRadAn=       5 diagonalized for initial guess.
 HarFok:  IExCor= 4639 AccDes= 0.00D+00 IRadAn=         5 IDoV= 1 UseB2=F ITyADJ=14
 ICtDFT=  3500011 ScaDFX=  1.000000  1.000000  1.000000  1.000000
 FoFCou: FMM=F IPFlag=           0 FMFlag=      100000 FMFlg1=           0
         NFxFlg=           0 DoJE=T BraDBF=F KetDBF=T FulRan=T
         wScrn=  0.000000 ICntrl=       500 IOpCl=  0 I1Cent=   200000004 NGrid=           0
         NMat0=    1 NMatS0=      1 NMatT0=    0 NMatD0=    1 NMtDS0=    0 NMtDT0=    0
 Petite list used in FoFCou.
 Requested convergence on RMS density matrix=1.00D-08 within 128 cycles.
 Requested convergence on MAX density matrix=1.00D-06.
 Requested convergence on             energy=1.00D-06.
 No special actions if energy rises.
 Integral accuracy reduced to 1.0D-05 until final iterations.
 Initial convergence to 1.0D-05 achieved.  Increase integral accuracy.
 SCF Done:  E(RwB97XD) =  -688.470108145     A.U. after   14 cycles
            NFock= 14  Conv=0.20D-08     -V/T= 2.0050

 **********************************************************************

            Population analysis using the SCF Density.

 **********************************************************************

 Orbital symmetries:
       Occupied  (A) (A) (A) (A) (A) (A) (A) (A) (A) (A) (A) (A)
                 (A) (A) (A) (A) (A) (A) (A) (A) (A) (A) (A) (A)
                 (A) (A) (A) (A) (A) (A) (A) (A) (A) (A) (A) (A)
                 (A) (A) (A) (A) (A) (A) (A) (A) (A) (A) (A) (A)
                 (A)
       Virtual   (A) (A) (A) (A) (A) (A) (A) (A) (A) (A) (A) (A)
                 (A) (A) (A) (A) (A) (A) (A) (A) (A) (A) (A) (A)
                 (A) (A) (A) (A) (A) (A) (A) (A) (A) (A) (A) (A)
                 (A) (A) (A) (A) (A) (A) (A) (A) (A) (A) (A) (A)
                 (A) (A) (A) (A) (A) (A) (A) (A) (A) (A) (A) (A)
                 (A) (A) (A) (A) (A) (A) (A) (A) (A) (A) (A) (A)
                 (A) (A) (A) (A) (A) (A) (A) (A) (A) (A) (A) (A)
                 (A) (A) (A) (A) (A) (A) (A) (A) (A) (A) (A) (A)
                 (A) (A) (A) (A) (A) (A) (A) (A) (A) (A) (A) (A)
                 (A) (A) (A) (A) (A) (A) (A) (A) (A) (A) (A) (A)
                 (A) (A) (A) (A) (A) (A) (A) (A) (A) (A) (A) (A)
                 (A) (A) (A) (A) (A) (A) (A) (A) (A) (A) (A) (A)
                 (A) (A) (A) (A) (A) (A) (A) (A) (A) (A) (A) (A)
                 (A) (A) (A) (A) (A) (A) (A) (A) (A) (A) (A) (A)
                 (A) (A) (A) (A) (A) (A) (A) (A) (A) (A) (A) (A)
                 (A) (A) (A) (A) (A) (A) (A) (A) (A) (A) (A) (A)
                 (A) (A) (A) (A) (A) (A) (A) (A) (A) (A) (A) (A)
                 (A) (A) (A) (A) (A) (A) (A) (A) (A) (A) (A) (A)
                 (A) (A) (A) (A) (A) (A) (A) (A) (A) (A) (A) (A)
                 (A) (A) (A) (A) (A) (A) (A) (A) (A) (A) (A) (A)
                 (A) (A) (A) (A) (A) (A) (A) (A) (A) (A) (A) (A)
                 (A) (A) (A) (A) (A) (A) (A) (A) (A) (A) (A) (A)
                 (A) (A) (A) (A) (A) (A) (A) (A) (A) (A) (A) (A)
                 (A) (A) (A) (A) (A) (A) (A) (A) (A) (A) (A) (A)
                 (A) (A) (A) (A) (A) (A) (A) (A) (A) (A) (A) (A)
                 (A) (A) (A) (A) (A) (A) (A) (A) (A) (A) (A) (A)
                 (A) (A) (A) (A) (A) (A) (A) (A) (A) (A) (A) (A)
                 (A) (A) (A) (A) (A) (A) (A) (A) (A) (A) (A) (A)
                 (A) (A) (A) (A) (A) (A) (A) (A) (A) (A) (A) (A)
                 (A) (A) (A) (A) (A) (A) (A) (A) (A) (A) (A) (A)
                 (A) (A) (A) (A) (A) (A) (A) (A) (A) (A) (A) (A)
                 (A) (A) (A) (A) (A) (A) (A) (A) (A) (A) (A) (A)
                 (A) (A) (A) (A) (A) (A) (A) (A) (A) (A) (A) (A)
                 (A) (A) (A) (A) (A) (A) (A) (A) (A) (A) (A) (A)
                 (A) (A) (A) (A) (A) (A) (A) (A) (A) (A) (A) (A)
                 (A) (A) (A) (A) (A) (A) (A) (A) (A) (A) (A) (A)
                 (A) (A) (A) (A) (A) (A) (A) (A) (A) (A) (A) (A)
                 (A) (A) (A) (A) (A) (A) (A) (A) (A) (A) (A) (A)
                 (A) (A) (A) (A) (A) (A) (A) (A) (A) (A) (A) (A)
                 (A) (A) (A) (A) (A) (A) (A) (A) (A) (A) (A) (A)
                 (A) (A) (A) (A) (A) (A) (A) (A) (A) (A) (A) (A)
                 (A) (A) (A) (A) (A) (A) (A) (A) (A) (A) (A) (A)
                 (A) (A) (A) (A) (A) (A) (A) (A) (A) (A) (A) (A)
                 (A) (A) (A)
 The electronic state is 1-A.
 Alpha  occ. eigenvalues --  -19.26439 -19.26406 -19.26088 -19.25619 -19.25593
 Alpha  occ. eigenvalues --  -19.24736 -10.35032 -10.34628 -10.34570 -10.33857
 Alpha  occ. eigenvalues --  -10.33523 -10.33439  -1.15316  -1.14315  -1.13703
 Alpha  occ. eigenvalues --   -1.11986  -1.10959  -1.10553  -0.88285  -0.85127
 Alpha  occ. eigenvalues --   -0.80336  -0.75011  -0.70169  -0.68725  -0.63378
 Alpha  occ. eigenvalues --   -0.61716  -0.60652  -0.59676  -0.59031  -0.57122
 Alpha  occ. eigenvalues --   -0.56241  -0.56021  -0.54186  -0.52613  -0.50709
 Alpha  occ. eigenvalues --   -0.49359  -0.48588  -0.46356  -0.44950  -0.44054
 Alpha  occ. eigenvalues --   -0.43555  -0.42650  -0.42523  -0.39958  -0.38029
 Alpha  occ. eigenvalues --   -0.37394  -0.36755  -0.35782  -0.35464
 Alpha virt. eigenvalues --    0.09270   0.09589   0.11041   0.12572   0.13648
 Alpha virt. eigenvalues --    0.15543   0.16082   0.17210   0.17922   0.18361
 Alpha virt. eigenvalues --    0.19490   0.19976   0.20773   0.21335   0.21468
 Alpha virt. eigenvalues --    0.22697   0.23283   0.24560   0.25173   0.26028
 Alpha virt. eigenvalues --    0.27399   0.29770   0.30642   0.32189   0.32632
 Alpha virt. eigenvalues --    0.34571   0.36037   0.36627   0.37351   0.38586
 Alpha virt. eigenvalues --    0.39498   0.40209   0.40938   0.41251   0.41445
 Alpha virt. eigenvalues --    0.42152   0.42713   0.43337   0.44530   0.44880
 Alpha virt. eigenvalues --    0.45251   0.46237   0.47206   0.47889   0.48409
 Alpha virt. eigenvalues --    0.48800   0.49049   0.49531   0.50700   0.51431
 Alpha virt. eigenvalues --    0.51950   0.52764   0.53638   0.54165   0.54913
 Alpha virt. eigenvalues --    0.55025   0.56118   0.57332   0.57937   0.58538
 Alpha virt. eigenvalues --    0.59475   0.60861   0.61221   0.62569   0.64055
 Alpha virt. eigenvalues --    0.64846   0.65595   0.66405   0.66495   0.68657
 Alpha virt. eigenvalues --    0.69524   0.69649   0.70421   0.71762   0.72144
 Alpha virt. eigenvalues --    0.73435   0.74710   0.75445   0.76379   0.79622
 Alpha virt. eigenvalues --    0.80474   0.82099   0.83124   0.84688   0.86067
 Alpha virt. eigenvalues --    0.87015   0.88807   0.89267   0.90879   0.91463
 Alpha virt. eigenvalues --    0.92617   0.93549   0.94374   0.95078   0.95868
 Alpha virt. eigenvalues --    0.96391   0.96892   0.98594   0.99856   1.00438
 Alpha virt. eigenvalues --    1.01335   1.02130   1.03283   1.04510   1.05339
 Alpha virt. eigenvalues --    1.08437   1.08726   1.10198   1.11463   1.12074
 Alpha virt. eigenvalues --    1.13055   1.13522   1.15500   1.16485   1.17231
 Alpha virt. eigenvalues --    1.18817   1.19922   1.22469   1.22926   1.23743
 Alpha virt. eigenvalues --    1.25878   1.26390   1.27959   1.29100   1.29618
 Alpha virt. eigenvalues --    1.31009   1.31998   1.32354   1.33065   1.34115
 Alpha virt. eigenvalues --    1.34779   1.37944   1.39069   1.39523   1.41024
 Alpha virt. eigenvalues --    1.41588   1.42233   1.43356   1.43749   1.45540
 Alpha virt. eigenvalues --    1.46644   1.48559   1.49024   1.50345   1.50519
 Alpha virt. eigenvalues --    1.53093   1.53871   1.55200   1.56145   1.57450
 Alpha virt. eigenvalues --    1.57886   1.57993   1.58998   1.62294   1.63268
 Alpha virt. eigenvalues --    1.65994   1.66916   1.68270   1.70059   1.71999
 Alpha virt. eigenvalues --    1.73068   1.76392   1.77114   1.78803   1.80164
 Alpha virt. eigenvalues --    1.88573   1.89139   1.89495   1.91218   1.92474
 Alpha virt. eigenvalues --    1.92982   1.94743   1.95142   1.95898   1.97811
 Alpha virt. eigenvalues --    2.01046   2.01425   2.02345   2.03772   2.04440
 Alpha virt. eigenvalues --    2.05714   2.06535   2.07071   2.07739   2.09190
 Alpha virt. eigenvalues --    2.10823   2.11858   2.13677   2.15363   2.15587
 Alpha virt. eigenvalues --    2.16261   2.19499   2.20105   2.22609   2.24982
 Alpha virt. eigenvalues --    2.27304   2.27994   2.28591   2.29701   2.31326
 Alpha virt. eigenvalues --    2.32999   2.36084   2.38384   2.40174   2.41689
 Alpha virt. eigenvalues --    2.42441   2.44545   2.47360   2.50262   2.50553
 Alpha virt. eigenvalues --    2.54524   2.55468   2.58248   2.61128   2.62852
 Alpha virt. eigenvalues --    2.64579   2.65829   2.68718   2.70295   2.70572
 Alpha virt. eigenvalues --    2.71627   2.72790   2.73240   2.77250   2.78604
 Alpha virt. eigenvalues --    2.79270   2.80316   2.81282   2.83441   2.84137
 Alpha virt. eigenvalues --    2.85458   2.87378   2.87802   2.88470   2.90247
 Alpha virt. eigenvalues --    2.91616   2.93899   2.94701   2.96310   2.97554
 Alpha virt. eigenvalues --    2.98746   3.01141   3.01372   3.02125   3.03622
 Alpha virt. eigenvalues --    3.04786   3.05998   3.08129   3.09310   3.09647
 Alpha virt. eigenvalues --    3.12411   3.12896   3.14607   3.15510   3.15611
 Alpha virt. eigenvalues --    3.17078   3.18701   3.19294   3.19752   3.22019
 Alpha virt. eigenvalues --    3.22425   3.23836   3.24813   3.25446   3.26312
 Alpha virt. eigenvalues --    3.27998   3.28440   3.29748   3.30418   3.31333
 Alpha virt. eigenvalues --    3.32932   3.33680   3.35130   3.36034   3.36099
 Alpha virt. eigenvalues --    3.38020   3.38396   3.39926   3.41123   3.41703
 Alpha virt. eigenvalues --    3.42103   3.42848   3.43861   3.45171   3.46392
 Alpha virt. eigenvalues --    3.47536   3.49183   3.49793   3.50763   3.52766
 Alpha virt. eigenvalues --    3.54264   3.54857   3.56554   3.58015   3.58099
 Alpha virt. eigenvalues --    3.59813   3.61085   3.62181   3.63865   3.65973
 Alpha virt. eigenvalues --    3.68717   3.69658   3.71261   3.71735   3.72515
 Alpha virt. eigenvalues --    3.73271   3.73944   3.74397   3.77109   3.78247
 Alpha virt. eigenvalues --    3.79224   3.79351   3.80184   3.81279   3.83439
 Alpha virt. eigenvalues --    3.86145   3.86438   3.87256   3.89234   3.90376
 Alpha virt. eigenvalues --    3.91737   3.92858   3.93799   3.94266   3.95638
 Alpha virt. eigenvalues --    3.97419   3.97921   3.98846   3.99858   4.00054
 Alpha virt. eigenvalues --    4.02216   4.02603   4.04098   4.04780   4.05603
 Alpha virt. eigenvalues --    4.07281   4.08118   4.09202   4.10635   4.11037
 Alpha virt. eigenvalues --    4.12182   4.13788   4.14551   4.15574   4.16638
 Alpha virt. eigenvalues --    4.17748   4.18675   4.19075   4.20153   4.21635
 Alpha virt. eigenvalues --    4.22272   4.23596   4.24427   4.26181   4.28112
 Alpha virt. eigenvalues --    4.28926   4.30023   4.31525   4.33364   4.34073
 Alpha virt. eigenvalues --    4.34305   4.35054   4.37879   4.38568   4.39871
 Alpha virt. eigenvalues --    4.41229   4.41671   4.43394   4.44517   4.45440
 Alpha virt. eigenvalues --    4.47404   4.48624   4.49682   4.52431   4.54651
 Alpha virt. eigenvalues --    4.56740   4.57541   4.59088   4.59603   4.61366
 Alpha virt. eigenvalues --    4.63632   4.66605   4.67806   4.70993   4.72702
 Alpha virt. eigenvalues --    4.74169   4.75968   4.76557   4.78672   4.80176
 Alpha virt. eigenvalues --    4.81097   4.82934   4.84033   4.86384   4.86629
 Alpha virt. eigenvalues --    4.89790   4.91016   4.94303   4.95425   4.96364
 Alpha virt. eigenvalues --    4.97317   4.99655   5.01882   5.02808   5.03887
 Alpha virt. eigenvalues --    5.04219   5.05605   5.06114   5.08174   5.10118
 Alpha virt. eigenvalues --    5.11035   5.14834   5.17453   5.17704   5.20118
 Alpha virt. eigenvalues --    5.20975   5.22951   5.25245   5.26143   5.29129
 Alpha virt. eigenvalues --    5.31901   5.34834   5.37276   5.40997   5.43384
 Alpha virt. eigenvalues --    5.46472   5.49426   5.54669   5.57202   5.58492
 Alpha virt. eigenvalues --    5.61198   5.61885   5.63929   5.64629   5.67657
 Alpha virt. eigenvalues --    5.69498   5.70802   5.71234   5.71694   5.72985
 Alpha virt. eigenvalues --    5.75276   5.79397   5.80361   5.83051   5.85035
 Alpha virt. eigenvalues --    5.86905   5.88201   5.90974   5.92266   5.96979
 Alpha virt. eigenvalues --    5.98004   6.00240   6.03127   6.11419   6.13666
 Alpha virt. eigenvalues --    6.14563   6.15225   6.18346   6.20147   6.53081
 Alpha virt. eigenvalues --    6.54526   6.55328   6.56079   6.56337   6.56515
 Alpha virt. eigenvalues --    6.72264   6.73504   6.73855   6.74499   6.74919
 Alpha virt. eigenvalues --    6.77086   6.77782   6.78309   6.79639   6.80005
 Alpha virt. eigenvalues --    6.80035   6.81272   6.82512   6.84399   6.87537
 Alpha virt. eigenvalues --    6.88245   6.89991   6.92304   6.95923   6.98846
 Alpha virt. eigenvalues --    7.02677   7.03875   7.04790   7.06267   7.13694
 Alpha virt. eigenvalues --    7.16268   7.18154   7.20920   7.22598   7.24792
 Alpha virt. eigenvalues --    7.40825   7.42046   7.42650   7.43540   7.44271
 Alpha virt. eigenvalues --    7.46793   7.49567   7.53004   7.55136   7.57886
 Alpha virt. eigenvalues --    7.58600   7.66521  23.13030  23.14701  23.16042
 Alpha virt. eigenvalues --   23.21473  23.40451  23.45880  44.08485  44.16332
 Alpha virt. eigenvalues --   44.20250  44.25773  44.32947  44.35493
          Condensed to atoms (all electrons):
               1          2          3          4          5          6
     1  C    5.136030   0.121369   0.166324   0.065653  -0.045338   0.384746
     2  C    0.121369   5.227278   0.026428   0.083719   0.442700  -0.045149
     3  C    0.166324   0.026428   4.923122  -0.019179  -0.003602  -0.012249
     4  C    0.065653   0.083719  -0.019179   5.020794  -0.027788   0.003491
     5  H   -0.045338   0.442700  -0.003602  -0.027788   0.531525   0.002424
     6  H    0.384746  -0.045149  -0.012249   0.003491   0.002424   0.583708
     7  C   -0.014326   0.001859   0.320251  -0.000843   0.000369  -0.014794
     8  H   -0.037238  -0.018150   0.405690   0.000817  -0.001208   0.009020
     9  C    0.003366   0.015491   0.001726   0.253711   0.007328  -0.003829
    10  H   -0.011402  -0.031808  -0.000168   0.435496  -0.005335   0.003317
    11  H   -0.006479  -0.000777  -0.021868   0.000163  -0.000059   0.006248
    12  H   -0.000163  -0.000975  -0.059275  -0.000025  -0.000166   0.001601
    13  H   -0.015038   0.025280   0.000116  -0.049904   0.000554   0.000644
    14  H    0.009312  -0.021907  -0.000128  -0.018235  -0.000754  -0.001473
    15  O    0.013226  -0.000264  -0.049032   0.000030  -0.000069   0.000067
    16  H    0.000494   0.000060   0.007659   0.000008  -0.000008   0.000093
    17  O   -0.072963  -0.010285   0.309996  -0.001505   0.016169   0.014189
    18  H    0.013594   0.000479  -0.046161   0.000040  -0.000900  -0.000221
    19  O    0.226191  -0.000200  -0.015467  -0.029699   0.002784  -0.025294
    20  H   -0.070012  -0.008624   0.021246   0.001230   0.001478   0.007725
    21  O   -0.051564   0.218651  -0.005489  -0.015581  -0.032690   0.002774
    22  H    0.008399  -0.043655   0.000412  -0.002169  -0.005240  -0.000256
    23  O    0.005710  -0.072521  -0.000068   0.280024   0.002111  -0.000011
    24  H   -0.001158   0.008880   0.000030  -0.041661  -0.000358  -0.000033
    25  O   -0.001043   0.007863  -0.000008  -0.073531  -0.000087  -0.000149
    26  H    0.000084  -0.001682  -0.000009   0.011259   0.000031  -0.000003
               7          8          9         10         11         12
     1  C   -0.014326  -0.037238   0.003366  -0.011402  -0.006479  -0.000163
     2  C    0.001859  -0.018150   0.015491  -0.031808  -0.000777  -0.000975
     3  C    0.320251   0.405690   0.001726  -0.000168  -0.021868  -0.059275
     4  C   -0.000843   0.000817   0.253711   0.435496   0.000163  -0.000025
     5  H    0.000369  -0.001208   0.007328  -0.005335  -0.000059  -0.000166
     6  H   -0.014794   0.009020  -0.003829   0.003317   0.006248   0.001601
     7  C    4.755725  -0.038933   0.000271   0.000011   0.372966   0.445642
     8  H   -0.038933   0.650673  -0.000095  -0.000050   0.008587  -0.000313
     9  C    0.000271  -0.000095   4.773206  -0.046085  -0.000064   0.000004
    10  H    0.000011  -0.000050  -0.046085   0.606684   0.000008   0.000003
    11  H    0.372966   0.008587  -0.000064   0.000008   0.602445  -0.022685
    12  H    0.445642  -0.000313   0.000004   0.000003  -0.022685   0.577605
    13  H   -0.000027  -0.000057   0.411654   0.009312   0.000000  -0.000000
    14  H    0.000036  -0.000024   0.427328  -0.004626  -0.000001  -0.000006
    15  O    0.239610  -0.000108  -0.000001  -0.000000  -0.031209  -0.037475
    16  H   -0.045286   0.006576  -0.000001   0.000000   0.010406  -0.013336
    17  O   -0.030438  -0.048006  -0.000006   0.000346   0.001859   0.004976
    18  H   -0.010823  -0.003280   0.000014  -0.000021  -0.001815   0.001844
    19  O   -0.016318  -0.001739   0.019254  -0.000174   0.001176   0.014080
    20  H   -0.005064   0.002385  -0.000582   0.000025   0.000044   0.000596
    21  O    0.000426   0.011167  -0.020543   0.004463  -0.000011  -0.000023
    22  H    0.000020  -0.000571  -0.001373   0.001692   0.000001   0.000002
    23  O    0.000005  -0.000011  -0.036217  -0.038825  -0.000000  -0.000000
    24  H   -0.000001   0.000002  -0.005507  -0.004178   0.000000  -0.000000
    25  O    0.000000   0.000000   0.271660   0.004971  -0.000000  -0.000000
    26  H    0.000000  -0.000000  -0.031535  -0.000109  -0.000000  -0.000000
              13         14         15         16         17         18
     1  C   -0.015038   0.009312   0.013226   0.000494  -0.072963   0.013594
     2  C    0.025280  -0.021907  -0.000264   0.000060  -0.010285   0.000479
     3  C    0.000116  -0.000128  -0.049032   0.007659   0.309996  -0.046161
     4  C   -0.049904  -0.018235   0.000030   0.000008  -0.001505   0.000040
     5  H    0.000554  -0.000754  -0.000069  -0.000008   0.016169  -0.000900
     6  H    0.000644  -0.001473   0.000067   0.000093   0.014189  -0.000221
     7  C   -0.000027   0.000036   0.239610  -0.045286  -0.030438  -0.010823
     8  H   -0.000057  -0.000024  -0.000108   0.006576  -0.048006  -0.003280
     9  C    0.411654   0.427328  -0.000001  -0.000001  -0.000006   0.000014
    10  H    0.009312  -0.004626  -0.000000   0.000000   0.000346  -0.000021
    11  H    0.000000  -0.000001  -0.031209   0.010406   0.001859  -0.001815
    12  H   -0.000000  -0.000006  -0.037475  -0.013336   0.004976   0.001844
    13  H    0.598648  -0.030825   0.000000   0.000000  -0.000002   0.000000
    14  H   -0.030825   0.587085   0.000000  -0.000000  -0.000027   0.000002
    15  O    0.000000   0.000000   7.902464   0.310367  -0.016081   0.030333
    16  H    0.000000  -0.000000   0.310367   0.540331  -0.000158  -0.002296
    17  O   -0.000002  -0.000027  -0.016081  -0.000158   7.875710   0.327427
    18  H    0.000000   0.000002   0.030333  -0.002296   0.327427   0.490714
    19  O    0.000177   0.003490   0.000123   0.000079   0.002615  -0.000319
    20  H    0.001293  -0.001654  -0.000026  -0.000006  -0.000038   0.000007
    21  O    0.014675   0.001402  -0.000002  -0.000016   0.000313  -0.000054
    22  H    0.000517   0.000092  -0.000002   0.000000  -0.000009  -0.000007
    23  O    0.000714   0.005011  -0.000000  -0.000000   0.000011  -0.000001
    24  H   -0.001917   0.001661   0.000000  -0.000000  -0.000000   0.000000
    25  O   -0.049764  -0.043828   0.000000  -0.000000  -0.000000   0.000000
    26  H   -0.004584  -0.005750  -0.000000  -0.000000   0.000000   0.000000
              19         20         21         22         23         24
     1  C    0.226191  -0.070012  -0.051564   0.008399   0.005710  -0.001158
     2  C   -0.000200  -0.008624   0.218651  -0.043655  -0.072521   0.008880
     3  C   -0.015467   0.021246  -0.005489   0.000412  -0.000068   0.000030
     4  C   -0.029699   0.001230  -0.015581  -0.002169   0.280024  -0.041661
     5  H    0.002784   0.001478  -0.032690  -0.005240   0.002111  -0.000358
     6  H   -0.025294   0.007725   0.002774  -0.000256  -0.000011  -0.000033
     7  C   -0.016318  -0.005064   0.000426   0.000020   0.000005  -0.000001
     8  H   -0.001739   0.002385   0.011167  -0.000571  -0.000011   0.000002
     9  C    0.019254  -0.000582  -0.020543  -0.001373  -0.036217  -0.005507
    10  H   -0.000174   0.000025   0.004463   0.001692  -0.038825  -0.004178
    11  H    0.001176   0.000044  -0.000011   0.000001  -0.000000   0.000000
    12  H    0.014080   0.000596  -0.000023   0.000002  -0.000000  -0.000000
    13  H    0.000177   0.001293   0.014675   0.000517   0.000714  -0.001917
    14  H    0.003490  -0.001654   0.001402   0.000092   0.005011   0.001661
    15  O    0.000123  -0.000026  -0.000002  -0.000002  -0.000000   0.000000
    16  H    0.000079  -0.000006  -0.000016   0.000000  -0.000000  -0.000000
    17  O    0.002615  -0.000038   0.000313  -0.000009   0.000011  -0.000000
    18  H   -0.000319   0.000007  -0.000054  -0.000007  -0.000001   0.000000
    19  O    7.907306   0.326886  -0.017712   0.000452   0.000083   0.000047
    20  H    0.326886   0.488495   0.029218  -0.001562  -0.000013   0.000004
    21  O   -0.017712   0.029218   7.946921   0.330535  -0.010729  -0.000075
    22  H    0.000452  -0.001562   0.330535   0.477594   0.027158  -0.001249
    23  O    0.000083  -0.000013  -0.010729   0.027158   7.912709   0.332776
    24  H    0.000047   0.000004  -0.000075  -0.001249   0.332776   0.479642
    25  O    0.000458  -0.000035   0.000150  -0.000033  -0.011111   0.025298
    26  H    0.000069  -0.000003   0.000082  -0.000004   0.000036  -0.001542
              25         26
     1  C   -0.001043   0.000084
     2  C    0.007863  -0.001682
     3  C   -0.000008  -0.000009
     4  C   -0.073531   0.011259
     5  H   -0.000087   0.000031
     6  H   -0.000149  -0.000003
     7  C    0.000000   0.000000
     8  H    0.000000  -0.000000
     9  C    0.271660  -0.031535
    10  H    0.004971  -0.000109
    11  H   -0.000000  -0.000000
    12  H   -0.000000  -0.000000
    13  H   -0.049764  -0.004584
    14  H   -0.043828  -0.005750
    15  O    0.000000  -0.000000
    16  H   -0.000000  -0.000000
    17  O   -0.000000   0.000000
    18  H    0.000000   0.000000
    19  O    0.000458   0.000069
    20  H   -0.000035  -0.000003
    21  O    0.000150   0.000082
    22  H   -0.000033  -0.000004
    23  O   -0.011111   0.000036
    24  H    0.025298  -0.001542
    25  O    7.904091   0.327112
    26  H    0.327112   0.523472
 Mulliken charges:
               1
     1  C    0.172224
     2  C    0.075941
     3  C    0.049702
     4  C    0.123685
     5  H    0.116129
     6  H    0.083413
     7  C    0.039662
     8  H    0.054866
     9  C   -0.039176
    10  H    0.076450
    11  H    0.081065
    12  H    0.088088
    13  H    0.088535
    14  H    0.093817
    15  O   -0.361951
    16  H    0.185033
    17  O   -0.374091
    18  H    0.201444
    19  O   -0.398347
    20  H    0.206988
    21  O   -0.406288
    22  H    0.209253
    23  O   -0.396841
    24  H    0.209339
    25  O   -0.362015
    26  H    0.183076
 Sum of Mulliken charges =  -0.00000
 Mulliken charges with hydrogens summed into heavy atoms:
               1
     1  C    0.255637
     2  C    0.192069
     3  C    0.104567
     4  C    0.200135
     7  C    0.208815
     9  C    0.143176
    15  O   -0.176918
    17  O   -0.172647
    19  O   -0.191358
    21  O   -0.197035
    23  O   -0.187502
    25  O   -0.178939
 Electronic spatial extent (au):  <R**2>=           2884.5454
 Charge=             -0.0000 electrons
 Dipole moment (field-independent basis, Debye):
    X=              0.7289    Y=              1.7533    Z=              1.3317  Tot=              2.3192
 Quadrupole moment (field-independent basis, Debye-Ang):
   XX=            -68.3219   YY=            -73.2843   ZZ=            -70.6125
   XY=              6.0596   XZ=             -4.1350   YZ=             -1.1833
 Traceless Quadrupole moment (field-independent basis, Debye-Ang):
   XX=              2.4176   YY=             -2.5447   ZZ=              0.1271
   XY=              6.0596   XZ=             -4.1350   YZ=             -1.1833
 Octapole moment (field-independent basis, Debye-Ang**2):
  XXX=             33.2953  YYY=              6.9288  ZZZ=              8.4524  XYY=             15.7159
  XXY=             15.9878  XXZ=             36.3943  XZZ=             -7.9737  YZZ=              1.8947
  YYZ=              2.2609  XYZ=              1.1693
 Hexadecapole moment (field-independent basis, Debye-Ang**3):
 XXXX=          -2673.5563 YYYY=           -483.0019 ZZZZ=           -265.4313 XXXY=            143.4648
 XXXZ=            -93.9184 YYYX=             62.5712 YYYZ=            -13.6885 ZZZX=              2.5607
 ZZZY=              2.6272 XXYY=           -449.3872 XXZZ=           -461.5688 YYZZ=           -118.1237
 XXYZ=             13.6487 YYXZ=              4.5174 ZZXY=            -12.2166
 N-N= 8.104576442736D+02 E-N=-3.238383966236D+03  KE= 6.850249132360D+02
   1 Symmetry operations used in ECPInt.
 ECPInt:  NShTT=   23436 NPrTT=   62434 LenC2=   21446 LenP2D=   44360.
 LDataN:  DoStor=T MaxTD1= 7 Len=  274
 Calling FoFJK, ICntrl=      2127 FMM=F ISym2X=0 I1Cent= 0 IOpClX= 0 NMat=1 NMatS=1 NMatT=0.
 ***** Axes restored to original set *****
 -------------------------------------------------------------------
 Center     Atomic                   Forces (Hartrees/Bohr)
 Number     Number              X              Y              Z
 -------------------------------------------------------------------
      1        6           0.006305068   -0.006773675   -0.014316915
      2        6           0.012311321   -0.007534351   -0.004835019
      3        6          -0.006611474    0.012499293    0.007898325
      4        6           0.012919826   -0.007196322    0.001614693
      5        1          -0.005629986   -0.000718954    0.004987616
      6        1           0.000211812   -0.001493385   -0.003359936
      7        6           0.000348335    0.002082524   -0.009573889
      8        1           0.000891752   -0.007011179   -0.000148877
      9        6          -0.001011392   -0.004310070    0.006139063
     10        1          -0.005974178   -0.000212283   -0.001666437
     11        1           0.002255421    0.000512448   -0.002434132
     12        1           0.004376264   -0.000872262    0.004675985
     13        1          -0.004003411    0.006448525   -0.003039909
     14        1          -0.000154719    0.003693461   -0.005273361
     15        8           0.003538848   -0.006464430   -0.010198607
     16        1          -0.003638149    0.005977151    0.015659791
     17        8          -0.012116249   -0.003057715   -0.006126741
     18        1           0.011827817   -0.011481954    0.006745469
     19        8           0.012667683    0.010228815   -0.008135098
     20        1          -0.011297768    0.002487891    0.014899152
     21        8           0.011957774    0.006333719    0.013722948
     22        1          -0.019854170   -0.002022248   -0.004547568
     23        8          -0.008370404   -0.009181000    0.012324221
     24        1          -0.003477896    0.011372724   -0.015514636
     25        8          -0.006650972   -0.010598167    0.000706728
     26        1           0.009178845    0.017291443   -0.000202867
 -------------------------------------------------------------------
 Cartesian Forces:  Max     0.019854170 RMS     0.008125242

 GradGradGradGradGradGradGradGradGradGradGradGradGradGradGradGradGradGrad
 Berny optimization.
 FormGI is forming the generalized inverse of G from B-inverse, IUseBI=4.
 Internal  Forces:  Max     0.020073756 RMS     0.005840618
 Search for a local minimum.
 Step number   1 out of a maximum of  140
 All quantities printed in internal units (Hartrees-Bohrs-Radians)
 Mixed Optimization -- RFO/linear search
 Second derivative matrix not updated -- first step.
 ITU=  0
     Eigenvalues ---    0.00246   0.00258   0.00261   0.00322   0.00344
     Eigenvalues ---    0.01080   0.01098   0.01214   0.01230   0.01241
     Eigenvalues ---    0.01255   0.03826   0.03936   0.04197   0.04295
     Eigenvalues ---    0.04743   0.04793   0.04819   0.04835   0.05140
     Eigenvalues ---    0.05327   0.05524   0.05557   0.07214   0.07400
     Eigenvalues ---    0.07634   0.07861   0.11352   0.11432   0.13594
     Eigenvalues ---    0.13673   0.16000   0.16000   0.16000   0.16000
     Eigenvalues ---    0.16000   0.16000   0.16490   0.16631   0.16963
     Eigenvalues ---    0.17115   0.19406   0.19565   0.19660   0.19692
     Eigenvalues ---    0.22003   0.22034   0.28581   0.28664   0.28684
     Eigenvalues ---    0.29095   0.29246   0.34070   0.34090   0.34113
     Eigenvalues ---    0.34113   0.34288   0.34317   0.34360   0.34470
     Eigenvalues ---    0.38744   0.38924   0.40123   0.40291   0.40409
     Eigenvalues ---    0.40557   0.50852   0.51015   0.51238   0.51496
     Eigenvalues ---    0.52521   0.52562
 RFO step:  Lambda=-1.60249006D-02 EMin= 2.46083869D-03
 Linear search not attempted -- first point.
 Iteration  1 RMS(Cart)=  0.06720317 RMS(Int)=  0.00183787
 Iteration  2 RMS(Cart)=  0.00237425 RMS(Int)=  0.00045263
 Iteration  3 RMS(Cart)=  0.00000312 RMS(Int)=  0.00045262
 Iteration  4 RMS(Cart)=  0.00000000 RMS(Int)=  0.00045262
 Variable       Old X    -DE/DX   Delta X   Delta X   Delta X     New X
                                 (Linear)    (Quad)   (Total)
    R1        2.90886  -0.00876   0.00000  -0.02904  -0.02904   2.87982
    R2        2.90667  -0.00977   0.00000  -0.03226  -0.03226   2.87441
    R3        2.07178  -0.00341   0.00000  -0.00955  -0.00955   2.06223
    R4        2.71387  -0.01396   0.00000  -0.03346  -0.03346   2.68041
    R5        2.90709  -0.01044   0.00000  -0.03451  -0.03451   2.87259
    R6        2.07140  -0.00270   0.00000  -0.00757  -0.00757   2.06383
    R7        2.73297  -0.01208   0.00000  -0.02993  -0.02993   2.70304
    R8        2.89805  -0.00680   0.00000  -0.02215  -0.02215   2.87590
    R9        2.07213   0.00097   0.00000   0.00271   0.00271   2.07484
   R10        2.71160  -0.01290   0.00000  -0.03080  -0.03080   2.68080
   R11        2.89492  -0.01129   0.00000  -0.03660  -0.03660   2.85832
   R12        2.07140  -0.00054   0.00000  -0.00152  -0.00152   2.06988
   R13        2.73042  -0.01128   0.00000  -0.02784  -0.02784   2.70258
   R14        2.06847  -0.00307   0.00000  -0.00855  -0.00855   2.05992
   R15        2.06727  -0.00257   0.00000  -0.00714  -0.00714   2.06013
   R16        2.70804  -0.00343   0.00000  -0.00814  -0.00814   2.69990
   R17        2.06799  -0.00157   0.00000  -0.00437  -0.00437   2.06361
   R18        2.06544  -0.00145   0.00000  -0.00403  -0.00403   2.06141
   R19        2.71001  -0.00099   0.00000  -0.00235  -0.00235   2.70765
   R20        1.84065  -0.01705   0.00000  -0.03147  -0.03147   1.80917
   R21        1.85085  -0.01780   0.00000  -0.03352  -0.03352   1.81733
   R22        1.85715  -0.01876   0.00000  -0.03576  -0.03576   1.82139
   R23        1.85555  -0.02007   0.00000  -0.03815  -0.03815   1.81740
   R24        1.85337  -0.01916   0.00000  -0.03627  -0.03627   1.81710
   R25        1.84104  -0.01927   0.00000  -0.03560  -0.03560   1.80544
    A1        1.94700  -0.00298   0.00000  -0.00665  -0.00702   1.93998
    A2        1.91291   0.00011   0.00000  -0.00565  -0.00565   1.90726
    A3        1.89479   0.00426   0.00000   0.03415   0.03409   1.92888
    A4        1.90282   0.00039   0.00000  -0.01186  -0.01193   1.89089
    A5        1.90924   0.00056   0.00000   0.01144   0.01123   1.92047
    A6        1.89644  -0.00234   0.00000  -0.02180  -0.02170   1.87474
    A7        1.99109   0.00323   0.00000   0.00809   0.00821   1.99930
    A8        1.93994  -0.00166   0.00000  -0.02876  -0.02868   1.91125
    A9        1.88473  -0.00656   0.00000  -0.03350  -0.03350   1.85123
   A10        1.88600  -0.00246   0.00000  -0.01374  -0.01432   1.87169
   A11        1.89540   0.00400   0.00000   0.02856   0.02852   1.92392
   A12        1.86201   0.00372   0.00000   0.04379   0.04340   1.90541
   A13        1.95573   0.00236   0.00000   0.00348   0.00369   1.95941
   A14        1.93316  -0.00205   0.00000  -0.02947  -0.02930   1.90386
   A15        1.91837  -0.00630   0.00000  -0.03989  -0.03984   1.87853
   A16        1.89529  -0.00052   0.00000   0.00838   0.00786   1.90315
   A17        1.88883   0.00336   0.00000   0.02173   0.02145   1.91028
   A18        1.86989   0.00339   0.00000   0.03904   0.03815   1.90804
   A19        2.01415   0.00195   0.00000   0.00033   0.00046   2.01461
   A20        1.92083  -0.00010   0.00000  -0.01391  -0.01376   1.90707
   A21        1.87213  -0.00754   0.00000  -0.04256  -0.04239   1.82974
   A22        1.91088  -0.00257   0.00000  -0.01208  -0.01267   1.89820
   A23        1.87675   0.00512   0.00000   0.02929   0.02905   1.90580
   A24        1.86227   0.00338   0.00000   0.04365   0.04334   1.90561
   A25        1.93242  -0.00179   0.00000  -0.02335  -0.02361   1.90881
   A26        1.96642  -0.00476   0.00000  -0.02318  -0.02410   1.94232
   A27        1.89571   0.00444   0.00000   0.02329   0.02316   1.91887
   A28        1.90304   0.00128   0.00000  -0.00365  -0.00416   1.89888
   A29        1.86445  -0.00294   0.00000  -0.02318  -0.02291   1.84154
   A30        1.89872   0.00396   0.00000   0.05153   0.05159   1.95031
   A31        1.94468  -0.00259   0.00000  -0.03316  -0.03284   1.91183
   A32        1.95129  -0.00012   0.00000  -0.01665  -0.01635   1.93495
   A33        1.88252  -0.01385   0.00000  -0.05397  -0.05366   1.82886
   A34        1.92190  -0.00089   0.00000  -0.00902  -0.01135   1.91054
   A35        1.87211   0.00961   0.00000   0.06313   0.06184   1.93395
   A36        1.88828   0.00836   0.00000   0.05519   0.05424   1.94252
   A37        1.86690   0.00346   0.00000   0.01968   0.01968   1.88658
   A38        1.83944  -0.00020   0.00000  -0.00116  -0.00116   1.83828
   A39        1.82140   0.00226   0.00000   0.01286   0.01286   1.83426
   A40        1.80842   0.00634   0.00000   0.03604   0.03604   1.84446
   A41        1.81577   0.00640   0.00000   0.03638   0.03638   1.85215
   A42        1.85669   0.00620   0.00000   0.03524   0.03524   1.89193
    D1        2.82340  -0.00249   0.00000  -0.03266  -0.03265   2.79075
    D2        0.68573  -0.00035   0.00000   0.00183   0.00195   0.68769
    D3       -1.35102  -0.00001   0.00000  -0.01507  -0.01528  -1.36629
    D4        0.71429  -0.00111   0.00000  -0.00962  -0.00959   0.70470
    D5       -1.42338   0.00103   0.00000   0.02487   0.02501  -1.39837
    D6        2.82305   0.00137   0.00000   0.00797   0.00778   2.83083
    D7       -1.35469  -0.00085   0.00000  -0.00012  -0.00005  -1.35474
    D8        2.79083   0.00129   0.00000   0.03438   0.03455   2.82538
    D9        0.75407   0.00163   0.00000   0.01747   0.01733   0.77140
   D10        3.06653   0.00136   0.00000   0.03180   0.03170   3.09823
   D11        0.94716   0.00184   0.00000   0.03947   0.03962   0.98678
   D12       -1.11576   0.00286   0.00000   0.03434   0.03412  -1.08164
   D13       -1.10165  -0.00016   0.00000   0.01250   0.01250  -1.08916
   D14        3.06216   0.00033   0.00000   0.02017   0.02042   3.08257
   D15        0.99924   0.00134   0.00000   0.01504   0.01491   1.01415
   D16        0.96992  -0.00243   0.00000  -0.01421  -0.01423   0.95568
   D17       -1.14946  -0.00195   0.00000  -0.00654  -0.00631  -1.15577
   D18        3.07081  -0.00094   0.00000  -0.01167  -0.01182   3.05899
   D19       -0.70189   0.00158   0.00000   0.02709   0.02676  -0.67513
   D20        1.42641   0.00093   0.00000   0.04730   0.04753   1.47394
   D21       -2.78125   0.00034   0.00000   0.02677   0.02687  -2.75437
   D22        0.96485  -0.00197   0.00000  -0.00226  -0.00233   0.96253
   D23       -1.20816   0.00008   0.00000   0.02527   0.02540  -1.18276
   D24        3.05552   0.00031   0.00000   0.00439   0.00434   3.05985
   D25        3.13175  -0.00374   0.00000  -0.04442  -0.04439   3.08736
   D26        0.95874  -0.00169   0.00000  -0.01689  -0.01667   0.94208
   D27       -1.06077  -0.00146   0.00000  -0.03777  -0.03772  -1.09849
   D28       -1.13796   0.00142   0.00000   0.01471   0.01454  -1.12342
   D29        2.97221   0.00347   0.00000   0.04224   0.04227   3.01448
   D30        0.95270   0.00370   0.00000   0.02137   0.02121   0.97391
   D31       -3.02795  -0.00066   0.00000   0.03518   0.03496  -2.99299
   D32       -0.86049   0.00167   0.00000   0.04180   0.04115  -0.81934
   D33        1.16851   0.00274   0.00000   0.06295   0.06382   1.23233
   D34        1.05768  -0.00173   0.00000  -0.02832  -0.02813   1.02955
   D35       -1.07868   0.00131   0.00000   0.01010   0.00977  -1.06891
   D36        3.09969  -0.00367   0.00000  -0.05586  -0.05583   3.04386
   D37       -3.08450  -0.00312   0.00000  -0.05745  -0.05727   3.14141
   D38        1.06232  -0.00008   0.00000  -0.01903  -0.01937   1.04295
   D39       -1.04249  -0.00506   0.00000  -0.08499  -0.08497  -1.12746
   D40       -1.06031   0.00240   0.00000   0.00470   0.00501  -1.05530
   D41        3.08652   0.00544   0.00000   0.04312   0.04291   3.12943
   D42        0.98171   0.00046   0.00000  -0.02284  -0.02269   0.95901
   D43       -2.79287  -0.00209   0.00000  -0.02253  -0.02278  -2.81565
   D44       -0.65196  -0.00096   0.00000  -0.02916  -0.02970  -0.68165
   D45        1.38869   0.00193   0.00000   0.01232   0.01311   1.40181
   D46        0.98107  -0.00307   0.00000  -0.03230  -0.03243   0.94864
   D47       -1.17789   0.00011   0.00000   0.01639   0.01625  -1.16164
   D48        3.03140  -0.00130   0.00000  -0.00733  -0.00729   3.02411
   D49       -3.12392  -0.00384   0.00000  -0.06068  -0.06064   3.09862
   D50        1.00029  -0.00066   0.00000  -0.01199  -0.01196   0.98834
   D51       -1.07359  -0.00207   0.00000  -0.03571  -0.03550  -1.10909
   D52       -1.10705   0.00160   0.00000   0.00051   0.00044  -1.10661
   D53        3.01716   0.00478   0.00000   0.04920   0.04912   3.06628
   D54        0.94328   0.00336   0.00000   0.02548   0.02558   0.96885
   D55       -2.96928  -0.00001   0.00000   0.03516   0.03495  -2.93432
   D56       -0.79287   0.00088   0.00000   0.02753   0.02682  -0.76605
   D57        1.25589   0.00218   0.00000   0.05049   0.05140   1.30729
   D58        1.33559   0.00011   0.00000   0.01013   0.01077   1.34636
   D59       -2.86255  -0.00127   0.00000  -0.01793  -0.01779  -2.88035
   D60       -0.81059   0.00071   0.00000  -0.00805  -0.00883  -0.81943
   D61        3.11213   0.00114   0.00000   0.02188   0.02205   3.13417
   D62       -1.07439  -0.00417   0.00000  -0.01197  -0.01413  -1.08852
   D63        0.99846   0.00449   0.00000   0.04134   0.04333   1.04179
         Item               Value     Threshold  Converged?
 Maximum Force            0.020074     0.000450     NO 
 RMS     Force            0.005841     0.000300     NO 
 Maximum Displacement     0.240682     0.001800     NO 
 RMS     Displacement     0.067327     0.001200     NO 
 Predicted change in Energy=-8.961829D-03
 GradGradGradGradGradGradGradGradGradGradGradGradGradGradGradGradGradGrad

                          Input orientation:                          
 ---------------------------------------------------------------------
 Center     Atomic      Atomic             Coordinates (Angstroms)
 Number     Number       Type             X           Y           Z
 ---------------------------------------------------------------------
      1          6           0       -0.005527   -0.041811   -0.036236
      2          6           0        1.517837   -0.025910    0.002293
      3          6           0       -0.544017    1.075623   -0.916593
      4          6           0        2.127347   -0.757127    1.187429
      5          1           0        1.870852    1.006804    0.042753
      6          1           0       -0.392986    0.099999    0.974045
      7          6           0       -2.061958    1.046264   -1.021697
      8          1           0       -0.113394    0.979661   -1.922011
      9          6           0        1.697881   -2.198027    1.352331
     10          1           0        1.892613   -0.212038    2.108046
     11          1           0       -2.495149    1.141039   -0.025906
     12          1           0       -2.409773    0.114859   -1.468901
     13          1           0        1.886117   -2.743630    0.425299
     14          1           0        0.638015   -2.261325    1.602596
     15          8           0       -2.522254    2.186767   -1.748770
     16          1           0       -2.365518    2.028863   -2.679933
     17          8           0       -0.133744    2.307874   -0.345878
     18          1           0       -0.716160    2.971175   -0.727547
     19          8           0       -0.478020   -1.296265   -0.499900
     20          1           0        0.134922   -1.552896   -1.198059
     21          8           0        1.951107   -0.622776   -1.223282
     22          1           0        2.902317   -0.734515   -1.135942
     23          8           0        3.538560   -0.710162    0.960326
     24          1           0        3.930707   -1.322911    1.589111
     25          8           0        2.514737   -2.703696    2.415366
     26          1           0        2.279384   -3.616940    2.568263
 ---------------------------------------------------------------------
                    Distance matrix (angstroms):
                    1          2          3          4          5
     1  C    0.000000
     2  C    1.523934   0.000000
     3  C    1.521072   2.511766   0.000000
     4  C    2.560895   1.520108   3.862909   0.000000
     5  H    2.150960   1.092134   2.599360   2.118378   0.000000
     6  H    1.091284   2.147417   2.132877   2.670632   2.610472
     7  C    2.526648   3.874667   1.521859   5.067813   4.074507
     8  H    2.147368   2.715701   1.097957   4.207846   2.792537
     9  C    3.078796   2.563808   4.570657   1.512557   3.466390
    10  H    2.868773   2.146927   4.091904   1.095334   2.398226
    11  H    2.756348   4.179308   2.145814   5.142245   4.368603
    12  H    2.803119   4.196468   2.170059   5.329344   4.626490
    13  H    3.330339   2.774989   4.721538   2.141315   3.769925
    14  H    2.833047   2.886543   4.344967   2.157101   3.825397
    15  O    3.772698   4.927930   2.416729   6.237512   4.888890
    16  H    4.104436   5.147512   2.708487   6.550120   5.138527
    17  O    2.373465   2.880189   1.418620   4.105824   2.421202
    18  H    3.171907   3.808664   1.912717   5.064869   3.338374
    19  O    1.418411   2.418562   2.409117   3.150506   3.334037
    20  H    1.911266   2.384320   2.729339   3.208357   3.332436
    21  O    2.361147   1.430387   3.033853   2.420876   2.065143
    22  H    3.185082   1.927300   3.898965   2.449315   2.342101
    23  O    3.741708   2.338664   4.835213   1.430141   2.563428
    24  H    4.447123   3.165777   5.661685   1.932244   3.473010
    25  O    4.409956   3.739955   5.894165   2.333888   4.451033
    26  H    4.978532   4.478800   6.491222   3.179363   5.284327
                    6          7          8          9         10
     6  H    0.000000
     7  C    2.768370   0.000000
     8  H    3.039591   2.147534   0.000000
     9  C    3.129817   5.504346   4.909148   0.000000
    10  H    2.570465   5.197812   4.656777   2.133818   0.000000
    11  H    2.550049   1.090063   3.048608   5.534473   5.063302
    12  H    3.167907   1.090175   2.495305   5.493779   5.604636
    13  H    3.685330   5.660776   4.834336   1.092018   3.039842
    14  H    2.652149   5.011678   4.846799   1.090850   2.455417
    15  O    4.037586   1.428725   2.699948   6.830284   6.334063
    16  H    4.578532   1.951255   2.597564   7.115966   6.788083
    17  O    2.585365   2.401333   2.061251   5.151884   4.059289
    18  H    3.353133   2.367062   2.399207   6.072407   4.997912
    19  O    2.032068   2.875513   2.708356   2.996411   3.687389
    20  H    2.780069   3.407788   2.645678   3.059987   3.977148
    21  O    3.293239   4.350980   2.705216   3.029740   3.357064
    22  H    4.000935   5.275249   3.556799   3.127944   3.437433
    23  O    4.014176   6.195099   4.949761   2.399065   2.067494
    24  H    4.593180   6.952794   5.829628   2.409856   2.378478
    25  O    4.288703   6.842641   6.267937   1.432829   2.586473
    26  H    4.847549   7.313038   6.856871   1.957026   3.457564
                   11         12         13         14         15
    11  H    0.000000
    12  H    1.772729   0.000000
    13  H    5.872795   5.496692   0.000000
    14  H    4.903551   4.936533   1.782247   0.000000
    15  O    2.015575   2.093748   6.961977   6.403474   0.000000
    16  H    2.801588   2.265385   7.106023   6.765130   0.957374
    17  O    2.653322   3.354222   5.494747   5.026902   2.772680
    18  H    2.646979   3.402421   6.384347   5.885780   2.218145
    19  O    3.199051   2.581066   2.922328   2.568534   4.227302
    20  H    3.943158   3.054543   2.668299   2.932344   4.620492
    21  O    4.930917   4.429640   2.687018   3.520602   5.308543
    22  H    5.820869   5.389860   2.739832   3.867531   6.191560
    23  O    6.387898   6.477999   2.674288   3.351385   7.243263
    24  H    7.069013   7.184727   2.748318   3.423832   8.068457
    25  O    6.770580   6.876233   2.087373   2.092456   8.162594
    26  H    7.222481   7.225871   2.347259   2.337583   8.681907
                   16         17         18         19         20
    16  H    0.000000
    17  O    3.241370   0.000000
    18  H    2.723995   0.961690   0.000000
    19  O    4.401327   3.623819   4.280138   0.000000
    20  H    4.612717   3.962819   4.627411   0.963838   0.000000
    21  O    5.271270   3.702047   4.502949   2.622504   2.040658
    22  H    6.145751   4.370125   5.195411   3.485224   2.886534
    23  O    7.457338   4.929556   5.873993   4.313780   4.117472
    24  H    8.312736   5.783298   6.737911   4.878684   4.714784
    25  O    8.495651   6.305137   7.247120   4.408655   4.477131
    26  H    8.999654   7.029852   7.952289   4.733121   4.800435
                   21         22         23         24         25
    21  O    0.000000
    22  H    0.961724   0.000000
    23  O    2.701072   2.190831   0.000000
    24  H    3.509780   2.971483   0.961567   0.000000
    25  O    4.229381   4.079176   2.671990   2.143417   0.000000
    26  H    4.842375   4.734718   3.552512   2.991350   0.955397
                   26
    26  H    0.000000
 Stoichiometry    C6H14O6
 Framework group  C1[X(C6H14O6)]
 Deg. of freedom    72
 Full point group                 C1      NOp   1
 Largest Abelian subgroup         C1      NOp   1
 Largest concise Abelian subgroup C1      NOp   1
                         Standard orientation:                         
 ---------------------------------------------------------------------
 Center     Atomic      Atomic             Coordinates (Angstroms)
 Number     Number       Type             X           Y           Z
 ---------------------------------------------------------------------
      1          6           0       -0.533530    0.344086   -0.161218
      2          6           0        0.535752   -0.700305    0.135864
      3          6           0       -1.929149   -0.227859    0.035722
      4          6           0        1.895980   -0.402778   -0.474040
      5          1           0        0.214191   -1.670860   -0.248034
      6          1           0       -0.439594    0.671030   -1.198129
      7          6           0       -3.016300    0.811640   -0.195789
      8          1           0       -2.016858   -0.616150    1.058975
      9          6           0        2.485926    0.944226   -0.119961
     10          1           0        1.828331   -0.482074   -1.564404
     11          1           0       -2.933940    1.200969   -1.210617
     12          1           0       -2.927394    1.640509    0.506744
     13          1           0        2.518650    1.054572    0.965974
     14          1           0        1.893427    1.752989   -0.549847
     15          8           0       -4.303110    0.194739   -0.126451
     16          1           0       -4.513883    0.049498    0.796069
     17          8           0       -2.090734   -1.293813   -0.886295
     18          1           0       -3.040280   -1.431210   -0.952115
     19          8           0       -0.355636    1.485666    0.661607
     20          1           0       -0.090147    1.137326    1.520186
     21          8           0        0.636969   -0.768959    1.561013
     22          1           0        1.401427   -1.324095    1.740850
     23          8           0        2.752711   -1.435846    0.020011
     24          1           0        3.649708   -1.164638   -0.195517
     25          8           0        3.809092    0.919705   -0.669170
     26          1           0        4.229944    1.756141   -0.479328
 ---------------------------------------------------------------------
 Rotational constants (GHZ):           1.9889258           0.4249280           0.3969447
 Standard basis: def2TZVPP (5D, 7F)
 There are   642 symmetry adapted cartesian basis functions of A   symmetry.
 There are   568 symmetry adapted basis functions of A   symmetry.
   568 basis functions,   850 primitive gaussians,   642 cartesian basis functions
    49 alpha electrons       49 beta electrons
       nuclear repulsion energy       818.9121981554 Hartrees.
 NAtoms=   26 NActive=   26 NUniq=   26 SFac= 1.00D+00 NAtFMM=   60 NAOKFM=F Big=F
 Integral buffers will be    131072 words long.
 Raffenetti 2 integral format.
 Two-electron integral symmetry is turned on.
 Nuclear repulsion after empirical dispersion term =      818.8943286767 Hartrees.
 One-electron integrals computed using PRISM.
   1 Symmetry operations used in ECPInt.
 ECPInt:  NShTT=   23436 NPrTT=   62434 LenC2=   21517 LenP2D=   44591.
 LDataN:  DoStor=T MaxTD1= 6 Len=  172
 NBasis=   568 RedAO= T EigKep=  4.23D-05  NBF=   568
[...]
 633,0.00116569,0.00198727,0.00030564,-0.00014147,-0.00032511,0.0001960
 6,0.00138219,0.00360817,-0.00100019,0.00020062,0.00029099,-0.00034301,
 0.36484356,-0.06146742,-0.19939491,-0.03586039,-0.01283209,-0.01940156
 ,-0.00888413,-0.01533151,-0.03677525,-0.02042137,0.00002888,-0.0020546
 5,0.00185838,-0.00217003,0.00164493,0.00002435,-0.00493213,-0.01526665
 ,-0.01059429,-0.00123042,0.00069213,-0.00083926,-0.00092080,0.00227498
 ,0.00082340,-0.00141146,-0.00151693,-0.00008753,0.00024494,0.00041965,
 0.00057377,0.00025824,-0.00024795,-0.00044645,0.00110502,-0.00146427,0
 .00036422,-0.00104821,0.00074040,0.00093109,0.00119960,-0.00043224,-0.
 00131796,0.00121795,-0.00034095,0.00070377,-0.00043151,-0.00000152,-0.
 00028262,0.00597429,-0.01086715,0.00599259,-0.00222469,-0.00191127,-0.
 00090847,-0.00503382,0.34834422,-0.01467666,-0.06359846,-0.09777242,-0
 .00345689,-0.01212351,-0.00462076,0.00558988,0.00704048,0.00765063,0.0
 0211691,-0.00047458,0.00018982,-0.00185654,0.00085256,0.00121966,-0.01
 324759,-0.03473437,-0.00797040,-0.00223998,-0.00149981,-0.00034307,0.0
 0045801,-0.00156329,0.00308164,0.00124040,0.00071019,-0.00287721,-0.00
 019387,0.00002038,0.00050779,-0.00024898,0.00065902,0.00033086,0.00106
 496,0.00109732,0.00033845,0.00004327,0.00030379,-0.00021096,-0.0013652
 0,-0.00003798,0.00083172,0.00091337,0.00091205,0.00048953,-0.00012720,
 -0.00038257,0.00002835,-0.00141433,0.00357413,0.00056573,0.00000842,0.
 00060638,0.00057306,-0.21908100,0.18239990,0.33945849,0.01176174,-0.00
 424386,-0.00989931,0.00078760,-0.00573791,-0.00619443,-0.00065583,0.00
 043296,-0.00010632,-0.00019882,-0.00000413,-0.00019561,-0.00006735,0.0
 0078148,0.00123949,-0.00130228,-0.00357057,-0.00265643,-0.00033969,0.0
 0070955,-0.00005127,0.00035258,0.00015010,0.00002554,0.00046439,-0.000
 11565,-0.00127686,0.00014192,0.00000863,0.00057576,-0.00003912,-0.0001
 9057,-0.00013619,-0.00047151,0.00013952,0.00003462,-0.00025586,0.00076
 162,-0.00019848,-0.00015946,-0.00002965,0.00042110,0.00012174,-0.00045
 875,0.00009100,-0.00000761,0.00016096,-0.00006106,-0.00020977,-0.00134
 029,-0.00002537,-0.00008575,-0.00004823,-0.00007820,-0.24415695,0.0945
 8859,0.24273136,0.23247075,0.02394670,-0.02037153,-0.03330821,-0.00043
 282,-0.00009419,-0.00353794,0.00031235,-0.00156330,-0.00295515,-0.0000
 1393,0.00052875,-0.00047513,0.00055050,-0.00000810,0.00008031,-0.00184
 623,-0.00399824,0.00003379,0.00028373,-0.00013777,0.00028653,-0.000062
 44,-0.00061276,0.00104770,-0.00015098,0.00065359,0.00116470,-0.0000162
 7,-0.00021960,0.00014895,-0.00017854,0.00009736,0.00007201,0.00024222,
 -0.00009389,0.00003242,0.00081629,-0.00042597,-0.00004814,-0.00012458,
 0.00010354,0.00002660,-0.00029758,0.00029687,-0.00016120,0.00012693,-0
 .00005979,0.00007523,-0.00017856,0.00003067,0.00106018,-0.00007059,-0.
 00018485,0.00018032,0.06004425,-0.07183627,-0.08838703,-0.08626780,0.0
 9861669,0.00803940,-0.00972283,-0.01583422,0.00079884,-0.00026419,0.00
 059921,0.00024881,0.00064608,0.00246033,-0.00090135,-0.00054444,-0.000
 95392,0.00106057,-0.00012725,-0.00060046,-0.00132867,-0.00394056,-0.00
 049506,0.00009855,0.00015320,-0.00020197,0.00031632,0.00015773,-0.0005
 3626,-0.00039843,-0.00013093,-0.00144453,0.00005893,0.00024247,0.00008
 553,0.00005299,-0.00016321,-0.00007560,-0.00007382,0.00004406,0.000179
 68,-0.00078590,0.00063394,0.00024067,0.00018965,-0.00012227,-0.0004180
 8,-0.00015773,0.00022352,-0.00017001,-0.00003244,0.00008397,0.00005755
 ,-0.00019502,0.00076097,-0.00063560,0.00005415,0.00018944,0.00004843,0
 .21753148,-0.11323085,-0.24396087,-0.22623563,0.12329012,0.26209245,-0
 .02573284,0.01480237,0.04120053,-0.10359031,0.02787342,0.04665646,0.00
 103383,-0.00172182,0.00072429,-0.00179373,-0.00345613,-0.00251815,0.00
 566740,0.00216913,-0.00318680,-0.00782533,-0.00041589,-0.00099265,0.00
 065378,-0.00036708,0.00068639,-0.00055107,0.00042222,0.00001766,-0.000
 03871,0.00100593,0.00051315,0.00030663,0.00101251,-0.00184799,0.000130
 42,0.00000350,-0.00014079,0.00014957,-0.00002231,0.00004898,-0.0002560
 9,-0.00026505,-0.00014925,0.00031930,0.00030520,-0.00058065,-0.0006598
 3,0.00078874,-0.00072831,0.00010517,-0.00006801,0.00016931,0.00015463,
 0.00146002,0.00003128,0.00002459,-0.00017797,0.00008260,-0.00594440,0.
 00326764,0.00670424,0.00282327,0.00291603,0.00046922,0.62682247,0.0027
 0636,-0.00448802,-0.00904474,0.01602236,-0.10181228,-0.06464909,-0.000
 57983,-0.00043303,-0.00024494,-0.00123987,0.00783037,0.00456210,0.0160
 2303,-0.01098659,-0.03861295,0.00070677,0.00067876,0.00051899,-0.00039
 154,-0.00011028,-0.00031535,0.00032895,-0.00022322,-0.00017530,-0.0019
 7124,-0.00155897,-0.00241079,0.00107320,0.00014098,0.00291510,0.000074
 36,-0.00006366,0.00001120,0.00020345,0.00007476,0.00014108,-0.00006342
 ,0.00194802,0.00153043,-0.00025888,0.00011915,0.00075783,0.00053151,0.
 00010505,0.00025010,-0.00016786,-0.00003044,-0.00008606,0.00116144,-0.
 00030060,0.00034574,0.00007708,0.00029920,0.00017741,-0.00430319,0.004
 05894,0.00208683,0.00188435,-0.00164065,0.00205445,-0.12885304,0.13081
 435,0.01049260,-0.00343443,-0.00794568,0.00288693,-0.05356116,-0.18108
 740,-0.00001244,0.00013323,-0.00205584,0.01540077,-0.01935422,-0.04808
 300,0.00669842,-0.01267552,-0.01550055,-0.00020983,-0.00002263,0.00110
 741,-0.00043972,-0.00014224,0.00052445,-0.00001136,-0.00017062,0.00147
 133,0.00014431,-0.00348487,0.00135455,-0.00419140,0.00460078,-0.005761
 34,-0.00033171,0.00003801,0.00007988,0.00011324,0.00007499,0.00002389,
 0.00002748,0.00125705,-0.00057887,-0.00011311,0.00001678,-0.00052280,0
 .00047001,-0.00020340,0.00039223,0.00006614,-0.00003397,-0.00010681,0.
 00071480,-0.00020296,0.00110334,0.00025807,0.00014075,-0.00004066,-0.0
 0050530,-0.00089124,0.00236672,0.00064747,0.00056600,-0.00116697,0.015
 23135,0.09235114,0.30094188,-0.00078301,0.00104970,0.00184970,-0.01643
 680,0.00382704,0.00310370,0.00010749,-0.00003187,0.00013630,0.00305194
 ,-0.00038771,-0.00149296,0.00056774,-0.00059504,-0.00124392,-0.0002430
 4,-0.00004760,-0.00033152,-0.00015461,0.00005251,-0.00013476,-0.000054
 15,0.00002810,-0.00014187,-0.00024785,-0.00054445,0.00086587,-0.001255
 41,0.00028135,-0.00038337,0.00004611,-0.00000769,-0.00002597,-0.000012
 38,-0.00000198,0.00000171,-0.00006075,-0.00050005,0.00012462,-0.000057
 51,-0.00019385,-0.00011921,0.00016584,-0.00013568,0.00009639,-0.000050
 85,0.00002919,-0.00003898,0.00016771,-0.00029868,-0.00004442,0.0000095
 3,0.00006946,0.00002226,0.00103984,0.00064897,0.00036376,-0.00050857,0
 .00037998,-0.00006762,-0.49450070,0.09627150,-0.04772251,0.51151420,-0
 .00123044,-0.00247708,-0.00258135,0.02055555,-0.00442120,-0.00178604,0
 .00001068,0.00023916,-0.00000917,-0.00063823,0.00245669,0.00059124,0.0
 0091111,-0.00070699,-0.00028040,0.00041940,0.00023377,0.00020783,0.000
 05782,-0.00002152,-0.00007248,-0.00003013,0.00000184,-0.00003968,0.000
 04113,0.00044910,0.00124965,0.00015379,-0.00027422,-0.00018203,0.00001
 010,-0.00000599,0.00002732,0.00001113,-0.00000930,0.00000706,-0.000366
 19,-0.00078090,-0.00010517,0.00009781,-0.00014499,-0.00042479,-0.00008
 913,0.00002383,-0.00001606,0.00003922,0.00000434,0.00001983,-0.0002262
 7,-0.00006618,0.00006445,0.00006465,-0.00002562,-0.00003024,-0.0026343
 2,0.00035481,0.00199487,0.00230716,0.00163125,-0.00032465,0.08093798,-
 0.02859073,-0.00605770,-0.10022643,0.03515219,0.00193502,-0.00282746,-
 0.00706798,0.04070509,-0.00950458,0.00051514,-0.00040301,0.00014932,-0
 .00045024,0.00656014,-0.00046044,-0.00368156,-0.00005406,-0.00080767,-
 0.00014328,0.00192035,0.00006008,0.00010786,0.00004217,-0.00005939,0.0
 0011443,0.00002957,-0.00017473,0.00024794,-0.00017367,0.00061730,-0.00
 035910,-0.00064857,-0.00004163,0.00091576,-0.00008210,0.00000994,0.000
 00980,0.00001066,0.00000923,0.00001223,0.00024415,0.00027326,-0.000030
 67,-0.00023422,-0.00035569,0.00035887,0.00000902,0.00004047,0.00000352
 ,0.00000057,-0.00001794,0.00002166,0.00001362,0.00010297,0.00003917,-0
 .00001859,-0.00000291,0.00004402,-0.00082636,-0.00030271,0.00009138,0.
 00001923,0.00060780,-0.00020698,-0.09268602,0.00399457,-0.04648314,0.0
 4478449,0.00821141,0.05031979,0.00242532,0.00329924,-0.00353314,-0.039
 06456,0.00302848,-0.00352627,-0.00198305,-0.00160304,0.00048534,-0.217
 02011,-0.01729793,0.04219436,0.00141821,-0.00031422,0.00081996,0.00094
 339,-0.00022715,0.00010230,0.00086527,0.00021100,0.00005888,-0.0000554
 5,0.00010198,-0.00021266,-0.04229469,-0.00595545,0.00578106,-0.0297188
 7,0.00363098,0.00872663,0.00004073,-0.00000958,0.00000763,0.00003629,-
 0.00003416,0.00000486,0.00162008,0.00054832,-0.00106088,0.00042178,-0.
 00607575,0.00165653,-0.00089089,0.00073797,-0.00058716,0.00011922,-0.0
 0007206,0.00017055,-0.00000239,0.00094493,-0.00005861,0.00000757,-0.00
 020641,0.00000394,-0.00085242,-0.00090188,-0.00140232,-0.00017379,0.00
 009570,0.00073657,0.00053639,0.00058271,-0.00004373,-0.00137723,0.0002
 5878,0.00035146,0.43131003,-0.00059449,-0.00340947,0.00399355,0.026369
 22,0.00149505,-0.00268294,0.00147493,0.00061198,-0.00024867,0.01983267
 ,-0.08323088,0.01353436,-0.00029879,0.00157780,-0.00176493,-0.00043113
 ,-0.00008898,0.00007405,-0.00042279,-0.00032765,0.00013158,-0.00001522
 ,0.00000797,0.00008946,-0.03782119,-0.00186468,0.00955108,0.01785416,0
 .00511922,-0.00047471,-0.00000186,-0.00002388,-0.00002914,0.00004413,0
 .00004005,0.00004824,0.00071043,0.00362304,0.00005064,-0.00224696,-0.0
 0708319,0.00236381,0.00049931,-0.00019589,0.00021826,-0.00007279,-0.00
 000110,-0.00006993,0.00011275,-0.00001590,0.00004003,-0.00006230,0.000
 06768,0.00000923,0.00068132,0.00224178,0.00020603,0.00015861,-0.000468
 39,0.00010302,0.00029069,0.00276015,0.00006227,-0.00062001,-0.00290396
 ,-0.00052781,-0.12577565,0.32168349,0.00010230,0.00332658,-0.00516731,
 -0.03206317,-0.00008995,-0.00230972,-0.00182108,-0.00100662,0.00008047
 ,0.01294942,0.01387344,-0.08785798,0.00056406,-0.00089936,0.00137470,-
 0.00043583,0.00009891,0.00028452,0.00049609,0.00032251,-0.00011377,0.0
 0008811,-0.00010440,0.00021618,0.00574122,0.00328249,-0.00100126,0.032
 51171,0.00180715,0.00191751,-0.00006832,0.00002471,0.00004517,0.000023
 71,-0.00002194,-0.00000437,-0.00042811,0.00173784,0.00081281,-0.000331
 37,0.00116378,0.00146934,-0.00052596,0.00034611,-0.00021446,0.00007698
 ,-0.00003058,0.00006733,-0.00000687,0.00046841,0.00034172,0.00003932,-
 0.00007647,-0.00004811,-0.00072879,-0.00073251,0.00062001,0.00075221,0
 .00050472,0.00001627,-0.00863788,0.00263769,0.00019721,0.00078085,-0.0
 0098894,0.00429491,0.08018418,-0.25060328,0.30662913,0.00009698,0.0016
 2212,-0.00162596,-0.00826168,-0.00069432,0.00229910,-0.00066296,-0.000
 21640,0.00006888,-0.02561876,0.02977198,-0.02866686,0.00020634,-0.0000
 9022,0.00036196,0.00006454,0.00003323,0.00001698,0.00005963,0.00017596
 ,-0.00012198,0.00000742,-0.00001293,-0.00000769,-0.00292299,0.00020395
 ,-0.00298731,0.00001549,0.00048430,0.00017997,-0.00000673,0.00000532,0
 .00001132,-0.00001628,-0.00000981,-0.00001153,-0.00001612,-0.00028075,
 0.00024204,0.00046572,0.00078671,-0.00026149,-0.00005025,-0.00001836,0
 .00001571,-0.00001046,0.00001274,-0.00000655,0.00008404,-0.00009587,0.
 00004688,0.00000243,0.00002032,-0.00000568,0.00018779,-0.00058312,0.00
 015884,-0.00016170,0.00006092,-0.00011602,0.00107831,-0.00019775,0.001
 22711,-0.00027060,-0.00029970,-0.00101863,-0.11136726,0.10691520,-0.09
 455185,0.14433060,0.00011586,0.00083701,-0.00024559,-0.00133655,-0.000
 46685,-0.00114461,-0.00024406,-0.00001907,0.00004618,0.00175769,0.0011
 8177,-0.00074778,-0.00006252,0.00012007,0.00004820,0.00001120,0.000023
 45,0.00005755,0.00007684,0.00007594,0.00000042,0.00001110,-0.00002066,
 0.00000998,-0.00564380,0.00242430,-0.00217050,-0.00030222,-0.00023801,
 0.00069074,-0.00000322,0.00000913,0.00000736,-0.00001455,-0.00001059,-
 0.00001929,0.00010263,-0.00032836,0.00011350,0.00074184,-0.00046861,0.
 00055713,-0.00011746,0.00002298,-0.00005042,0.00002525,0.00000381,0.00
 001672,-0.00006899,-0.00005294,-0.00003171,0.00002224,-0.00001504,0.00
 000388,0.00004172,-0.00050442,0.00014308,0.00010011,0.00020642,-0.0000
 9701,-0.00153093,0.00006632,-0.00091752,0.00055958,0.00009109,0.001443
 22,0.14201778,-0.23905547,0.22182565,-0.13990343,0.23685559,0.00019590
 ,-0.00001495,0.00018580,0.00040074,0.00023472,-0.00135642,0.00002953,0
 .00008854,0.00003597,0.00254990,-0.00493062,0.00436799,0.00005044,0.00
 001577,-0.00008356,-0.00005623,0.00000176,0.00004749,-0.00006081,0.000
 00791,0.00000574,0.00000242,-0.00001304,0.00001311,0.00217534,0.000207
 13,0.00255932,0.00184971,-0.00071239,-0.00018269,-0.00000046,-0.000002
 85,-0.00000512,-0.00000561,0.00000179,-0.00000044,-0.00059354,-0.00025
 146,-0.00064902,-0.00013572,0.00066827,-0.00097120,0.00006901,-0.00004
 763,0.00002927,-0.00001539,0.00000665,-0.00000974,0.00003663,-0.000083
 30,-0.00002672,-0.00000832,0.00001991,0.00001416,0.00009550,0.00002980
 ,0.00006145,-0.00006004,0.00004489,-0.00002147,-0.00125490,0.00002768,
 0.00023579,0.00021879,0.00094793,0.00101644,-0.12975571,0.22391410,-0.
 22236042,0.12532746,-0.21879183,0.21893068,-0.00060068,-0.00193411,0.0
 0026799,-0.00002717,-0.00170116,0.00119233,0.00015987,-0.00039080,0.00
 000516,-0.00106376,-0.00064344,0.00190001,0.00005857,0.00011276,-0.000
 10263,0.00023854,-0.00029506,-0.00007394,0.00020669,-0.00023796,0.0001
 6276,-0.00004601,0.00009659,-0.00009171,-0.12646698,0.00950236,-0.0716
 5921,0.00029472,0.00020822,0.00022807,0.00003243,-0.00002455,-0.000016
 29,0.00007853,0.00001449,0.00005205,0.00005977,0.00195883,-0.00841673,
 -0.01892109,0.01817163,-0.03596803,-0.00020236,0.00033718,-0.00021403,
 0.00004629,-0.00004495,0.00006747,0.00000577,0.00054206,-0.00001944,0.
 00001701,-0.00005266,0.00001464,-0.00075659,0.00221887,-0.00219742,-0.
 00021880,-0.00015347,0.00068143,0.00107172,0.00037723,-0.00077479,-0.0
 0061426,-0.00003003,-0.00035582,0.00466041,-0.00486274,0.00347347,0.00
 093056,0.00290587,0.00033008,0.17558473,-0.00155237,-0.00000727,-0.000
 53997,-0.00484764,-0.00773983,-0.00382578,0.00015916,0.00036358,-0.000
 15914,0.02441047,-0.02472778,0.04226569,0.00106908,-0.00106578,0.00240
 649,-0.00001363,0.00015074,-0.00005462,-0.00039034,-0.00002224,-0.0000
 9706,-0.00002706,-0.00001465,0.00003712,0.03620183,-0.10672540,0.05164
 050,0.00082169,0.00296308,-0.00069732,-0.00000315,-0.00001087,-0.00001
 374,0.00000157,0.00002287,0.00002281,-0.00824537,0.00934291,-0.0039303
 2,0.00583071,0.00017469,0.00389770,0.00046673,-0.00027040,0.00026904,-
 0.00010400,0.00002540,-0.00008768,0.00038180,-0.00038743,0.00004850,-0
 .00001984,0.00013410,0.00000856,0.00060973,0.00090968,0.00050457,-0.00
 023847,-0.00041220,-0.00009342,-0.00035875,0.00105417,0.00188035,0.000
 39787,-0.00015138,-0.00055277,0.00193325,-0.00161775,0.00356128,0.0023
 7715,-0.00018547,-0.00117025,0.04451715,0.66222618,0.00030729,-0.00138
 242,-0.00035449,0.00152640,0.00035094,0.00132933,-0.00003128,-0.000453
 79,0.00012508,-0.00601093,0.01200153,-0.01199659,-0.00032266,0.0003191
 9,-0.00064706,-0.00007645,0.00001214,0.00006480,0.00040219,-0.00015788
 ,0.00009033,0.00001193,0.00000474,0.00001752,-0.07772067,0.01596149,-0
 .15763398,0.00051354,0.00061726,0.00130628,-0.00000691,0.00001278,0.00
 002530,0.00007390,-0.00000034,0.00002958,-0.02693665,0.01852847,-0.030
 39355,-0.00881476,0.00415461,0.00077109,-0.00043460,0.00039551,-0.0002
 5587,0.00010196,-0.00005529,0.00008975,-0.00025949,0.00068337,0.000058
 15,0.00005487,-0.00010233,-0.00002710,-0.00143843,0.00152766,-0.000692
 48,0.00074107,-0.00053968,0.00107567,0.00004885,0.00174542,-0.00054255
 ,-0.00060742,-0.00061324,0.00038331,-0.00060536,0.00233144,0.00056513,
 -0.00066171,-0.00072340,-0.00167964,0.13057645,-0.10707691,0.22363105,
 0.00022318,0.00011229,0.00004617,0.00062285,0.00087413,0.00016760,-0.0
 0000706,0.00002519,0.00000580,-0.00433000,0.00060299,-0.00314607,-0.00
 007360,0.00016929,-0.00024109,-0.00001590,0.00001276,0.00003584,0.0000
 0066,0.00004481,-0.00003573,0.00000273,-0.00001227,0.00001726,0.001203
 50,0.02746234,-0.00430373,-0.00007786,-0.00015730,0.00009967,-0.000007
 08,0.00001024,0.00001008,-0.00000617,-0.00000346,-0.00001143,0.0006815
 5,-0.00069622,-0.00052286,-0.00061395,0.00120725,-0.00010398,-0.000003
 04,-0.00004350,0.00002888,0.00000134,0.00000677,-0.00000711,-0.0000382
 1,-0.00004309,0.00001318,0.00000356,0.00000353,-0.00000751,-0.00006243
 ,-0.00023393,0.00011458,0.00008886,0.00001819,-0.00004427,0.00001552,0
 .00000233,-0.00002280,-0.00004270,-0.00010544,-0.00012448,0.00039602,-
 0.00171749,0.00181559,0.00183594,0.00073805,-0.00138472,-0.03452792,-0
 .10337758,-0.01043113,0.03473019,-0.00009965,-0.00022870,0.00000080,-0
 .00060586,-0.00059712,-0.00040166,0.00001782,-0.00008188,0.00000469,0.
 00180609,-0.00077996,0.00310827,0.00013914,-0.00002632,0.00014322,0.00
 004436,-0.00003440,-0.00002621,0.00005884,-0.00003648,0.00003975,-0.00
 000700,0.00001478,-0.00001847,-0.00517604,-0.01263858,-0.00365544,0.00
 004196,0.00061628,-0.00001552,0.00000622,-0.00000241,-0.00000175,0.000
 01305,0.00000016,0.00000500,-0.00119778,0.00189206,-0.00086694,-0.0003
 2886,0.00033056,-0.00089819,-0.00006779,0.00006923,-0.00005475,0.00001
 830,-0.00000703,0.00001765,-0.00001803,0.00009642,-0.00001106,0.000012
 53,-0.00001139,0.00000394,-0.00021960,0.00033445,-0.00030997,0.0000622
 3,-0.00003764,0.00017865,-0.00001839,0.00028824,0.00003112,-0.00000422
 ,-0.00005801,0.00011615,0.00108216,0.00105898,-0.00042724,-0.00006724,
 -0.00055239,-0.00019854,-0.07059233,-0.53402894,0.05245875,0.07510010,
 0.54442013,0.00016041,0.00020510,0.00017179,0.00058396,0.00188228,0.00
 074195,-0.00001373,0.00005693,0.00000938,-0.00366081,0.00192954,-0.005
 44455,-0.00021769,0.00014392,-0.00048392,-0.00001862,-0.00002379,-0.00
 001579,-0.00003675,0.00004101,-0.00000303,0.00000565,0.00000155,-0.000
 01226,0.00392557,0.03461459,-0.00549989,-0.00014211,-0.00009126,0.0001
 4372,0.00000203,-0.00000365,-0.00000619,-0.00001669,-0.00000273,-0.000
 00725,0.00097898,0.00026754,0.00002240,-0.00029737,-0.00047041,0.00075
 470,0.00003539,-0.00004991,0.00001641,-0.00001096,0.00001043,-0.000006
 92,0.00000046,-0.00008784,-0.00002343,-0.00001659,0.00000350,0.0000065
 8,0.00013838,-0.00042917,0.00004288,-0.00010366,0.00019021,-0.00013378
 ,0.00013909,-0.00056857,0.00007694,0.00000609,0.00019033,-0.00007328,-
 0.00049842,-0.00031973,0.00014496,0.00008702,-0.00002397,-0.00015678,-
 0.01906190,0.01175637,-0.02533905,0.01803227,-0.04922228,0.03507439\\0
 .00001527,0.00000082,-0.00001769,0.00001582,-0.00000852,0.00002330,-0.
 00003152,0.00000477,-0.00000616,-0.00001338,-0.00001053,-0.00001223,-0
 .00000962,-0.00000350,0.00000421,-0.00000391,-0.00000051,0.00000768,0.
 00001741,0.00001339,0.00000122,0.00000566,-0.00000451,0.00000004,-0.00
 001181,0.00001556,-0.00001250,-0.00000515,-0.00000440,0.00000158,0.000
 00070,0.00000317,-0.00000188,0.00000364,0.00000359,-0.00000008,-0.0000
 0027,-0.00000224,0.00000198,0.00000420,0.00000180,-0.00000152,0.000001
 66,-0.00001248,-0.00000588,-0.00000022,0.00000718,0.00001094,-0.000007
 83,0.00000114,-0.00000360,0.00001374,-0.00001167,0.00000980,0.00001880
 ,0.00001345,-0.00000902,-0.00001214,0.00000428,0.00001580,0.00001306,-
 0.00000096,0.00000273,-0.00001523,-0.00000339,-0.00000484,-0.00000034,
 -0.00002501,0.00000672,-0.00000079,0.00001679,-0.00001140,0.00000388,-
 0.00000906,0.00000383,-0.00000165,0.00001086,-0.00000305\\\@
 The archive entry for this job was punched.


 ALL MEN WHO EXPLORE
 DEPLORE
 THAT FRUSTRATING HURDLE
 THE GIRDLE.

         -- COLIN FLETCHER
 Job cpu time:       0 days 19 hours 10 minutes 46.6 seconds.
 Elapsed time:       0 days  1 hours 12 minutes 10.2 seconds.
 File lengths (MBytes):  RWF=    704 Int=      0 D2E=      0 Chk=     27 Scr=      1
 Normal termination of Gaussian 16 at Wed Oct 11 16:52:30 2023.
