 Entering Gaussian System, Link 0=/opt/software/gaussian/g16.c01/g16
 Initial command:
 /opt/software/gaussian/g16.c01/l1.exe "/scratch/arhender/13209916/Gau-163860.inp" -scrdir="/scratch/arhender/13209916/"
 Entering Link 1 = /opt/software/gaussian/g16.c01/l1.exe PID=    163863.
  
 Copyright (c) 1988-2019, Gaussian, Inc.  All Rights Reserved.
  
 This is part of the Gaussian(R) 16 program.  It is based on
 the Gaussian(R) 09 system (copyright 2009, Gaussian, Inc.),
 the Gaussian(R) 03 system (copyright 2003, Gaussian, Inc.),
 the Gaussian(R) 98 system (copyright 1998, Gaussian, Inc.),
 the Gaussian(R) 94 system (copyright 1995, Gaussian, Inc.),
 the Gaussian 92(TM) system (copyright 1992, Gaussian, Inc.),
 the Gaussian 90(TM) system (copyright 1990, Gaussian, Inc.),
 the Gaussian 88(TM) system (copyright 1988, Gaussian, Inc.),
 the Gaussian 86(TM) system (copyright 1986, Carnegie Mellon
 University), and the Gaussian 82(TM) system (copyright 1983,
 Carnegie Mellon University). Gaussian is a federally registered
 trademark of Gaussian, Inc.
  
 This software contains proprietary and confidential information,
 including trade secrets, belonging to Gaussian, Inc.
  
 This software is provided under written license and may be
 used, copied, transmitted, or stored only in accord with that
 written license.
  
 The following legend is applicable only to US Government
 contracts under FAR:
  
                    RESTRICTED RIGHTS LEGEND
  
 Use, reproduction and disclosure by the US Government is
 subject to restrictions as set forth in subparagraphs (a)
 and (c) of the Commercial Computer Software - Restricted
 Rights clause in FAR 52.227-19.
  
 Gaussian, Inc.
 340 Quinnipiac St., Bldg. 40, Wallingford CT 06492
  
  
 ---------------------------------------------------------------
 Warning -- This program may not be used in any manner that
 competes with the business of Gaussian, Inc. or will provide
 assistance to any competitor of Gaussian, Inc.  The licensee
 of this program is prohibited from giving any competitor of
 Gaussian, Inc. access to this program.  By using this program,
 the user acknowledges that Gaussian, Inc. is engaged in the
 business of creating and licensing software in the field of
 computational chemistry and represents and warrants to the
 licensee that it is not a competitor of Gaussian, Inc. and that
 it will not use this program in any manner prohibited above.
 ---------------------------------------------------------------
  

 Cite this work as:
 Gaussian 16, Revision C.01,
 M. J. Frisch, G. W. Trucks, H. B. Schlegel, G. E. Scuseria, 
 M. A. Robb, J. R. Cheeseman, G. Scalmani, V. Barone, 
 G. A. Petersson, H. Nakatsuji, X. Li, M. Caricato, A. V. Marenich, 
 J. Bloino, B. G. Janesko, R. Gomperts, B. Mennucci, H. P. Hratchian, 
 J. V. Ortiz, A. F. Izmaylov, J. L. Sonnenberg, D. Williams-Young, 
 F. Ding, F. Lipparini, F. Egidi, J. Goings, B. Peng, A. Petrone, 
 T. Henderson, D. Ranasinghe, V. G. Zakrzewski, J. Gao, N. Rega, 
 G. Zheng, W. Liang, M. Hada, M. Ehara, K. Toyota, R. Fukuda, 
 J. Hasegawa, M. Ishida, T. Nakajima, Y. Honda, O. Kitao, H. Nakai, 
 T. Vreven, K. Throssell, J. A. Montgomery, Jr., J. E. Peralta, 
 F. Ogliaro, M. J. Bearpark, J. J. Heyd, E. N. Brothers, K. N. Kudin, 
 V. N. Staroverov, T. A. Keith, R. Kobayashi, J. Normand, 
 K. Raghavachari, A. P. Rendell, J. C. Burant, S. S. Iyengar, 
 J. Tomasi, M. Cossi, J. M. Millam, M. Klene, C. Adamo, R. Cammi, 
 J. W. Ochterski, R. L. Martin, K. Morokuma, O. Farkas, 
 J. B. Foresman, and D. J. Fox, Gaussian, Inc., Wallingford CT, 2019.
 
 ******************************************
 Gaussian 16:  ES64L-G16RevC.01  3-Jul-2019
                27-Sep-2023 
 ******************************************
 %chk=MannitolConformerOpt_12.chk
 %mem=8GB
 %nprocs=16
 Will use up to   16 processors via shared memory.
 ---------------------------------------------
 # opt freq wb97xd/def2tzvpp geom=connectivity
 ---------------------------------------------
 1/18=20,19=15,26=3,38=1,57=2/1,3;
 2/9=110,12=2,17=6,18=5,40=1/2;
 3/5=44,7=202,11=2,25=1,30=1,71=1,74=-58/1,2,3;
 4//1;
 5/5=2,38=5/2;
 6/7=2,8=2,9=2,10=2,28=1/1;
 7//1,2,3,16;
 1/18=20,19=15,26=3/3(2);
 2/9=110/2;
 99//99;
 2/9=110/2;
 3/5=44,7=202,11=2,25=1,30=1,71=1,74=-58/1,2,3;
 4/5=5,16=3,69=1/1;
 5/5=2,38=5/2;
 7//1,2,3,16;
 1/18=20,19=15,26=3/3(-5);
 2/9=110/2;
 6/7=2,8=2,9=2,10=2,19=2,28=1/1;
 99/9=1/99;
 --------------------------------
 Mannitol Conformer Optimziations
 --------------------------------
 Symbolic Z-matrix:
 Charge =  0 Multiplicity = 1
 C                     0.        0.        0. 
 C                     1.5362    0.        0. 
 C                    -0.658     0.5682    1.2643 
 C                     2.1927   -0.7872    1.1536 
 H                     1.9146    1.0283    0. 
 H                    -0.3787   -1.0128   -0.1814 
 C                    -0.3056    2.0305    1.5562 
 H                    -0.4243   -0.0493    2.1377 
 C                     1.7833   -2.266     1.2288 
 H                     1.9821   -0.3082    2.115 
 H                    -0.649     2.6961    0.7582 
 H                     0.768     2.1711    1.7036 
 H                     0.7524   -2.3715    1.5788 
 H                     2.4507   -2.8114    1.9042 
 O                    -0.9662    2.4338    2.7577 
 H                    -1.8834    2.104     2.6722 
 O                    -2.0898    0.5007    1.1008 
 H                    -2.2542    0.7986    0.1809 
 O                    -0.4646    0.7675   -1.1305 
 H                     0.1428    0.5355   -1.865 
 O                     1.9685   -0.5346   -1.2745 
 H                     1.9036   -1.5147   -1.1985 
 O                     3.6168   -0.7298    0.9708 
 H                     3.7762   -0.9274    0.0261 
 O                     1.875    -2.8724   -0.0643 
 H                     1.8072   -3.8361    0.079 
 

 GradGradGradGradGradGradGradGradGradGradGradGradGradGradGradGradGradGrad
 Berny optimization.
 Initialization pass.
                           ----------------------------
                           !    Initial Parameters    !
                           ! (Angstroms and Degrees)  !
 --------------------------                            --------------------------
 ! Name  Definition              Value          Derivative Info.                !
 --------------------------------------------------------------------------------
 ! R1    R(1,2)                  1.5362         estimate D2E/DX2                !
 ! R2    R(1,3)                  1.5344         estimate D2E/DX2                !
 ! R3    R(1,6)                  1.0964         estimate D2E/DX2                !
 ! R4    R(1,19)                 1.4432         estimate D2E/DX2                !
 ! R5    R(2,4)                  1.5432         estimate D2E/DX2                !
 ! R6    R(2,5)                  1.0957         estimate D2E/DX2                !
 ! R7    R(2,21)                 1.4481         estimate D2E/DX2                !
 ! R8    R(3,7)                  1.5322         estimate D2E/DX2                !
 ! R9    R(3,8)                  1.0949         estimate D2E/DX2                !
 ! R10   R(3,17)                 1.4427         estimate D2E/DX2                !
 ! R11   R(4,9)                  1.5363         estimate D2E/DX2                !
 ! R12   R(4,10)                 1.0946         estimate D2E/DX2                !
 ! R13   R(4,23)                 1.4369         estimate D2E/DX2                !
 ! R14   R(7,11)                 1.0944         estimate D2E/DX2                !
 ! R15   R(7,12)                 1.0928         estimate D2E/DX2                !
 ! R16   R(7,15)                 1.4292         estimate D2E/DX2                !
 ! R17   R(9,13)                 1.0938         estimate D2E/DX2                !
 ! R18   R(9,14)                 1.095          estimate D2E/DX2                !
 ! R19   R(9,25)                 1.4312         estimate D2E/DX2                !
 ! R20   R(15,16)                0.9784         estimate D2E/DX2                !
 ! R21   R(17,18)                0.9808         estimate D2E/DX2                !
 ! R22   R(19,20)                0.9809         estimate D2E/DX2                !
 ! R23   R(21,22)                0.9852         estimate D2E/DX2                !
 ! R24   R(23,24)                0.9782         estimate D2E/DX2                !
 ! R25   R(25,26)                0.9767         estimate D2E/DX2                !
 ! A1    A(2,1,3)              115.3941         estimate D2E/DX2                !
 ! A2    A(2,1,6)              110.2065         estimate D2E/DX2                !
 ! A3    A(2,1,19)             108.7788         estimate D2E/DX2                !
 ! A4    A(3,1,6)              109.2862         estimate D2E/DX2                !
 ! A5    A(3,1,19)             108.0867         estimate D2E/DX2                !
 ! A6    A(6,1,19)             104.5043         estimate D2E/DX2                !
 ! A7    A(1,2,4)              115.1769         estimate D2E/DX2                !
 ! A8    A(1,2,5)              110.2029         estimate D2E/DX2                !
 ! A9    A(1,2,21)             107.3691         estimate D2E/DX2                !
 ! A10   A(4,2,5)              109.3786         estimate D2E/DX2                !
 ! A11   A(4,2,21)             110.0354         estimate D2E/DX2                !
 ! A12   A(5,2,21)             104.0851         estimate D2E/DX2                !
 ! A13   A(1,3,7)              114.3156         estimate D2E/DX2                !
 ! A14   A(1,3,8)              110.9111         estimate D2E/DX2                !
 ! A15   A(1,3,17)             108.3546         estimate D2E/DX2                !
 ! A16   A(7,3,8)              109.7058         estimate D2E/DX2                !
 ! A17   A(7,3,17)             107.1276         estimate D2E/DX2                !
 ! A18   A(8,3,17)             106.0131         estimate D2E/DX2                !
 ! A19   A(2,4,9)              114.4721         estimate D2E/DX2                !
 ! A20   A(2,4,10)             110.5795         estimate D2E/DX2                !
 ! A21   A(2,4,23)             107.8268         estimate D2E/DX2                !
 ! A22   A(9,4,10)             109.0854         estimate D2E/DX2                !
 ! A23   A(9,4,23)             107.9863         estimate D2E/DX2                !
 ! A24   A(10,4,23)            106.5555         estimate D2E/DX2                !
 ! A25   A(3,7,11)             111.6754         estimate D2E/DX2                !
 ! A26   A(3,7,12)             111.9905         estimate D2E/DX2                !
 ! A27   A(3,7,15)             108.8538         estimate D2E/DX2                !
 ! A28   A(11,7,12)            109.1703         estimate D2E/DX2                !
 ! A29   A(11,7,15)            107.2375         estimate D2E/DX2                !
 ! A30   A(12,7,15)            107.7225         estimate D2E/DX2                !
 ! A31   A(4,9,13)             111.0803         estimate D2E/DX2                !
 ! A32   A(4,9,14)             110.317          estimate D2E/DX2                !
 ! A33   A(4,9,25)             110.277          estimate D2E/DX2                !
 ! A34   A(13,9,14)            109.2103         estimate D2E/DX2                !
 ! A35   A(13,9,25)            107.9772         estimate D2E/DX2                !
 ! A36   A(14,9,25)            107.8907         estimate D2E/DX2                !
 ! A37   A(7,15,16)            105.3496         estimate D2E/DX2                !
 ! A38   A(3,17,18)            104.9771         estimate D2E/DX2                !
 ! A39   A(1,19,20)            105.154          estimate D2E/DX2                !
 ! A40   A(2,21,22)            106.2426         estimate D2E/DX2                !
 ! A41   A(4,23,24)            106.0384         estimate D2E/DX2                !
 ! A42   A(9,25,26)            106.3242         estimate D2E/DX2                !
 ! D1    D(3,1,2,4)             58.5091         estimate D2E/DX2                !
 ! D2    D(3,1,2,5)            -65.8            estimate D2E/DX2                !
 ! D3    D(3,1,2,21)          -178.556          estimate D2E/DX2                !
 ! D4    D(6,1,2,4)            -65.8454         estimate D2E/DX2                !
 ! D5    D(6,1,2,5)            169.8456         estimate D2E/DX2                !
 ! D6    D(6,1,2,21)            57.0895         estimate D2E/DX2                !
 ! D7    D(19,1,2,4)          -179.8636         estimate D2E/DX2                !
 ! D8    D(19,1,2,5)            55.8273         estimate D2E/DX2                !
 ! D9    D(19,1,2,21)          -56.9287         estimate D2E/DX2                !
 ! D10   D(2,1,3,7)             60.4048         estimate D2E/DX2                !
 ! D11   D(2,1,3,8)            -64.2581         estimate D2E/DX2                !
 ! D12   D(2,1,3,17)           179.7718         estimate D2E/DX2                !
 ! D13   D(6,1,3,7)           -174.7618         estimate D2E/DX2                !
 ! D14   D(6,1,3,8)             60.5753         estimate D2E/DX2                !
 ! D15   D(6,1,3,17)           -55.3948         estimate D2E/DX2                !
 ! D16   D(19,1,3,7)           -61.5943         estimate D2E/DX2                !
 ! D17   D(19,1,3,8)           173.7428         estimate D2E/DX2                !
 ! D18   D(19,1,3,17)           57.7727         estimate D2E/DX2                !
 ! D19   D(2,1,19,20)           39.6764         estimate D2E/DX2                !
 ! D20   D(3,1,19,20)          165.6594         estimate D2E/DX2                !
 ! D21   D(6,1,19,20)          -78.0206         estimate D2E/DX2                !
 ! D22   D(1,2,4,9)             57.4879         estimate D2E/DX2                !
 ! D23   D(1,2,4,10)           -66.1972         estimate D2E/DX2                !
 ! D24   D(1,2,4,23)           177.6696         estimate D2E/DX2                !
 ! D25   D(5,2,4,9)           -177.7719         estimate D2E/DX2                !
 ! D26   D(5,2,4,10)            58.543          estimate D2E/DX2                !
 ! D27   D(5,2,4,23)           -57.5902         estimate D2E/DX2                !
 ! D28   D(21,2,4,9)           -64.0145         estimate D2E/DX2                !
 ! D29   D(21,2,4,10)          172.3004         estimate D2E/DX2                !
 ! D30   D(21,2,4,23)           56.1672         estimate D2E/DX2                !
 ! D31   D(1,2,21,22)          -80.6178         estimate D2E/DX2                !
 ! D32   D(4,2,21,22)           45.4341         estimate D2E/DX2                !
 ! D33   D(5,2,21,22)          162.5395         estimate D2E/DX2                !
 ! D34   D(1,3,7,11)            62.3406         estimate D2E/DX2                !
 ! D35   D(1,3,7,12)           -60.4514         estimate D2E/DX2                !
 ! D36   D(1,3,7,15)          -179.451          estimate D2E/DX2                !
 ! D37   D(8,3,7,11)          -172.359          estimate D2E/DX2                !
 ! D38   D(8,3,7,12)            64.849          estimate D2E/DX2                !
 ! D39   D(8,3,7,15)           -54.1506         estimate D2E/DX2                !
 ! D40   D(17,3,7,11)          -57.7143         estimate D2E/DX2                !
 ! D41   D(17,3,7,12)          179.4936         estimate D2E/DX2                !
 ! D42   D(17,3,7,15)           60.4941         estimate D2E/DX2                !
 ! D43   D(1,3,17,18)          -43.0662         estimate D2E/DX2                !
 ! D44   D(7,3,17,18)           80.7278         estimate D2E/DX2                !
 ! D45   D(8,3,17,18)         -162.1736         estimate D2E/DX2                !
 ! D46   D(2,4,9,13)           -72.063          estimate D2E/DX2                !
 ! D47   D(2,4,9,14)           166.6884         estimate D2E/DX2                !
 ! D48   D(2,4,9,25)            47.6095         estimate D2E/DX2                !
 ! D49   D(10,4,9,13)           52.4185         estimate D2E/DX2                !
 ! D50   D(10,4,9,14)          -68.8301         estimate D2E/DX2                !
 ! D51   D(10,4,9,25)          172.091          estimate D2E/DX2                !
 ! D52   D(23,4,9,13)          167.8441         estimate D2E/DX2                !
 ! D53   D(23,4,9,14)           46.5955         estimate D2E/DX2                !
 ! D54   D(23,4,9,25)          -72.4834         estimate D2E/DX2                !
 ! D55   D(2,4,23,24)          -46.1239         estimate D2E/DX2                !
 ! D56   D(9,4,23,24)           78.0637         estimate D2E/DX2                !
 ! D57   D(10,4,23,24)        -164.8614         estimate D2E/DX2                !
 ! D58   D(3,7,15,16)          -45.5147         estimate D2E/DX2                !
 ! D59   D(11,7,15,16)          75.4554         estimate D2E/DX2                !
 ! D60   D(12,7,15,16)        -167.1508         estimate D2E/DX2                !
 ! D61   D(4,9,25,26)          167.2749         estimate D2E/DX2                !
 ! D62   D(13,9,25,26)         -71.1915         estimate D2E/DX2                !
 ! D63   D(14,9,25,26)          46.7292         estimate D2E/DX2                !
 --------------------------------------------------------------------------------
 Trust Radius=3.00D-01 FncErr=1.00D-07 GrdErr=1.00D-06 EigMax=2.50D+02 EigMin=1.00D-04
 Number of steps in this run=    140 maximum allowed number of steps=    156.
 GradGradGradGradGradGradGradGradGradGradGradGradGradGradGradGradGradGrad

                          Input orientation:                          
 ---------------------------------------------------------------------
 Center     Atomic      Atomic             Coordinates (Angstroms)
 Number     Number       Type             X           Y           Z
 ---------------------------------------------------------------------
      1          6           0        0.000000    0.000000    0.000000
      2          6           0        1.536200    0.000000    0.000000
      3          6           0       -0.658000    0.568200    1.264300
      4          6           0        2.192700   -0.787200    1.153600
      5          1           0        1.914600    1.028300    0.000000
      6          1           0       -0.378700   -1.012800   -0.181400
      7          6           0       -0.305600    2.030500    1.556200
      8          1           0       -0.424300   -0.049300    2.137700
      9          6           0        1.783300   -2.266000    1.228800
     10          1           0        1.982100   -0.308200    2.115000
     11          1           0       -0.649000    2.696100    0.758200
     12          1           0        0.768000    2.171100    1.703600
     13          1           0        0.752400   -2.371500    1.578800
     14          1           0        2.450700   -2.811400    1.904200
     15          8           0       -0.966200    2.433800    2.757700
     16          1           0       -1.883400    2.104000    2.672200
     17          8           0       -2.089800    0.500700    1.100800
     18          1           0       -2.254200    0.798600    0.180900
     19          8           0       -0.464600    0.767500   -1.130500
     20          1           0        0.142800    0.535500   -1.865000
     21          8           0        1.968500   -0.534600   -1.274500
     22          1           0        1.903600   -1.514700   -1.198500
     23          8           0        3.616800   -0.729800    0.970800
     24          1           0        3.776200   -0.927400    0.026100
     25          8           0        1.875000   -2.872400   -0.064300
     26          1           0        1.807200   -3.836100    0.079000
 ---------------------------------------------------------------------
                    Distance matrix (angstroms):
                    1          2          3          4          5
     1  C    0.000000
     2  C    1.536200   0.000000
     3  C    1.534363   2.595346   0.000000
     4  C    2.599694   1.543201   3.158458   0.000000
     5  H    2.173268   1.095713   2.903174   2.168911   0.000000
     6  H    1.096396   2.173824   2.160467   2.906066   3.075422
     7  C    2.576447   3.152287   1.532225   3.787218   2.890580
     8  H    2.179959   2.900992   1.094874   2.891650   3.346855
     9  C    3.134464   2.589549   3.740842   1.536266   3.518466
    10  H    2.914950   2.183355   2.908934   1.094570   2.502801
    11  H    2.874895   3.552312   2.187276   4.512757   3.150947
    12  H    2.864568   2.864622   2.189920   3.329235   2.350093
    13  H    2.946647   2.954820   3.275664   2.182949   3.924533
    14  H    4.187586   3.516569   4.636290   2.174247   4.319338
    15  O    3.802872   4.448629   2.409501   4.788176   4.228398
    16  H    3.887758   4.822980   2.417120   5.223004   4.766822
    17  O    2.414482   3.822347   1.442685   4.472279   4.186328
    18  H    2.398313   3.877837   1.942857   4.820355   4.179041
    19  O    1.443239   2.422868   2.410849   3.833464   2.647006
    20  H    1.945605   2.388838   3.230305   3.881182   2.619227
    21  O    2.405232   1.448113   3.815780   2.451478   2.017402
    22  H    2.711902   1.966139   4.118938   2.478953   2.811294
    23  O    3.815272   2.409140   4.477149   1.436931   2.632651
    24  H    3.888501   2.424531   4.840670   1.948944   2.700185
    25  O    3.430808   2.893026   4.474259   2.435626   3.901431
    26  H    4.241212   3.846472   5.184593   3.255636   4.866227
                    6          7          8          9         10
     6  H    0.000000
     7  C    3.505178   0.000000
     8  H    2.511700   2.162822   0.000000
     9  C    2.869393   4.788591   3.257815   0.000000
    10  H    3.367980   3.318938   2.420394   2.158206   0.000000
    11  H    3.835603   1.094418   3.080703   5.546168   4.217750
    12  H    3.873676   1.092754   2.557381   4.576475   2.791096
    13  H    2.494746   4.527414   2.662631   1.093794   2.461073
    14  H    3.948442   5.582319   3.993663   1.095011   2.555393
    15  O    4.567550   1.429211   2.616074   5.655564   4.077266
    16  H    4.485710   1.933988   2.655440   5.884301   4.590345
    17  O    2.619653   2.393960   2.037536   4.761504   4.273557
    18  H    2.632476   2.684412   2.810077   5.176029   4.786647
    19  O    2.019316   2.973013   3.368964   4.452131   4.204372
    20  H    2.345997   3.760412   4.084752   4.484556   4.464891
    21  O    2.633038   4.445687   4.195726   3.049353   3.397080
    22  H    2.548586   5.003737   4.323973   2.543759   3.527192
    23  O    4.167934   4.831891   4.260895   2.405867   2.039408
    24  H    4.160955   5.267966   4.782689   2.685142   2.822358
    25  O    2.924207   5.605307   4.255053   1.431166   3.366889
    26  H    3.580082   6.408045   4.853627   1.946234   4.077004
                   11         12         13         14         15
    11  H    0.000000
    12  H    1.782497   0.000000
    13  H    5.321454   4.544341   0.000000
    14  H    6.422929   5.262796   1.784270   0.000000
    15  O    2.041425   2.046360   5.237776   6.317894   0.000000
    16  H    2.353236   2.823581   5.307831   6.598136   0.978435
    17  O    2.648218   3.364614   4.068921   5.677288   2.782925
    18  H    2.551558   3.651858   4.587298   6.175593   3.312510
    19  O    2.705677   3.394336   4.321425   5.524211   4.259842
    20  H    3.489458   3.975043   4.547749   5.543917   5.118865
    21  O    4.628239   4.198939   3.604778   3.939603   5.803663
    22  H    5.298611   4.826686   3.126142   3.406978   6.283146
    23  O    5.475312   4.131329   3.357027   2.562047   5.848527
    24  H    5.766118   4.632923   3.693192   2.972148   6.422590
    25  O    6.168896   5.457821   2.052050   2.051863   6.647696
    26  H    7.011695   6.309177   2.346712   2.189853   7.360627
                   16         17         18         19         20
    16  H    0.000000
    17  O    2.254433   0.000000
    18  H    2.836924   0.980810   0.000000
    19  O    4.273143   2.773294   2.218875   0.000000
    20  H    5.210745   3.712369   3.162363   0.980943   0.000000
    21  O    6.113574   4.814945   4.661202   2.763363   2.197040
    22  H    6.512962   5.029499   4.953928   3.289595   2.783516
    23  O    6.416961   5.839205   6.117891   4.828581   4.659552
    24  H    6.944228   6.132243   6.274453   4.711135   4.349475
    25  O    6.810181   5.334314   5.530520   4.456387   4.225733
    26  H    7.458552   5.919334   6.163262   5.274192   5.065595
                   21         22         23         24         25
    21  O    0.000000
    22  H    0.985182   0.000000
    23  O    2.792198   2.873497   0.000000
    24  H    2.261334   2.313265   0.978219   0.000000
    25  O    2.634129   1.769344   2.948904   2.721352   0.000000
    26  H    3.571818   2.651452   3.703925   3.512876   0.976652
                   26
    26  H    0.000000
 Stoichiometry    C6H14O6
 Framework group  C1[X(C6H14O6)]
 Deg. of freedom    72
 Full point group                 C1      NOp   1
 Largest Abelian subgroup         C1      NOp   1
 Largest concise Abelian subgroup C1      NOp   1
                         Standard orientation:                         
 ---------------------------------------------------------------------
 Center     Atomic      Atomic             Coordinates (Angstroms)
 Number     Number       Type             X           Y           Z
 ---------------------------------------------------------------------
      1          6           0        0.411932    0.836556    0.083133
      2          6           0       -0.681129    0.171663   -0.767188
      3          6           0        1.567592   -0.080944    0.503743
      4          6           0       -1.379174   -1.037732   -0.110249
      5          1           0       -0.274477   -0.127400   -1.739701
      6          1           0       -0.029371    1.295488    0.975724
      7          6           0        2.350505   -0.686176   -0.666066
      8          1           0        1.212338   -0.879779    1.162840
      9          6           0       -2.041204   -0.733049    1.242155
     10          1           0       -0.675712   -1.867004    0.014380
     11          1           0        2.834155    0.086566   -1.271625
     12          1           0        1.715624   -1.300802   -1.308929
     13          1           0       -1.290103   -0.585118    2.023403
     14          1           0       -2.706833   -1.552499    1.532822
     15          8           0        3.384030   -1.524850   -0.145395
     16          1           0        3.798640   -1.008230    0.574699
     17          8           0        2.501394    0.693458    1.284546
     18          1           0        2.585718    1.545816    0.806672
     19          8           0        0.966221    1.944884   -0.656673
     20          1           0        0.199125    2.367562   -1.098439
     21          8           0       -1.656643    1.191526   -1.091657
     22          1           0       -2.235805    1.280780   -0.299705
     23          8           0       -2.400141   -1.498631   -1.010231
     24          1           0       -2.878062   -0.699114   -1.309022
     25          8           0       -2.826183    0.460266    1.152462
     26          1           0       -3.375787    0.488598    1.959296
 ---------------------------------------------------------------------
 Rotational constants (GHZ):           1.3636349           0.5297516           0.4907101
 Standard basis: def2TZVPP (5D, 7F)
 There are   642 symmetry adapted cartesian basis functions of A   symmetry.
 There are   568 symmetry adapted basis functions of A   symmetry.
   568 basis functions,   850 primitive gaussians,   642 cartesian basis functions
    49 alpha electrons       49 beta electrons
       nuclear repulsion energy       829.7726564765 Hartrees.
 NAtoms=   26 NActive=   26 NUniq=   26 SFac= 1.00D+00 NAtFMM=   60 NAOKFM=F Big=F
 Integral buffers will be    131072 words long.
 Raffenetti 2 integral format.
 Two-electron integral symmetry is turned on.
 Nuclear repulsion after empirical dispersion term =      829.7532486684 Hartrees.
 One-electron integrals computed using PRISM.
   1 Symmetry operations used in ECPInt.
 ECPInt:  NShTT=   23436 NPrTT=   62434 LenC2=   22007 LenP2D=   45729.
 LDataN:  DoStor=T MaxTD1= 6 Len=  172
 NBasis=   568 RedAO= T EigKep=  4.55D-05  NBF=   568
 NBsUse=   568 1.00D-06 EigRej= -1.00D+00 NBFU=   568
 ExpMin= 9.52D-02 ExpMax= 2.70D+04 ExpMxC= 9.22D+02 IAcc=3 IRadAn=         5 AccDes= 0.00D+00
 Harris functional with IExCor= 4639 and IRadAn=       5 diagonalized for initial guess.
 HarFok:  IExCor= 4639 AccDes= 0.00D+00 IRadAn=         5 IDoV= 1 UseB2=F ITyADJ=14
 ICtDFT=  3500011 ScaDFX=  1.000000  1.000000  1.000000  1.000000
 FoFCou: FMM=F IPFlag=           0 FMFlag=      100000 FMFlg1=           0
         NFxFlg=           0 DoJE=T BraDBF=F KetDBF=T FulRan=T
         wScrn=  0.000000 ICntrl=       500 IOpCl=  0 I1Cent=   200000004 NGrid=           0
         NMat0=    1 NMatS0=      1 NMatT0=    0 NMatD0=    1 NMtDS0=    0 NMtDT0=    0
 Petite list used in FoFCou.
 Requested convergence on RMS density matrix=1.00D-08 within 128 cycles.
 Requested convergence on MAX density matrix=1.00D-06.
 Requested convergence on             energy=1.00D-06.
 No special actions if energy rises.
 Integral accuracy reduced to 1.0D-05 until final iterations.
 Initial convergence to 1.0D-05 achieved.  Increase integral accuracy.
 SCF Done:  E(RwB97XD) =  -688.470312300     A.U. after   14 cycles
            NFock= 14  Conv=0.43D-08     -V/T= 2.0050

 **********************************************************************

            Population analysis using the SCF Density.

 **********************************************************************

 Orbital symmetries:
       Occupied  (A) (A) (A) (A) (A) (A) (A) (A) (A) (A) (A) (A)
                 (A) (A) (A) (A) (A) (A) (A) (A) (A) (A) (A) (A)
                 (A) (A) (A) (A) (A) (A) (A) (A) (A) (A) (A) (A)
                 (A) (A) (A) (A) (A) (A) (A) (A) (A) (A) (A) (A)
                 (A)
       Virtual   (A) (A) (A) (A) (A) (A) (A) (A) (A) (A) (A) (A)
                 (A) (A) (A) (A) (A) (A) (A) (A) (A) (A) (A) (A)
                 (A) (A) (A) (A) (A) (A) (A) (A) (A) (A) (A) (A)
                 (A) (A) (A) (A) (A) (A) (A) (A) (A) (A) (A) (A)
                 (A) (A) (A) (A) (A) (A) (A) (A) (A) (A) (A) (A)
                 (A) (A) (A) (A) (A) (A) (A) (A) (A) (A) (A) (A)
                 (A) (A) (A) (A) (A) (A) (A) (A) (A) (A) (A) (A)
                 (A) (A) (A) (A) (A) (A) (A) (A) (A) (A) (A) (A)
                 (A) (A) (A) (A) (A) (A) (A) (A) (A) (A) (A) (A)
                 (A) (A) (A) (A) (A) (A) (A) (A) (A) (A) (A) (A)
                 (A) (A) (A) (A) (A) (A) (A) (A) (A) (A) (A) (A)
                 (A) (A) (A) (A) (A) (A) (A) (A) (A) (A) (A) (A)
                 (A) (A) (A) (A) (A) (A) (A) (A) (A) (A) (A) (A)
                 (A) (A) (A) (A) (A) (A) (A) (A) (A) (A) (A) (A)
                 (A) (A) (A) (A) (A) (A) (A) (A) (A) (A) (A) (A)
                 (A) (A) (A) (A) (A) (A) (A) (A) (A) (A) (A) (A)
                 (A) (A) (A) (A) (A) (A) (A) (A) (A) (A) (A) (A)
                 (A) (A) (A) (A) (A) (A) (A) (A) (A) (A) (A) (A)
                 (A) (A) (A) (A) (A) (A) (A) (A) (A) (A) (A) (A)
                 (A) (A) (A) (A) (A) (A) (A) (A) (A) (A) (A) (A)
                 (A) (A) (A) (A) (A) (A) (A) (A) (A) (A) (A) (A)
                 (A) (A) (A) (A) (A) (A) (A) (A) (A) (A) (A) (A)
                 (A) (A) (A) (A) (A) (A) (A) (A) (A) (A) (A) (A)
                 (A) (A) (A) (A) (A) (A) (A) (A) (A) (A) (A) (A)
                 (A) (A) (A) (A) (A) (A) (A) (A) (A) (A) (A) (A)
                 (A) (A) (A) (A) (A) (A) (A) (A) (A) (A) (A) (A)
                 (A) (A) (A) (A) (A) (A) (A) (A) (A) (A) (A) (A)
                 (A) (A) (A) (A) (A) (A) (A) (A) (A) (A) (A) (A)
                 (A) (A) (A) (A) (A) (A) (A) (A) (A) (A) (A) (A)
                 (A) (A) (A) (A) (A) (A) (A) (A) (A) (A) (A) (A)
                 (A) (A) (A) (A) (A) (A) (A) (A) (A) (A) (A) (A)
                 (A) (A) (A) (A) (A) (A) (A) (A) (A) (A) (A) (A)
                 (A) (A) (A) (A) (A) (A) (A) (A) (A) (A) (A) (A)
                 (A) (A) (A) (A) (A) (A) (A) (A) (A) (A) (A) (A)
                 (A) (A) (A) (A) (A) (A) (A) (A) (A) (A) (A) (A)
                 (A) (A) (A) (A) (A) (A) (A) (A) (A) (A) (A) (A)
                 (A) (A) (A) (A) (A) (A) (A) (A) (A) (A) (A) (A)
                 (A) (A) (A) (A) (A) (A) (A) (A) (A) (A) (A) (A)
                 (A) (A) (A) (A) (A) (A) (A) (A) (A) (A) (A) (A)
                 (A) (A) (A) (A) (A) (A) (A) (A) (A) (A) (A) (A)
                 (A) (A) (A) (A) (A) (A) (A) (A) (A) (A) (A) (A)
                 (A) (A) (A) (A) (A) (A) (A) (A) (A) (A) (A) (A)
                 (A) (A) (A) (A) (A) (A) (A) (A) (A) (A) (A) (A)
                 (A) (A) (A)
 The electronic state is 1-A.
 Alpha  occ. eigenvalues --  -19.29465 -19.26279 -19.26037 -19.25897 -19.25688
 Alpha  occ. eigenvalues --  -19.23947 -10.36226 -10.35945 -10.35690 -10.35108
 Alpha  occ. eigenvalues --  -10.34929 -10.32860  -1.17251  -1.15055  -1.13751
 Alpha  occ. eigenvalues --   -1.12423  -1.11079  -1.10174  -0.89902  -0.85430
 Alpha  occ. eigenvalues --   -0.80504  -0.76216  -0.71982  -0.69577  -0.66427
 Alpha  occ. eigenvalues --   -0.63265  -0.61175  -0.59667  -0.58896  -0.57383
 Alpha  occ. eigenvalues --   -0.56404  -0.55352  -0.54226  -0.52550  -0.52184
 Alpha  occ. eigenvalues --   -0.50715  -0.49996  -0.49256  -0.46393  -0.44520
 Alpha  occ. eigenvalues --   -0.43231  -0.42650  -0.42003  -0.40296  -0.39700
 Alpha  occ. eigenvalues --   -0.38283  -0.37795  -0.36229  -0.34704
 Alpha virt. eigenvalues --    0.07344   0.10930   0.11231   0.12583   0.13367
 Alpha virt. eigenvalues --    0.14098   0.15037   0.15540   0.17314   0.17591
 Alpha virt. eigenvalues --    0.18733   0.19617   0.19852   0.20907   0.21228
 Alpha virt. eigenvalues --    0.21588   0.23206   0.24794   0.25935   0.26692
 Alpha virt. eigenvalues --    0.28294   0.29396   0.31143   0.32939   0.34082
 Alpha virt. eigenvalues --    0.35012   0.35312   0.35827   0.37131   0.37969
 Alpha virt. eigenvalues --    0.38293   0.38587   0.39155   0.39220   0.40728
 Alpha virt. eigenvalues --    0.41258   0.42112   0.42584   0.43302   0.43964
 Alpha virt. eigenvalues --    0.44371   0.45658   0.46285   0.46412   0.47581
 Alpha virt. eigenvalues --    0.48470   0.48751   0.49707   0.50407   0.51459
 Alpha virt. eigenvalues --    0.52316   0.52600   0.53050   0.54142   0.55107
 Alpha virt. eigenvalues --    0.55549   0.55695   0.57744   0.57851   0.58423
 Alpha virt. eigenvalues --    0.60045   0.60578   0.61238   0.62360   0.62806
 Alpha virt. eigenvalues --    0.64793   0.66130   0.67544   0.68266   0.68310
 Alpha virt. eigenvalues --    0.69281   0.69926   0.70643   0.72578   0.72937
 Alpha virt. eigenvalues --    0.73830   0.76561   0.77594   0.79589   0.79769
 Alpha virt. eigenvalues --    0.80537   0.81737   0.84087   0.84539   0.85141
 Alpha virt. eigenvalues --    0.86194   0.86775   0.87139   0.88804   0.90513
 Alpha virt. eigenvalues --    0.91728   0.92991   0.93949   0.95628   0.96539
 Alpha virt. eigenvalues --    0.97723   0.98352   0.98636   1.00285   1.01748
 Alpha virt. eigenvalues --    1.02473   1.04207   1.05207   1.05879   1.07629
 Alpha virt. eigenvalues --    1.08735   1.08889   1.09757   1.11817   1.12512
 Alpha virt. eigenvalues --    1.13925   1.14926   1.15500   1.16527   1.17615
 Alpha virt. eigenvalues --    1.18258   1.19508   1.20639   1.22437   1.23036
 Alpha virt. eigenvalues --    1.24577   1.25232   1.25473   1.26569   1.29276
 Alpha virt. eigenvalues --    1.30553   1.31325   1.32620   1.32725   1.34497
 Alpha virt. eigenvalues --    1.35017   1.36754   1.37896   1.39951   1.40502
 Alpha virt. eigenvalues --    1.41918   1.42175   1.43778   1.45237   1.46702
 Alpha virt. eigenvalues --    1.46910   1.48984   1.49049   1.50478   1.51807
 Alpha virt. eigenvalues --    1.52593   1.53057   1.54806   1.56640   1.58738
 Alpha virt. eigenvalues --    1.59467   1.61268   1.62748   1.63498   1.65412
 Alpha virt. eigenvalues --    1.67899   1.69399   1.70639   1.73751   1.75386
 Alpha virt. eigenvalues --    1.76355   1.77784   1.80062   1.81440   1.85399
 Alpha virt. eigenvalues --    1.86521   1.87024   1.89951   1.90266   1.92409
 Alpha virt. eigenvalues --    1.94106   1.96280   1.96930   1.97837   2.00198
 Alpha virt. eigenvalues --    2.00417   2.02069   2.02574   2.03033   2.04598
 Alpha virt. eigenvalues --    2.04952   2.06169   2.06962   2.08937   2.09853
 Alpha virt. eigenvalues --    2.11245   2.12834   2.14667   2.15508   2.18341
 Alpha virt. eigenvalues --    2.19032   2.19440   2.21002   2.21872   2.24556
 Alpha virt. eigenvalues --    2.27070   2.27543   2.29146   2.30802   2.32442
 Alpha virt. eigenvalues --    2.33932   2.34842   2.37811   2.38959   2.40291
 Alpha virt. eigenvalues --    2.44691   2.46256   2.48984   2.50113   2.53474
 Alpha virt. eigenvalues --    2.55260   2.56217   2.59837   2.61853   2.63182
 Alpha virt. eigenvalues --    2.63504   2.66341   2.68005   2.69252   2.69702
 Alpha virt. eigenvalues --    2.71005   2.73298   2.74400   2.76455   2.77806
 Alpha virt. eigenvalues --    2.78869   2.79546   2.81256   2.82751   2.84427
 Alpha virt. eigenvalues --    2.86045   2.86452   2.86855   2.88579   2.89464
 Alpha virt. eigenvalues --    2.93460   2.94446   2.95875   2.97226   2.98447
 Alpha virt. eigenvalues --    3.00249   3.01338   3.02567   3.03122   3.04727
 Alpha virt. eigenvalues --    3.05545   3.06496   3.07851   3.09817   3.10295
 Alpha virt. eigenvalues --    3.12111   3.13114   3.15062   3.16382   3.17576
 Alpha virt. eigenvalues --    3.17979   3.18401   3.19672   3.20261   3.21704
 Alpha virt. eigenvalues --    3.22233   3.23671   3.24074   3.25046   3.26587
 Alpha virt. eigenvalues --    3.27686   3.28531   3.29569   3.30224   3.31122
 Alpha virt. eigenvalues --    3.32502   3.33131   3.33786   3.35595   3.37284
 Alpha virt. eigenvalues --    3.38055   3.38938   3.39543   3.39947   3.42067
 Alpha virt. eigenvalues --    3.43186   3.43827   3.44913   3.46000   3.47011
 Alpha virt. eigenvalues --    3.48211   3.49189   3.50692   3.52195   3.53414
 Alpha virt. eigenvalues --    3.54306   3.55336   3.57750   3.59233   3.60014
 Alpha virt. eigenvalues --    3.61254   3.61677   3.64438   3.65182   3.66002
 Alpha virt. eigenvalues --    3.66733   3.67814   3.69353   3.70583   3.72259
 Alpha virt. eigenvalues --    3.72986   3.73416   3.75411   3.76067   3.78159
 Alpha virt. eigenvalues --    3.78613   3.78946   3.79198   3.81419   3.83156
 Alpha virt. eigenvalues --    3.83214   3.84564   3.86521   3.87348   3.88355
 Alpha virt. eigenvalues --    3.88743   3.90684   3.92926   3.93675   3.94610
 Alpha virt. eigenvalues --    3.96903   3.97756   3.99311   3.99900   4.00579
 Alpha virt. eigenvalues --    4.01320   4.02271   4.02489   4.04216   4.06099
 Alpha virt. eigenvalues --    4.07177   4.07600   4.09165   4.09522   4.11776
 Alpha virt. eigenvalues --    4.12530   4.13466   4.15147   4.16013   4.16897
 Alpha virt. eigenvalues --    4.17636   4.19218   4.20161   4.21197   4.22415
 Alpha virt. eigenvalues --    4.23388   4.23908   4.25138   4.26099   4.26874
 Alpha virt. eigenvalues --    4.27760   4.30094   4.31102   4.32755   4.33799
 Alpha virt. eigenvalues --    4.35323   4.35838   4.37159   4.38954   4.40262
 Alpha virt. eigenvalues --    4.43219   4.43604   4.44002   4.46217   4.47434
 Alpha virt. eigenvalues --    4.49264   4.50475   4.52177   4.53036   4.54550
 Alpha virt. eigenvalues --    4.55366   4.56505   4.58749   4.59566   4.61549
 Alpha virt. eigenvalues --    4.62156   4.64641   4.68153   4.68723   4.69576
 Alpha virt. eigenvalues --    4.72687   4.74670   4.77248   4.78236   4.80417
 Alpha virt. eigenvalues --    4.81743   4.84297   4.86070   4.87117   4.87432
 Alpha virt. eigenvalues --    4.92660   4.93098   4.95253   4.96301   4.97801
 Alpha virt. eigenvalues --    4.98199   4.98955   5.01039   5.03041   5.05025
 Alpha virt. eigenvalues --    5.05735   5.08357   5.10368   5.11436   5.13385
 Alpha virt. eigenvalues --    5.14712   5.15542   5.16365   5.19045   5.21014
 Alpha virt. eigenvalues --    5.24726   5.25323   5.25788   5.26858   5.29591
 Alpha virt. eigenvalues --    5.32050   5.36575   5.39424   5.41538   5.43350
 Alpha virt. eigenvalues --    5.47421   5.49330   5.51970   5.55217   5.57952
 Alpha virt. eigenvalues --    5.59672   5.60326   5.62181   5.64183   5.66051
 Alpha virt. eigenvalues --    5.66641   5.67355   5.68610   5.69721   5.72699
 Alpha virt. eigenvalues --    5.75434   5.76195   5.77293   5.79368   5.82356
 Alpha virt. eigenvalues --    5.84457   5.87955   5.90782   5.92228   5.92849
 Alpha virt. eigenvalues --    5.98150   6.00940   6.01577   6.08422   6.12774
 Alpha virt. eigenvalues --    6.14461   6.15431   6.19310   6.20050   6.48981
 Alpha virt. eigenvalues --    6.53397   6.54487   6.54550   6.55407   6.57290
 Alpha virt. eigenvalues --    6.68217   6.71311   6.73710   6.74667   6.74977
 Alpha virt. eigenvalues --    6.75400   6.77562   6.79779   6.80383   6.81401
 Alpha virt. eigenvalues --    6.82269   6.83226   6.86634   6.87149   6.87606
 Alpha virt. eigenvalues --    6.89070   6.90534   6.96372   6.98985   7.00974
 Alpha virt. eigenvalues --    7.01885   7.02954   7.04349   7.07740   7.15967
 Alpha virt. eigenvalues --    7.18684   7.19653   7.20650   7.22981   7.24829
 Alpha virt. eigenvalues --    7.42337   7.42998   7.44778   7.45231   7.46202
 Alpha virt. eigenvalues --    7.50047   7.54536   7.55067   7.55562   7.60324
 Alpha virt. eigenvalues --    7.61299   7.76602  23.13519  23.13678  23.20321
 Alpha virt. eigenvalues --   23.23517  23.42049  23.46493  44.09776  44.14951
 Alpha virt. eigenvalues --   44.20752  44.29755  44.30368  44.38942
          Condensed to atoms (all electrons):
               1          2          3          4          5          6
     1  C    5.345573   0.015221   0.088719   0.012999   0.001448   0.377518
     2  C    0.015221   5.189108   0.042958   0.200035   0.391779   0.012970
     3  C    0.088719   0.042958   4.972131   0.003038  -0.018671  -0.045512
     4  C    0.012999   0.200035   0.003038   4.881586  -0.032733  -0.021654
     5  H    0.001448   0.391779  -0.018671  -0.032733   0.552506   0.006809
     6  H    0.377518   0.012970  -0.045512  -0.021654   0.006809   0.600561
     7  C   -0.041410   0.038200   0.352338  -0.011390   0.002405   0.009381
     8  H    0.040619  -0.049047   0.367303   0.023456   0.001542  -0.005854
     9  C    0.027834  -0.008344  -0.009043   0.275387   0.006324   0.002518
    10  H   -0.022009  -0.003504   0.007338   0.402006  -0.005749   0.000133
    11  H    0.035157  -0.015844  -0.049670   0.002557   0.001950   0.000336
    12  H   -0.033928   0.024004  -0.000226  -0.008487  -0.008904  -0.001340
    13  H    0.009328  -0.014770  -0.006180  -0.029909  -0.000712  -0.011855
    14  H   -0.002205   0.007451   0.000730  -0.016911  -0.000146   0.000917
    15  O    0.012695  -0.002124  -0.044644   0.000753  -0.000066  -0.000456
    16  H   -0.002428   0.000352  -0.009165  -0.000078  -0.000099  -0.000215
    17  O   -0.036158   0.010732   0.264108  -0.001549  -0.000156   0.007696
    18  H   -0.005630  -0.000379  -0.053626  -0.000004   0.000039  -0.002022
    19  O    0.240025  -0.020766  -0.050715   0.010759   0.004507  -0.038401
    20  H   -0.031372  -0.016856   0.006988   0.003640  -0.001537  -0.003804
    21  O   -0.018092   0.198530   0.007617  -0.031275  -0.027307  -0.003651
    22  H    0.014109  -0.058493   0.000528   0.001944   0.005166   0.000033
    23  O    0.009760  -0.031300  -0.001293   0.269748   0.008470   0.000113
    24  H   -0.000663  -0.013047  -0.000161  -0.049076  -0.003245  -0.000004
    25  O   -0.015974  -0.000231   0.002357  -0.046851  -0.000456   0.012551
    26  H    0.001660  -0.001482  -0.000133   0.004524   0.000081  -0.000157
               7          8          9         10         11         12
     1  C   -0.041410   0.040619   0.027834  -0.022009   0.035157  -0.033928
     2  C    0.038200  -0.049047  -0.008344  -0.003504  -0.015844   0.024004
     3  C    0.352338   0.367303  -0.009043   0.007338  -0.049670  -0.000226
     4  C   -0.011390   0.023456   0.275387   0.402006   0.002557  -0.008487
     5  H    0.002405   0.001542   0.006324  -0.005749   0.001950  -0.008904
     6  H    0.009381  -0.005854   0.002518   0.000133   0.000336  -0.001340
     7  C    4.702378  -0.052382   0.001486   0.000010   0.405075   0.374429
     8  H   -0.052382   0.614145  -0.005395  -0.005698   0.010100  -0.004055
     9  C    0.001486  -0.005395   4.813177  -0.035568  -0.000207   0.000831
    10  H    0.000010  -0.005698  -0.035568   0.590912  -0.000044   0.000894
    11  H    0.405075   0.010100  -0.000207  -0.000044   0.613645  -0.038117
    12  H    0.374429  -0.004055   0.000831   0.000894  -0.038117   0.649800
    13  H    0.000603   0.003040   0.426878   0.001266   0.000000  -0.000184
    14  H   -0.000045  -0.000027   0.417267  -0.002099   0.000001  -0.000001
    15  O    0.288522   0.013252  -0.000172   0.000415  -0.047149  -0.032042
    16  H   -0.047344  -0.002294   0.000006   0.000034  -0.007647   0.011637
    17  O   -0.058948  -0.028863   0.000021  -0.000046  -0.003702   0.007118
    18  H    0.002637   0.007817   0.000040  -0.000049   0.001235   0.000661
    19  O   -0.008814   0.002191  -0.001258  -0.000034   0.010366   0.000724
    20  H    0.000914  -0.000267  -0.000602  -0.000016  -0.000302  -0.000069
    21  O   -0.000422   0.000140  -0.006639   0.003910   0.000022   0.000024
    22  H   -0.000049   0.000107  -0.007375   0.000175   0.000011  -0.000033
    23  O   -0.000138  -0.000025  -0.041534  -0.023839  -0.000001   0.000446
    24  H    0.000050  -0.000053  -0.002348   0.008944  -0.000002  -0.000015
    25  O   -0.000098  -0.000202   0.232237   0.002951   0.000002   0.000003
    26  H    0.000005   0.000007  -0.014924  -0.000561  -0.000000   0.000001
              13         14         15         16         17         18
     1  C    0.009328  -0.002205   0.012695  -0.002428  -0.036158  -0.005630
     2  C   -0.014770   0.007451  -0.002124   0.000352   0.010732  -0.000379
     3  C   -0.006180   0.000730  -0.044644  -0.009165   0.264108  -0.053626
     4  C   -0.029909  -0.016911   0.000753  -0.000078  -0.001549  -0.000004
     5  H   -0.000712  -0.000146  -0.000066  -0.000099  -0.000156   0.000039
     6  H   -0.011855   0.000917  -0.000456  -0.000215   0.007696  -0.002022
     7  C    0.000603  -0.000045   0.288522  -0.047344  -0.058948   0.002637
     8  H    0.003040  -0.000027   0.013252  -0.002294  -0.028863   0.007817
     9  C    0.426878   0.417267  -0.000172   0.000006   0.000021   0.000040
    10  H    0.001266  -0.002099   0.000415   0.000034  -0.000046  -0.000049
    11  H    0.000000   0.000001  -0.047149  -0.007647  -0.003702   0.001235
    12  H   -0.000184  -0.000001  -0.032042   0.011637   0.007118   0.000661
    13  H    0.601378  -0.025537   0.000009  -0.000010   0.000399  -0.000034
    14  H   -0.025537   0.542334  -0.000001   0.000000  -0.000003   0.000000
    15  O    0.000009  -0.000001   7.874928   0.318021  -0.012590   0.000079
    16  H   -0.000010   0.000000   0.318021   0.517311   0.026298  -0.000677
    17  O    0.000399  -0.000003  -0.012590   0.026298   7.904606   0.326355
    18  H   -0.000034   0.000000   0.000079  -0.000677   0.326355   0.496659
    19  O    0.000079   0.000013   0.000182   0.000105  -0.007424   0.018853
    20  H    0.000019   0.000005   0.000008   0.000008   0.000004  -0.000975
    21  O    0.000608  -0.000623   0.000002   0.000002  -0.000129  -0.000023
    22  H    0.000734   0.000518   0.000001  -0.000000  -0.000014  -0.000002
    23  O    0.005510   0.004231  -0.000001  -0.000000   0.000002   0.000002
    24  H    0.000473  -0.002021  -0.000001  -0.000000   0.000002  -0.000000
    25  O   -0.049529  -0.031925   0.000000   0.000000  -0.000000   0.000002
    26  H   -0.004182  -0.010022  -0.000000   0.000000   0.000000   0.000000
              19         20         21         22         23         24
     1  C    0.240025  -0.031372  -0.018092   0.014109   0.009760  -0.000663
     2  C   -0.020766  -0.016856   0.198530  -0.058493  -0.031300  -0.013047
     3  C   -0.050715   0.006988   0.007617   0.000528  -0.001293  -0.000161
     4  C    0.010759   0.003640  -0.031275   0.001944   0.269748  -0.049076
     5  H    0.004507  -0.001537  -0.027307   0.005166   0.008470  -0.003245
     6  H   -0.038401  -0.003804  -0.003651   0.000033   0.000113  -0.000004
     7  C   -0.008814   0.000914  -0.000422  -0.000049  -0.000138   0.000050
     8  H    0.002191  -0.000267   0.000140   0.000107  -0.000025  -0.000053
     9  C   -0.001258  -0.000602  -0.006639  -0.007375  -0.041534  -0.002348
    10  H   -0.000034  -0.000016   0.003910   0.000175  -0.023839   0.008944
    11  H    0.010366  -0.000302   0.000022   0.000011  -0.000001  -0.000002
    12  H    0.000724  -0.000069   0.000024  -0.000033   0.000446  -0.000015
    13  H    0.000079   0.000019   0.000608   0.000734   0.005510   0.000473
    14  H    0.000013   0.000005  -0.000623   0.000518   0.004231  -0.002021
    15  O    0.000182   0.000008   0.000002   0.000001  -0.000001  -0.000001
    16  H    0.000105   0.000008   0.000002  -0.000000  -0.000000  -0.000000
    17  O   -0.007424   0.000004  -0.000129  -0.000014   0.000002   0.000002
    18  H    0.018853  -0.000975  -0.000023  -0.000002   0.000002  -0.000000
    19  O    7.913575   0.336584  -0.015926   0.000085  -0.000157  -0.000025
    20  H    0.336584   0.474380   0.027357   0.000033  -0.000052  -0.000088
    21  O   -0.015926   0.027357   7.973318   0.336206  -0.009415   0.026183
    22  H    0.000085   0.000033   0.336206   0.445985   0.000503  -0.000511
    23  O   -0.000157  -0.000052  -0.009415   0.000503   7.850318   0.326675
    24  H   -0.000025  -0.000088   0.026183  -0.000511   0.326675   0.507766
    25  O    0.000010   0.000057  -0.026251   0.044655  -0.000105   0.007035
    26  H   -0.000008  -0.000007   0.001562  -0.002489  -0.000647  -0.000279
              25         26
     1  C   -0.015974   0.001660
     2  C   -0.000231  -0.001482
     3  C    0.002357  -0.000133
     4  C   -0.046851   0.004524
     5  H   -0.000456   0.000081
     6  H    0.012551  -0.000157
     7  C   -0.000098   0.000005
     8  H   -0.000202   0.000007
     9  C    0.232237  -0.014924
    10  H    0.002951  -0.000561
    11  H    0.000002  -0.000000
    12  H    0.000003   0.000001
    13  H   -0.049529  -0.004182
    14  H   -0.031925  -0.010022
    15  O    0.000000  -0.000000
    16  H    0.000000   0.000000
    17  O   -0.000000   0.000000
    18  H    0.000002   0.000000
    19  O    0.000010  -0.000008
    20  H    0.000057  -0.000007
    21  O   -0.026251   0.001562
    22  H    0.044655  -0.002489
    23  O   -0.000105  -0.000647
    24  H    0.007035  -0.000279
    25  O    7.900689   0.307913
    26  H    0.307913   0.544145
 Mulliken charges:
               1
     1  C   -0.022797
     2  C    0.104847
     3  C    0.172887
     4  C    0.157484
     5  H    0.116756
     6  H    0.103388
     7  C    0.042608
     8  H    0.070444
     9  C   -0.070597
    10  H    0.080230
    11  H    0.082230
    12  H    0.056830
    13  H    0.092581
    14  H    0.118097
    15  O   -0.369622
    16  H    0.196183
    17  O   -0.397759
    18  H    0.209042
    19  O   -0.394529
    20  H    0.205951
    21  O   -0.435728
    22  H    0.218175
    23  O   -0.367270
    24  H    0.194411
    25  O   -0.338837
    26  H    0.174993
 Sum of Mulliken charges =  -0.00000
 Mulliken charges with hydrogens summed into heavy atoms:
               1
     1  C    0.080591
     2  C    0.221604
     3  C    0.243332
     4  C    0.237714
     7  C    0.181668
     9  C    0.140081
    15  O   -0.173439
    17  O   -0.188717
    19  O   -0.188578
    21  O   -0.217553
    23  O   -0.172858
    25  O   -0.163844
 Electronic spatial extent (au):  <R**2>=           2467.2955
 Charge=             -0.0000 electrons
 Dipole moment (field-independent basis, Debye):
    X=             -3.3083    Y=              1.2784    Z=              2.6675  Tot=              4.4379
 Quadrupole moment (field-independent basis, Debye-Ang):
   XX=            -74.0681   YY=            -78.1345   ZZ=            -70.2825
   XY=              1.9669   XZ=             -9.3559   YZ=             -2.7197
 Traceless Quadrupole moment (field-independent basis, Debye-Ang):
   XX=              0.0936   YY=             -3.9728   ZZ=              3.8792
   XY=              1.9669   XZ=             -9.3559   YZ=             -2.7197
 Octapole moment (field-independent basis, Debye-Ang**2):
  XXX=            -46.2574  YYY=             25.2150  ZZZ=              6.8010  XYY=             -6.2912
  XXY=             33.7412  XXZ=             31.7018  XZZ=            -21.1819  YZZ=              0.1379
  YYZ=              8.4598  XYZ=             -1.1340
 Hexadecapole moment (field-independent basis, Debye-Ang**3):
 XXXX=          -1818.9601 YYYY=           -590.7890 ZZZZ=           -415.0485 XXXY=             42.1237
 XXXZ=            -39.5197 YYYX=              7.8493 YYYZ=            -15.5987 ZZZX=            -52.7482
 ZZZY=             -0.8659 XXYY=           -482.5778 XXZZ=           -342.8074 YYZZ=           -170.1392
 XXYZ=            -19.9479 YYXZ=             -5.9127 ZZXY=            -13.5192
 N-N= 8.297532486684D+02 E-N=-3.276327022186D+03  KE= 6.850528272267D+02
   1 Symmetry operations used in ECPInt.
 ECPInt:  NShTT=   23436 NPrTT=   62434 LenC2=   22007 LenP2D=   45729.
 LDataN:  DoStor=T MaxTD1= 7 Len=  274
 Calling FoFJK, ICntrl=      2127 FMM=F ISym2X=0 I1Cent= 0 IOpClX= 0 NMat=1 NMatS=1 NMatT=0.
 ***** Axes restored to original set *****
 -------------------------------------------------------------------
 Center     Atomic                   Forces (Hartrees/Bohr)
 Number     Number              X              Y              Z
 -------------------------------------------------------------------
      1        6          -0.001373728    0.007999717   -0.009759969
      2        6          -0.003688440   -0.011696843   -0.010764424
      3        6          -0.012395111    0.007121590   -0.016529173
      4        6           0.020925654   -0.007331001   -0.011464691
      5        1          -0.002453468   -0.003402579    0.003638656
      6        1           0.004312745   -0.002920077    0.008389787
      7        6          -0.009174339    0.001792714    0.014346028
      8        1           0.000289940    0.001770512   -0.002725033
      9        6          -0.006572992    0.001257037   -0.000142988
     10        1          -0.000023767   -0.001706382   -0.002759561
     11        1           0.004645540   -0.005990633   -0.005647983
     12        1          -0.001775737    0.000003860    0.001305703
     13        1          -0.000569049    0.002487819    0.003094575
     14        1          -0.001002594    0.007485610    0.002376730
     15        8          -0.008130498   -0.010140224   -0.005973898
     16        1           0.016210663    0.006611471    0.001144660
     17        8           0.009026191    0.002775268   -0.014308660
     18        1           0.001559420   -0.005373318    0.017627980
     19        8           0.016786153   -0.005781319    0.000003969
     20        1          -0.012698192    0.003925375    0.013681654
     21        8          -0.001556243   -0.008245166    0.013299287
     22        1          -0.001260612    0.017606874   -0.003794767
     23        8          -0.010094371   -0.001010769   -0.011106953
     24        1          -0.002398065    0.005039451    0.016355734
     25        8          -0.000304614   -0.022362868    0.008402364
     26        1           0.001715515    0.020083880   -0.008689029
 -------------------------------------------------------------------
 Cartesian Forces:  Max     0.022362868 RMS     0.008891669

 GradGradGradGradGradGradGradGradGradGradGradGradGradGradGradGradGradGrad
 Berny optimization.
 FormGI is forming the generalized inverse of G from B-inverse, IUseBI=4.
 Internal  Forces:  Max     0.021212023 RMS     0.005509646
 Search for a local minimum.
 Step number   1 out of a maximum of  140
 All quantities printed in internal units (Hartrees-Bohrs-Radians)
 Mixed Optimization -- RFO/linear search
 Second derivative matrix not updated -- first step.
 ITU=  0
     Eigenvalues ---    0.00230   0.00286   0.00287   0.00311   0.00340
     Eigenvalues ---    0.01055   0.01120   0.01127   0.01203   0.01280
     Eigenvalues ---    0.01305   0.03727   0.03757   0.03884   0.03901
     Eigenvalues ---    0.04620   0.04677   0.04784   0.04855   0.05035
     Eigenvalues ---    0.05192   0.05482   0.05619   0.07749   0.07803
     Eigenvalues ---    0.07903   0.07940   0.11495   0.11502   0.13692
     Eigenvalues ---    0.13782   0.16000   0.16000   0.16000   0.16000
     Eigenvalues ---    0.16000   0.16000   0.16920   0.16981   0.17285
     Eigenvalues ---    0.17313   0.19432   0.19501   0.19661   0.19718
     Eigenvalues ---    0.22009   0.22055   0.28237   0.28852   0.28858
     Eigenvalues ---    0.29024   0.29219   0.34084   0.34161   0.34240
     Eigenvalues ---    0.34255   0.34290   0.34307   0.34378   0.34496
     Eigenvalues ---    0.38493   0.39144   0.39219   0.40009   0.40822
     Eigenvalues ---    0.41103   0.50391   0.51202   0.51228   0.51690
     Eigenvalues ---    0.51732   0.52041
 RFO step:  Lambda=-1.71349986D-02 EMin= 2.30000000D-03
 Linear search not attempted -- first point.
 Iteration  1 RMS(Cart)=  0.09065258 RMS(Int)=  0.00285740
 Iteration  2 RMS(Cart)=  0.00428691 RMS(Int)=  0.00052810
 Iteration  3 RMS(Cart)=  0.00000738 RMS(Int)=  0.00052807
 Iteration  4 RMS(Cart)=  0.00000000 RMS(Int)=  0.00052807
 Variable       Old X    -DE/DX   Delta X   Delta X   Delta X     New X
                                 (Linear)    (Quad)   (Total)
    R1        2.90300  -0.00728   0.00000  -0.02381  -0.02381   2.87918
    R2        2.89953  -0.00950   0.00000  -0.03092  -0.03092   2.86861
    R3        2.07189  -0.00018   0.00000  -0.00050  -0.00050   2.07138
    R4        2.72733  -0.01302   0.00000  -0.03187  -0.03187   2.69545
    R5        2.91623  -0.00424   0.00000  -0.01416  -0.01416   2.90207
    R6        2.07060  -0.00404   0.00000  -0.01126  -0.01126   2.05934
    R7        2.73654  -0.01266   0.00000  -0.03149  -0.03149   2.70504
    R8        2.89549  -0.00598   0.00000  -0.01933  -0.01933   2.87616
    R9        2.06901  -0.00311   0.00000  -0.00865  -0.00865   2.06037
   R10        2.72628  -0.01076   0.00000  -0.02629  -0.02629   2.69999
   R11        2.90312  -0.00658   0.00000  -0.02151  -0.02151   2.88161
   R12        2.06844  -0.00317   0.00000  -0.00879  -0.00879   2.05964
   R13        2.71541  -0.01289   0.00000  -0.03089  -0.03089   2.68452
   R14        2.06815  -0.00098   0.00000  -0.00273  -0.00273   2.06542
   R15        2.06501  -0.00157   0.00000  -0.00433  -0.00433   2.06067
   R16        2.70082  -0.00879   0.00000  -0.02053  -0.02053   2.68029
   R17        2.06697   0.00129   0.00000   0.00356   0.00356   2.07053
   R18        2.06927  -0.00287   0.00000  -0.00799  -0.00799   2.06128
   R19        2.70451   0.00132   0.00000   0.00309   0.00309   2.70761
   R20        1.84897  -0.01752   0.00000  -0.03281  -0.03281   1.81616
   R21        1.85346  -0.01843   0.00000  -0.03481  -0.03481   1.81866
   R22        1.85371  -0.01904   0.00000  -0.03597  -0.03597   1.81774
   R23        1.86172  -0.01773   0.00000  -0.03402  -0.03402   1.82770
   R24        1.84857  -0.01720   0.00000  -0.03219  -0.03219   1.81638
   R25        1.84561  -0.02121   0.00000  -0.03946  -0.03946   1.80614
    A1        2.01401   0.00283   0.00000   0.00001  -0.00017   2.01384
    A2        1.92347  -0.00253   0.00000  -0.01800  -0.01855   1.90492
    A3        1.89855   0.00129   0.00000   0.00770   0.00753   1.90608
    A4        1.90740  -0.00144   0.00000  -0.01978  -0.01980   1.88760
    A5        1.88647  -0.00485   0.00000  -0.02678  -0.02666   1.85981
    A6        1.82394   0.00492   0.00000   0.06370   0.06377   1.88771
    A7        2.01022  -0.00258   0.00000  -0.00580  -0.00696   2.00326
    A8        1.92340   0.00111   0.00000  -0.01337  -0.01399   1.90942
    A9        1.87394  -0.00014   0.00000   0.01821   0.01763   1.89157
   A10        1.90902  -0.00236   0.00000  -0.03646  -0.03666   1.87236
   A11        1.92048   0.00558   0.00000   0.04691   0.04679   1.96727
   A12        1.81663  -0.00138   0.00000  -0.00798  -0.00729   1.80934
   A13        1.99518  -0.00067   0.00000   0.00428   0.00353   1.99871
   A14        1.93576  -0.00030   0.00000  -0.01793  -0.01803   1.91774
   A15        1.89114   0.00057   0.00000   0.01861   0.01805   1.90919
   A16        1.91473  -0.00139   0.00000  -0.02293  -0.02292   1.89180
   A17        1.86973   0.00333   0.00000   0.03382   0.03346   1.90319
   A18        1.85028  -0.00143   0.00000  -0.01458  -0.01418   1.83610
   A19        1.99792   0.00242   0.00000   0.02529   0.02282   2.02074
   A20        1.92998  -0.00165   0.00000  -0.03916  -0.03911   1.89086
   A21        1.88193  -0.00041   0.00000   0.02845   0.02581   1.90774
   A22        1.90390  -0.00393   0.00000  -0.05074  -0.05031   1.85359
   A23        1.88472   0.00490   0.00000   0.05730   0.05556   1.94028
   A24        1.85974  -0.00133   0.00000  -0.02049  -0.01913   1.84061
   A25        1.94910  -0.00666   0.00000  -0.03854  -0.03940   1.90970
   A26        1.95460   0.00006   0.00000  -0.01111  -0.01147   1.94313
   A27        1.89986   0.00344   0.00000   0.02012   0.02015   1.92001
   A28        1.90538   0.00078   0.00000  -0.00906  -0.00978   1.89560
   A29        1.87165   0.00589   0.00000   0.06339   0.06376   1.93541
   A30        1.88011  -0.00313   0.00000  -0.02066  -0.02046   1.85966
   A31        1.93872  -0.00165   0.00000  -0.01428  -0.01475   1.92397
   A32        1.92540  -0.00637   0.00000  -0.05151  -0.05187   1.87353
   A33        1.92470  -0.00065   0.00000   0.00152   0.00167   1.92637
   A34        1.90608   0.00127   0.00000  -0.00213  -0.00373   1.90235
   A35        1.88456   0.00316   0.00000   0.03500   0.03489   1.91945
   A36        1.88305   0.00464   0.00000   0.03463   0.03448   1.91753
   A37        1.83870  -0.00005   0.00000  -0.00028  -0.00028   1.83842
   A38        1.83220   0.00282   0.00000   0.01590   0.01590   1.84810
   A39        1.83528   0.00083   0.00000   0.00471   0.00471   1.84000
   A40        1.85428   0.00276   0.00000   0.01556   0.01556   1.86985
   A41        1.85072   0.00096   0.00000   0.00540   0.00540   1.85612
   A42        1.85571   0.01041   0.00000   0.05878   0.05878   1.91448
    D1        1.02118  -0.00239   0.00000  -0.03387  -0.03370   0.98748
    D2       -1.14843   0.00185   0.00000   0.03056   0.03062  -1.11780
    D3       -3.11639   0.00300   0.00000   0.03688   0.03693  -3.07946
    D4       -1.14922  -0.00055   0.00000   0.00768   0.00762  -1.14159
    D5        2.96436   0.00370   0.00000   0.07212   0.07195   3.03631
    D6        0.99640   0.00484   0.00000   0.07844   0.07825   1.07465
    D7       -3.13921  -0.00577   0.00000  -0.06292  -0.06280   3.08118
    D8        0.97437  -0.00153   0.00000   0.00151   0.00153   0.97590
    D9       -0.99359  -0.00039   0.00000   0.00783   0.00783  -0.98576
   D10        1.05426  -0.00200   0.00000  -0.04859  -0.04856   1.00570
   D11       -1.12152   0.00062   0.00000  -0.00650  -0.00652  -1.12804
   D12        3.13761   0.00219   0.00000   0.01012   0.01018  -3.13539
   D13       -3.05017  -0.00443   0.00000  -0.08898  -0.08899  -3.13915
   D14        1.05724  -0.00180   0.00000  -0.04689  -0.04694   1.01030
   D15       -0.96682  -0.00024   0.00000  -0.03026  -0.03024  -0.99706
   D16       -1.07502  -0.00191   0.00000  -0.03814  -0.03814  -1.11317
   D17        3.03238   0.00072   0.00000   0.00395   0.00390   3.03628
   D18        1.00832   0.00229   0.00000   0.02057   0.02060   1.02893
   D19        0.69248   0.00037   0.00000   0.03337   0.03376   0.72624
   D20        2.89130   0.00153   0.00000   0.02078   0.02105   2.91235
   D21       -1.36172   0.00013   0.00000   0.01745   0.01679  -1.34493
   D22        1.00335  -0.00334   0.00000  -0.07000  -0.07017   0.93318
   D23       -1.15536   0.00139   0.00000   0.00977   0.00961  -1.14575
   D24        3.10092   0.00412   0.00000   0.03917   0.03925   3.14017
   D25       -3.10270  -0.00573   0.00000  -0.12201  -0.12174   3.05874
   D26        1.02177  -0.00099   0.00000  -0.04224  -0.04196   0.97981
   D27       -1.00514   0.00174   0.00000  -0.01284  -0.01232  -1.01746
   D28       -1.11726  -0.00564   0.00000  -0.12617  -0.12652  -1.24379
   D29        3.00721  -0.00091   0.00000  -0.04640  -0.04674   2.96047
   D30        0.98030   0.00182   0.00000  -0.01700  -0.01710   0.96320
   D31       -1.40705   0.00192   0.00000   0.05108   0.05047  -1.35657
   D32        0.79297   0.00225   0.00000   0.08680   0.08728   0.88025
   D33        2.83685   0.00137   0.00000   0.06208   0.06221   2.89906
   D34        1.08805  -0.00215   0.00000  -0.03861  -0.03813   1.04992
   D35       -1.05508   0.00169   0.00000   0.00974   0.00953  -1.04554
   D36       -3.13201   0.00330   0.00000   0.02912   0.02902  -3.10299
   D37       -3.00823  -0.00418   0.00000  -0.07779  -0.07725  -3.08549
   D38        1.13183  -0.00034   0.00000  -0.02944  -0.02959   1.10223
   D39       -0.94511   0.00127   0.00000  -0.01006  -0.01011  -0.95522
   D40       -1.00730  -0.00478   0.00000  -0.08836  -0.08811  -1.09541
   D41        3.13275  -0.00094   0.00000  -0.04001  -0.04045   3.09230
   D42        1.05582   0.00067   0.00000  -0.02064  -0.02097   1.03486
   D43       -0.75165  -0.00106   0.00000  -0.02802  -0.02838  -0.78003
   D44        1.40897   0.00048   0.00000   0.00866   0.00901   1.41798
   D45       -2.83046  -0.00022   0.00000  -0.00869  -0.00869  -2.83916
   D46       -1.25774   0.00117   0.00000   0.05720   0.05798  -1.19975
   D47        2.90926   0.00497   0.00000   0.10421   0.10433   3.01359
   D48        0.83094   0.00364   0.00000   0.09276   0.09315   0.92409
   D49        0.91488  -0.00234   0.00000  -0.01606  -0.01537   0.89950
   D50       -1.20131   0.00146   0.00000   0.03095   0.03097  -1.17034
   D51        3.00355   0.00013   0.00000   0.01950   0.01979   3.02335
   D52        2.92943  -0.00334   0.00000  -0.03604  -0.03646   2.89297
   D53        0.81325   0.00046   0.00000   0.01096   0.00989   0.82313
   D54       -1.26507  -0.00088   0.00000  -0.00048  -0.00129  -1.26637
   D55       -0.80501  -0.00192   0.00000  -0.01014  -0.01098  -0.81599
   D56        1.36247   0.00375   0.00000   0.07288   0.07368   1.43615
   D57       -2.87737   0.00093   0.00000   0.03186   0.03190  -2.84547
   D58       -0.79438   0.00044   0.00000  -0.02178  -0.02241  -0.81679
   D59        1.31695  -0.00215   0.00000  -0.01954  -0.01880   1.29815
   D60       -2.91733   0.00023   0.00000  -0.00778  -0.00789  -2.92522
   D61        2.91950  -0.00147   0.00000  -0.01042  -0.01060   2.90890
   D62       -1.24253  -0.00189   0.00000  -0.00488  -0.00524  -1.24777
   D63        0.81558   0.00381   0.00000   0.03005   0.03060   0.84617
         Item               Value     Threshold  Converged?
 Maximum Force            0.021212     0.000450     NO 
 RMS     Force            0.005510     0.000300     NO 
 Maximum Displacement     0.292332     0.001800     NO 
 RMS     Displacement     0.091710     0.001200     NO 
 Predicted change in Energy=-1.031402D-02
 GradGradGradGradGradGradGradGradGradGradGradGradGradGradGradGradGradGrad

                          Input orientation:                          
 ---------------------------------------------------------------------
 Center     Atomic      Atomic             Coordinates (Angstroms)
 Number     Number       Type             X           Y           Z
 ---------------------------------------------------------------------
      1          6           0        0.003880   -0.007946   -0.053573
      2          6           0        1.527451    0.000883   -0.055563
      3          6           0       -0.648294    0.521150    1.210964
      4          6           0        2.177068   -0.769288    1.103417
      5          1           0        1.883571    1.029339   -0.000616
      6          1           0       -0.349867   -1.032427   -0.217285
      7          6           0       -0.256884    1.946260    1.574739
      8          1           0       -0.405478   -0.127821    2.052764
      9          6           0        1.721474   -2.214075    1.277448
     10          1           0        1.931704   -0.258764    2.034589
     11          1           0       -0.545694    2.620488    0.764432
     12          1           0        0.818328    2.033994    1.733893
     13          1           0        0.679443   -2.244835    1.614700
     14          1           0        2.355528   -2.665160    2.041844
     15          8           0       -0.877763    2.324181    2.792687
     16          1           0       -1.796150    2.055213    2.703934
     17          8           0       -2.068999    0.447233    1.078564
     18          1           0       -2.269000    0.777606    0.197060
     19          8           0       -0.471554    0.803224   -1.126188
     20          1           0        0.099170    0.599719   -1.873265
     21          8           0        1.979709   -0.445581   -1.338206
     22          1           0        1.888648   -1.408348   -1.353195
     23          8           0        3.590577   -0.687483    0.987808
     24          1           0        3.798681   -0.882415    0.069892
     25          8           0        1.858541   -2.932177    0.045187
     26          1           0        1.772212   -3.870070    0.207672
 ---------------------------------------------------------------------
                    Distance matrix (angstroms):
                    1          2          3          4          5
     1  C    0.000000
     2  C    1.523598   0.000000
     3  C    1.518001   2.570726   0.000000
     4  C    2.577017   1.535709   3.107969   0.000000
     5  H    2.147558   1.089754   2.852459   2.130749   0.000000
     6  H    1.096129   2.149001   2.131327   2.863371   3.047305
     7  C    2.557014   3.102616   1.521996   3.677019   2.811412
     8  H    2.149092   2.863184   1.090298   2.825294   3.285595
     9  C    3.096570   2.592412   3.619624   1.524881   3.489908
    10  H    2.853039   2.144661   2.818335   1.089917   2.409063
    11  H    2.807103   3.439862   2.148752   4.361069   3.003062
    12  H    2.833351   2.799740   2.170975   3.178374   2.269933
    13  H    2.871095   2.924405   3.094602   2.163685   3.844397
    14  H    4.120899   3.491793   4.457117   2.122928   4.247790
    15  O    3.783821   4.392640   2.409444   4.664244   4.135713
    16  H    3.885947   4.783453   2.428968   5.130880   4.680530
    17  O    2.405359   3.797358   1.428774   4.416971   4.138392
    18  H    2.417829   3.883318   1.928849   4.793943   4.164888
    19  O    1.426373   2.405413   2.360738   3.802517   2.620048
    20  H    1.920838   2.388019   3.174483   3.879753   2.622113
    21  O    2.397020   1.431448   3.786718   2.470883   1.993434
    22  H    2.683746   1.949422   4.090715   2.554707   2.787797
    23  O    3.796135   2.412252   4.413459   1.420586   2.615021
    24  H    3.896210   2.440172   4.800794   1.926291   2.706921
    25  O    3.464195   2.953407   4.423655   2.428868   3.961860
    26  H    4.255731   3.887605   5.113537   3.252863   4.905099
                    6          7          8          9         10
     6  H    0.000000
     7  C    3.477437   0.000000
     8  H    2.444284   2.133635   0.000000
     9  C    2.814422   4.616348   3.078554   0.000000
    10  H    3.297734   3.140623   2.340918   2.107296   0.000000
    11  H    3.787598   1.092974   3.038529   5.364348   4.005108
    12  H    3.817683   1.090462   2.504560   4.366932   2.566469
    13  H    2.426021   4.294599   2.418822   1.095680   2.385150
    14  H    3.884410   5.320534   3.749849   1.090781   2.443445
    15  O    4.539319   1.418348   2.604390   5.444974   3.890941
    16  H    4.489853   1.912144   2.669013   5.712737   4.438402
    17  O    2.612285   2.403546   2.011729   4.635709   4.173493
    18  H    2.670389   2.704138   2.781394   5.103066   4.700691
    19  O    2.051957   2.940684   3.313147   4.437447   4.110228
    20  H    2.368080   3.718694   4.024635   4.525075   4.400738
    21  O    2.650995   4.382750   4.157976   3.167949   3.378306
    22  H    2.538220   4.942621   4.301549   2.756343   3.577775
    23  O    4.135013   4.699367   4.173225   2.430621   2.007837
    24  H    4.161180   5.168517   4.709155   2.747053   2.781110
    25  O    2.924894   5.532965   4.125598   1.432804   3.333198
    26  H    3.568756   6.309976   4.706498   1.972135   4.050258
                   11         12         13         14         15
    11  H    0.000000
    12  H    1.773241   0.000000
    13  H    5.088740   4.282741   0.000000
    14  H    6.163355   4.953773   1.779997   0.000000
    15  O    2.076508   2.020391   4.968747   5.992617   0.000000
    16  H    2.375889   2.788715   5.079902   6.321133   0.961070
    17  O    2.672485   3.359155   3.884405   5.494665   2.807168
    18  H    2.586099   3.670417   4.454006   6.053275   3.326366
    19  O    2.623430   3.370260   4.257690   5.482565   4.223256
    20  H    3.384790   3.947901   4.538073   5.574825   5.069445
    21  O    4.494388   4.115202   3.694274   4.061097   5.735939
    22  H    5.161577   4.746094   3.312143   3.650184   6.226808
    23  O    5.301067   3.955811   3.360512   2.558816   5.682761
    24  H    5.623727   4.489637   3.737950   3.024808   6.290071
    25  O    6.093418   5.347581   2.079924   2.074834   6.531876
    26  H    6.914478   6.172294   2.411485   2.270738   7.216190
                   16         17         18         19         20
    16  H    0.000000
    17  O    2.302580   0.000000
    18  H    2.853119   0.962391   0.000000
    19  O    4.241683   2.745814   2.232141   0.000000
    20  H    5.163474   3.665720   3.150574   0.961907   0.000000
    21  O    6.070419   4.798951   4.680252   2.759195   2.217063
    22  H    6.483386   5.001960   4.946487   3.242397   2.739532
    23  O    6.283654   5.772921   6.091504   4.815818   4.693885
    24  H    6.846165   6.100414   6.291947   4.744143   4.433843
    25  O    6.730510   5.283356   5.551770   4.555731   4.387497
    26  H    7.353469   5.844010   6.158929   5.352882   5.206570
                   21         22         23         24         25
    21  O    0.000000
    22  H    0.967179   0.000000
    23  O    2.839676   2.982701   0.000000
    24  H    2.341415   2.439264   0.961184   0.000000
    25  O    2.848090   2.068438   2.987831   2.822460   0.000000
    26  H    3.762966   2.917180   3.747522   3.612706   0.955770
                   26
    26  H    0.000000
 Stoichiometry    C6H14O6
 Framework group  C1[X(C6H14O6)]
 Deg. of freedom    72
 Full point group                 C1      NOp   1
 Largest Abelian subgroup         C1      NOp   1
 Largest concise Abelian subgroup C1      NOp   1
                         Standard orientation:                         
 ---------------------------------------------------------------------
 Center     Atomic      Atomic             Coordinates (Angstroms)
 Number     Number       Type             X           Y           Z
 ---------------------------------------------------------------------
      1          6           0        0.403744    0.872880    0.132436
      2          6           0       -0.683616    0.290168   -0.761680
      3          6           0        1.527465   -0.080673    0.496187
      4          6           0       -1.366663   -0.968641   -0.207380
      5          1           0       -0.254858    0.026750   -1.728293
      6          1           0       -0.050874    1.235229    1.061696
      7          6           0        2.265519   -0.671389   -0.696626
      8          1           0        1.137181   -0.900562    1.099684
      9          6           0       -1.939250   -0.847003    1.200672
     10          1           0       -0.628784   -1.769803   -0.167472
     11          1           0        2.713003    0.135257   -1.282861
     12          1           0        1.590783   -1.236490   -1.340443
     13          1           0       -1.129072   -0.755869    1.932669
     14          1           0       -2.500111   -1.760258    1.403665
     15          8           0        3.256760   -1.582820   -0.251152
     16          1           0        3.718165   -1.129181    0.459463
     17          8           0        2.465561    0.591177    1.338796
     18          1           0        2.607624    1.454865    0.938724
     19          8           0        1.009851    1.982379   -0.528008
     20          1           0        0.284117    2.466570   -0.933144
     21          8           0       -1.614538    1.330872   -1.076897
     22          1           0       -2.180722    1.451045   -0.302023
     23          8           0       -2.355450   -1.409986   -1.126933
     24          1           0       -2.857556   -0.630177   -1.379250
     25          8           0       -2.808871    0.288275    1.289149
     26          1           0       -3.318581    0.241395    2.096301
 ---------------------------------------------------------------------
 Rotational constants (GHZ):           1.3139357           0.5462896           0.5067001
 Standard basis: def2TZVPP (5D, 7F)
 There are   642 symmetry adapted cartesian basis functions of A   symmetry.
 There are   568 symmetry adapted basis functions of A   symmetry.
   568 basis functions,   850 primitive gaussians,   642 cartesian basis functions
    49 alpha electrons       49 beta electrons
       nuclear repulsion energy       833.7771096615 Hartrees.
 NAtoms=   26 NActive=   26 NUniq=   26 SFac= 1.00D+00 NAtFMM=   60 NAOKFM=F Big=F
 Integral buffers will be    131072 words long.
 Raffenetti 2 integral format.
 Two-electron integral symmetry is turned on.
 Nuclear repulsion after empirical dispersion term =      833.7571730365 Hartrees.
 One-electron integrals computed using PRISM.
   1 Symmetry operations used in ECPInt.
 ECPInt:  NShTT=   23436 NPrTT=   62434 LenC2=   22068 LenP2D=   45920.
 LDataN:  DoStor=T MaxTD1= 6 Len=  172
[...]
 86703,0.00798762,-0.00174191,0.00783417,-0.00267983,-0.00025997,0.0016
 7328,-0.00144634,0.00158821,0.00181785,-0.00061894,0.01674405,-0.02174
 701,0.03762682,-0.00121932,-0.00248130,0.00153052,0.00125138,0.0000006
 9,-0.00242491,-0.00112856,0.00006065,-0.00010417,0.00018184,-0.0000542
 6,0.00026528,-0.00023880,0.00152521,-0.00174410,-0.00015879,0.00011413
 ,-0.00021160,0.00043327,0.00021991,-0.00055792,0.00043730,0.00001487,-
 0.00007785,0.00023193,0.00153456,-0.00113753,-0.00006412,-0.00040605,0
 .00009731,-0.00018404,0.00210193,-0.00027829,-0.00078385,-0.00096311,0
 .00016090,-0.14810300,0.18621862,-0.04609172,0.07353201,-0.16379500,-0
 .01077165,0.01028027,-0.02042930,-0.01131969,0.02484233,-0.04469003,-0
 .00019183,-0.00115256,0.00357346,0.00100276,-0.00067946,0.00024846,-0.
 00371330,0.01537521,-0.00756541,-0.00054523,0.00129164,0.00179909,0.00
 396703,-0.00348203,-0.00490122,0.00069274,-0.00080687,-0.00114338,0.00
 034464,-0.00017323,0.00047377,-0.00012788,-0.00083087,-0.00162350,-0.0
 0004868,0.00015024,-0.00030284,-0.00029237,-0.00031925,0.00041966,-0.0
 0032404,0.00026082,0.00015191,0.00082978,-0.00153243,-0.00065484,-0.00
 042037,0.00057996,0.00007255,-0.00098211,0.00072114,-0.00108656,-0.000
 70704,-0.00028594,-0.00115183,-0.17457953,-0.01874391,0.57331496,0.009
 23216,-0.00360952,-0.01445023,0.00039163,-0.00017056,-0.00699784,-0.00
 311685,0.00189085,-0.00328993,0.00007848,0.00041195,0.00045117,-0.0003
 1613,-0.00012305,0.00001170,-0.00018216,0.00097673,-0.00010141,0.00039
 356,0.00030059,0.00010570,0.00065826,-0.00024124,-0.00103481,0.0004647
 6,0.00002216,-0.00029173,0.00016811,-0.00013496,0.00040078,-0.00000703
 ,0.00003652,-0.00003871,-0.00013902,-0.00001516,-0.00015778,-0.0001700
 4,-0.00008726,0.00015319,-0.00007161,-0.00007500,0.00006563,-0.0000324
 1,-0.00028033,-0.00019909,-0.00004870,0.00003803,0.00002067,-0.0001287
 0,-0.00024460,0.00140215,0.00113529,0.00001394,-0.00049408,-0.18534476
 ,0.07867317,0.24100338,0.17555628,-0.01210852,0.00360582,0.02207263,0.
 00080469,0.00252038,0.00324610,0.00132190,-0.00221910,0.00226252,-0.00
 005600,-0.00028717,-0.00058447,-0.00037430,-0.00038846,-0.00053354,-0.
 00024984,-0.00091787,0.00120706,-0.00004176,0.00000497,-0.00016401,-0.
 00038740,0.00049527,0.00066442,0.00004080,0.00017122,0.00051359,-0.000
 10245,0.00006533,-0.00019550,0.00014094,0.00029240,-0.00004629,-0.0000
 5781,0.00005532,-0.00015289,0.00002677,0.00001058,-0.00002654,-0.00001
 732,-0.00005907,-0.00006859,0.00002849,-0.00009763,-0.00010860,0.00000
 986,0.00002587,0.00002926,0.00029749,0.00014922,-0.00003440,-0.0002955
 9,-0.00059662,-0.00003111,0.08858692,-0.04884912,-0.09847661,-0.075631
 83,0.04866208,0.01666400,-0.00592132,-0.03376821,-0.00008516,-0.000916
 59,-0.00021795,-0.00248804,0.00472499,-0.00434611,0.00031308,0.0000030
 5,-0.00130185,-0.00048126,-0.00013089,-0.00015222,0.00051918,-0.000355
 61,0.00082314,0.00005351,0.00043062,0.00004478,0.00074201,-0.00067862,
 -0.00096141,0.00009721,0.00017056,0.00021773,-0.00002494,0.00005927,0.
 00000999,0.00002717,-0.00019667,0.00002881,-0.00000818,-0.00004687,-0.
 00006367,0.00001230,-0.00000248,-0.00006873,0.00004207,-0.00012691,-0.
 00000309,-0.00010779,0.00000218,0.00034552,0.00001911,-0.00006462,-0.0
 0008841,-0.00117449,-0.00002062,0.00171632,0.00087668,-0.00016647,-0.0
 0068401,0.20321477,-0.06828986,-0.33803360,-0.22054680,0.07292596,0.37
 545719,-0.02202120,0.02052788,0.04222844,-0.08155418,0.00028340,0.0464
 0619,-0.00470306,-0.00100852,-0.00728465,-0.00324702,-0.00238505,-0.00
 682481,0.00445671,0.00043153,-0.00390627,0.00373956,0.00026750,-0.0002
 3689,-0.00073564,-0.00108502,-0.00029482,0.00003714,-0.00027481,0.0005
 3760,-0.00053552,-0.00010137,0.00096997,-0.00025261,0.00105113,-0.0021
 3238,0.00002017,-0.00003798,0.00002071,0.00030910,0.00014160,0.0002070
 7,0.00054726,0.00036596,-0.00039939,0.00008727,-0.00021540,0.00026209,
 0.00006757,0.00108305,0.00095999,0.00008303,-0.00047099,-0.00038760,-0
 .00451385,0.00172231,0.00321605,0.00104659,-0.00060246,0.00016331,-0.0
 0042827,0.00129725,0.00598665,0.00208641,-0.00381714,0.00147597,0.1181
 3159,0.00405768,-0.00176537,-0.00435014,0.01689947,-0.11212405,-0.0547
 7905,-0.00002198,0.00130982,0.00157609,-0.00325934,0.00836680,0.009072
 22,0.01576097,-0.01365046,-0.04032636,0.00148932,0.00220689,0.00119701
 ,-0.00134327,0.00019760,0.00009984,0.00022497,0.00001471,-0.00045414,-
 0.00096026,-0.00283414,-0.00568743,0.00159335,-0.00057232,0.00248818,-
 0.00016573,0.00020929,-0.00003004,0.00064486,0.00005104,0.00052169,-0.
 00027145,0.00019000,0.00085018,0.00018998,0.00123291,0.00045059,0.0009
 4925,-0.00003276,-0.00058961,-0.00003816,-0.00003406,0.00001749,0.0015
 4687,-0.00008881,-0.00084255,-0.00048983,0.00008873,-0.00008666,0.0028
 0312,0.00159471,-0.00278007,-0.00261344,-0.00136344,-0.00106400,0.0389
 6075,0.61839332,0.01226628,-0.00794931,-0.02526395,0.04908991,-0.01645
 945,-0.18447539,0.00039566,0.00165217,0.00417249,0.01339957,-0.0158268
 2,-0.04778119,0.00506951,-0.00900892,-0.01222666,-0.00070383,0.0009781
 9,0.00072823,-0.00083169,0.00069177,-0.00005006,-0.00027866,-0.0000388
 7,0.00028569,-0.00092345,-0.00441465,-0.00075719,-0.00422456,0.0050756
 5,-0.00495144,0.00010534,-0.00023383,0.00003738,0.00029162,0.00026043,
 0.00027677,-0.00004804,0.00013914,0.00022182,-0.00015695,0.00064347,0.
 00053873,0.00061674,-0.00056975,-0.00035071,-0.00010202,0.00017179,0.0
 0005020,0.00343799,-0.00106556,-0.00068203,-0.00000866,0.00018381,-0.0
 0075525,-0.00343557,0.00160334,0.00622675,0.00316392,-0.00305898,0.000
 06612,-0.09203409,0.05827748,0.30432974,0.00116052,0.00381736,0.000204
 90,0.00085206,0.01548245,0.00168553,-0.00050341,-0.00066955,0.00046529
 ,0.00239288,-0.00126110,-0.00053251,-0.00000829,0.00015935,0.00122159,
 -0.00100634,-0.00105545,0.00037229,0.00039036,0.00021245,-0.00001872,0
 .00002827,0.00004318,-0.00007322,0.00037989,0.00020081,0.00048095,-0.0
 0015771,0.00002230,0.00026967,-0.00001672,0.00000753,-0.00001633,-0.00
 012988,-0.00004075,-0.00003487,-0.00019883,-0.00005855,0.00037230,-0.0
 0009246,-0.00020002,-0.00021965,-0.00001232,-0.00029786,-0.00027060,-0
 .00004924,0.00009088,0.00006942,0.00008039,-0.00020955,-0.00021394,-0.
 00013058,0.00014242,0.00009984,-0.00118282,-0.00090643,0.00005782,0.00
 060070,0.00146154,0.00006407,-0.02503916,-0.07201180,0.01117581,0.0283
 8920,0.00061648,0.00196645,0.00158425,-0.00138668,-0.01685475,-0.00556
 811,-0.00028467,0.00011853,-0.00107416,-0.00035582,0.00350380,0.000510
 80,0.00089205,0.00181126,-0.00113242,0.00019253,-0.00026232,-0.0001644
 0,0.00002239,-0.00020399,-0.00006779,-0.00002031,-0.00001853,0.0001972
 8,-0.00044897,0.00595814,0.00424491,0.00036541,-0.00079597,0.00083493,
 0.00001864,-0.00008530,0.00001511,-0.00001090,-0.00002327,-0.00006030,
 0.00035167,-0.00055089,-0.00109580,0.00009819,-0.00089955,-0.00121923,
 -0.00020107,0.00021751,0.00036042,0.00004845,-0.00004350,-0.00007791,-
 0.00086098,0.00016428,0.00055092,0.00029604,-0.00007241,-0.00007604,-0
 .00076735,-0.00019200,0.00098883,0.00151499,-0.00114267,0.00016367,-0.
 05487305,-0.49215751,-0.01974953,0.05640970,0.50629917,0.00003450,-0.0
 0081187,0.00074247,-0.00412693,-0.04484527,-0.00598239,0.00017163,0.00
 008641,0.00017376,-0.00113681,-0.00180595,-0.00053031,0.00286317,-0.00
 236105,-0.00627449,0.00090465,0.00044205,0.00025459,-0.00023786,-0.000
 04725,-0.00006478,0.00008523,0.00002164,-0.00020287,0.00023030,-0.0002
 0779,-0.00561795,0.00040406,0.00038529,0.00053419,-0.00005141,0.000086
 93,-0.00001444,0.00011738,-0.00003056,0.00010649,-0.00027639,0.0001220
 1,0.00046776,0.00007601,0.00011674,0.00049812,0.00011804,0.00012500,-0
 .00004631,0.00002432,-0.00005749,-0.00001350,-0.00005846,0.00010874,-0
 .00016343,-0.00002617,0.00000543,0.00005659,-0.00078607,0.00032052,-0.
 00083887,0.00026041,0.00093106,0.00040650,0.01664211,0.02507129,-0.041
 93865,-0.01359038,0.02537444,0.05723023,0.00497556,0.00282516,-0.00452
 859,-0.04844342,0.00147949,0.00091238,0.00148977,-0.00075146,-0.000192
 91,-0.23615382,-0.01118098,-0.00619396,0.00134946,-0.00006139,0.001234
 81,-0.00019302,-0.00025016,0.00023207,0.00003338,-0.00052488,-0.000440
 82,0.00022565,0.00019731,-0.00033340,-0.03731460,-0.00864070,0.0082009
 6,-0.02275578,0.00057239,0.00632463,-0.00009450,0.00008300,-0.00004650
 ,-0.00013259,-0.00029113,-0.00002263,-0.00082409,-0.00546827,0.0001078
 4,0.00171941,0.00097423,0.00017828,-0.00037889,0.00074752,0.00061741,0
 .00014229,-0.00025438,-0.00013878,-0.00116778,0.00055290,0.00011681,0.
 00032546,-0.00015685,-0.00008919,-0.00448347,0.00166096,-0.00320006,-0
 .00025967,0.00017628,0.00102089,0.00448930,-0.00082941,0.00185890,-0.0
 0128400,-0.00033452,-0.00007050,0.39538515,-0.00133282,-0.00084632,0.0
 0322160,0.02157350,0.00170973,-0.00255404,-0.00055086,-0.00014843,0.00
 068217,-0.00723455,-0.06632896,-0.00257489,-0.00038869,0.00247283,-0.0
 0198345,0.00109169,0.00043862,0.00017045,-0.00053027,0.00019784,0.0000
 3363,0.00005096,-0.00009257,-0.00022818,-0.03858026,-0.00070648,0.0067
 8354,0.01236551,0.00490498,0.00052811,0.00000257,0.00010786,-0.0000162
 9,0.00007686,0.00001556,0.00019636,-0.00336857,-0.00677923,0.00010962,
 0.00011904,0.00369047,-0.00130035,0.00037074,-0.00004299,-0.00032851,-
 0.00004832,-0.00004741,0.00003804,0.00051637,0.00012237,-0.00023307,-0
 .00019586,0.00001206,0.00007052,0.00204609,-0.00006230,0.00099092,-0.0
 0018511,-0.00020081,-0.00035494,-0.00056281,0.00305449,0.00011140,0.00
 093688,-0.00144487,0.00111949,0.01107168,0.06574095,0.00102953,0.00272
 788,-0.00349600,-0.02578386,-0.00122645,-0.00089576,-0.00012353,0.0003
 8656,-0.00166905,0.04221920,-0.00264375,-0.10006929,0.00032499,-0.0011
 0373,0.00102583,-0.00019504,-0.00028920,0.00005973,-0.00035906,-0.0001
 2390,-0.00003582,-0.00025432,-0.00034368,0.00061853,0.00923407,0.00004
 770,-0.00012462,0.03769858,0.00302069,-0.00122976,0.00017157,-0.000187
 80,0.00006264,0.00015379,0.00021865,-0.00005697,0.00094062,0.00197519,
 0.00125956,0.00053311,-0.00155475,0.00043127,0.00007489,0.00004745,0.0
 0030840,-0.00001760,-0.00001152,-0.00007048,-0.00008990,0.00007724,0.0
 0092355,0.00032185,-0.00014626,-0.00024494,-0.00266878,0.00047677,-0.0
 0025314,0.00063998,-0.00021551,0.00047792,-0.00892941,0.00086456,0.000
 60827,0.00064824,0.00140590,-0.00020069,-0.11298152,0.04826814,0.60041
 006,-0.00035820,-0.00040261,0.00030989,-0.00253113,0.00283106,0.003648
 03,-0.00009298,-0.00004916,0.00062640,-0.01785444,0.00610537,0.0470160
 7,-0.00008131,0.00008882,-0.00035934,0.00006179,0.00002671,-0.00000986
 ,0.00000946,0.00015922,0.00008305,0.00004590,0.00007475,-0.00014381,-0
 .00155515,-0.00004429,0.00183275,-0.00662583,-0.00083607,0.00014719,-0
 .00003367,0.00004992,-0.00001081,-0.00001330,-0.00000280,0.00004280,0.
 00003590,-0.00041301,-0.00028935,-0.00008282,0.00008126,-0.00017451,0.
 00012286,-0.00018640,-0.00025393,-0.00003271,0.00006003,0.00005338,0.0
 0037536,-0.00015395,-0.00035584,-0.00019865,0.00009046,0.00007842,0.00
 099162,-0.00033622,-0.00002978,-0.00063039,0.00032732,-0.00028199,0.00
 477795,-0.00158216,0.00096977,-0.00184409,-0.00139578,-0.00132319,-0.0
 5992001,0.00332058,0.05884064,0.08511007,0.00037279,0.00003562,-0.0004
 2222,0.00108832,0.00141682,-0.00129967,0.00008394,0.00007850,-0.000342
 25,-0.00006384,-0.00131904,0.00144901,0.00049934,-0.00076992,0.0000586
 3,-0.00031244,-0.00009386,-0.00001124,0.00008455,-0.00004004,-0.000044
 40,-0.00005311,-0.00007904,0.00013709,-0.00311052,0.00062358,0.0030611
 3,0.00270833,0.00004704,-0.00081005,0.00005179,-0.00005758,0.00002726,
 -0.00001563,0.00005033,-0.00008848,-0.00008474,-0.00059246,-0.00045489
 ,-0.00011560,0.00000259,-0.00003386,-0.00010448,-0.00000545,0.00014222
 ,0.00001223,0.00001506,-0.00001701,-0.00014777,-0.00002527,0.00017499,
 0.00009525,-0.00001537,-0.00003586,-0.00050386,-0.00003635,-0.00004556
 ,0.00018008,0.00005376,0.00011945,-0.00076657,-0.00262323,-0.00009781,
 -0.00187003,0.00103124,-0.00104639,0.00857502,-0.00939427,-0.05385199,
 -0.00801455,0.01208775,0.00095633,-0.00050788,-0.00115087,-0.00494825,
 0.00186085,0.00362545,0.00033263,-0.00005737,0.00039732,0.00355082,-0.
 00147601,-0.00476399,0.00020882,-0.00027826,-0.00004736,-0.00010828,-0
 .00004589,0.00005827,0.00008464,0.00000937,0.00001499,0.00004276,0.000
 05588,-0.00010884,-0.00060299,0.00027358,0.00023603,-0.00018801,0.0013
 4216,0.00124715,-0.00003526,0.00004109,-0.00001705,-0.00001510,-0.0000
 5321,-0.00001044,-0.00044448,-0.00059705,0.00004131,0.00013515,0.00013
 071,-0.00018964,-0.00003941,-0.00000494,-0.00006455,0.00000848,0.00000
 666,0.00002238,0.00008685,-0.00005788,-0.00024596,-0.00006788,0.000031
 45,0.00004197,-0.00033509,0.00023755,-0.00084151,-0.00061842,0.0003243
 4,0.00011732,0.00358393,-0.00059833,-0.00053612,-0.00173053,-0.0015802
 9,-0.00004427,0.10985900,-0.05330359,-0.50179139,-0.10928169,0.0541728
 3,0.50499574,-0.00148746,-0.00210216,0.00077399,-0.00100634,0.00078531
 ,0.00031836,0.00044368,0.00024427,0.00034770,0.00106258,-0.00515029,-0
 .00891326,0.00012416,0.00006334,-0.00007002,0.00042086,0.00111976,0.00
 016340,-0.00038774,-0.00015253,-0.00017298,0.00003916,-0.00008804,-0.0
 0032424,-0.06539113,0.00002758,0.01473518,0.00014053,-0.00207475,0.000
 07507,0.00003575,0.00010849,0.00000472,0.00007976,0.00002873,0.0000498
 1,0.00586369,0.01613773,0.03107154,0.00732854,-0.01021160,-0.01592233,
 0.00003263,0.00031575,0.00019360,0.00004486,-0.00014198,-0.00006351,-0
 .00002926,0.00031159,-0.00003900,0.00003302,-0.00011850,-0.00000011,0.
 00047098,0.00099127,-0.00061104,-0.00041446,-0.00013909,0.00006815,0.0
 0270701,-0.00195435,0.00102285,-0.00195118,0.00036414,-0.00055150,0.00
 318381,-0.00086759,-0.00135203,-0.00001626,0.00141039,-0.00046231,0.06
 564413,-0.00001087,-0.00026281,-0.00079827,-0.00039004,0.00511395,0.00
 083131,-0.00079654,0.00001590,-0.00025466,0.00702251,-0.02379158,-0.04
 629482,-0.00011674,0.00035772,-0.00044660,0.00022988,-0.00056101,-0.00
 018763,-0.00041415,0.00017306,0.00030308,-0.00018992,-0.00012138,0.000
 33646,0.00359921,-0.11817800,-0.07184907,-0.00317888,-0.00810168,0.001
 38473,0.00011724,-0.00008217,0.00001736,0.00018351,0.00023851,0.000086
 58,0.00412931,-0.00131466,-0.00878321,-0.00434992,0.00762270,0.0030554
 2,0.00045079,-0.00031958,-0.00035902,-0.00011211,0.00006715,0.00005338
 ,0.00095457,-0.00007498,0.00016233,-0.00017974,-0.00002778,-0.00006792
 ,0.00087647,-0.00027478,0.00052095,-0.00062118,0.00005007,-0.00032523,
 -0.00012618,-0.01016031,0.00863524,-0.00014680,-0.00525176,-0.00296536
 ,-0.00070681,0.00280820,0.00208778,0.00025104,-0.00030438,-0.00011143,
 0.08653569,0.67854911,-0.00109108,-0.00053679,-0.00024534,-0.00030062,
 -0.00087234,-0.00501917,-0.00042722,0.00083976,-0.00155986,0.00244082,
 -0.00588963,-0.00315013,0.00016217,-0.00012084,0.00104284,0.00039295,0
 .00045960,-0.00041934,-0.00018889,-0.00004267,0.00034490,-0.00019717,-
 0.00004962,0.00080237,0.01972777,-0.02638442,-0.20691389,-0.00011376,0
 .00116451,0.00148251,0.00006191,-0.00023618,0.00001318,0.00006960,0.00
 012885,-0.00000809,0.00572278,-0.01618332,-0.02579633,0.00429245,-0.02
 179221,-0.03678037,0.00010268,-0.00010306,0.00016415,-0.00006239,0.000
 08878,-0.00004214,0.00040050,-0.00009397,0.00075656,0.00013930,-0.0001
 6811,-0.00021828,0.00018484,0.00021141,0.00108178,0.00033321,-0.000468
 19,-0.00011143,-0.00003451,0.00799763,0.00313456,-0.00084597,-0.002579
 69,-0.00164351,-0.00222513,-0.00010044,0.00343032,-0.00078929,-0.00066
 012,-0.00090728,-0.04118646,0.02328391,0.32364160,0.00011043,0.0003733
 2,0.00001417,0.00004145,-0.00032821,0.00000229,0.00004753,0.00004507,-
 0.00002091,-0.00035348,-0.00008773,-0.00024190,-0.00006393,0.00000616,
 -0.00001246,-0.00000880,0.00001610,-0.00002564,0.00004648,0.00004438,0
 .00002962,0.00002636,0.00001339,0.00003345,-0.00099672,0.00396719,0.00
 084383,0.00022793,-0.00006230,0.00009443,-0.00000457,-0.00001065,0.000
 00130,-0.00002564,-0.00000780,-0.00001201,0.00009777,0.00126093,0.0003
 2753,0.00037194,-0.00073812,0.00040218,-0.00001710,-0.00007059,-0.0000
 4171,-0.00000105,0.00004518,0.00002042,-0.00007864,-0.00013730,-0.0000
 3435,0.00000243,0.00006170,0.00000736,-0.00012658,-0.00019381,0.000071
 54,0.00009631,0.00005606,-0.00001155,0.00044384,0.00042060,-0.00011635
 ,-0.00066728,-0.00025057,0.00030385,0.00008638,0.00030324,-0.00007599,
 0.00034002,0.00000110,0.00002828,-0.01697131,-0.09301035,0.01343152,0.
 01737625,-0.00002147,-0.00034716,0.00015498,-0.00002936,0.00067651,0.0
 0047545,0.00016241,-0.00003740,0.00007339,0.00105136,-0.00038484,-0.00
 461739,-0.00002981,0.00010788,-0.00014862,0.00018395,-0.00000660,0.000
 05273,-0.00001699,-0.00007052,-0.00007620,0.00001313,-0.00000856,-0.00
 010700,-0.00342549,-0.01628579,0.00586471,-0.00043029,-0.00077826,0.00
 034845,0.00000492,0.00002494,-0.00000035,-0.00000329,-0.00000587,-0.00
 000258,0.00015125,0.00056695,0.00123780,-0.00063400,0.00189234,0.00131
 559,-0.00005750,0.00011169,0.00009247,0.00002796,-0.00004473,-0.000023
 82,-0.00015825,0.00009859,-0.00001301,0.00004367,-0.00002520,0.0000050
 0,-0.00006781,0.00025624,-0.00022554,-0.00002579,-0.00004031,0.0000619
 6,0.00019501,0.00049614,0.00004961,-0.00025896,-0.00107108,-0.00013806
 ,0.00053499,0.00081868,0.00009402,-0.00004952,-0.00008604,0.00018566,-
 0.08544316,-0.52616949,0.04210715,0.08828303,0.54031188,-0.00000220,-0
 .00002862,0.00014645,0.00045082,-0.00042962,-0.00130454,0.00002272,-0.
 00004668,-0.00007339,0.00197298,-0.00247567,-0.00744278,-0.00006612,0.
 00010959,0.00010269,0.00007126,0.00007387,0.00005274,-0.00003654,-0.00
 004090,-0.00001154,-0.00002149,-0.00001617,-0.00000934,-0.00709452,-0.
 04180887,0.00151238,-0.00050632,-0.00184704,0.00036927,0.00002110,0.00
 000350,0.00000172,0.00000717,0.00002026,-0.00000355,0.00087061,-0.0003
 0673,0.00012638,-0.00110289,-0.00012727,0.00032464,-0.00000765,0.00004
 603,0.00001872,0.00001086,-0.00002298,-0.00000069,-0.00010813,0.000036
 07,0.00002012,0.00004281,0.00000202,0.00001043,-0.00017774,0.00006138,
 -0.00005137,0.00020894,-0.00001171,0.00008934,-0.00019524,0.00310409,-
 0.00090812,0.00035900,-0.00178578,0.00310574,-0.00019998,0.00065379,0.
 00052182,-0.00034500,-0.00008083,-0.00007867,0.02084442,0.09168467,-0.
 05307962,-0.01501889,-0.04676637,0.05656116\\-0.00000428,0.00000715,-0
 .00000952,0.00000479,-0.00000637,-0.00000863,-0.00000562,0.00000014,0.
 00000943,0.00000050,0.00000235,0.00000815,0.00000080,-0.00000160,-0.00
 000354,-0.00000393,0.00000032,0.00000157,-0.00000679,0.00000275,0.0000
 0399,-0.00000194,-0.00000046,0.00000214,-0.00000309,-0.00000150,-0.000
 00912,0.00000238,-0.00000213,-0.00000509,0.00000262,0.00000242,-0.0000
 0160,0.00000104,0.00000136,0.00000002,-0.00000086,0.00000047,0.0000042
 7,0.00000023,-0.00000055,0.00000260,0.00000878,0.00000617,-0.00000395,
 0.00000331,-0.00000484,-0.00000157,0.00000813,-0.00000663,-0.00000043,
 0.00000180,0.00000293,0.00000299,-0.00000479,-0.00001477,-0.00000017,0
 .00000565,0.00000242,-0.00000305,-0.00000388,0.00000622,0.00000663,-0.
 00000461,-0.00000329,0.00000160,0.00000173,0.00000133,-0.00000029,-0.0
 0000032,-0.00000053,-0.00000338,-0.00000163,0.00000776,0.00000450,-0.0
 0000003,-0.00000110,0.00000248\\\@
 The archive entry for this job was punched.


 IT PROBABLY IS NOT POSSIBLE FOR A SCIENTIST TO INTERROGATE NATURE 
 FROM A WHOLLY DISINTERESTED VIEWPOINT.
 EVEN IF HE HAS NO PARTICULAR AXE TO GRIND, HE IS LIKELY TO HAVE 
 A DISTINCTIVE WAY OF VIEWING NATURE.

                                                   -- JOHN LOSEE
 Job cpu time:       0 days 12 hours  8 minutes 52.5 seconds.
 Elapsed time:       0 days  0 hours 46 minutes 15.8 seconds.
 File lengths (MBytes):  RWF=    704 Int=      0 D2E=      0 Chk=     27 Scr=      1
 Normal termination of Gaussian 16 at Wed Sep 27 12:54:50 2023.
