 Entering Gaussian System, Link 0=/opt/software/gaussian/g16.c01/g16
 Initial command:
 /opt/software/gaussian/g16.c01/l1.exe "/scratch/arhender/13209906/Gau-197248.inp" -scrdir="/scratch/arhender/13209906/"
 Entering Link 1 = /opt/software/gaussian/g16.c01/l1.exe PID=    197249.
  
 Copyright (c) 1988-2019, Gaussian, Inc.  All Rights Reserved.
  
 This is part of the Gaussian(R) 16 program.  It is based on
 the Gaussian(R) 09 system (copyright 2009, Gaussian, Inc.),
 the Gaussian(R) 03 system (copyright 2003, Gaussian, Inc.),
 the Gaussian(R) 98 system (copyright 1998, Gaussian, Inc.),
 the Gaussian(R) 94 system (copyright 1995, Gaussian, Inc.),
 the Gaussian 92(TM) system (copyright 1992, Gaussian, Inc.),
 the Gaussian 90(TM) system (copyright 1990, Gaussian, Inc.),
 the Gaussian 88(TM) system (copyright 1988, Gaussian, Inc.),
 the Gaussian 86(TM) system (copyright 1986, Carnegie Mellon
 University), and the Gaussian 82(TM) system (copyright 1983,
 Carnegie Mellon University). Gaussian is a federally registered
 trademark of Gaussian, Inc.
  
 This software contains proprietary and confidential information,
 including trade secrets, belonging to Gaussian, Inc.
  
 This software is provided under written license and may be
 used, copied, transmitted, or stored only in accord with that
 written license.
  
 The following legend is applicable only to US Government
 contracts under FAR:
  
                    RESTRICTED RIGHTS LEGEND
  
 Use, reproduction and disclosure by the US Government is
 subject to restrictions as set forth in subparagraphs (a)
 and (c) of the Commercial Computer Software - Restricted
 Rights clause in FAR 52.227-19.
  
 Gaussian, Inc.
 340 Quinnipiac St., Bldg. 40, Wallingford CT 06492
  
  
 ---------------------------------------------------------------
 Warning -- This program may not be used in any manner that
 competes with the business of Gaussian, Inc. or will provide
 assistance to any competitor of Gaussian, Inc.  The licensee
 of this program is prohibited from giving any competitor of
 Gaussian, Inc. access to this program.  By using this program,
 the user acknowledges that Gaussian, Inc. is engaged in the
 business of creating and licensing software in the field of
 computational chemistry and represents and warrants to the
 licensee that it is not a competitor of Gaussian, Inc. and that
 it will not use this program in any manner prohibited above.
 ---------------------------------------------------------------
  

 Cite this work as:
 Gaussian 16, Revision C.01,
 M. J. Frisch, G. W. Trucks, H. B. Schlegel, G. E. Scuseria, 
 M. A. Robb, J. R. Cheeseman, G. Scalmani, V. Barone, 
 G. A. Petersson, H. Nakatsuji, X. Li, M. Caricato, A. V. Marenich, 
 J. Bloino, B. G. Janesko, R. Gomperts, B. Mennucci, H. P. Hratchian, 
 J. V. Ortiz, A. F. Izmaylov, J. L. Sonnenberg, D. Williams-Young, 
 F. Ding, F. Lipparini, F. Egidi, J. Goings, B. Peng, A. Petrone, 
 T. Henderson, D. Ranasinghe, V. G. Zakrzewski, J. Gao, N. Rega, 
 G. Zheng, W. Liang, M. Hada, M. Ehara, K. Toyota, R. Fukuda, 
 J. Hasegawa, M. Ishida, T. Nakajima, Y. Honda, O. Kitao, H. Nakai, 
 T. Vreven, K. Throssell, J. A. Montgomery, Jr., J. E. Peralta, 
 F. Ogliaro, M. J. Bearpark, J. J. Heyd, E. N. Brothers, K. N. Kudin, 
 V. N. Staroverov, T. A. Keith, R. Kobayashi, J. Normand, 
 K. Raghavachari, A. P. Rendell, J. C. Burant, S. S. Iyengar, 
 J. Tomasi, M. Cossi, J. M. Millam, M. Klene, C. Adamo, R. Cammi, 
 J. W. Ochterski, R. L. Martin, K. Morokuma, O. Farkas, 
 J. B. Foresman, and D. J. Fox, Gaussian, Inc., Wallingford CT, 2019.
 
 ******************************************
 Gaussian 16:  ES64L-G16RevC.01  3-Jul-2019
                27-Sep-2023 
 ******************************************
 %chk=MannitolConformerOpt_4.chk
 %mem=8GB
 %nprocs=16
 Will use up to   16 processors via shared memory.
 ---------------------------------------------
 # opt freq wb97xd/def2tzvpp geom=connectivity
 ---------------------------------------------
 1/18=20,19=15,26=3,38=1,57=2/1,3;
 2/9=110,12=2,17=6,18=5,40=1/2;
 3/5=44,7=202,11=2,25=1,30=1,71=1,74=-58/1,2,3;
 4//1;
 5/5=2,38=5/2;
 6/7=2,8=2,9=2,10=2,28=1/1;
 7//1,2,3,16;
 1/18=20,19=15,26=3/3(2);
 2/9=110/2;
 99//99;
 2/9=110/2;
 3/5=44,7=202,11=2,25=1,30=1,71=1,74=-58/1,2,3;
 4/5=5,16=3,69=1/1;
 5/5=2,38=5/2;
 7//1,2,3,16;
 1/18=20,19=15,26=3/3(-5);
 2/9=110/2;
 6/7=2,8=2,9=2,10=2,19=2,28=1/1;
 99/9=1/99;
 --------------------------------
 Mannitol Conformer Optimziations
 --------------------------------
 Symbolic Z-matrix:
 Charge =  0 Multiplicity = 1
 C                     0.        0.        0. 
 C                     1.5411    0.        0. 
 C                    -0.6181    0.6924   -1.235 
 C                     2.2068   -0.711     1.1914 
 H                     1.8986    1.0365    0. 
 H                    -0.3617    0.4821    0.9149 
 C                    -0.1826    2.145    -1.4306 
 H                    -1.7112    0.6449   -1.1648 
 C                     1.8917   -2.2003    1.3603 
 H                     1.9809   -0.1802    2.1233 
 H                    -0.3805    2.7453   -0.5382 
 H                     0.8781    2.2188   -1.6871 
 H                     2.0617   -2.7549    0.4327 
 H                     0.8735   -2.3652    1.7191 
 O                    -0.9073    2.7133   -2.5216 
 H                    -0.9177    2.0274   -3.219 
 O                    -0.2924   -0.0496   -2.4307 
 H                     0.6712   -0.2473   -2.3819 
 O                    -0.4866   -1.3518    0.0051 
 H                    -0.4721   -1.6405   -0.9318 
 O                     2.0305   -0.5725   -1.2307 
 H                     2.9954   -0.679    -1.0744 
 O                     3.6349   -0.5971    0.9864 
 H                     4.0175   -1.2186    1.6437 
 O                     2.7944   -2.7273    2.345 
 H                     2.5473   -3.662     2.4685 
 

 GradGradGradGradGradGradGradGradGradGradGradGradGradGradGradGradGradGrad
 Berny optimization.
 Initialization pass.
                           ----------------------------
                           !    Initial Parameters    !
                           ! (Angstroms and Degrees)  !
 --------------------------                            --------------------------
 ! Name  Definition              Value          Derivative Info.                !
 --------------------------------------------------------------------------------
 ! R1    R(1,2)                  1.5411         estimate D2E/DX2                !
 ! R2    R(1,3)                  1.5449         estimate D2E/DX2                !
 ! R3    R(1,6)                  1.0956         estimate D2E/DX2                !
 ! R4    R(1,19)                 1.4367         estimate D2E/DX2                !
 ! R5    R(2,4)                  1.5389         estimate D2E/DX2                !
 ! R6    R(2,5)                  1.0964         estimate D2E/DX2                !
 ! R7    R(2,21)                 1.4429         estimate D2E/DX2                !
 ! R8    R(3,7)                  1.529          estimate D2E/DX2                !
 ! R9    R(3,8)                  1.0964         estimate D2E/DX2                !
 ! R10   R(3,17)                 1.4444         estimate D2E/DX2                !
 ! R11   R(4,9)                  1.5316         estimate D2E/DX2                !
 ! R12   R(4,10)                 1.096          estimate D2E/DX2                !
 ! R13   R(4,23)                 1.4472         estimate D2E/DX2                !
 ! R14   R(7,11)                 1.0936         estimate D2E/DX2                !
 ! R15   R(7,12)                 1.0938         estimate D2E/DX2                !
 ! R16   R(7,15)                 1.4277         estimate D2E/DX2                !
 ! R17   R(9,13)                 1.094          estimate D2E/DX2                !
 ! R18   R(9,14)                 1.0921         estimate D2E/DX2                !
 ! R19   R(9,25)                 1.436          estimate D2E/DX2                !
 ! R20   R(15,16)                0.9782         estimate D2E/DX2                !
 ! R21   R(17,18)                0.9849         estimate D2E/DX2                !
 ! R22   R(19,20)                0.9805         estimate D2E/DX2                !
 ! R23   R(21,22)                0.9833         estimate D2E/DX2                !
 ! R24   R(23,24)                0.9822         estimate D2E/DX2                !
 ! R25   R(25,26)                0.9747         estimate D2E/DX2                !
 ! A1    A(2,1,3)              113.584          estimate D2E/DX2                !
 ! A2    A(2,1,6)              109.2776         estimate D2E/DX2                !
 ! A3    A(2,1,19)             109.7969         estimate D2E/DX2                !
 ! A4    A(3,1,6)              109.7712         estimate D2E/DX2                !
 ! A5    A(3,1,19)             106.7997         estimate D2E/DX2                !
 ! A6    A(6,1,19)             107.4126         estimate D2E/DX2                !
 ! A7    A(1,2,4)              115.6321         estimate D2E/DX2                !
 ! A8    A(1,2,5)              109.0299         estimate D2E/DX2                !
 ! A9    A(1,2,21)             109.8271         estimate D2E/DX2                !
 ! A10   A(4,2,5)              107.2011         estimate D2E/DX2                !
 ! A11   A(4,2,21)             109.2875         estimate D2E/DX2                !
 ! A12   A(5,2,21)             105.3371         estimate D2E/DX2                !
 ! A13   A(1,3,7)              114.462          estimate D2E/DX2                !
 ! A14   A(1,3,8)              109.1652         estimate D2E/DX2                !
 ! A15   A(1,3,17)             109.9565         estimate D2E/DX2                !
 ! A16   A(7,3,8)              109.4702         estimate D2E/DX2                !
 ! A17   A(7,3,17)             108.536          estimate D2E/DX2                !
 ! A18   A(8,3,17)             104.8069         estimate D2E/DX2                !
 ! A19   A(2,4,9)              116.4645         estimate D2E/DX2                !
 ! A20   A(2,4,10)             110.2038         estimate D2E/DX2                !
 ! A21   A(2,4,23)             106.3106         estimate D2E/DX2                !
 ! A22   A(9,4,10)             109.5579         estimate D2E/DX2                !
 ! A23   A(9,4,23)             107.1672         estimate D2E/DX2                !
 ! A24   A(10,4,23)            106.6015         estimate D2E/DX2                !
 ! A25   A(3,7,11)             111.442          estimate D2E/DX2                !
 ! A26   A(3,7,12)             111.7346         estimate D2E/DX2                !
 ! A27   A(3,7,15)             109.3492         estimate D2E/DX2                !
 ! A28   A(11,7,12)            109.2583         estimate D2E/DX2                !
 ! A29   A(11,7,15)            108.2533         estimate D2E/DX2                !
 ! A30   A(12,7,15)            106.6296         estimate D2E/DX2                !
 ! A31   A(4,9,13)             111.5589         estimate D2E/DX2                !
 ! A32   A(4,9,14)             112.016          estimate D2E/DX2                !
 ! A33   A(4,9,25)             107.646          estimate D2E/DX2                !
 ! A34   A(13,9,14)            110.2973         estimate D2E/DX2                !
 ! A35   A(13,9,25)            107.318          estimate D2E/DX2                !
 ! A36   A(14,9,25)            107.7807         estimate D2E/DX2                !
 ! A37   A(7,15,16)            105.7284         estimate D2E/DX2                !
 ! A38   A(3,17,18)            106.4224         estimate D2E/DX2                !
 ! A39   A(1,19,20)            105.5835         estimate D2E/DX2                !
 ! A40   A(2,21,22)            103.9007         estimate D2E/DX2                !
 ! A41   A(4,23,24)            103.8744         estimate D2E/DX2                !
 ! A42   A(9,25,26)            106.2275         estimate D2E/DX2                !
 ! D1    D(3,1,2,4)           -178.4493         estimate D2E/DX2                !
 ! D2    D(3,1,2,5)             60.7229         estimate D2E/DX2                !
 ! D3    D(3,1,2,21)           -54.2241         estimate D2E/DX2                !
 ! D4    D(6,1,2,4)             58.6144         estimate D2E/DX2                !
 ! D5    D(6,1,2,5)            -62.2133         estimate D2E/DX2                !
 ! D6    D(6,1,2,21)          -177.1604         estimate D2E/DX2                !
 ! D7    D(19,1,2,4)           -58.9561         estimate D2E/DX2                !
 ! D8    D(19,1,2,5)          -179.7838         estimate D2E/DX2                !
 ! D9    D(19,1,2,21)           65.2691         estimate D2E/DX2                !
 ! D10   D(2,1,3,7)            -57.3147         estimate D2E/DX2                !
 ! D11   D(2,1,3,8)            179.6071         estimate D2E/DX2                !
 ! D12   D(2,1,3,17)            65.148          estimate D2E/DX2                !
 ! D13   D(6,1,3,7)             65.35           estimate D2E/DX2                !
 ! D14   D(6,1,3,8)            -57.7282         estimate D2E/DX2                !
 ! D15   D(6,1,3,17)          -172.1873         estimate D2E/DX2                !
 ! D16   D(19,1,3,7)          -178.5016         estimate D2E/DX2                !
 ! D17   D(19,1,3,8)            58.4201         estimate D2E/DX2                !
 ! D18   D(19,1,3,17)          -56.0389         estimate D2E/DX2                !
 ! D19   D(2,1,19,20)          -83.2978         estimate D2E/DX2                !
 ! D20   D(3,1,19,20)           40.2655         estimate D2E/DX2                !
 ! D21   D(6,1,19,20)          157.9758         estimate D2E/DX2                !
 ! D22   D(1,2,4,9)             60.4126         estimate D2E/DX2                !
 ! D23   D(1,2,4,10)           -65.1546         estimate D2E/DX2                !
 ! D24   D(1,2,4,23)           179.7011         estimate D2E/DX2                !
 ! D25   D(5,2,4,9)           -177.7763         estimate D2E/DX2                !
 ! D26   D(5,2,4,10)            56.6564         estimate D2E/DX2                !
 ! D27   D(5,2,4,23)           -58.4879         estimate D2E/DX2                !
 ! D28   D(21,2,4,9)           -64.093          estimate D2E/DX2                !
 ! D29   D(21,2,4,10)          170.3398         estimate D2E/DX2                !
 ! D30   D(21,2,4,23)           55.1955         estimate D2E/DX2                !
 ! D31   D(1,2,21,22)         -170.1983         estimate D2E/DX2                !
 ! D32   D(4,2,21,22)          -42.3645         estimate D2E/DX2                !
 ! D33   D(5,2,21,22)           72.5245         estimate D2E/DX2                !
 ! D34   D(1,3,7,11)           -55.0545         estimate D2E/DX2                !
 ! D35   D(1,3,7,12)            67.4957         estimate D2E/DX2                !
 ! D36   D(1,3,7,15)          -174.6958         estimate D2E/DX2                !
 ! D37   D(8,3,7,11)            67.8592         estimate D2E/DX2                !
 ! D38   D(8,3,7,12)          -169.5907         estimate D2E/DX2                !
 ! D39   D(8,3,7,15)           -51.7821         estimate D2E/DX2                !
 ! D40   D(17,3,7,11)         -178.2853         estimate D2E/DX2                !
 ! D41   D(17,3,7,12)          -55.7352         estimate D2E/DX2                !
 ! D42   D(17,3,7,15)           62.0733         estimate D2E/DX2                !
 ! D43   D(1,3,17,18)          -46.7716         estimate D2E/DX2                !
 ! D44   D(7,3,17,18)           79.1301         estimate D2E/DX2                !
 ! D45   D(8,3,17,18)         -163.9811         estimate D2E/DX2                !
 ! D46   D(2,4,9,13)            51.4604         estimate D2E/DX2                !
 ! D47   D(2,4,9,14)           -72.7395         estimate D2E/DX2                !
 ! D48   D(2,4,9,25)           168.9477         estimate D2E/DX2                !
 ! D49   D(10,4,9,13)          177.3524         estimate D2E/DX2                !
 ! D50   D(10,4,9,14)           53.1524         estimate D2E/DX2                !
 ! D51   D(10,4,9,25)          -65.1603         estimate D2E/DX2                !
 ! D52   D(23,4,9,13)          -67.3644         estimate D2E/DX2                !
 ! D53   D(23,4,9,14)          168.4357         estimate D2E/DX2                !
 ! D54   D(23,4,9,25)           50.1229         estimate D2E/DX2                !
 ! D55   D(2,4,23,24)         -168.0743         estimate D2E/DX2                !
 ! D56   D(9,4,23,24)          -42.8779         estimate D2E/DX2                !
 ! D57   D(10,4,23,24)          74.3617         estimate D2E/DX2                !
 ! D58   D(3,7,15,16)          -42.6708         estimate D2E/DX2                !
 ! D59   D(11,7,15,16)        -164.2575         estimate D2E/DX2                !
 ! D60   D(12,7,15,16)          78.2927         estimate D2E/DX2                !
 ! D61   D(4,9,25,26)          177.2417         estimate D2E/DX2                !
 ! D62   D(13,9,25,26)         -62.5531         estimate D2E/DX2                !
 ! D63   D(14,9,25,26)          56.236          estimate D2E/DX2                !
 --------------------------------------------------------------------------------
 Trust Radius=3.00D-01 FncErr=1.00D-07 GrdErr=1.00D-06 EigMax=2.50D+02 EigMin=1.00D-04
 Number of steps in this run=    140 maximum allowed number of steps=    156.
 GradGradGradGradGradGradGradGradGradGradGradGradGradGradGradGradGradGrad

                          Input orientation:                          
 ---------------------------------------------------------------------
 Center     Atomic      Atomic             Coordinates (Angstroms)
 Number     Number       Type             X           Y           Z
 ---------------------------------------------------------------------
      1          6           0        0.000000    0.000000    0.000000
      2          6           0        1.541100    0.000000    0.000000
      3          6           0       -0.618100    0.692400   -1.235000
      4          6           0        2.206800   -0.711000    1.191400
      5          1           0        1.898600    1.036500    0.000000
      6          1           0       -0.361700    0.482100    0.914900
      7          6           0       -0.182600    2.145000   -1.430600
      8          1           0       -1.711200    0.644900   -1.164800
      9          6           0        1.891700   -2.200300    1.360300
     10          1           0        1.980900   -0.180200    2.123300
     11          1           0       -0.380500    2.745300   -0.538200
     12          1           0        0.878100    2.218800   -1.687100
     13          1           0        2.061700   -2.754900    0.432700
     14          1           0        0.873500   -2.365200    1.719100
     15          8           0       -0.907300    2.713300   -2.521600
     16          1           0       -0.917700    2.027400   -3.219000
     17          8           0       -0.292400   -0.049600   -2.430700
     18          1           0        0.671200   -0.247300   -2.381900
     19          8           0       -0.486600   -1.351800    0.005100
     20          1           0       -0.472100   -1.640500   -0.931800
     21          8           0        2.030500   -0.572500   -1.230700
     22          1           0        2.995400   -0.679000   -1.074400
     23          8           0        3.634900   -0.597100    0.986400
     24          1           0        4.017500   -1.218600    1.643700
     25          8           0        2.794400   -2.727300    2.345000
     26          1           0        2.547300   -3.662000    2.468500
 ---------------------------------------------------------------------
                    Distance matrix (angstroms):
                    1          2          3          4          5
     1  C    0.000000
     2  C    1.541100   0.000000
     3  C    1.544892   2.582012   0.000000
     4  C    2.606707   1.538867   3.979574   0.000000
     5  H    2.163103   1.096421   2.824431   2.137330   0.000000
     6  H    1.095577   2.165666   2.175325   2.845546   2.500671
     7  C    2.584760   3.101416   1.529041   4.554213   2.758040
     8  H    2.168147   3.514272   1.096381   4.768739   3.813236
     9  C    3.204725   2.610490   4.626272   1.531610   3.511031
    10  H    2.909440   2.175844   4.335252   1.096000   2.448578
    11  H    2.823316   3.393947   2.180913   4.650983   2.898957
    12  H    2.922403   2.865126   2.184698   4.316820   2.299035
    13  H    3.468041   2.836852   4.674016   2.184996   3.819495
    14  H    3.051635   2.999194   4.505607   2.189186   3.946859
    15  O    3.813615   4.440172   2.413092   5.933786   4.128341
    16  H    3.913373   4.529681   2.410029   6.059122   4.390375
    17  O    2.448726   3.045076   1.444418   4.450063   3.447955
    18  H    2.486989   2.547809   1.964869   3.916830   2.971212
    19  O    1.436722   2.436997   2.394555   3.012032   3.375379
    20  H    1.944832   2.759070   2.357047   3.542380   3.695240
    21  O    2.442398   1.442876   2.935144   2.432454   2.030000
    22  H    3.253890   1.931415   3.868322   2.399326   2.302226
    23  O    3.813399   2.390295   4.968444   1.447228   2.579994
    24  H    4.508552   3.212366   5.781663   1.934132   3.503850
    25  O    4.554763   3.808930   6.012978   2.396149   4.524121
    26  H    5.098281   4.529478   6.534253   3.233470   5.346981
                    6          7          8          9         10
     6  H    0.000000
     7  C    2.880744   0.000000
     8  H    2.484513   2.158140   0.000000
     9  C    3.531496   5.565382   5.239483   0.000000
    10  H    2.717839   4.766287   5.012384   2.161233   0.000000
    11  H    2.689596   1.093573   2.564190   5.764213   4.606337
    12  H    3.365061   1.093766   3.074806   5.462827   4.635787
    13  H    4.072291   5.702437   5.324042   1.094040   3.081191
    14  H    3.206177   5.601595   4.904922   1.092090   2.482728
    15  O    4.133457   1.427738   2.601046   6.859083   6.187822
    16  H    4.448170   1.937157   2.600132   6.836385   6.466494
    17  O    3.388296   2.414234   2.024309   4.875191   5.091548
    18  H    3.530977   2.712387   2.820139   4.394074   4.692190
    19  O    2.050982   3.792263   2.618229   2.865804   3.456584
    20  H    2.815656   3.829180   2.610117   3.339858   4.181306
    21  O    3.382071   3.510353   3.935318   3.063051   3.377229
    22  H    4.071313   4.266326   4.890089   3.075755   3.391651
    23  O    4.140362   5.285292   5.894999   2.397665   2.049893
    24  H    4.754043   6.197255   6.646676   2.358617   2.335815
    25  O    4.722965   6.845217   6.632561   1.436047   2.683030
    26  H    5.296180   7.508434   7.062937   1.947944   3.544419
                   11         12         13         14         15
    11  H    0.000000
    12  H    1.783605   0.000000
    13  H    6.095834   5.534632   0.000000
    14  H    5.725830   5.710979   1.794021   0.000000
    15  O    2.052418   2.031889   6.887965   6.851711   0.000000
    16  H    2.826774   2.368174   6.714323   6.847493   0.978230
    17  O    3.376505   2.658693   4.589062   4.893073   2.831957
    18  H    3.668918   2.570448   4.017900   4.620025   3.358025
    19  O    4.134327   4.180327   2.940300   2.411358   4.804814
    20  H    4.404379   4.157850   3.086080   3.059918   4.655367
    21  O    4.159360   3.054125   2.744220   3.640569   4.592774
    22  H    4.838392   3.640825   2.729928   3.892219   5.369651
    23  O    5.442378   4.762021   2.727204   3.359815   6.625435
    24  H    6.309960   5.724140   2.766205   3.347404   7.554020
    25  O    6.952854   6.662878   2.048048   2.052492   8.184529
    26  H    7.659357   7.391823   2.281035   2.246085   8.802262
                   16         17         18         19         20
    16  H    0.000000
    17  O    2.307888   0.000000
    18  H    2.898206   0.984882   0.000000
    19  O    4.690380   2.768855   2.873707   0.000000
    20  H    4.345496   2.193161   2.313208   0.980479   0.000000
    21  O    4.405077   2.666325   1.810722   2.910378   2.737329
    22  H    5.218837   3.611831   2.701449   3.707061   3.601163
    23  O    6.730494   5.234502   4.500147   4.303404   4.651411
    24  H    7.651050   6.045042   5.324153   4.794754   5.193044
    25  O    8.206397   6.285358   5.744733   4.258180   4.752744
    26  H    8.759175   6.716807   6.221439   4.539814   4.976473
                   21         22         23         24         25
    21  O    0.000000
    22  H    0.983262   0.000000
    23  O    2.736830   2.159297   0.000000
    24  H    3.553560   2.953629   0.982185   0.000000
    25  O    4.244094   3.991019   2.662703   2.064938   0.000000
    26  H    4.847285   4.653087   3.573948   2.968499   0.974666
                   26
    26  H    0.000000
 Stoichiometry    C6H14O6
 Framework group  C1[X(C6H14O6)]
 Deg. of freedom    72
 Full point group                 C1      NOp   1
 Largest Abelian subgroup         C1      NOp   1
 Largest concise Abelian subgroup C1      NOp   1
                         Standard orientation:                         
 ---------------------------------------------------------------------
 Center     Atomic      Atomic             Coordinates (Angstroms)
 Number     Number       Type             X           Y           Z
 ---------------------------------------------------------------------
      1          6           0       -0.534354    0.621098   -0.666323
      2          6           0        0.306106   -0.561236   -0.146034
      3          6           0       -2.018479    0.558542   -0.241883
      4          6           0        1.800824   -0.526743   -0.510367
      5          1           0       -0.104019   -1.495436   -0.547540
      6          1           0       -0.462764    0.662709   -1.758766
      7          6           0       -2.746628   -0.715617   -0.671169
      8          1           0       -2.544663    1.432865   -0.642808
      9          6           0        2.600000    0.676337   -0.000713
     10          1           0        1.928270   -0.619004   -1.595015
     11          1           0       -2.668244   -0.876677   -1.749972
     12          1           0       -2.365522   -1.596298   -0.146303
     13          1           0        2.458549    0.826972    1.073635
     14          1           0        2.356786    1.590359   -0.546672
     15          8           0       -4.129828   -0.606193   -0.334689
     16          1           0       -4.154552   -0.215678    0.561871
     17          8           0       -2.126871    0.688215    1.192614
     18          1           0       -1.456592    0.078602    1.578736
     19          8           0       -0.007501    1.855486   -0.153605
     20          1           0       -0.394578    1.955404    0.741675
     21          8           0        0.166987   -0.667791    1.286161
     22          1           0        0.849392   -1.328117    1.541301
     23          8           0        2.389863   -1.710824    0.077385
     24          1           0        3.356692   -1.557603   -0.002950
     25          8           0        3.992228    0.395799   -0.213386
     26          1           0        4.477415    1.190077    0.075908
 ---------------------------------------------------------------------
 Rotational constants (GHZ):           1.9656889           0.4485675           0.4155192
 Standard basis: def2TZVPP (5D, 7F)
 There are   642 symmetry adapted cartesian basis functions of A   symmetry.
 There are   568 symmetry adapted basis functions of A   symmetry.
   568 basis functions,   850 primitive gaussians,   642 cartesian basis functions
    49 alpha electrons       49 beta electrons
       nuclear repulsion energy       823.8792179378 Hartrees.
 NAtoms=   26 NActive=   26 NUniq=   26 SFac= 1.00D+00 NAtFMM=   60 NAOKFM=F Big=F
 Integral buffers will be    131072 words long.
 Raffenetti 2 integral format.
 Two-electron integral symmetry is turned on.
 Nuclear repulsion after empirical dispersion term =      823.8608523054 Hartrees.
 One-electron integrals computed using PRISM.
   1 Symmetry operations used in ECPInt.
 ECPInt:  NShTT=   23436 NPrTT=   62434 LenC2=   21709 LenP2D=   45088.
 LDataN:  DoStor=T MaxTD1= 6 Len=  172
 NBasis=   568 RedAO= T EigKep=  5.08D-05  NBF=   568
 NBsUse=   568 1.00D-06 EigRej= -1.00D+00 NBFU=   568
 ExpMin= 9.52D-02 ExpMax= 2.70D+04 ExpMxC= 9.22D+02 IAcc=3 IRadAn=         5 AccDes= 0.00D+00
 Harris functional with IExCor= 4639 and IRadAn=       5 diagonalized for initial guess.
 HarFok:  IExCor= 4639 AccDes= 0.00D+00 IRadAn=         5 IDoV= 1 UseB2=F ITyADJ=14
 ICtDFT=  3500011 ScaDFX=  1.000000  1.000000  1.000000  1.000000
 FoFCou: FMM=F IPFlag=           0 FMFlag=      100000 FMFlg1=           0
         NFxFlg=           0 DoJE=T BraDBF=F KetDBF=T FulRan=T
         wScrn=  0.000000 ICntrl=       500 IOpCl=  0 I1Cent=   200000004 NGrid=           0
         NMat0=    1 NMatS0=      1 NMatT0=    0 NMatD0=    1 NMtDS0=    0 NMtDT0=    0
 Petite list used in FoFCou.
 Requested convergence on RMS density matrix=1.00D-08 within 128 cycles.
 Requested convergence on MAX density matrix=1.00D-06.
 Requested convergence on             energy=1.00D-06.
 No special actions if energy rises.
 Integral accuracy reduced to 1.0D-05 until final iterations.
 Initial convergence to 1.0D-05 achieved.  Increase integral accuracy.
 SCF Done:  E(RwB97XD) =  -688.471631156     A.U. after   13 cycles
            NFock= 13  Conv=0.92D-08     -V/T= 2.0050

 **********************************************************************

            Population analysis using the SCF Density.

 **********************************************************************

 Orbital symmetries:
       Occupied  (A) (A) (A) (A) (A) (A) (A) (A) (A) (A) (A) (A)
                 (A) (A) (A) (A) (A) (A) (A) (A) (A) (A) (A) (A)
                 (A) (A) (A) (A) (A) (A) (A) (A) (A) (A) (A) (A)
                 (A) (A) (A) (A) (A) (A) (A) (A) (A) (A) (A) (A)
                 (A)
       Virtual   (A) (A) (A) (A) (A) (A) (A) (A) (A) (A) (A) (A)
                 (A) (A) (A) (A) (A) (A) (A) (A) (A) (A) (A) (A)
                 (A) (A) (A) (A) (A) (A) (A) (A) (A) (A) (A) (A)
                 (A) (A) (A) (A) (A) (A) (A) (A) (A) (A) (A) (A)
                 (A) (A) (A) (A) (A) (A) (A) (A) (A) (A) (A) (A)
                 (A) (A) (A) (A) (A) (A) (A) (A) (A) (A) (A) (A)
                 (A) (A) (A) (A) (A) (A) (A) (A) (A) (A) (A) (A)
                 (A) (A) (A) (A) (A) (A) (A) (A) (A) (A) (A) (A)
                 (A) (A) (A) (A) (A) (A) (A) (A) (A) (A) (A) (A)
                 (A) (A) (A) (A) (A) (A) (A) (A) (A) (A) (A) (A)
                 (A) (A) (A) (A) (A) (A) (A) (A) (A) (A) (A) (A)
                 (A) (A) (A) (A) (A) (A) (A) (A) (A) (A) (A) (A)
                 (A) (A) (A) (A) (A) (A) (A) (A) (A) (A) (A) (A)
                 (A) (A) (A) (A) (A) (A) (A) (A) (A) (A) (A) (A)
                 (A) (A) (A) (A) (A) (A) (A) (A) (A) (A) (A) (A)
                 (A) (A) (A) (A) (A) (A) (A) (A) (A) (A) (A) (A)
                 (A) (A) (A) (A) (A) (A) (A) (A) (A) (A) (A) (A)
                 (A) (A) (A) (A) (A) (A) (A) (A) (A) (A) (A) (A)
                 (A) (A) (A) (A) (A) (A) (A) (A) (A) (A) (A) (A)
                 (A) (A) (A) (A) (A) (A) (A) (A) (A) (A) (A) (A)
                 (A) (A) (A) (A) (A) (A) (A) (A) (A) (A) (A) (A)
                 (A) (A) (A) (A) (A) (A) (A) (A) (A) (A) (A) (A)
                 (A) (A) (A) (A) (A) (A) (A) (A) (A) (A) (A) (A)
                 (A) (A) (A) (A) (A) (A) (A) (A) (A) (A) (A) (A)
                 (A) (A) (A) (A) (A) (A) (A) (A) (A) (A) (A) (A)
                 (A) (A) (A) (A) (A) (A) (A) (A) (A) (A) (A) (A)
                 (A) (A) (A) (A) (A) (A) (A) (A) (A) (A) (A) (A)
                 (A) (A) (A) (A) (A) (A) (A) (A) (A) (A) (A) (A)
                 (A) (A) (A) (A) (A) (A) (A) (A) (A) (A) (A) (A)
                 (A) (A) (A) (A) (A) (A) (A) (A) (A) (A) (A) (A)
                 (A) (A) (A) (A) (A) (A) (A) (A) (A) (A) (A) (A)
                 (A) (A) (A) (A) (A) (A) (A) (A) (A) (A) (A) (A)
                 (A) (A) (A) (A) (A) (A) (A) (A) (A) (A) (A) (A)
                 (A) (A) (A) (A) (A) (A) (A) (A) (A) (A) (A) (A)
                 (A) (A) (A) (A) (A) (A) (A) (A) (A) (A) (A) (A)
                 (A) (A) (A) (A) (A) (A) (A) (A) (A) (A) (A) (A)
                 (A) (A) (A) (A) (A) (A) (A) (A) (A) (A) (A) (A)
                 (A) (A) (A) (A) (A) (A) (A) (A) (A) (A) (A) (A)
                 (A) (A) (A) (A) (A) (A) (A) (A) (A) (A) (A) (A)
                 (A) (A) (A) (A) (A) (A) (A) (A) (A) (A) (A) (A)
                 (A) (A) (A) (A) (A) (A) (A) (A) (A) (A) (A) (A)
                 (A) (A) (A) (A) (A) (A) (A) (A) (A) (A) (A) (A)
                 (A) (A) (A) (A) (A) (A) (A) (A) (A) (A) (A) (A)
                 (A) (A) (A)
 The electronic state is 1-A.
 Alpha  occ. eigenvalues --  -19.27720 -19.26870 -19.26449 -19.25649 -19.25548
 Alpha  occ. eigenvalues --  -19.24229 -10.36074 -10.35881 -10.35651 -10.34756
 Alpha  occ. eigenvalues --  -10.33925 -10.33294  -1.16496  -1.14834  -1.13466
 Alpha  occ. eigenvalues --   -1.12091  -1.11641  -1.10259  -0.89374  -0.85613
 Alpha  occ. eigenvalues --   -0.80429  -0.75520  -0.72165  -0.68731  -0.64482
 Alpha  occ. eigenvalues --   -0.61621  -0.61576  -0.60575  -0.59459  -0.57748
 Alpha  occ. eigenvalues --   -0.57263  -0.54259  -0.53710  -0.52667  -0.51794
 Alpha  occ. eigenvalues --   -0.50817  -0.48799  -0.48705  -0.46053  -0.45258
 Alpha  occ. eigenvalues --   -0.44317  -0.42126  -0.41884  -0.39086  -0.38675
 Alpha  occ. eigenvalues --   -0.38143  -0.37335  -0.37241  -0.34976
 Alpha virt. eigenvalues --    0.08717   0.10083   0.11465   0.12981   0.13982
 Alpha virt. eigenvalues --    0.14422   0.14948   0.16654   0.17890   0.18293
 Alpha virt. eigenvalues --    0.18790   0.19595   0.20046   0.20968   0.21720
 Alpha virt. eigenvalues --    0.21970   0.23374   0.23591   0.24882   0.26314
 Alpha virt. eigenvalues --    0.27961   0.28815   0.29650   0.31443   0.33541
 Alpha virt. eigenvalues --    0.33918   0.35822   0.36824   0.37404   0.37884
 Alpha virt. eigenvalues --    0.38718   0.39218   0.39809   0.40663   0.41291
 Alpha virt. eigenvalues --    0.41783   0.42594   0.42837   0.44116   0.44709
 Alpha virt. eigenvalues --    0.45221   0.45443   0.46386   0.47129   0.47454
 Alpha virt. eigenvalues --    0.48632   0.49264   0.49720   0.50180   0.50641
 Alpha virt. eigenvalues --    0.50750   0.52101   0.53058   0.53302   0.54438
 Alpha virt. eigenvalues --    0.54889   0.55817   0.57026   0.57786   0.58254
 Alpha virt. eigenvalues --    0.59833   0.61103   0.62159   0.63034   0.64557
 Alpha virt. eigenvalues --    0.64659   0.66227   0.66266   0.67998   0.68281
 Alpha virt. eigenvalues --    0.69009   0.69943   0.70770   0.72249   0.72767
 Alpha virt. eigenvalues --    0.74607   0.75575   0.76742   0.77155   0.80075
 Alpha virt. eigenvalues --    0.80892   0.82624   0.83242   0.85138   0.85845
 Alpha virt. eigenvalues --    0.86327   0.88940   0.89579   0.89968   0.90817
 Alpha virt. eigenvalues --    0.91232   0.92965   0.93835   0.94119   0.95781
 Alpha virt. eigenvalues --    0.96479   0.97646   0.99421   0.99821   1.01739
 Alpha virt. eigenvalues --    1.02939   1.03823   1.04933   1.05988   1.06421
 Alpha virt. eigenvalues --    1.07341   1.07696   1.08778   1.10098   1.11672
 Alpha virt. eigenvalues --    1.12440   1.14049   1.14899   1.15904   1.17290
 Alpha virt. eigenvalues --    1.19901   1.20330   1.21567   1.24591   1.25562
 Alpha virt. eigenvalues --    1.25604   1.27399   1.27857   1.29361   1.30157
 Alpha virt. eigenvalues --    1.30948   1.32995   1.33681   1.35246   1.35479
 Alpha virt. eigenvalues --    1.35868   1.37175   1.37538   1.39381   1.40225
 Alpha virt. eigenvalues --    1.41478   1.42626   1.43462   1.44701   1.46375
 Alpha virt. eigenvalues --    1.47684   1.48480   1.49336   1.49762   1.51963
 Alpha virt. eigenvalues --    1.52838   1.54065   1.55102   1.56483   1.57949
 Alpha virt. eigenvalues --    1.58104   1.59514   1.60908   1.62728   1.63507
 Alpha virt. eigenvalues --    1.66673   1.67382   1.68885   1.69969   1.70571
 Alpha virt. eigenvalues --    1.72722   1.76530   1.79949   1.81088   1.82167
 Alpha virt. eigenvalues --    1.84793   1.87342   1.90156   1.91278   1.91932
 Alpha virt. eigenvalues --    1.93262   1.93837   1.96298   1.97771   1.98583
 Alpha virt. eigenvalues --    2.00549   2.01516   2.02199   2.04086   2.04477
 Alpha virt. eigenvalues --    2.05674   2.06961   2.07602   2.08882   2.10126
 Alpha virt. eigenvalues --    2.11343   2.12867   2.14429   2.15184   2.16547
 Alpha virt. eigenvalues --    2.18349   2.19805   2.21024   2.21990   2.24651
 Alpha virt. eigenvalues --    2.25330   2.29304   2.30199   2.32189   2.33567
 Alpha virt. eigenvalues --    2.34348   2.36179   2.36375   2.39255   2.40545
 Alpha virt. eigenvalues --    2.43513   2.44912   2.47773   2.48493   2.53357
 Alpha virt. eigenvalues --    2.54174   2.57472   2.57802   2.62307   2.65015
 Alpha virt. eigenvalues --    2.66014   2.67468   2.69683   2.70465   2.71150
 Alpha virt. eigenvalues --    2.72433   2.73147   2.74837   2.75888   2.77643
 Alpha virt. eigenvalues --    2.78584   2.79845   2.81526   2.82450   2.82972
 Alpha virt. eigenvalues --    2.85004   2.86296   2.87310   2.88253   2.89901
 Alpha virt. eigenvalues --    2.90538   2.93289   2.94451   2.96921   2.98398
 Alpha virt. eigenvalues --    2.99482   3.01072   3.01283   3.02849   3.04221
 Alpha virt. eigenvalues --    3.06188   3.07295   3.07833   3.09706   3.11366
 Alpha virt. eigenvalues --    3.11739   3.13251   3.14645   3.15248   3.15755
 Alpha virt. eigenvalues --    3.16953   3.18153   3.19700   3.20887   3.21610
 Alpha virt. eigenvalues --    3.22933   3.23553   3.24222   3.25480   3.26601
 Alpha virt. eigenvalues --    3.27576   3.28498   3.29348   3.30592   3.31966
 Alpha virt. eigenvalues --    3.33137   3.34734   3.35277   3.36052   3.36694
 Alpha virt. eigenvalues --    3.38199   3.39643   3.39868   3.40373   3.40900
 Alpha virt. eigenvalues --    3.41888   3.43832   3.46266   3.46650   3.47425
 Alpha virt. eigenvalues --    3.48142   3.49953   3.50586   3.52229   3.53482
 Alpha virt. eigenvalues --    3.53986   3.55372   3.56160   3.57539   3.59981
 Alpha virt. eigenvalues --    3.61520   3.62528   3.64166   3.64839   3.66209
 Alpha virt. eigenvalues --    3.67050   3.68373   3.69712   3.70766   3.71951
 Alpha virt. eigenvalues --    3.73006   3.73872   3.75498   3.75765   3.77345
 Alpha virt. eigenvalues --    3.78101   3.79995   3.81054   3.81770   3.83723
 Alpha virt. eigenvalues --    3.84517   3.85757   3.87936   3.88104   3.88623
 Alpha virt. eigenvalues --    3.89783   3.90577   3.93490   3.95810   3.95901
 Alpha virt. eigenvalues --    3.97056   3.97949   3.98660   3.99436   4.00958
 Alpha virt. eigenvalues --    4.01241   4.01798   4.04019   4.05257   4.05913
 Alpha virt. eigenvalues --    4.06888   4.07449   4.09125   4.10073   4.11270
 Alpha virt. eigenvalues --    4.12048   4.14270   4.15168   4.15687   4.16717
 Alpha virt. eigenvalues --    4.18483   4.19082   4.19740   4.21440   4.22020
 Alpha virt. eigenvalues --    4.22998   4.23734   4.26286   4.26773   4.27507
 Alpha virt. eigenvalues --    4.29913   4.31201   4.33720   4.34319   4.34468
 Alpha virt. eigenvalues --    4.35522   4.36717   4.39342   4.39820   4.40355
 Alpha virt. eigenvalues --    4.40857   4.42252   4.43895   4.45537   4.47091
 Alpha virt. eigenvalues --    4.47429   4.48576   4.49260   4.54349   4.55121
 Alpha virt. eigenvalues --    4.56230   4.57138   4.58753   4.60204   4.62145
 Alpha virt. eigenvalues --    4.64251   4.64599   4.67141   4.68800   4.70893
 Alpha virt. eigenvalues --    4.74124   4.75313   4.76079   4.77991   4.79577
 Alpha virt. eigenvalues --    4.81927   4.82584   4.84913   4.86811   4.86944
 Alpha virt. eigenvalues --    4.89069   4.93944   4.94801   4.96285   4.96628
 Alpha virt. eigenvalues --    4.98075   5.00354   5.01756   5.02160   5.03594
 Alpha virt. eigenvalues --    5.04096   5.07459   5.08245   5.09812   5.11878
 Alpha virt. eigenvalues --    5.14058   5.16132   5.17610   5.19150   5.20320
 Alpha virt. eigenvalues --    5.21048   5.22793   5.25515   5.25671   5.29283
 Alpha virt. eigenvalues --    5.31097   5.31640   5.34743   5.41448   5.41854
 Alpha virt. eigenvalues --    5.48250   5.49188   5.54738   5.56363   5.58967
 Alpha virt. eigenvalues --    5.59649   5.62064   5.62593   5.64687   5.66801
 Alpha virt. eigenvalues --    5.67793   5.69467   5.69973   5.71992   5.74008
 Alpha virt. eigenvalues --    5.74773   5.76400   5.77293   5.82299   5.83183
 Alpha virt. eigenvalues --    5.85079   5.85933   5.90908   5.93842   5.94880
 Alpha virt. eigenvalues --    5.99024   6.01182   6.02630   6.10207   6.12757
 Alpha virt. eigenvalues --    6.13929   6.17709   6.18879   6.19643   6.51913
 Alpha virt. eigenvalues --    6.52784   6.54388   6.54873   6.56339   6.56813
 Alpha virt. eigenvalues --    6.69122   6.71781   6.72623   6.74210   6.75729
 Alpha virt. eigenvalues --    6.76603   6.77715   6.79281   6.79604   6.80011
 Alpha virt. eigenvalues --    6.82061   6.82915   6.84895   6.86451   6.87580
 Alpha virt. eigenvalues --    6.88924   6.90827   6.95756   6.97554   7.01408
 Alpha virt. eigenvalues --    7.02698   7.04117   7.05808   7.07184   7.15746
 Alpha virt. eigenvalues --    7.18702   7.19743   7.20863   7.22460   7.26490
 Alpha virt. eigenvalues --    7.40580   7.41854   7.43237   7.44290   7.48453
 Alpha virt. eigenvalues --    7.49558   7.50451   7.54829   7.57437   7.58649
 Alpha virt. eigenvalues --    7.65467   7.76688  23.08366  23.14989  23.17937
 Alpha virt. eigenvalues --   23.20325  23.44172  23.47735  44.09141  44.13936
 Alpha virt. eigenvalues --   44.23888  44.27686  44.33092  44.40189
          Condensed to atoms (all electrons):
               1          2          3          4          5          6
     1  C    4.971255   0.126991   0.269379   0.019903  -0.016303   0.420760
     2  C    0.126991   5.231821   0.026157   0.145576   0.412528  -0.050846
     3  C    0.269379   0.026157   4.822331  -0.016506  -0.019425  -0.023321
     4  C    0.019903   0.145576  -0.016506   4.944591  -0.009244   0.001269
     5  H   -0.016303   0.412528  -0.019425  -0.009244   0.567764   0.005148
     6  H    0.420760  -0.050846  -0.023321   0.001269   0.005148   0.569657
     7  C   -0.051967   0.019549   0.363703   0.002834   0.005281  -0.006747
     8  H   -0.035378   0.011496   0.420763   0.000236  -0.000655  -0.004246
     9  C    0.003538  -0.001212   0.001799   0.282136   0.007521   0.000047
    10  H   -0.009386  -0.023115   0.000216   0.414554  -0.006174   0.002330
    11  H    0.015843  -0.013115  -0.046310  -0.001130  -0.000289   0.001580
    12  H   -0.015845   0.016158  -0.011634   0.001661  -0.008654  -0.000235
    13  H   -0.008267   0.016803   0.000038  -0.047533   0.000716   0.000191
    14  H    0.002058  -0.017884  -0.000414  -0.009044  -0.000817   0.000313
    15  O    0.010767  -0.001617  -0.033426  -0.000061  -0.000178   0.000044
    16  H    0.003925  -0.001301  -0.018598  -0.000040  -0.000090  -0.000024
    17  O   -0.022514  -0.011809   0.224462   0.001703   0.000932   0.003961
    18  H   -0.003164  -0.005365  -0.036272   0.000049   0.000798  -0.000110
    19  O    0.255131  -0.045581  -0.023088  -0.011884   0.003723  -0.021579
    20  H   -0.055499   0.004492  -0.008627  -0.001863   0.000400   0.007185
    21  O   -0.024949   0.206402  -0.004817  -0.012969  -0.039869   0.002756
    22  H    0.004553  -0.043145   0.000163   0.004340  -0.005643  -0.000294
    23  O    0.004387  -0.071441  -0.000185   0.277841   0.002590   0.000078
    24  H   -0.000990   0.007454   0.000003  -0.039367  -0.000265   0.000004
    25  O   -0.000126   0.007280  -0.000029  -0.073698  -0.000080  -0.000033
    26  H    0.000072  -0.001816  -0.000008   0.011413   0.000039   0.000003
               7          8          9         10         11         12
     1  C   -0.051967  -0.035378   0.003538  -0.009386   0.015843  -0.015845
     2  C    0.019549   0.011496  -0.001212  -0.023115  -0.013115   0.016158
     3  C    0.363703   0.420763   0.001799   0.000216  -0.046310  -0.011634
     4  C    0.002834   0.000236   0.282136   0.414554  -0.001130   0.001661
     5  H    0.005281  -0.000655   0.007521  -0.006174  -0.000289  -0.008654
     6  H   -0.006747  -0.004246   0.000047   0.002330   0.001580  -0.000235
     7  C    4.699018  -0.040487  -0.000243  -0.000115   0.404662   0.386339
     8  H   -0.040487   0.565781  -0.000194   0.000036  -0.004538   0.008174
     9  C   -0.000243  -0.000194   4.754129  -0.041239   0.000077  -0.000123
    10  H   -0.000115   0.000036  -0.041239   0.616039   0.000036  -0.000027
    11  H    0.404662  -0.004538   0.000077   0.000036   0.629390  -0.039477
    12  H    0.386339   0.008174  -0.000123  -0.000027  -0.039477   0.639262
    13  H   -0.000029   0.000010   0.411151   0.009523  -0.000001  -0.000009
    14  H    0.000036   0.000028   0.426911  -0.005754  -0.000005   0.000003
    15  O    0.284552   0.009703   0.000001   0.000000  -0.031974  -0.048249
    16  H   -0.043614  -0.001769   0.000003   0.000000   0.010523  -0.004571
    17  O   -0.039973  -0.035189  -0.000621   0.000015   0.005818  -0.003768
    18  H    0.000966   0.005692   0.000196  -0.000050   0.000771  -0.000044
    19  O    0.004533   0.004400   0.008691   0.000177  -0.000281  -0.000123
    20  H    0.001654  -0.003424   0.001327  -0.000065  -0.000223  -0.000070
    21  O   -0.006369  -0.000632  -0.018117   0.003436   0.000448   0.005108
    22  H    0.000293   0.000070  -0.003726   0.002054  -0.000003   0.000059
    23  O   -0.000031   0.000004  -0.035619  -0.037655  -0.000002  -0.000002
    24  H   -0.000000  -0.000001  -0.006525  -0.004144  -0.000001   0.000005
    25  O   -0.000000  -0.000000   0.267220   0.006117  -0.000000   0.000000
    26  H    0.000000  -0.000000  -0.031295  -0.000127   0.000000  -0.000000
              13         14         15         16         17         18
     1  C   -0.008267   0.002058   0.010767   0.003925  -0.022514  -0.003164
     2  C    0.016803  -0.017884  -0.001617  -0.001301  -0.011809  -0.005365
     3  C    0.000038  -0.000414  -0.033426  -0.018598   0.224462  -0.036272
     4  C   -0.047533  -0.009044  -0.000061  -0.000040   0.001703   0.000049
     5  H    0.000716  -0.000817  -0.000178  -0.000090   0.000932   0.000798
     6  H    0.000191   0.000313   0.000044  -0.000024   0.003961  -0.000110
     7  C   -0.000029   0.000036   0.284552  -0.043614  -0.039973   0.000966
     8  H    0.000010   0.000028   0.009703  -0.001769  -0.035189   0.005692
     9  C    0.411151   0.426911   0.000001   0.000003  -0.000621   0.000196
    10  H    0.009523  -0.005754   0.000000   0.000000   0.000015  -0.000050
    11  H   -0.000001  -0.000005  -0.031974   0.010523   0.005818   0.000771
    12  H   -0.000009   0.000003  -0.048249  -0.004571  -0.003768  -0.000044
    13  H    0.596391  -0.030810   0.000000  -0.000000   0.000046   0.000029
    14  H   -0.030810   0.578247   0.000000   0.000000  -0.000002  -0.000017
    15  O    0.000000   0.000000   7.867812   0.319640  -0.010340   0.000240
    16  H   -0.000000   0.000000   0.319640   0.515452   0.022200   0.000382
    17  O    0.000046  -0.000002  -0.010340   0.022200   7.970994   0.329207
    18  H    0.000029  -0.000017   0.000240   0.000382   0.329207   0.445958
    19  O    0.001671   0.003775  -0.000143  -0.000042  -0.013565   0.000443
    20  H   -0.000095  -0.001180  -0.000067  -0.000132   0.032044  -0.002411
    21  O    0.014889   0.001120   0.000034   0.000099  -0.022813   0.039834
    22  H    0.000463   0.000223  -0.000001  -0.000003   0.001013  -0.002011
    23  O    0.000515   0.004698  -0.000000  -0.000000  -0.000005  -0.000035
    24  H   -0.001703   0.001732  -0.000000   0.000000  -0.000000   0.000006
    25  O   -0.049401  -0.044472   0.000000  -0.000000  -0.000000   0.000002
    26  H   -0.004130  -0.005988   0.000000  -0.000000   0.000000   0.000000
              19         20         21         22         23         24
     1  C    0.255131  -0.055499  -0.024949   0.004553   0.004387  -0.000990
     2  C   -0.045581   0.004492   0.206402  -0.043145  -0.071441   0.007454
     3  C   -0.023088  -0.008627  -0.004817   0.000163  -0.000185   0.000003
     4  C   -0.011884  -0.001863  -0.012969   0.004340   0.277841  -0.039367
     5  H    0.003723   0.000400  -0.039869  -0.005643   0.002590  -0.000265
     6  H   -0.021579   0.007185   0.002756  -0.000294   0.000078   0.000004
     7  C    0.004533   0.001654  -0.006369   0.000293  -0.000031  -0.000000
     8  H    0.004400  -0.003424  -0.000632   0.000070   0.000004  -0.000001
     9  C    0.008691   0.001327  -0.018117  -0.003726  -0.035619  -0.006525
    10  H    0.000177  -0.000065   0.003436   0.002054  -0.037655  -0.004144
    11  H   -0.000281  -0.000223   0.000448  -0.000003  -0.000002  -0.000001
    12  H   -0.000123  -0.000070   0.005108   0.000059  -0.000002   0.000005
    13  H    0.001671  -0.000095   0.014889   0.000463   0.000515  -0.001703
    14  H    0.003775  -0.001180   0.001120   0.000223   0.004698   0.001732
    15  O   -0.000143  -0.000067   0.000034  -0.000001  -0.000000  -0.000000
    16  H   -0.000042  -0.000132   0.000099  -0.000003  -0.000000   0.000000
    17  O   -0.013565   0.032044  -0.022813   0.001013  -0.000005  -0.000000
    18  H    0.000443  -0.002411   0.039834  -0.002011  -0.000035   0.000006
    19  O    7.891382   0.328102  -0.001167  -0.000449   0.000138   0.000053
    20  H    0.328102   0.493004   0.003025  -0.000164   0.000035   0.000001
    21  O   -0.001167   0.003025   7.939344   0.317560  -0.013445   0.000240
    22  H   -0.000449  -0.000164   0.317560   0.492284   0.031580  -0.001570
    23  O    0.000138   0.000035  -0.013445   0.031580   7.917557   0.332728
    24  H    0.000053   0.000001   0.000240  -0.001570   0.332728   0.469739
    25  O    0.000703  -0.000019   0.000117  -0.000048  -0.014049   0.028545
    26  H    0.000072  -0.000003   0.000064  -0.000012   0.000221  -0.001697
              25         26
     1  C   -0.000126   0.000072
     2  C    0.007280  -0.001816
     3  C   -0.000029  -0.000008
     4  C   -0.073698   0.011413
     5  H   -0.000080   0.000039
     6  H   -0.000033   0.000003
     7  C   -0.000000   0.000000
     8  H   -0.000000  -0.000000
     9  C    0.267220  -0.031295
    10  H    0.006117  -0.000127
    11  H   -0.000000   0.000000
    12  H    0.000000  -0.000000
    13  H   -0.049401  -0.004130
    14  H   -0.044472  -0.005988
    15  O    0.000000   0.000000
    16  H   -0.000000  -0.000000
    17  O   -0.000000   0.000000
    18  H    0.000002   0.000000
    19  O    0.000703   0.000072
    20  H   -0.000019  -0.000003
    21  O    0.000117   0.000064
    22  H   -0.000048  -0.000012
    23  O   -0.014049   0.000221
    24  H    0.028545  -0.001697
    25  O    7.907176   0.327413
    26  H    0.327413   0.521315
 Mulliken charges:
               1
     1  C    0.135825
     2  C    0.055542
     3  C    0.113648
     4  C    0.115232
     5  H    0.100242
     6  H    0.092109
     7  C    0.016155
     8  H    0.100121
     9  C   -0.025831
    10  H    0.073318
    11  H    0.068199
    12  H    0.076064
    13  H    0.089543
    14  H    0.097242
    15  O   -0.366738
    16  H    0.197959
    17  O   -0.431799
    18  H    0.224905
    19  O   -0.385091
    20  H    0.202573
    21  O   -0.389328
    22  H    0.202414
    23  O   -0.399903
    24  H    0.215752
    25  O   -0.362619
    26  H    0.184465
 Sum of Mulliken charges =  -0.00000
 Mulliken charges with hydrogens summed into heavy atoms:
               1
     1  C    0.227934
     2  C    0.155784
     3  C    0.213769
     4  C    0.188550
     7  C    0.160418
     9  C    0.160955
    15  O   -0.168779
    17  O   -0.206894
    19  O   -0.182519
    21  O   -0.186914
    23  O   -0.184151
    25  O   -0.178154
 Electronic spatial extent (au):  <R**2>=           2707.7258
 Charge=              0.0000 electrons
 Dipole moment (field-independent basis, Debye):
    X=              3.3106    Y=              0.5463    Z=             -0.0046  Tot=              3.3554
 Quadrupole moment (field-independent basis, Debye-Ang):
   XX=            -79.4917   YY=            -74.6329   ZZ=            -69.4519
   XY=              3.8512   XZ=              1.3086   YZ=              0.0337
 Traceless Quadrupole moment (field-independent basis, Debye-Ang):
   XX=             -4.9662   YY=             -0.1074   ZZ=              5.0736
   XY=              3.8512   XZ=              1.3086   YZ=              0.0337
 Octapole moment (field-independent basis, Debye-Ang**2):
  XXX=            100.7533  YYY=              3.2161  ZZZ=              6.2167  XYY=             11.8539
  XXY=             37.4482  XXZ=             28.9148  XZZ=              1.5191  YZZ=             -3.2855
  YYZ=              8.6946  XYZ=              6.2696
 Hexadecapole moment (field-independent basis, Debye-Ang**3):
 XXXX=          -2609.2383 YYYY=           -500.4733 ZZZZ=           -260.5807 XXXY=             22.5646
 XXXZ=            -49.6043 YYYX=             16.1514 YYYZ=              4.6861 ZZZX=              4.7182
 ZZZY=             -7.9689 XXYY=           -454.7296 XXZZ=           -464.6378 YYZZ=           -118.8108
 XXYZ=             -7.1826 YYXZ=              5.4421 ZZXY=              1.9381
 N-N= 8.238608523054D+02 E-N=-3.264717974700D+03  KE= 6.850352498383D+02
   1 Symmetry operations used in ECPInt.
 ECPInt:  NShTT=   23436 NPrTT=   62434 LenC2=   21709 LenP2D=   45088.
 LDataN:  DoStor=T MaxTD1= 7 Len=  274
 Calling FoFJK, ICntrl=      2127 FMM=F ISym2X=0 I1Cent= 0 IOpClX= 0 NMat=1 NMatS=1 NMatT=0.
 ***** Axes restored to original set *****
 -------------------------------------------------------------------
 Center     Atomic                   Forces (Hartrees/Bohr)
 Number     Number              X              Y              Z
 -------------------------------------------------------------------
      1        6          -0.001975626   -0.020878071   -0.010858562
      2        6           0.006464544   -0.000267522   -0.005684321
      3        6           0.015713920    0.000170985   -0.006859192
      4        6           0.014219539   -0.005292940    0.001652831
      5        1          -0.002669227    0.000543730    0.006641370
      6        1           0.001937578   -0.001542443   -0.002283627
      7        6          -0.010164780    0.001745296   -0.014821835
      8        1           0.004607640    0.001448654    0.002713593
      9        6          -0.002012354   -0.006455836    0.007037019
     10        1          -0.005970336   -0.000409148   -0.001929506
     11        1          -0.000876459   -0.000272436   -0.002281825
     12        1           0.003199538   -0.004593775    0.006530034
     13        1          -0.004734125    0.005921093   -0.002792358
     14        1           0.000115223    0.004439922   -0.006386714
     15        8           0.000152814   -0.013673587   -0.002189948
     16        1           0.001237733    0.012438801    0.012250194
     17        8           0.008179940    0.000610383    0.011883002
     18        1          -0.015599105    0.004897683   -0.002593682
     19        8           0.002003280    0.007612348   -0.013138343
     20        1          -0.000908992    0.005671213    0.017174967
     21        8           0.015777807   -0.001233471    0.016235751
     22        1          -0.018768954    0.000647690   -0.006105883
     23        8          -0.008122306   -0.010422895    0.011075046
     24        1          -0.004538018    0.011625556   -0.015504432
     25        8          -0.005280715   -0.011201915    0.000839278
     26        1           0.008011441    0.018470686   -0.000602858
 -------------------------------------------------------------------
 Cartesian Forces:  Max     0.020878071 RMS     0.008487895

 GradGradGradGradGradGradGradGradGradGradGradGradGradGradGradGradGradGrad
 Berny optimization.
 FormGI is forming the generalized inverse of G from B-inverse, IUseBI=4.
 Internal  Forces:  Max     0.019818751 RMS     0.005752721
 Search for a local minimum.
 Step number   1 out of a maximum of  140
 All quantities printed in internal units (Hartrees-Bohrs-Radians)
 Mixed Optimization -- RFO/linear search
 Second derivative matrix not updated -- first step.
 ITU=  0
     Eigenvalues ---    0.00230   0.00230   0.00252   0.00348   0.00382
     Eigenvalues ---    0.01067   0.01104   0.01125   0.01206   0.01215
     Eigenvalues ---    0.01325   0.03701   0.03705   0.03870   0.04003
     Eigenvalues ---    0.04588   0.04653   0.04766   0.04839   0.05176
     Eigenvalues ---    0.05354   0.05489   0.05541   0.07559   0.07751
     Eigenvalues ---    0.07770   0.08024   0.11351   0.11527   0.13573
     Eigenvalues ---    0.13729   0.16000   0.16000   0.16000   0.16000
     Eigenvalues ---    0.16000   0.16000   0.16815   0.17232   0.17266
     Eigenvalues ---    0.17631   0.19283   0.19590   0.19837   0.20028
     Eigenvalues ---    0.22025   0.22034   0.28090   0.28422   0.28620
     Eigenvalues ---    0.29275   0.29512   0.34081   0.34085   0.34128
     Eigenvalues ---    0.34176   0.34350   0.34381   0.34403   0.34572
     Eigenvalues ---    0.38610   0.38986   0.39194   0.40039   0.40133
     Eigenvalues ---    0.41316   0.50448   0.50756   0.50963   0.51292
     Eigenvalues ---    0.51730   0.52435
 RFO step:  Lambda=-1.72719942D-02 EMin= 2.30000000D-03
 Linear search not attempted -- first point.
 Iteration  1 RMS(Cart)=  0.08545875 RMS(Int)=  0.00261730
 Iteration  2 RMS(Cart)=  0.00434679 RMS(Int)=  0.00053812
 Iteration  3 RMS(Cart)=  0.00000692 RMS(Int)=  0.00053809
 Iteration  4 RMS(Cart)=  0.00000000 RMS(Int)=  0.00053809
 Variable       Old X    -DE/DX   Delta X   Delta X   Delta X     New X
                                 (Linear)    (Quad)   (Total)
    R1        2.91226  -0.00752   0.00000  -0.02494  -0.02494   2.88732
    R2        2.91942  -0.00504   0.00000  -0.01691  -0.01691   2.90252
    R3        2.07034  -0.00323   0.00000  -0.00899  -0.00899   2.06136
    R4        2.71501  -0.01286   0.00000  -0.03078  -0.03078   2.68423
    R5        2.90804  -0.01180   0.00000  -0.03888  -0.03888   2.86916
    R6        2.07193  -0.00036   0.00000  -0.00100  -0.00100   2.07094
    R7        2.72664  -0.00942   0.00000  -0.02303  -0.02303   2.70361
    R8        2.88947  -0.00590   0.00000  -0.01890  -0.01890   2.87057
    R9        2.07186  -0.00448   0.00000  -0.01252  -0.01252   2.05934
   R10        2.72955  -0.01219   0.00000  -0.02995  -0.02995   2.69961
   R11        2.89432  -0.01027   0.00000  -0.03311  -0.03311   2.86121
   R12        2.07114  -0.00061   0.00000  -0.00170  -0.00170   2.06945
   R13        2.73486  -0.01177   0.00000  -0.02919  -0.02919   2.70568
   R14        2.06655  -0.00185   0.00000  -0.00513  -0.00513   2.06143
   R15        2.06692   0.00126   0.00000   0.00350   0.00350   2.07041
   R16        2.69803  -0.00889   0.00000  -0.02064  -0.02064   2.67739
   R17        2.06744  -0.00137   0.00000  -0.00379  -0.00379   2.06364
   R18        2.06375  -0.00288   0.00000  -0.00792  -0.00792   2.05583
   R19        2.71374  -0.00079   0.00000  -0.00189  -0.00189   2.71185
   R20        1.84859  -0.01747   0.00000  -0.03268  -0.03268   1.81591
   R21        1.86116  -0.01637   0.00000  -0.03138  -0.03138   1.82978
   R22        1.85284  -0.01809   0.00000  -0.03413  -0.03413   1.81871
   R23        1.85810  -0.01946   0.00000  -0.03708  -0.03708   1.82102
   R24        1.85606  -0.01950   0.00000  -0.03701  -0.03701   1.81906
   R25        1.84185  -0.01982   0.00000  -0.03659  -0.03659   1.80526
    A1        1.98241  -0.00116   0.00000   0.00543   0.00364   1.98605
    A2        1.90725  -0.00251   0.00000  -0.04092  -0.04094   1.86632
    A3        1.91632   0.00453   0.00000   0.04767   0.04684   1.96316
    A4        1.91587  -0.00036   0.00000  -0.02548  -0.02578   1.89008
    A5        1.86401   0.00147   0.00000   0.03255   0.03131   1.89532
    A6        1.87470  -0.00192   0.00000  -0.01867  -0.01768   1.85702
    A7        2.01816   0.00267   0.00000   0.00299   0.00286   2.02102
    A8        1.90293  -0.00128   0.00000  -0.01536  -0.01568   1.88725
    A9        1.91685  -0.00165   0.00000  -0.00410  -0.00408   1.91276
   A10        1.87101  -0.00278   0.00000  -0.02917  -0.02937   1.84164
   A11        1.90743  -0.00087   0.00000  -0.00192  -0.00186   1.90556
   A12        1.83848   0.00409   0.00000   0.05206   0.05221   1.89069
   A13        1.99774   0.00043   0.00000   0.00963   0.00883   2.00657
   A14        1.90529  -0.00236   0.00000  -0.03272  -0.03264   1.87265
   A15        1.91910   0.00253   0.00000   0.02882   0.02831   1.94741
   A16        1.91061  -0.00026   0.00000  -0.01613  -0.01620   1.89442
   A17        1.89431   0.00036   0.00000   0.01928   0.01858   1.91289
   A18        1.82922  -0.00080   0.00000  -0.01049  -0.01004   1.81918
   A19        2.03269   0.00262   0.00000   0.00234   0.00250   2.03519
   A20        1.92342  -0.00011   0.00000  -0.01208  -0.01179   1.91163
   A21        1.85547  -0.00886   0.00000  -0.05192  -0.05173   1.80374
   A22        1.91215  -0.00266   0.00000  -0.00839  -0.00900   1.90315
   A23        1.87042   0.00541   0.00000   0.02805   0.02771   1.89813
   A24        1.86055   0.00384   0.00000   0.04716   0.04672   1.90727
   A25        1.94503  -0.00024   0.00000  -0.01230  -0.01258   1.93244
   A26        1.95014  -0.00593   0.00000  -0.03267  -0.03350   1.91664
   A27        1.90850   0.00387   0.00000   0.02137   0.02136   1.92986
   A28        1.90692   0.00071   0.00000  -0.00860  -0.00915   1.89777
   A29        1.88938  -0.00329   0.00000  -0.02258  -0.02236   1.86702
   A30        1.86104   0.00516   0.00000   0.05802   0.05829   1.91932
   A31        1.94707  -0.00211   0.00000  -0.03148  -0.03116   1.91591
   A32        1.95505  -0.00054   0.00000  -0.01941  -0.01900   1.93605
   A33        1.87878  -0.01509   0.00000  -0.05863  -0.05829   1.82049
   A34        1.92505  -0.00100   0.00000  -0.00945  -0.01202   1.91303
   A35        1.87305   0.00979   0.00000   0.06211   0.06064   1.93369
   A36        1.88113   0.00953   0.00000   0.06310   0.06203   1.94315
   A37        1.84531  -0.00058   0.00000  -0.00328  -0.00328   1.84203
   A38        1.85742   0.00144   0.00000   0.00812   0.00812   1.86555
   A39        1.84278  -0.00021   0.00000  -0.00116  -0.00116   1.84162
   A40        1.81341   0.00624   0.00000   0.03519   0.03519   1.84860
   A41        1.81295   0.00632   0.00000   0.03567   0.03567   1.84862
   A42        1.85402   0.00649   0.00000   0.03659   0.03659   1.89061
    D1       -3.11453  -0.00383   0.00000  -0.09050  -0.09053   3.07813
    D2        1.05982  -0.00105   0.00000  -0.04275  -0.04285   1.01696
    D3       -0.94639  -0.00432   0.00000  -0.09420  -0.09423  -1.04062
    D4        1.02302  -0.00068   0.00000  -0.03073  -0.03100   0.99201
    D5       -1.08583   0.00210   0.00000   0.01702   0.01667  -1.06915
    D6       -3.09203  -0.00117   0.00000  -0.03442  -0.03471  -3.12674
    D7       -1.02898   0.00048   0.00000  -0.01179  -0.01140  -1.04038
    D8       -3.13782   0.00326   0.00000   0.03596   0.03627  -3.10155
    D9        1.13916  -0.00001   0.00000  -0.01548  -0.01511   1.12406
   D10       -1.00033   0.00258   0.00000   0.05350   0.05343  -0.94690
   D11        3.13473   0.00442   0.00000   0.09294   0.09281  -3.05564
   D12        1.13705   0.00530   0.00000   0.10795   0.10815   1.24520
   D13        1.14057  -0.00177   0.00000  -0.01494  -0.01489   1.12568
   D14       -1.00755   0.00007   0.00000   0.02450   0.02448  -0.98306
   D15       -3.00523   0.00096   0.00000   0.03951   0.03982  -2.96541
   D16       -3.11544  -0.00341   0.00000  -0.03217  -0.03235   3.13539
   D17        1.01962  -0.00157   0.00000   0.00727   0.00702   1.02665
   D18       -0.97806  -0.00069   0.00000   0.02228   0.02236  -0.95570
   D19       -1.45382  -0.00172   0.00000  -0.04455  -0.04535  -1.49917
   D20        0.70277   0.00053   0.00000   0.01132   0.01218   0.71495
   D21        2.75720  -0.00011   0.00000  -0.01108  -0.01114   2.74606
   D22        1.05440  -0.00094   0.00000   0.00108   0.00091   1.05531
   D23       -1.13716   0.00071   0.00000   0.02133   0.02142  -1.11574
   D24        3.13638   0.00107   0.00000   0.00013   0.00001   3.13639
   D25       -3.10278  -0.00293   0.00000  -0.03884  -0.03885   3.14155
   D26        0.98884  -0.00129   0.00000  -0.01859  -0.01834   0.97050
   D27       -1.02081  -0.00093   0.00000  -0.03979  -0.03975  -1.06056
   D28       -1.11863  -0.00003   0.00000   0.00591   0.00577  -1.11287
   D29        2.97299   0.00162   0.00000   0.02615   0.02628   2.99927
   D30        0.96334   0.00197   0.00000   0.00496   0.00487   0.96821
   D31       -2.97052  -0.00045   0.00000   0.00706   0.00713  -2.96339
   D32       -0.73940   0.00116   0.00000   0.00654   0.00651  -0.73289
   D33        1.26579  -0.00037   0.00000  -0.00139  -0.00143   1.26436
   D34       -0.96088   0.00236   0.00000   0.01841   0.01823  -0.94266
   D35        1.17802  -0.00116   0.00000  -0.02517  -0.02477   1.15325
   D36       -3.04902   0.00408   0.00000   0.04030   0.04022  -3.00880
   D37        1.18437  -0.00062   0.00000  -0.03003  -0.03023   1.15413
   D38       -2.95992  -0.00414   0.00000  -0.07361  -0.07323  -3.03315
   D39       -0.90377   0.00110   0.00000  -0.00815  -0.00824  -0.91201
   D40       -3.11167  -0.00150   0.00000  -0.04056  -0.04086   3.13066
   D41       -0.97276  -0.00502   0.00000  -0.08414  -0.08386  -1.05662
   D42        1.08338   0.00022   0.00000  -0.01868  -0.01887   1.06451
   D43       -0.81632  -0.00287   0.00000  -0.07364  -0.07392  -0.89024
   D44        1.38108  -0.00037   0.00000  -0.02867  -0.02836   1.35272
   D45       -2.86201  -0.00090   0.00000  -0.04363  -0.04365  -2.90566
   D46        0.89815  -0.00351   0.00000  -0.03801  -0.03817   0.85999
   D47       -1.26954  -0.00019   0.00000   0.01287   0.01272  -1.25682
   D48        2.94869  -0.00203   0.00000  -0.01617  -0.01614   2.93255
   D49        3.09538  -0.00388   0.00000  -0.06004  -0.06003   3.03535
   D50        0.92768  -0.00056   0.00000  -0.00916  -0.00914   0.91855
   D51       -1.13726  -0.00240   0.00000  -0.03820  -0.03800  -1.17527
   D52       -1.17573   0.00220   0.00000   0.00631   0.00626  -1.16947
   D53        2.93976   0.00552   0.00000   0.05719   0.05715   2.99691
   D54        0.87481   0.00368   0.00000   0.02815   0.02829   0.90310
   D55       -2.93345   0.00002   0.00000   0.04273   0.04243  -2.89102
   D56       -0.74836   0.00109   0.00000   0.03135   0.03060  -0.71776
   D57        1.29786   0.00261   0.00000   0.05912   0.06017   1.35802
   D58       -0.74475   0.00002   0.00000  -0.02795  -0.02857  -0.77332
   D59       -2.86683   0.00000   0.00000  -0.01195  -0.01209  -2.87892
   D60        1.36646  -0.00188   0.00000  -0.02099  -0.02023   1.34623
   D61        3.09345   0.00090   0.00000   0.01801   0.01809   3.11154
   D62       -1.09176  -0.00444   0.00000  -0.01710  -0.01948  -1.11123
   D63        0.98150   0.00471   0.00000   0.03872   0.04101   1.02252
         Item               Value     Threshold  Converged?
 Maximum Force            0.019819     0.000450     NO 
 RMS     Force            0.005753     0.000300     NO 
 Maximum Displacement     0.270785     0.001800     NO 
 RMS     Displacement     0.085669     0.001200     NO 
 Predicted change in Energy=-1.006658D-02
 GradGradGradGradGradGradGradGradGradGradGradGradGradGradGradGradGradGrad

                          Input orientation:                          
 ---------------------------------------------------------------------
 Center     Atomic      Atomic             Coordinates (Angstroms)
 Number     Number       Type             X           Y           Z
 ---------------------------------------------------------------------
      1          6           0        0.007542   -0.079408   -0.062957
      2          6           0        1.534675   -0.056719   -0.020051
      3          6           0       -0.590099    0.678572   -1.257705
      4          6           0        2.171595   -0.718987    1.188647
      5          1           0        1.859394    0.989416    0.013732
      6          1           0       -0.343133    0.395827    0.854143
      7          6           0       -0.129870    2.119387   -1.398156
      8          1           0       -1.673155    0.670902   -1.137292
      9          6           0        1.882039   -2.191970    1.385972
     10          1           0        1.888770   -0.174601    2.095788
     11          1           0       -0.301333    2.671265   -0.472949
     12          1           0        0.940418    2.146399   -1.630809
     13          1           0        2.057650   -2.731254    0.452768
     14          1           0        0.854709   -2.346171    1.708984
     15          8           0       -0.862931    2.779292   -2.415264
     16          1           0       -0.898601    2.160552   -3.149625
     17          8           0       -0.368306   -0.017212   -2.485510
     18          1           0        0.576929   -0.223406   -2.525193
     19          8           0       -0.516445   -1.399644   -0.056179
     20          1           0       -0.523572   -1.678553   -0.977272
     21          8           0        2.057007   -0.651664   -1.211723
     22          1           0        3.002676   -0.759135   -1.060838
     23          8           0        3.574479   -0.552792    0.955632
     24          1           0        4.016383   -1.148988    1.568717
     25          8           0        2.814367   -2.604460    2.395910
     26          1           0        2.662209   -3.528247    2.585829
 ---------------------------------------------------------------------
                    Distance matrix (angstroms):
                    1          2          3          4          5
     1  C    0.000000
     2  C    1.527904   0.000000
     3  C    1.535946   2.566535   0.000000
     4  C    2.580446   1.518294   3.945220   0.000000
     5  H    2.139538   1.095894   2.777263   2.096792   0.000000
     6  H    1.090822   2.120183   2.144956   2.771022   2.431001
     7  C    2.576109   3.066810   1.519041   4.477126   2.688388
     8  H    2.131174   3.473879   1.089756   4.703604   3.728969
     9  C    3.174280   2.580089   4.619578   1.514087   3.464791
    10  H    2.865006   2.148500   4.256596   1.095103   2.385531
    11  H    2.798160   3.319328   2.161031   4.513323   2.781045
    12  H    2.877957   2.793102   2.153185   4.204233   2.210801
    13  H    3.391343   2.765899   4.643619   2.145628   3.751726
    14  H    2.999281   2.948475   4.476358   2.157005   3.874199
    15  O    3.803056   4.419108   2.414002   5.868090   4.063831
    16  H    3.919953   4.542176   2.422974   6.044705   4.357169
    17  O    2.452324   3.114705   1.428571   4.521395   3.496020
    18  H    2.531313   2.687155   1.944748   4.071998   3.092215
    19  O    1.420434   2.451906   2.401680   3.039481   3.370031
    20  H    1.917113   2.789802   2.374680   3.588300   3.711964
    21  O    2.418149   1.430689   2.962905   2.404046   2.057653
    22  H    3.229338   1.931748   3.874763   2.398434   2.349303
    23  O    3.739606   2.314918   4.874302   1.431782   2.491405
    24  H    4.458383   3.142628   5.705113   1.931993   3.412237
    25  O    4.505573   3.737040   5.976420   2.329303   4.416186
    26  H    5.094882   4.484802   6.561066   3.175652   5.260179
                    6          7          8          9         10
     6  H    0.000000
     7  C    2.844115   0.000000
     8  H    2.410485   2.132577   0.000000
     9  C    3.454118   5.512436   5.215583   0.000000
    10  H    2.616957   4.641652   4.884157   2.138612   0.000000
    11  H    2.634490   1.090860   2.514896   5.645685   4.415191
    12  H    3.299545   1.095616   3.041613   5.367408   4.491541
    13  H    3.962764   5.633816   5.293568   1.092032   3.043765
    14  H    3.111935   5.528556   4.857378   1.087899   2.436107
    15  O    4.079229   1.416814   2.595184   6.833572   6.053671
    16  H    4.410550   1.913188   2.620777   6.873722   6.382534
    17  O    3.365192   2.409201   1.998455   4.978152   5.109546
    18  H    3.556667   2.694153   2.790866   4.569001   4.803830
    19  O    2.020505   3.786017   2.606520   2.908661   3.452065
    20  H    2.773030   3.841418   2.620513   3.411083   4.186283
    21  O    3.335523   3.534956   3.958387   3.025091   3.345971
    22  H    4.024367   4.267613   4.890219   3.048888   3.398051
    23  O    4.032105   5.138391   5.780607   2.395089   2.069927
    24  H    4.680006   6.056074   6.557845   2.382568   2.398744
    25  O    4.620453   6.736335   6.584024   1.435047   2.617445
    26  H    5.237288   7.454101   7.091535   1.958050   3.476390
                   11         12         13         14         15
    11  H    0.000000
    12  H    1.777096   0.000000
    13  H    5.967325   5.420425   0.000000
    14  H    5.592131   5.598639   1.781414   0.000000
    15  O    2.024759   2.065911   6.864511   6.799271   0.000000
    16  H    2.789651   2.385161   6.756214   6.854979   0.960937
    17  O    3.358988   2.669173   4.678116   4.951121   2.840779
    18  H    3.655431   2.558911   4.165344   4.744634   3.331888
    19  O    4.097837   4.144434   2.942478   2.427299   4.811324
    20  H    4.384592   4.147365   3.133034   3.092143   4.696314
    21  O    4.141185   3.041638   2.663687   3.584328   4.663261
    22  H    4.798931   3.608311   2.659573   3.847643   5.412749
    23  O    5.239972   4.573138   2.701729   3.343785   6.492790
    24  H    6.115996   5.527940   2.754187   3.383653   7.423692
    25  O    6.765443   6.503601   2.089138   2.092568   8.102759
    26  H    7.521480   7.276415   2.355979   2.330926   8.787639
                   16         17         18         19         20
    16  H    0.000000
    17  O    2.337716   0.000000
    18  H    2.872344   0.968276   0.000000
    19  O    4.731854   2.799056   2.945341   0.000000
    20  H    4.427018   2.249209   2.392617   0.962421   0.000000
    21  O    4.516596   2.811975   2.024658   2.918460   2.787267
    22  H    5.301657   3.734121   2.883677   3.715347   3.645098
    23  O    6.650099   5.260595   4.605426   4.298439   4.668777
    24  H    7.574489   6.078090   5.426477   4.821789   5.231988
    25  O    8.200271   6.375855   5.907014   4.307973   4.835029
    26  H    8.828207   6.872399   6.433733   4.649193   5.125062
                   21         22         23         24         25
    21  O    0.000000
    22  H    0.963643   0.000000
    23  O    2.647626   2.106107   0.000000
    24  H    3.437635   2.845022   0.962602   0.000000
    25  O    4.171574   3.922982   2.619449   2.060944   0.000000
    26  H    4.802333   4.591523   3.513277   2.920476   0.955303
                   26
    26  H    0.000000
 Stoichiometry    C6H14O6
 Framework group  C1[X(C6H14O6)]
 Deg. of freedom    72
 Full point group                 C1      NOp   1
 Largest Abelian subgroup         C1      NOp   1
 Largest concise Abelian subgroup C1      NOp   1
                         Standard orientation:                         
 ---------------------------------------------------------------------
 Center     Atomic      Atomic             Coordinates (Angstroms)
 Number     Number       Type             X           Y           Z
 ---------------------------------------------------------------------
      1          6           0       -0.518244    0.630388   -0.604384
      2          6           0        0.328375   -0.526924   -0.076792
      3          6           0       -2.006622    0.525845   -0.239786
      4          6           0        1.791163   -0.514469   -0.483380
      5          1           0       -0.080246   -1.460175   -0.480593
      6          1           0       -0.430390    0.618438   -1.691597
      7          6           0       -2.675414   -0.777273   -0.642385
      8          1           0       -2.520685    1.347538   -0.737910
      9          6           0        2.606192    0.684481   -0.046683
     10          1           0        1.869958   -0.623386   -1.570201
     11          1           0       -2.529229   -0.973799   -1.705392
     12          1           0       -2.247431   -1.607006   -0.069021
     13          1           0        2.450134    0.869233    1.018233
     14          1           0        2.330044    1.569976   -0.615159
     15          8           0       -4.073428   -0.707902   -0.423051
     16          1           0       -4.178506   -0.303795    0.442429
     17          8           0       -2.224966    0.766771    1.151291
     18          1           0       -1.613360    0.193154    1.635503
     19          8           0       -0.035015    1.895837   -0.176879
     20          1           0       -0.434438    2.045933    0.685783
     21          8           0        0.237536   -0.576264    1.350158
     22          1           0        0.907437   -1.207265    1.635948
     23          8           0        2.319852   -1.685396    0.148615
     24          1           0        3.277565   -1.596094    0.111004
     25          8           0        3.965263    0.301985   -0.303551
     26          1           0        4.532510    1.034700   -0.071249
 ---------------------------------------------------------------------
 Rotational constants (GHZ):           1.9391207           0.4541330           0.4199703
 Standard basis: def2TZVPP (5D, 7F)
 There are   642 symmetry adapted cartesian basis functions of A   symmetry.
 There are   568 symmetry adapted basis functions of A   symmetry.
   568 basis functions,   850 primitive gaussians,   642 cartesian basis functions
    49 alpha electrons       49 beta electrons
       nuclear repulsion energy       827.7294309286 Hartrees.
 NAtoms=   26 NActive=   26 NUniq=   26 SFac= 1.00D+00 NAtFMM=   60 NAOKFM=F Big=F
 Integral buffers will be    131072 words long.
 Raffenetti 2 integral format.
 Two-electron integral symmetry is turned on.
 Nuclear repulsion after empirical dispersion term =      827.7108446143 Hartrees.
 One-electron integrals computed using PRISM.
   1 Symmetry operations used in ECPInt.
 ECPInt:  NShTT=   23436 NPrTT=   62434 LenC2=   21744 LenP2D=   45197.
 LDataN:  DoStor=T MaxTD1= 6 Len=  172
[...]
 -0.00017166,-0.00023737,0.00009060,0.00316740,0.00044530,-0.00108752,-
 0.00125080,0.00082258,-0.00103610,0.10520465,-0.05531089,-0.21320670,0
 .02262787,-0.01364933,-0.02084476,-0.00335707,-0.01478043,-0.04903732,
 0.00448041,0.00128441,-0.00152446,0.00202137,-0.00282416,0.00131880,0.
 00000910,-0.01027846,-0.02756649,-0.00218441,0.00413674,0.00483539,0.0
 0497311,-0.00040102,0.00131757,-0.00187308,-0.00146082,-0.00160553,0.0
 0038756,0.00011993,0.00034733,0.00024472,0.00017934,0.00077137,-0.0002
 8623,-0.00064848,-0.00045395,0.00003306,-0.00117972,0.00051875,0.00076
 467,0.00206420,-0.00053634,-0.00073812,0.00057818,-0.00466093,0.003980
 79,0.00004600,-0.00036591,-0.00095809,-0.00024753,0.00550075,-0.002475
 47,-0.00039961,-0.00146528,0.00063272,0.11143419,0.37317787,-0.0066859
 4,-0.02615237,-0.09760596,0.00115661,-0.00409238,0.00139953,0.01029540
 ,0.02880142,-0.00572556,0.00173558,-0.00011782,-0.00040059,-0.00114490
 ,0.00019448,0.00109831,-0.01368782,-0.03169627,0.00409037,-0.00343338,
 -0.00139347,-0.00372875,0.00091873,-0.00052414,0.00116726,0.00116612,0
 .00147162,-0.00323255,0.00006026,0.00003176,0.00019051,-0.00010172,0.0
 0070429,0.00040829,0.00042910,0.00015375,0.00005672,-0.00024933,0.0002
 5581,0.00030578,-0.00427643,0.00029340,-0.00078952,0.00022230,0.002939
 00,-0.00094346,0.00007015,-0.00063376,0.00064207,0.00207266,0.01014845
 ,-0.00191750,-0.00160420,0.00003213,-0.00010340,0.02922433,0.11865302,
 0.58103042,-0.00245956,-0.00748913,-0.01504403,-0.00049762,-0.00396213
 ,-0.00293673,0.00255187,-0.00022098,-0.00014140,0.00005204,-0.00017645
 ,0.00001168,-0.00059146,0.00029376,0.00050316,-0.00007785,0.00101681,0
 .00084554,-0.00007757,0.00026520,0.00029330,-0.00057345,0.00064791,0.0
 0004976,0.00016181,-0.00007498,-0.00122799,0.00003174,0.00008217,0.000
 13469,0.00001943,-0.00002224,-0.00005616,-0.00015111,-0.00023306,0.000
 06110,-0.00040069,0.00035410,0.00013740,-0.00037238,-0.00002496,-0.000
 03521,-0.00020574,-0.00011234,0.00001118,0.00012983,-0.00002452,-0.000
 03668,-0.00314519,0.00195576,-0.00040528,-0.00021021,-0.00241203,0.001
 83535,-0.01072465,-0.01948846,-0.01229950,0.01616395,-0.00394960,-0.02
 221235,-0.04271917,-0.00038889,-0.00083693,-0.00067777,0.00084206,-0.0
 0414295,-0.00348525,-0.00005812,-0.00000027,-0.00026503,-0.00017314,0.
 00014334,0.00009753,-0.00306397,-0.00646844,0.00053788,-0.00039498,-0.
 00065354,-0.00057168,0.00031370,-0.00031469,0.00041022,-0.00025761,0.0
 0007656,0.00074285,-0.00002252,-0.00009921,0.00004283,-0.00003776,0.00
 035981,0.00017138,0.00014369,0.00016304,-0.00004602,0.00041985,-0.0000
 5515,-0.00019249,0.00002978,0.00034681,-0.00007195,0.00001325,0.001045
 60,-0.00024452,0.00008765,-0.00055177,0.00036148,0.00085209,0.00489968
 ,-0.00235088,-0.00170732,-0.00017721,0.00101998,-0.02122999,-0.0741463
 1,-0.10139561,0.02782127,0.10311480,-0.00011713,-0.00388879,0.00068402
 ,-0.00006925,0.00129309,0.00054105,-0.00037804,0.00709792,0.00383344,-
 0.00043777,-0.00011708,-0.00032747,0.00083179,0.00015618,-0.00007896,-
 0.00088444,0.00148438,0.00095944,0.00018020,-0.00136473,-0.00136147,0.
 00029042,-0.00040265,-0.00009481,-0.00017042,0.00014397,-0.00061688,0.
 00000095,0.00007629,-0.00001091,-0.00004969,-0.00062088,0.00003928,0.0
 0009895,0.00016137,0.00007403,-0.00025515,0.00009767,0.00018740,-0.000
 14180,-0.00008087,-0.00024071,-0.00022701,0.00033539,-0.00082810,-0.00
 014344,0.00076746,0.00002508,-0.00064484,-0.00572114,0.00096177,0.0024
 7494,0.00130197,-0.00058691,-0.02795735,-0.14854144,-0.47950918,0.0269
 1349,0.14762238,0.47727202,-0.01854417,0.02138831,0.04357766,-0.109834
 03,0.02750137,0.05222565,0.00415414,-0.00245582,-0.00118985,-0.0013565
 4,-0.00372946,-0.00258126,0.00478482,0.00399249,-0.00058906,-0.0089128
 9,-0.00030085,-0.00028726,-0.00078173,-0.00028710,0.00071308,0.0003297
 6,-0.00010802,0.00040145,0.00043712,0.00130471,0.00074906,0.00023234,0
 .00101693,-0.00193134,-0.00000539,0.00001453,-0.00010037,0.00009326,0.
 00020587,0.00001117,-0.00023711,-0.00044405,-0.00034945,0.00013512,0.0
 0027579,-0.00059270,0.00020493,0.00085399,-0.00058830,-0.00013067,-0.0
 0055558,0.00034388,-0.00969737,0.00300735,-0.00716400,-0.00565091,0.00
 150032,0.00251177,0.00249265,0.00003138,-0.00096835,0.00050889,0.00023
 170,0.00012953,0.64327801,0.00133252,-0.00296178,-0.00524085,0.0156371
 8,-0.09562302,-0.05940040,-0.00096753,-0.00057190,-0.00065093,-0.00211
 455,0.00733716,0.00562098,0.01731749,-0.01201174,-0.03804172,0.0002539
 0,0.00097643,0.00044004,-0.00166929,-0.00046480,-0.00106509,0.00007566
 ,0.00010080,0.00007560,-0.00208956,-0.00166868,-0.00232387,0.00123331,
 0.00014433,0.00297956,0.00021045,0.00029697,0.00018539,0.00065096,0.00
 013971,-0.00040513,-0.00014416,0.00177271,0.00173311,-0.00012750,0.000
 13575,0.00092842,0.00102973,-0.00011571,0.00093136,-0.00016843,-0.0001
 8263,-0.00011155,0.00094937,0.00265786,0.00166632,0.00216334,-0.002645
 10,-0.00021083,-0.00032541,0.00443564,0.00210534,0.00131557,-0.0003893
 9,0.00020146,-0.08306364,0.10945772,0.00625026,-0.00427709,-0.00628350
 ,0.00652043,-0.05221479,-0.18106355,0.00024519,-0.00100039,-0.00476877
 ,0.01660491,-0.01820143,-0.04880483,0.00833272,-0.01506554,-0.01743067
 ,-0.00048278,0.00029803,0.00116539,0.00119308,0.00054108,-0.00014885,-
 0.00001193,0.00004725,0.00085393,0.00066938,-0.00355030,0.00130340,-0.
 00487737,0.00426862,-0.00583835,-0.00062326,0.00054165,0.00038732,-0.0
 0057506,-0.00037309,-0.00033275,-0.00011696,0.00128281,-0.00061410,-0.
 00019760,0.00000938,-0.00051336,-0.00026374,0.00008905,0.00077536,0.00
 037445,-0.00038595,0.00002474,-0.00675024,0.00238781,0.00318534,0.0023
 5723,0.00024220,-0.00172039,0.00034609,0.00114138,0.00292579,0.0006689
 6,0.00068458,-0.00116162,0.01588847,0.09174559,0.30954859,0.00005508,0
 .00203050,0.00266692,-0.01922989,0.00256570,0.00418408,-0.00013737,0.0
 0001848,0.00005915,0.00299595,-0.00024335,-0.00144017,0.00080048,-0.00
 082624,-0.00140332,-0.00050866,-0.00012529,-0.00039298,-0.00028387,0.0
 0004567,-0.00018453,0.00008696,-0.00002497,0.00001141,-0.00005056,-0.0
 0065507,0.00073092,-0.00130744,0.00015002,-0.00035347,0.00005486,-0.00
 001441,0.00000134,0.00008356,0.00020830,-0.00005872,-0.00000482,-0.000
 46626,0.00017258,-0.00003431,-0.00017971,-0.00010800,0.00022046,-0.000
 17932,0.00023119,-0.00004104,0.00005687,-0.00006868,0.00134376,-0.0001
 9080,-0.00014068,-0.00174484,0.00003099,-0.00053609,0.00097745,0.00025
 623,-0.00023984,-0.00016310,-0.00001796,-0.00008143,-0.50433490,0.0480
 9637,-0.04585794,0.52399403,-0.00012310,-0.00165081,-0.00216976,0.0189
 0546,-0.00207610,-0.00187183,-0.00040480,0.00015457,-0.00008742,-0.000
 66006,0.00226500,0.00056606,0.00101244,-0.00038089,-0.00000014,0.00058
 140,0.00031984,0.00004695,0.00049800,-0.00004409,0.00001465,-0.0000589
 0,-0.00002613,-0.00000001,0.00016315,0.00040523,0.00135345,0.00003760,
 -0.00023837,-0.00021118,-0.00000518,-0.00000930,0.00000440,-0.00007132
 ,-0.00005342,0.00007417,-0.00035403,-0.00085418,-0.00013619,0.00004736
 ,-0.00015047,-0.00046193,-0.00031518,0.00000978,-0.00013838,0.00008270
 ,0.00003819,0.00002894,0.00003776,0.00043954,0.00006306,0.00019903,-0.
 00072919,0.00008660,-0.00022897,0.00012756,0.00039645,0.00030019,0.000
 27731,-0.00000474,0.03135616,-0.01494377,-0.00927637,-0.05101293,0.020
 32935,0.00134994,-0.00355325,-0.00696315,0.04142561,-0.00475289,0.0017
 5597,-0.00002606,-0.00050879,-0.00095643,0.00680871,0.00025986,-0.0037
 6480,0.00000157,-0.00101570,-0.00006451,0.00202853,-0.00011656,0.00005
 236,-0.00017915,0.00002291,0.00005265,-0.00004826,0.00010407,0.0000694
 1,-0.00027530,0.00057098,-0.00032165,-0.00068371,-0.00012756,0.0008611
 6,0.00005466,0.00006991,-0.00000939,-0.00002234,0.00004157,0.00002802,
 0.00022329,0.00025849,-0.00000611,-0.00011313,-0.00038548,0.00035061,0
 .00011305,0.00006784,-0.00000106,-0.00007786,-0.00011571,0.00006053,-0
 .00227010,0.00079531,-0.00074062,0.00106890,-0.00044973,0.00235770,-0.
 00052947,0.00045490,0.00025830,0.00002873,0.00015943,-0.00006940,-0.08
 988803,-0.00405788,-0.05099765,0.04278961,0.01182251,0.05309884,0.0023
 7106,0.00351603,-0.00548339,-0.04413896,-0.00030576,-0.00414554,-0.001
 77622,-0.00058661,0.00203444,-0.21260517,-0.03370490,0.03826473,0.0013
 2879,-0.00062729,0.00122939,0.00070994,-0.00020767,0.00017710,-0.00016
 113,-0.00071505,0.00028475,-0.00032187,0.00033329,-0.00067499,-0.03618
 452,-0.00987701,0.00493863,-0.03161880,-0.00042216,0.00901776,0.000011
 69,-0.00007404,-0.00000452,0.00002150,0.00000860,-0.00000274,0.0014487
 6,0.00018283,-0.00100304,0.00158194,-0.00506578,0.00105541,-0.00008460
 ,0.00075900,-0.00072251,-0.00005261,-0.00019287,0.00025700,0.00026778,
 0.00012217,-0.00128487,-0.00025995,-0.00008007,0.00048537,-0.00072237,
 -0.00090661,-0.00051554,0.00012038,0.00014961,0.00040926,0.00065384,0.
 00009022,0.00002460,-0.00177038,0.00055648,-0.00017722,0.45502917,-0.0
 0058117,-0.00326072,0.00469267,0.02336739,0.00300929,-0.00240618,0.001
 35506,0.00027065,-0.00085470,0.00592046,-0.08719315,0.01737989,0.00020
 660,0.00198244,-0.00168919,-0.00046076,0.00008481,0.00006854,-0.000116
 95,0.00026329,-0.00022802,0.00025385,-0.00020296,0.00040267,-0.0408537
 8,-0.00797339,0.01070780,0.01296064,0.00711104,0.00070209,-0.00004826,
 0.00003958,0.00002773,0.00002260,-0.00001924,-0.00005471,0.00050594,0.
 00335594,-0.00006664,-0.00087252,-0.00795256,0.00203644,0.00013341,-0.
 00013885,0.00025777,-0.00001511,-0.00000118,-0.00006998,-0.00008088,0.
 00035475,0.00042639,0.00002764,-0.00009232,-0.00012144,0.00030707,0.00
 206990,-0.00039063,0.00014484,-0.00019477,0.00005264,-0.00000027,0.003
 04204,0.00018736,-0.00035143,-0.00319572,-0.00035852,-0.11980476,0.332
 52637,0.00040378,0.00305193,-0.00515552,-0.03194082,-0.00252809,-0.003
 09871,-0.00137561,-0.00044947,0.00046012,0.01168433,0.01477791,-0.0847
 1370,0.00037061,-0.00098084,0.00140647,-0.00039382,0.00021957,0.000285
 31,0.00020857,-0.00038339,0.00012282,-0.00029174,0.00025247,-0.0004252
 1,0.00402568,0.00434011,-0.00081115,0.03224880,0.00531639,0.00221839,-
 0.00006353,0.00006808,0.00003517,-0.00004868,-0.00005998,0.00002697,-0
 .00040630,0.00174224,0.00081179,-0.00041331,0.00089052,0.00159328,-0.0
 0013975,0.00035508,-0.00021980,0.00004417,-0.00012203,0.00011337,-0.00
 060507,0.00026719,-0.00011892,0.00067172,-0.00019847,0.00073808,-0.000
 20834,-0.00079601,0.00056232,0.00023717,0.00019684,-0.00002851,-0.0091
 1735,0.00182196,-0.00030600,0.00050410,-0.00075188,0.00385241,0.096661
 94,-0.23819777,0.27063573,0.00011679,0.00136562,-0.00182958,-0.0080714
 8,-0.00109440,0.00206445,-0.00062530,-0.00007043,0.00027455,-0.0290199
 1,0.02818414,-0.02571151,0.00018053,-0.00018579,0.00040673,0.00007980,
 0.00000746,0.00001512,-0.00010432,-0.00002073,-0.00002897,-0.00005695,
 0.00007956,-0.00014754,-0.00279571,-0.00030027,-0.00264271,-0.00020555
 ,0.00041433,0.00006420,0.00000002,0.00001178,0.00000213,0.00004052,0.0
 0002791,-0.00002476,0.00002059,-0.00023986,0.00020426,0.00019117,0.000
 90332,-0.00035556,0.00008062,-0.00004493,0.00007657,-0.00001037,0.0000
 2118,-0.00002036,0.00016846,-0.00014397,0.00003965,-0.00014152,0.00005
 127,-0.00013308,0.00030914,-0.00043892,0.00024526,-0.00009672,0.000031
 38,-0.00006273,0.00122578,-0.00013717,0.00129286,-0.00023808,-0.000328
 94,-0.00113085,-0.13945259,0.12529694,-0.10722221,0.17663786,0.0001903
 3,0.00123179,-0.00068258,-0.00249505,-0.00092445,-0.00071349,-0.000331
 17,-0.00005810,0.00018390,-0.00091016,0.00527980,-0.00392177,-0.000007
 48,0.00010926,0.00015839,0.00002997,-0.00002415,0.00001248,0.00006982,
 -0.00007061,0.00008934,-0.00007955,0.00005487,-0.00011253,-0.00708361,
 0.00189678,-0.00253093,-0.00035300,-0.00022965,0.00070463,0.00001116,-
 0.00001158,-0.00000741,-0.00003001,-0.00001239,0.00001842,0.00025896,-
 0.00034155,0.00021517,0.00092170,-0.00042260,0.00059238,-0.00007058,0.
 00004344,-0.00009378,0.00001379,-0.00000315,0.00002645,-0.00010051,-0.
 00008795,-0.00010380,0.00012776,0.00002508,0.00013728,0.00014789,-0.00
 065587,0.00018870,-0.00000970,0.00009960,-0.00004184,-0.00138130,-0.00
 015844,-0.00089827,0.00053001,0.00024605,0.00134261,0.16264378,-0.2413
 0882,0.20631973,-0.15624665,0.23540791,0.00005984,-0.00005621,0.000175
 83,0.00011503,0.00032066,-0.00121520,0.00000264,0.00004457,-0.00002728
 ,0.00234868,-0.00477470,0.00392838,0.00007432,-0.00000867,-0.00008824,
 -0.00004880,0.00001263,0.00003009,-0.00005130,0.00004498,-0.00002261,0
 .00002895,-0.00001537,0.00001376,0.00213929,0.00029832,0.00267896,0.00
 210363,-0.00052624,-0.00031195,0.00000037,0.00000234,-0.00000114,0.000
 01946,0.00000152,-0.00000671,-0.00063230,-0.00024188,-0.00064677,-0.00
 029921,0.00068031,-0.00094835,0.00004543,-0.00005135,0.00004755,-0.000
 01225,0.00001477,-0.00001397,0.00001399,-0.00000099,0.00008009,-0.0000
 2857,0.00001443,-0.00000762,0.00010375,0.00009257,-0.00001173,-0.00003
 909,0.00001040,-0.00001668,-0.00119318,-0.00016805,0.00017061,0.000006
 67,0.00108964,0.00081729,-0.13917917,0.20467445,-0.18865909,0.13511689
 ,-0.20021352,0.18648004,-0.00074417,-0.00235842,0.00029200,0.00092861,
 -0.00093694,0.00182338,0.00032961,0.00011368,0.00030525,-0.00468328,0.
 00243916,-0.00349228,-0.00009916,0.00036415,-0.00041978,0.00008555,0.0
 0003384,0.00005158,-0.00004722,-0.00028281,0.00000861,0.00003283,-0.00
 003077,0.00003363,-0.14236078,0.00835487,-0.07562703,0.00030313,-0.000
 06543,0.00039159,-0.00001503,-0.00001905,0.00000309,0.00001871,0.00001
 748,-0.00001243,-0.00179933,0.00242416,-0.00971916,-0.02291437,0.01714
 249,-0.03405134,-0.00006672,0.00039276,-0.00033398,-0.00000711,-0.0001
 1607,0.00012784,0.00006137,0.00042880,-0.00057886,-0.00011199,-0.00010
 280,0.00021926,-0.00175386,0.00224051,-0.00251916,0.00000194,0.0003191
 9,0.00034548,0.00088963,0.00049001,-0.00100316,-0.00072132,-0.00011686
 ,-0.00030460,0.00507724,-0.00497551,0.00311182,-0.00014205,0.00283202,
 0.00080563,0.19221925,-0.00177862,-0.00046092,-0.00004293,-0.00358149,
 -0.00780628,-0.00410215,0.00013308,0.00016388,-0.00053246,0.02812449,-
 0.02367272,0.03953320,0.00124396,-0.00131178,0.00224498,0.00001446,0.0
 0002540,-0.00001397,-0.00037362,0.00027258,-0.00016929,0.00014672,-0.0
 0006058,0.00016909,0.03815024,-0.10313142,0.04164248,0.00040506,0.0027
 2386,-0.00076443,-0.00003857,0.00005486,0.00001345,0.00019931,0.000051
 20,-0.00010707,-0.00858527,0.00822342,-0.00279435,0.00341589,0.0023426
 7,-0.00042274,0.00035292,-0.00030710,0.00044565,-0.00003662,0.00005552
 ,-0.00012525,0.00019591,0.00004447,0.00053188,-0.00025912,-0.00001136,
 -0.00036785,0.00062571,0.00135526,0.00028560,-0.00001845,-0.00031956,-
 0.00007387,-0.00029376,0.00093984,0.00181251,0.00031074,-0.00017559,-0
 .00063016,0.00314911,-0.00361415,0.00499793,0.00256780,0.00045161,-0.0
 0088324,-0.01506774,0.67289685,0.00038163,-0.00100698,-0.00022217,0.00
 106215,0.00008642,0.00099240,0.00017718,-0.00012364,0.00022487,-0.0062
 9773,0.01095111,-0.00952295,-0.00034756,0.00044556,-0.00051745,-0.0000
 6191,0.00012070,0.00008311,0.00020456,-0.00029638,0.00009336,-0.000081
 32,0.00002254,-0.00005639,-0.07810705,0.00728899,-0.14322256,0.0004212
 7,0.00086479,0.00116065,-0.00000962,-0.00000363,0.00000891,-0.00009625
 ,-0.00003708,0.00004622,-0.03103925,0.01665231,-0.02654394,-0.00683176
 ,0.00205136,0.00389368,-0.00023312,0.00039634,-0.00037175,0.00003901,-
 0.00012137,0.00013041,-0.00026009,0.00040498,-0.00037098,0.00026579,-0
 .00022258,0.00039319,-0.00150513,0.00105779,-0.00015118,0.00061758,-0.
 00014127,0.00040302,-0.00021009,0.00180245,-0.00043839,-0.00048015,-0.
 00064827,0.00033693,-0.00112250,0.00296989,0.00061293,-0.00048590,-0.0
 0057966,-0.00219373,0.14116074,-0.08041921,0.19628104,0.00025228,0.000
 18871,0.00007327,0.00061859,0.00103257,0.00032368,-0.00003302,-0.00002
 338,-0.00002707,-0.00528072,0.00034405,-0.00361775,-0.00013146,0.00022
 025,-0.00027056,-0.00002166,0.00000327,-0.00000027,0.00003640,0.000026
 02,-0.00000599,-0.00001521,0.00000770,-0.00001329,-0.00142226,0.031291
 56,-0.00345238,-0.00002429,-0.00022608,0.00011070,0.00000390,0.0000028
 6,0.00000093,-0.00002154,-0.00000554,0.00000843,0.00094128,-0.00074663
 ,-0.00049145,-0.00079278,0.00102235,0.00011444,-0.00001599,-0.00004159
 ,0.00003158,0.00000604,0.00001479,-0.00001492,-0.00002631,-0.00005252,
 0.00007176,0.00003707,0.00000828,-0.00001915,-0.00003537,-0.00035665,0
 .00012961,0.00000542,0.00004661,-0.00005453,0.00006540,-0.00003884,-0.
 00000859,-0.00004199,-0.00009748,-0.00016652,0.00052708,-0.00234102,0.
 00205384,0.00190923,0.00132160,-0.00150070,-0.02448148,-0.04900214,-0.
 01716048,0.02794142,-0.00005939,-0.00024087,0.00000859,-0.00040601,-0.
 00059856,-0.00036210,0.00004469,-0.00000174,0.00006001,0.00133051,-0.0
 0052288,0.00259175,0.00014679,0.00000666,0.00011907,0.00001796,-0.0000
 0409,0.00000451,0.00001233,-0.00005231,0.00002356,-0.00000339,0.000000
 70,-0.00000094,-0.00417801,-0.01102361,-0.00375750,-0.00002825,0.00052
 290,-0.00002628,-0.00000153,-0.00000542,-0.00000128,-0.00000314,-0.000
 00070,0.00000132,-0.00138227,0.00164703,-0.00073436,-0.00037732,0.0004
 6751,-0.00087046,-0.00003152,0.00007153,-0.00007409,0.00000612,-0.0000
 1991,0.00002612,-0.00002409,0.00006150,-0.00011261,0.00002318,-0.00002
 452,0.00006664,-0.00031474,0.00029364,-0.00025878,0.00007188,0.0000359
 6,0.00006583,-0.00006106,0.00029998,-0.00003605,-0.00001213,-0.0000844
 1,0.00010185,0.00105946,0.00103772,-0.00015005,0.00028936,-0.00053687,
 -0.00036137,-0.01352073,-0.54872996,0.03848483,0.01740128,0.55740071,0
 .00016046,0.00016646,0.00005161,0.00027024,0.00176647,0.00075108,-0.00
 005362,0.00002796,0.00005469,-0.00358990,0.00175501,-0.00472172,-0.000
 21561,0.00013987,-0.00044048,-0.00000352,-0.00002010,-0.00002075,-0.00
 000058,0.00002532,-0.00001371,0.00000272,-0.00000115,-0.00000860,-0.00
 011176,0.03224306,-0.00424420,-0.00011447,-0.00005386,0.00008321,0.000
 00763,-0.00000944,-0.00000401,-0.00000992,0.00000496,0.00000446,0.0008
 4702,0.00044548,-0.00009404,-0.00015541,-0.00056090,0.00074149,0.00000
 696,-0.00004254,0.00001661,-0.00000924,0.00002261,-0.00000973,0.000060
 69,-0.00011116,-0.00002410,-0.00005644,0.00006774,-0.00003531,0.000168
 81,-0.00034514,-0.00001629,-0.00012704,0.00010387,-0.00004892,0.000198
 89,-0.00056129,0.00008231,-0.00001198,0.00021124,-0.00005743,-0.000524
 35,-0.00014856,0.00006145,-0.00000689,-0.00008988,-0.00025154,-0.02061
 810,-0.00022782,-0.02104926,0.02388541,-0.03480822,0.02919318\\0.00000
 028,-0.00000093,-0.00000026,0.00000672,-0.00002049,-0.00000334,-0.0000
 0477,-0.00001914,-0.00002188,-0.00001351,-0.00000950,-0.00000958,0.000
 00739,0.00000234,0.00000381,-0.00001081,0.00001293,0.00000810,-0.00000
 988,0.00000934,-0.00001204,-0.00000614,0.00000112,0.00000729,-0.000002
 06,0.00002036,-0.00000920,0.00000189,-0.00000223,0.00000977,0.00000578
 ,0.00000546,0.00000331,-0.00000027,-0.00000164,-0.00000170,0.00000398,
 -0.00000316,0.00000043,-0.00000160,-0.00000172,0.00000301,-0.00000418,
 -0.00001051,0.00002034,0.00000485,0.00000052,-0.00000825,-0.00001180,0
 .00001836,0.00000602,0.00000931,-0.00000854,0.00000206,0.00001833,0.00
 000163,0.00000868,-0.00000845,-0.00000139,-0.00000936,-0.00000766,0.00
 000964,0.00001380,0.00000644,-0.00000168,-0.00000885,-0.00000122,-0.00
 000660,-0.00001630,0.00000594,0.00000139,0.00001115,0.00001425,0.00001
 423,0.00000688,-0.00000282,-0.00000983,-0.00000389\\\@
 The archive entry for this job was punched.


 AN AIRPLANE IS A COLLECTION OF SPARE PARTS
 FLYING IN CLOSE FORMATION.
 Job cpu time:       0 days 10 hours  5 minutes 39.6 seconds.
 Elapsed time:       0 days  0 hours 38 minutes 25.4 seconds.
 File lengths (MBytes):  RWF=    704 Int=      0 D2E=      0 Chk=     27 Scr=      1
 Normal termination of Gaussian 16 at Wed Sep 27 12:20:36 2023.
