 Entering Gaussian System, Link 0=/opt/software/gaussian/g16.c01/g16
 Initial command:
 /opt/software/gaussian/g16.c01/l1.exe "/scratch/arhender/14836898/Gau-10928.inp" -scrdir="/scratch/arhender/14836898/"
 Entering Link 1 = /opt/software/gaussian/g16.c01/l1.exe PID=     10943.
  
 Copyright (c) 1988-2019, Gaussian, Inc.  All Rights Reserved.
  
 This is part of the Gaussian(R) 16 program.  It is based on
 the Gaussian(R) 09 system (copyright 2009, Gaussian, Inc.),
 the Gaussian(R) 03 system (copyright 2003, Gaussian, Inc.),
 the Gaussian(R) 98 system (copyright 1998, Gaussian, Inc.),
 the Gaussian(R) 94 system (copyright 1995, Gaussian, Inc.),
 the Gaussian 92(TM) system (copyright 1992, Gaussian, Inc.),
 the Gaussian 90(TM) system (copyright 1990, Gaussian, Inc.),
 the Gaussian 88(TM) system (copyright 1988, Gaussian, Inc.),
 the Gaussian 86(TM) system (copyright 1986, Carnegie Mellon
 University), and the Gaussian 82(TM) system (copyright 1983,
 Carnegie Mellon University). Gaussian is a federally registered
 trademark of Gaussian, Inc.
  
 This software contains proprietary and confidential information,
 including trade secrets, belonging to Gaussian, Inc.
  
 This software is provided under written license and may be
 used, copied, transmitted, or stored only in accord with that
 written license.
  
 The following legend is applicable only to US Government
 contracts under FAR:
  
                    RESTRICTED RIGHTS LEGEND
  
 Use, reproduction and disclosure by the US Government is
 subject to restrictions as set forth in subparagraphs (a)
 and (c) of the Commercial Computer Software - Restricted
 Rights clause in FAR 52.227-19.
  
 Gaussian, Inc.
 340 Quinnipiac St., Bldg. 40, Wallingford CT 06492
  
  
 ---------------------------------------------------------------
 Warning -- This program may not be used in any manner that
 competes with the business of Gaussian, Inc. or will provide
 assistance to any competitor of Gaussian, Inc.  The licensee
 of this program is prohibited from giving any competitor of
 Gaussian, Inc. access to this program.  By using this program,
 the user acknowledges that Gaussian, Inc. is engaged in the
 business of creating and licensing software in the field of
 computational chemistry and represents and warrants to the
 licensee that it is not a competitor of Gaussian, Inc. and that
 it will not use this program in any manner prohibited above.
 ---------------------------------------------------------------
  

 Cite this work as:
 Gaussian 16, Revision C.01,
 M. J. Frisch, G. W. Trucks, H. B. Schlegel, G. E. Scuseria, 
 M. A. Robb, J. R. Cheeseman, G. Scalmani, V. Barone, 
 G. A. Petersson, H. Nakatsuji, X. Li, M. Caricato, A. V. Marenich, 
 J. Bloino, B. G. Janesko, R. Gomperts, B. Mennucci, H. P. Hratchian, 
 J. V. Ortiz, A. F. Izmaylov, J. L. Sonnenberg, D. Williams-Young, 
 F. Ding, F. Lipparini, F. Egidi, J. Goings, B. Peng, A. Petrone, 
 T. Henderson, D. Ranasinghe, V. G. Zakrzewski, J. Gao, N. Rega, 
 G. Zheng, W. Liang, M. Hada, M. Ehara, K. Toyota, R. Fukuda, 
 J. Hasegawa, M. Ishida, T. Nakajima, Y. Honda, O. Kitao, H. Nakai, 
 T. Vreven, K. Throssell, J. A. Montgomery, Jr., J. E. Peralta, 
 F. Ogliaro, M. J. Bearpark, J. J. Heyd, E. N. Brothers, K. N. Kudin, 
 V. N. Staroverov, T. A. Keith, R. Kobayashi, J. Normand, 
 K. Raghavachari, A. P. Rendell, J. C. Burant, S. S. Iyengar, 
 J. Tomasi, M. Cossi, J. M. Millam, M. Klene, C. Adamo, R. Cammi, 
 J. W. Ochterski, R. L. Martin, K. Morokuma, O. Farkas, 
 J. B. Foresman, and D. J. Fox, Gaussian, Inc., Wallingford CT, 2019.
 
 ******************************************
 Gaussian 16:  ES64L-G16RevC.01  3-Jul-2019
                11-Oct-2023 
 ******************************************
 %chk=MannitolConformerOpt_45.chk
 %mem=8GB
 %nprocs=16
 Will use up to   16 processors via shared memory.
 ---------------------------------------------
 # opt freq wb97xd/Def2TZVPP geom=connectivity
 ---------------------------------------------
 1/18=20,19=15,26=3,38=1,57=2/1,3;
 2/9=110,12=2,17=6,18=5,40=1/2;
 3/5=44,7=202,11=2,25=1,30=1,71=1,74=-58/1,2,3;
 4//1;
 5/5=2,38=5/2;
 6/7=2,8=2,9=2,10=2,28=1/1;
 7//1,2,3,16;
 1/18=20,19=15,26=3/3(2);
 2/9=110/2;
 99//99;
 2/9=110/2;
 3/5=44,7=202,11=2,25=1,30=1,71=1,74=-58/1,2,3;
 4/5=5,16=3,69=1/1;
 5/5=2,38=5/2;
 7//1,2,3,16;
 1/18=20,19=15,26=3/3(-5);
 2/9=110/2;
 6/7=2,8=2,9=2,10=2,19=2,28=1/1;
 99/9=1/99;
 -------------------
 Title Card Required
 -------------------
 Symbolic Z-matrix:
 Charge =  0 Multiplicity = 1
 C                     0.        0.        0. 
 C                     1.5385    0.        0. 
 C                    -0.6411    0.5851    1.2752 
 C                     2.2138   -0.7838    1.1459 
 H                     1.9125    1.0302    0. 
 H                    -0.3806   -1.0133   -0.1734 
 C                    -0.473     2.1059    1.4204 
 H                    -0.2445    0.0839    2.1627 
 C                     1.8016   -2.2583    1.2231 
 H                     2.0181   -0.3011    2.1082 
 H                     0.5802    2.3998    1.4239 
 H                    -0.9285    2.4433    2.3567 
 H                     0.7352   -2.3645    1.4395 
 H                     2.365    -2.7832    2.0021 
 O                    -1.1422    2.8007    0.3672 
 H                    -0.9163    2.3361   -0.4689 
 O                    -2.047     0.2942    1.2416 
 H                    -2.4289    0.922     0.5945 
 O                    -0.436     0.7624   -1.15 
 H                     0.1154    0.4377   -1.8942 
 O                     1.9802   -0.538    -1.2702 
 H                     1.8364   -1.5113   -1.2258 
 O                     3.6373   -0.7428    0.9364 
 H                     3.7712   -0.6635   -0.0304 
 O                     2.0716   -2.9037   -0.0244 
 H                     3.0228   -3.1304    0.0002 
 

 GradGradGradGradGradGradGradGradGradGradGradGradGradGradGradGradGradGrad
 Berny optimization.
 Initialization pass.
                           ----------------------------
                           !    Initial Parameters    !
                           ! (Angstroms and Degrees)  !
 --------------------------                            --------------------------
 ! Name  Definition              Value          Derivative Info.                !
 --------------------------------------------------------------------------------
 ! R1    R(1,2)                  1.5385         estimate D2E/DX2                !
 ! R2    R(1,3)                  1.5426         estimate D2E/DX2                !
 ! R3    R(1,6)                  1.0962         estimate D2E/DX2                !
 ! R4    R(1,19)                 1.447          estimate D2E/DX2                !
 ! R5    R(2,4)                  1.5438         estimate D2E/DX2                !
 ! R6    R(2,5)                  1.096          estimate D2E/DX2                !
 ! R7    R(2,21)                 1.4484         estimate D2E/DX2                !
 ! R8    R(3,7)                  1.5369         estimate D2E/DX2                !
 ! R9    R(3,8)                  1.0937         estimate D2E/DX2                !
 ! R10   R(3,17)                 1.4361         estimate D2E/DX2                !
 ! R11   R(4,9)                  1.533          estimate D2E/DX2                !
 ! R12   R(4,10)                 1.0942         estimate D2E/DX2                !
 ! R13   R(4,23)                 1.4394         estimate D2E/DX2                !
 ! R14   R(7,11)                 1.0934         estimate D2E/DX2                !
 ! R15   R(7,12)                 1.0945         estimate D2E/DX2                !
 ! R16   R(7,15)                 1.4282         estimate D2E/DX2                !
 ! R17   R(9,13)                 1.0933         estimate D2E/DX2                !
 ! R18   R(9,14)                 1.0953         estimate D2E/DX2                !
 ! R19   R(9,25)                 1.4303         estimate D2E/DX2                !
 ! R20   R(15,16)                0.9828         estimate D2E/DX2                !
 ! R21   R(17,18)                0.9791         estimate D2E/DX2                !
 ! R22   R(19,20)                0.9815         estimate D2E/DX2                !
 ! R23   R(21,22)                0.9849         estimate D2E/DX2                !
 ! R24   R(23,24)                0.9792         estimate D2E/DX2                !
 ! R25   R(25,26)                0.9782         estimate D2E/DX2                !
 ! A1    A(2,1,3)              114.5576         estimate D2E/DX2                !
 ! A2    A(2,1,6)              110.3157         estimate D2E/DX2                !
 ! A3    A(2,1,19)             107.5363         estimate D2E/DX2                !
 ! A4    A(3,1,6)              109.6991         estimate D2E/DX2                !
 ! A5    A(3,1,19)             109.3854         estimate D2E/DX2                !
 ! A6    A(6,1,19)             104.8743         estimate D2E/DX2                !
 ! A7    A(1,2,4)              115.939          estimate D2E/DX2                !
 ! A8    A(1,2,5)              109.9527         estimate D2E/DX2                !
 ! A9    A(1,2,21)             107.7552         estimate D2E/DX2                !
 ! A10   A(4,2,5)              109.1446         estimate D2E/DX2                !
 ! A11   A(4,2,21)             109.2044         estimate D2E/DX2                !
 ! A12   A(5,2,21)             104.1864         estimate D2E/DX2                !
 ! A13   A(1,3,7)              114.0771         estimate D2E/DX2                !
 ! A14   A(1,3,8)              110.2609         estimate D2E/DX2                !
 ! A15   A(1,3,17)             108.1014         estimate D2E/DX2                !
 ! A16   A(7,3,8)              109.7021         estimate D2E/DX2                !
 ! A17   A(7,3,17)             108.0427         estimate D2E/DX2                !
 ! A18   A(8,3,17)             106.3297         estimate D2E/DX2                !
 ! A19   A(2,4,9)              114.0849         estimate D2E/DX2                !
 ! A20   A(2,4,10)             110.5215         estimate D2E/DX2                !
 ! A21   A(2,4,23)             108.0645         estimate D2E/DX2                !
 ! A22   A(9,4,10)             109.3859         estimate D2E/DX2                !
 ! A23   A(9,4,23)             107.4962         estimate D2E/DX2                !
 ! A24   A(10,4,23)            106.9959         estimate D2E/DX2                !
 ! A25   A(3,7,11)             111.8151         estimate D2E/DX2                !
 ! A26   A(3,7,12)             109.8967         estimate D2E/DX2                !
 ! A27   A(3,7,15)             111.1283         estimate D2E/DX2                !
 ! A28   A(11,7,12)            108.3761         estimate D2E/DX2                !
 ! A29   A(11,7,15)            108.8392         estimate D2E/DX2                !
 ! A30   A(12,7,15)            106.6104         estimate D2E/DX2                !
 ! A31   A(4,9,13)             111.4488         estimate D2E/DX2                !
 ! A32   A(4,9,14)             111.0044         estimate D2E/DX2                !
 ! A33   A(4,9,25)             109.8369         estimate D2E/DX2                !
 ! A34   A(13,9,14)            108.3236         estimate D2E/DX2                !
 ! A35   A(13,9,25)            108.2362         estimate D2E/DX2                !
 ! A36   A(14,9,25)            107.8767         estimate D2E/DX2                !
 ! A37   A(7,15,16)            106.8381         estimate D2E/DX2                !
 ! A38   A(3,17,18)            105.511          estimate D2E/DX2                !
 ! A39   A(1,19,20)            105.0121         estimate D2E/DX2                !
 ! A40   A(2,21,22)            106.4401         estimate D2E/DX2                !
 ! A41   A(4,23,24)            106.3335         estimate D2E/DX2                !
 ! A42   A(9,25,26)            105.4394         estimate D2E/DX2                !
 ! D1    D(3,1,2,4)             59.0194         estimate D2E/DX2                !
 ! D2    D(3,1,2,5)            -65.3529         estimate D2E/DX2                !
 ! D3    D(3,1,2,21)          -178.3083         estimate D2E/DX2                !
 ! D4    D(6,1,2,4)            -65.3384         estimate D2E/DX2                !
 ! D5    D(6,1,2,5)            170.2894         estimate D2E/DX2                !
 ! D6    D(6,1,2,21)            57.334          estimate D2E/DX2                !
 ! D7    D(19,1,2,4)          -179.1704         estimate D2E/DX2                !
 ! D8    D(19,1,2,5)            56.4574         estimate D2E/DX2                !
 ! D9    D(19,1,2,21)          -56.498          estimate D2E/DX2                !
 ! D10   D(2,1,3,7)             70.3733         estimate D2E/DX2                !
 ! D11   D(2,1,3,8)            -53.5828         estimate D2E/DX2                !
 ! D12   D(2,1,3,17)          -169.4303         estimate D2E/DX2                !
 ! D13   D(6,1,3,7)           -164.9426         estimate D2E/DX2                !
 ! D14   D(6,1,3,8)             71.1013         estimate D2E/DX2                !
 ! D15   D(6,1,3,17)           -44.7461         estimate D2E/DX2                !
 ! D16   D(19,1,3,7)           -50.4218         estimate D2E/DX2                !
 ! D17   D(19,1,3,8)          -174.3779         estimate D2E/DX2                !
 ! D18   D(19,1,3,17)           69.7747         estimate D2E/DX2                !
 ! D19   D(2,1,19,20)           45.993          estimate D2E/DX2                !
 ! D20   D(3,1,19,20)          170.9701         estimate D2E/DX2                !
 ! D21   D(6,1,19,20)          -71.4371         estimate D2E/DX2                !
 ! D22   D(1,2,4,9)             56.9784         estimate D2E/DX2                !
 ! D23   D(1,2,4,10)           -66.7694         estimate D2E/DX2                !
 ! D24   D(1,2,4,23)           176.4625         estimate D2E/DX2                !
 ! D25   D(5,2,4,9)           -178.233          estimate D2E/DX2                !
 ! D26   D(5,2,4,10)            58.0191         estimate D2E/DX2                !
 ! D27   D(5,2,4,23)           -58.7489         estimate D2E/DX2                !
 ! D28   D(21,2,4,9)           -64.9275         estimate D2E/DX2                !
 ! D29   D(21,2,4,10)          171.3247         estimate D2E/DX2                !
 ! D30   D(21,2,4,23)           54.5566         estimate D2E/DX2                !
 ! D31   D(1,2,21,22)          -75.266          estimate D2E/DX2                !
 ! D32   D(4,2,21,22)           51.4529         estimate D2E/DX2                !
 ! D33   D(5,2,21,22)          167.9566         estimate D2E/DX2                !
 ! D34   D(1,3,7,11)           -58.1472         estimate D2E/DX2                !
 ! D35   D(1,3,7,12)          -178.5449         estimate D2E/DX2                !
 ! D36   D(1,3,7,15)            63.6942         estimate D2E/DX2                !
 ! D37   D(8,3,7,11)            66.1089         estimate D2E/DX2                !
 ! D38   D(8,3,7,12)           -54.2888         estimate D2E/DX2                !
 ! D39   D(8,3,7,15)          -172.0497         estimate D2E/DX2                !
 ! D40   D(17,3,7,11)         -178.3766         estimate D2E/DX2                !
 ! D41   D(17,3,7,12)           61.2258         estimate D2E/DX2                !
 ! D42   D(17,3,7,15)          -56.5351         estimate D2E/DX2                !
 ! D43   D(1,3,17,18)          -75.8354         estimate D2E/DX2                !
 ! D44   D(7,3,17,18)           48.0741         estimate D2E/DX2                !
 ! D45   D(8,3,17,18)          165.7784         estimate D2E/DX2                !
 ! D46   D(2,4,9,13)           -63.4618         estimate D2E/DX2                !
 ! D47   D(2,4,9,14)           175.6966         estimate D2E/DX2                !
 ! D48   D(2,4,9,25)            56.4827         estimate D2E/DX2                !
 ! D49   D(10,4,9,13)           60.8961         estimate D2E/DX2                !
 ! D50   D(10,4,9,14)          -59.9455         estimate D2E/DX2                !
 ! D51   D(10,4,9,25)         -179.1595         estimate D2E/DX2                !
 ! D52   D(23,4,9,13)          176.7338         estimate D2E/DX2                !
 ! D53   D(23,4,9,14)           55.8922         estimate D2E/DX2                !
 ! D54   D(23,4,9,25)          -63.3217         estimate D2E/DX2                !
 ! D55   D(2,4,23,24)          -28.5613         estimate D2E/DX2                !
 ! D56   D(9,4,23,24)           95.0038         estimate D2E/DX2                !
 ! D57   D(10,4,23,24)        -147.5914         estimate D2E/DX2                !
 ! D58   D(3,7,15,16)          -45.3524         estimate D2E/DX2                !
 ! D59   D(11,7,15,16)          78.2064         estimate D2E/DX2                !
 ! D60   D(12,7,15,16)        -165.0894         estimate D2E/DX2                !
 ! D61   D(4,9,25,26)           81.9081         estimate D2E/DX2                !
 ! D62   D(13,9,25,26)        -156.211          estimate D2E/DX2                !
 ! D63   D(14,9,25,26)         -39.2056         estimate D2E/DX2                !
 --------------------------------------------------------------------------------
 Trust Radius=3.00D-01 FncErr=1.00D-07 GrdErr=1.00D-06 EigMax=2.50D+02 EigMin=1.00D-04
 Number of steps in this run=    140 maximum allowed number of steps=    156.
 GradGradGradGradGradGradGradGradGradGradGradGradGradGradGradGradGradGrad

                          Input orientation:                          
 ---------------------------------------------------------------------
 Center     Atomic      Atomic             Coordinates (Angstroms)
 Number     Number       Type             X           Y           Z
 ---------------------------------------------------------------------
      1          6           0        0.000000    0.000000    0.000000
      2          6           0        1.538500    0.000000    0.000000
      3          6           0       -0.641100    0.585100    1.275200
      4          6           0        2.213800   -0.783800    1.145900
      5          1           0        1.912500    1.030200    0.000000
      6          1           0       -0.380600   -1.013300   -0.173400
      7          6           0       -0.473000    2.105900    1.420400
      8          1           0       -0.244500    0.083900    2.162700
      9          6           0        1.801600   -2.258300    1.223100
     10          1           0        2.018100   -0.301100    2.108200
     11          1           0        0.580200    2.399800    1.423900
     12          1           0       -0.928500    2.443300    2.356700
     13          1           0        0.735200   -2.364500    1.439500
     14          1           0        2.365000   -2.783200    2.002100
     15          8           0       -1.142200    2.800700    0.367200
     16          1           0       -0.916300    2.336100   -0.468900
     17          8           0       -2.047000    0.294200    1.241600
     18          1           0       -2.428900    0.922000    0.594500
     19          8           0       -0.436000    0.762400   -1.150000
     20          1           0        0.115400    0.437700   -1.894200
     21          8           0        1.980200   -0.538000   -1.270200
     22          1           0        1.836400   -1.511300   -1.225800
     23          8           0        3.637300   -0.742800    0.936400
     24          1           0        3.771200   -0.663500   -0.030400
     25          8           0        2.071600   -2.903700   -0.024400
     26          1           0        3.022800   -3.130400    0.000200
 ---------------------------------------------------------------------
                    Distance matrix (angstroms):
                    1          2          3          4          5
     1  C    0.000000
     2  C    1.538500   0.000000
     3  C    1.542558   2.592129   0.000000
     4  C    2.613109   1.543846   3.168763   0.000000
     5  H    2.172319   1.095987   2.888792   2.166671   0.000000
     6  H    1.096221   2.177106   2.172829   2.919612   3.076405
     7  C    2.583811   3.240136   1.536936   3.955327   2.977461
     8  H    2.178093   2.804175   1.093686   2.798218   3.197719
     9  C    3.137141   2.581688   3.748923   1.532977   3.510343
    10  H    2.933922   2.182930   2.924138   1.094221   2.495600
    11  H    2.850116   2.950402   2.192446   3.589045   2.382922
    12  H    3.519355   4.196408   2.169135   4.664146   3.952489
    13  H    2.864182   2.882414   3.259039   2.184278   3.870683
    14  H    4.165073   3.526714   4.572796   2.180262   4.330725
    15  O    3.046863   3.894215   2.446313   4.971695   3.549746
    16  H    2.552809   3.421005   2.486689   4.705197   3.150770
    17  O    2.412122   3.805776   1.436073   4.396096   4.214369
    18  H    2.665158   4.116282   1.942443   4.976792   4.383251
    19  O    1.447014   2.408818   2.440307   3.831884   2.628625
    20  H    1.947535   2.409313   3.261766   3.890701   2.677428
    21  O    2.413306   1.448431   3.822516   2.439780   2.019218
    22  H    2.675627   1.968593   4.097304   2.509312   2.822694
    23  O    3.828648   2.415276   4.492528   1.439418   2.644865
    24  H    3.829244   2.329400   4.767807   1.955415   2.514818
    25  O    3.567015   2.952332   4.606455   2.425654   3.937192
    26  H    4.351635   3.464470   5.371660   2.733796   4.306200
                    6          7          8          9         10
     6  H    0.000000
     7  C    3.504018   0.000000
     8  H    2.584518   2.166035   0.000000
     9  C    2.874410   4.925340   3.248888   0.000000
    10  H    3.386250   3.531614   2.295769   2.158913   0.000000
    11  H    3.888927   1.093444   2.566973   4.819755   3.135392
    12  H    4.318528   1.094521   2.464196   5.553696   4.034344
    13  H    2.381638   4.630830   2.734500   1.093305   2.520042
    14  H    3.924750   5.682950   3.880148   1.095345   2.508469
    15  O    3.926688   1.428218   3.377971   5.915404   4.758124
    16  H    3.404816   1.954216   3.528320   5.599853   4.712427
    17  O    2.547287   2.406596   2.035106   4.618151   4.198859
    18  H    2.920717   2.430900   2.816605   5.329782   4.854181
    19  O    2.027296   2.900572   3.386889   4.445569   4.215389
    20  H    2.304901   3.757084   4.088171   4.453004   4.492805
    21  O    2.646178   4.499747   4.137735   3.034448   3.386908
    22  H    2.504124   5.041809   4.284477   2.560533   3.551500
    23  O    4.177122   5.024332   4.153988   2.397651   2.046955
    24  H    4.168963   5.271397   4.636177   2.827362   2.788961
    25  O    3.099855   5.801597   4.367319   1.430279   3.365170
    26  H    4.011905   6.454179   5.067877   1.935813   3.668518
                   11         12         13         14         15
    11  H    0.000000
    12  H    1.774312   0.000000
    13  H    4.766846   5.169535   0.000000
    14  H    5.512106   6.187826   1.774282   0.000000
    15  O    2.060096   2.032612   5.599442   6.793621   0.000000
    16  H    2.413765   2.827659   5.335268   6.563536   0.982826
    17  O    3.371790   2.667044   3.853373   5.432724   2.804600
    18  H    3.453474   2.769639   4.639681   6.220235   2.288400
    19  O    3.215385   3.919812   4.225485   5.509321   2.637287
    20  H    3.882739   4.814801   4.398867   5.533177   3.504177
    21  O    4.224789   5.522960   3.496942   3.987097   4.855654
    22  H    4.888318   6.009812   3.007394   3.509485   5.477504
    23  O    4.411287   5.745869   3.362321   2.630151   5.976956
    24  H    4.656316   6.118630   3.777738   3.256007   6.024970
    25  O    5.696399   6.577283   2.054192   2.051172   6.559119
    26  H    6.210985   7.227171   2.809146   2.135615   7.256711
                   16         17         18         19         20
    16  H    0.000000
    17  O    2.893726   0.000000
    18  H    2.327758   0.979142   0.000000
    19  O    1.780763   2.921349   2.653376   0.000000
    20  H    2.588399   3.811798   3.591885   0.981481   0.000000
    21  O    4.158394   4.818717   5.004885   2.746545   2.195187
    22  H    4.790902   4.942539   5.237101   3.215472   2.684623
    23  O    5.673603   5.786172   6.299781   4.817724   4.670081
    24  H    5.582342   6.032133   6.430051   4.581182   4.248678
    25  O    6.048192   5.365835   5.939151   4.582065   4.299747
    26  H    6.754198   6.242742   6.818810   5.332931   4.977255
                   21         22         23         24         25
    21  O    0.000000
    22  H    0.984867   0.000000
    23  O    2.767130   2.917009   0.000000
    24  H    2.181865   2.427179   0.979245   0.000000
    25  O    2.675240   1.854039   2.836202   2.811969   0.000000
    26  H    3.069441   2.352043   2.637179   2.578107   0.978151
                   26
    26  H    0.000000
 Stoichiometry    C6H14O6
 Framework group  C1[X(C6H14O6)]
 Deg. of freedom    72
 Full point group                 C1      NOp   1
 Largest Abelian subgroup         C1      NOp   1
 Largest concise Abelian subgroup C1      NOp   1
                         Standard orientation:                         
 ---------------------------------------------------------------------
 Center     Atomic      Atomic             Coordinates (Angstroms)
 Number     Number       Type             X           Y           Z
 ---------------------------------------------------------------------
      1          6           0       -0.556776    0.115112   -0.602561
      2          6           0        0.576791    0.647185    0.291255
      3          6           0       -1.490376   -0.902977    0.084003
      4          6           0        1.542634   -0.414194    0.860535
      5          1           0        0.157920    1.232246    1.117959
      6          1           0       -0.145072   -0.321271   -1.520042
      7          6           0       -2.399265   -0.292253    1.162478
      8          1           0       -0.906829   -1.721912    0.514083
      9          6           0        2.228805   -1.272886   -0.208032
     10          1           0        1.022630   -1.064628    1.570360
     11          1           0       -1.821562    0.199097    1.950167
     12          1           0       -3.011384   -1.075296    1.620879
     13          1           0        1.503327   -1.867733   -0.769419
     14          1           0        2.956912   -1.954838    0.244277
     15          8           0       -3.305480    0.655158    0.595917
     16          1           0       -2.782040    1.219616   -0.015102
     17          8           0       -2.328392   -1.490071   -0.923646
     18          1           0       -2.999046   -0.808975   -1.135899
     19          8           0       -1.331663    1.253177   -1.047768
     20          1           0       -0.667514    1.916046   -1.335547
     21          8           0        1.331461    1.613012   -0.480496
     22          1           0        1.879261    1.095994   -1.114980
     23          8           0        2.574812    0.269600    1.594674
     24          1           0        2.670686    1.150990    1.178885
     25          8           0        2.928173   -0.432733   -1.130378
     26          1           0        3.780541   -0.224409   -0.698116
 ---------------------------------------------------------------------
 Rotational constants (GHZ):           1.5503947           0.5193155           0.5080262
 Standard basis: def2TZVPP (5D, 7F)
 There are   642 symmetry adapted cartesian basis functions of A   symmetry.
 There are   568 symmetry adapted basis functions of A   symmetry.
   568 basis functions,   850 primitive gaussians,   642 cartesian basis functions
    49 alpha electrons       49 beta electrons
       nuclear repulsion energy       838.1976681645 Hartrees.
 NAtoms=   26 NActive=   26 NUniq=   26 SFac= 1.00D+00 NAtFMM=   60 NAOKFM=F Big=F
 Integral buffers will be    131072 words long.
 Raffenetti 2 integral format.
 Two-electron integral symmetry is turned on.
 Nuclear repulsion after empirical dispersion term =      838.1777240476 Hartrees.
 One-electron integrals computed using PRISM.
   1 Symmetry operations used in ECPInt.
 ECPInt:  NShTT=   23436 NPrTT=   62434 LenC2=   22054 LenP2D=   46035.
 LDataN:  DoStor=T MaxTD1= 6 Len=  172
 NBasis=   568 RedAO= T EigKep=  5.29D-05  NBF=   568
 NBsUse=   568 1.00D-06 EigRej= -1.00D+00 NBFU=   568
 ExpMin= 9.52D-02 ExpMax= 2.70D+04 ExpMxC= 9.22D+02 IAcc=3 IRadAn=         5 AccDes= 0.00D+00
 Harris functional with IExCor= 4639 and IRadAn=       5 diagonalized for initial guess.
 HarFok:  IExCor= 4639 AccDes= 0.00D+00 IRadAn=         5 IDoV= 1 UseB2=F ITyADJ=14
 ICtDFT=  3500011 ScaDFX=  1.000000  1.000000  1.000000  1.000000
 FoFCou: FMM=F IPFlag=           0 FMFlag=      100000 FMFlg1=           0
         NFxFlg=           0 DoJE=T BraDBF=F KetDBF=T FulRan=T
         wScrn=  0.000000 ICntrl=       500 IOpCl=  0 I1Cent=   200000004 NGrid=           0
         NMat0=    1 NMatS0=      1 NMatT0=    0 NMatD0=    1 NMtDS0=    0 NMtDT0=    0
 Petite list used in FoFCou.
 Requested convergence on RMS density matrix=1.00D-08 within 128 cycles.
 Requested convergence on MAX density matrix=1.00D-06.
 Requested convergence on             energy=1.00D-06.
 No special actions if energy rises.
 Integral accuracy reduced to 1.0D-05 until final iterations.
 Initial convergence to 1.0D-05 achieved.  Increase integral accuracy.
 SCF Done:  E(RwB97XD) =  -688.472793294     A.U. after   14 cycles
            NFock= 14  Conv=0.24D-08     -V/T= 2.0050

 **********************************************************************

            Population analysis using the SCF Density.

 **********************************************************************

 Orbital symmetries:
       Occupied  (A) (A) (A) (A) (A) (A) (A) (A) (A) (A) (A) (A)
                 (A) (A) (A) (A) (A) (A) (A) (A) (A) (A) (A) (A)
                 (A) (A) (A) (A) (A) (A) (A) (A) (A) (A) (A) (A)
                 (A) (A) (A) (A) (A) (A) (A) (A) (A) (A) (A) (A)
                 (A)
       Virtual   (A) (A) (A) (A) (A) (A) (A) (A) (A) (A) (A) (A)
                 (A) (A) (A) (A) (A) (A) (A) (A) (A) (A) (A) (A)
                 (A) (A) (A) (A) (A) (A) (A) (A) (A) (A) (A) (A)
                 (A) (A) (A) (A) (A) (A) (A) (A) (A) (A) (A) (A)
                 (A) (A) (A) (A) (A) (A) (A) (A) (A) (A) (A) (A)
                 (A) (A) (A) (A) (A) (A) (A) (A) (A) (A) (A) (A)
                 (A) (A) (A) (A) (A) (A) (A) (A) (A) (A) (A) (A)
                 (A) (A) (A) (A) (A) (A) (A) (A) (A) (A) (A) (A)
                 (A) (A) (A) (A) (A) (A) (A) (A) (A) (A) (A) (A)
                 (A) (A) (A) (A) (A) (A) (A) (A) (A) (A) (A) (A)
                 (A) (A) (A) (A) (A) (A) (A) (A) (A) (A) (A) (A)
                 (A) (A) (A) (A) (A) (A) (A) (A) (A) (A) (A) (A)
                 (A) (A) (A) (A) (A) (A) (A) (A) (A) (A) (A) (A)
                 (A) (A) (A) (A) (A) (A) (A) (A) (A) (A) (A) (A)
                 (A) (A) (A) (A) (A) (A) (A) (A) (A) (A) (A) (A)
                 (A) (A) (A) (A) (A) (A) (A) (A) (A) (A) (A) (A)
                 (A) (A) (A) (A) (A) (A) (A) (A) (A) (A) (A) (A)
                 (A) (A) (A) (A) (A) (A) (A) (A) (A) (A) (A) (A)
                 (A) (A) (A) (A) (A) (A) (A) (A) (A) (A) (A) (A)
                 (A) (A) (A) (A) (A) (A) (A) (A) (A) (A) (A) (A)
                 (A) (A) (A) (A) (A) (A) (A) (A) (A) (A) (A) (A)
                 (A) (A) (A) (A) (A) (A) (A) (A) (A) (A) (A) (A)
                 (A) (A) (A) (A) (A) (A) (A) (A) (A) (A) (A) (A)
                 (A) (A) (A) (A) (A) (A) (A) (A) (A) (A) (A) (A)
                 (A) (A) (A) (A) (A) (A) (A) (A) (A) (A) (A) (A)
                 (A) (A) (A) (A) (A) (A) (A) (A) (A) (A) (A) (A)
                 (A) (A) (A) (A) (A) (A) (A) (A) (A) (A) (A) (A)
                 (A) (A) (A) (A) (A) (A) (A) (A) (A) (A) (A) (A)
                 (A) (A) (A) (A) (A) (A) (A) (A) (A) (A) (A) (A)
                 (A) (A) (A) (A) (A) (A) (A) (A) (A) (A) (A) (A)
                 (A) (A) (A) (A) (A) (A) (A) (A) (A) (A) (A) (A)
                 (A) (A) (A) (A) (A) (A) (A) (A) (A) (A) (A) (A)
                 (A) (A) (A) (A) (A) (A) (A) (A) (A) (A) (A) (A)
                 (A) (A) (A) (A) (A) (A) (A) (A) (A) (A) (A) (A)
                 (A) (A) (A) (A) (A) (A) (A) (A) (A) (A) (A) (A)
                 (A) (A) (A) (A) (A) (A) (A) (A) (A) (A) (A) (A)
                 (A) (A) (A) (A) (A) (A) (A) (A) (A) (A) (A) (A)
                 (A) (A) (A) (A) (A) (A) (A) (A) (A) (A) (A) (A)
                 (A) (A) (A) (A) (A) (A) (A) (A) (A) (A) (A) (A)
                 (A) (A) (A) (A) (A) (A) (A) (A) (A) (A) (A) (A)
                 (A) (A) (A) (A) (A) (A) (A) (A) (A) (A) (A) (A)
                 (A) (A) (A) (A) (A) (A) (A) (A) (A) (A) (A) (A)
                 (A) (A) (A) (A) (A) (A) (A) (A) (A) (A) (A) (A)
                 (A) (A) (A)
 The electronic state is 1-A.
 Alpha  occ. eigenvalues --  -19.28904 -19.27491 -19.27134 -19.26605 -19.24820
 Alpha  occ. eigenvalues --  -19.23666 -10.36274 -10.36228 -10.35790 -10.35735
 Alpha  occ. eigenvalues --  -10.35248 -10.33380  -1.17427  -1.15679  -1.13880
 Alpha  occ. eigenvalues --   -1.12637  -1.11663  -1.10012  -0.90273  -0.85546
 Alpha  occ. eigenvalues --   -0.80868  -0.76772  -0.72514  -0.69306  -0.65589
 Alpha  occ. eigenvalues --   -0.64508  -0.61433  -0.61053  -0.59179  -0.56670
 Alpha  occ. eigenvalues --   -0.56362  -0.56226  -0.54479  -0.53450  -0.52007
 Alpha  occ. eigenvalues --   -0.50897  -0.50150  -0.48037  -0.47353  -0.46382
 Alpha  occ. eigenvalues --   -0.43551  -0.43353  -0.41640  -0.41041  -0.40541
 Alpha  occ. eigenvalues --   -0.37924  -0.37006  -0.36671  -0.35237
 Alpha virt. eigenvalues --    0.07891   0.10314   0.11158   0.12318   0.13592
 Alpha virt. eigenvalues --    0.13981   0.14590   0.15534   0.17264   0.17927
 Alpha virt. eigenvalues --    0.18113   0.19196   0.19412   0.21063   0.21614
 Alpha virt. eigenvalues --    0.22833   0.23553   0.24263   0.25626   0.26399
 Alpha virt. eigenvalues --    0.27525   0.30384   0.30650   0.31821   0.33072
 Alpha virt. eigenvalues --    0.34000   0.35556   0.36298   0.36420   0.37579
 Alpha virt. eigenvalues --    0.37995   0.38735   0.39382   0.39800   0.40024
 Alpha virt. eigenvalues --    0.40681   0.41263   0.41914   0.43349   0.44202
 Alpha virt. eigenvalues --    0.44903   0.45126   0.45683   0.46041   0.46922
 Alpha virt. eigenvalues --    0.47428   0.48239   0.48658   0.49137   0.50472
 Alpha virt. eigenvalues --    0.51004   0.51811   0.53561   0.53842   0.55514
 Alpha virt. eigenvalues --    0.56070   0.56432   0.57010   0.57902   0.58421
 Alpha virt. eigenvalues --    0.59022   0.59780   0.61198   0.61953   0.62611
 Alpha virt. eigenvalues --    0.64337   0.65836   0.67583   0.68215   0.69063
 Alpha virt. eigenvalues --    0.70141   0.71258   0.72074   0.72970   0.74231
 Alpha virt. eigenvalues --    0.75107   0.75640   0.76670   0.78277   0.78786
 Alpha virt. eigenvalues --    0.80053   0.81944   0.82939   0.83647   0.84260
 Alpha virt. eigenvalues --    0.86896   0.87893   0.89252   0.89869   0.91317
 Alpha virt. eigenvalues --    0.92196   0.93492   0.93882   0.95172   0.95795
 Alpha virt. eigenvalues --    0.98102   0.98722   1.00036   1.00318   1.02055
 Alpha virt. eigenvalues --    1.03431   1.04112   1.04968   1.06119   1.06833
 Alpha virt. eigenvalues --    1.08483   1.10078   1.11016   1.11841   1.12083
 Alpha virt. eigenvalues --    1.13211   1.14543   1.15403   1.16646   1.17078
 Alpha virt. eigenvalues --    1.18584   1.19673   1.21485   1.21841   1.22534
 Alpha virt. eigenvalues --    1.25553   1.26144   1.26597   1.27625   1.29653
 Alpha virt. eigenvalues --    1.30319   1.30980   1.32991   1.34052   1.35282
 Alpha virt. eigenvalues --    1.36508   1.37511   1.38646   1.40346   1.41375
 Alpha virt. eigenvalues --    1.42040   1.42838   1.43926   1.45057   1.45183
 Alpha virt. eigenvalues --    1.46804   1.49083   1.49604   1.50459   1.51853
 Alpha virt. eigenvalues --    1.52749   1.54090   1.55148   1.56463   1.57908
 Alpha virt. eigenvalues --    1.60346   1.61336   1.62414   1.63244   1.64728
 Alpha virt. eigenvalues --    1.65777   1.67821   1.69385   1.71360   1.73147
 Alpha virt. eigenvalues --    1.76920   1.77569   1.81339   1.81469   1.83106
 Alpha virt. eigenvalues --    1.85328   1.85653   1.90208   1.90887   1.91812
 Alpha virt. eigenvalues --    1.94401   1.96087   1.97026   1.98524   1.99250
 Alpha virt. eigenvalues --    2.00094   2.01064   2.03333   2.05099   2.05969
 Alpha virt. eigenvalues --    2.07784   2.07979   2.08542   2.09220   2.11298
 Alpha virt. eigenvalues --    2.12229   2.14770   2.14872   2.17023   2.18673
 Alpha virt. eigenvalues --    2.19583   2.22385   2.23130   2.25386   2.25490
 Alpha virt. eigenvalues --    2.27540   2.28681   2.29692   2.31156   2.32700
 Alpha virt. eigenvalues --    2.33510   2.37217   2.39193   2.39889   2.41357
 Alpha virt. eigenvalues --    2.42753   2.44874   2.48162   2.49119   2.53833
 Alpha virt. eigenvalues --    2.56456   2.59042   2.59396   2.60720   2.63743
 Alpha virt. eigenvalues --    2.66036   2.66473   2.68713   2.69249   2.70211
 Alpha virt. eigenvalues --    2.72060   2.72799   2.74419   2.74948   2.76280
 Alpha virt. eigenvalues --    2.77429   2.78241   2.80958   2.81994   2.83198
 Alpha virt. eigenvalues --    2.85770   2.87428   2.88771   2.89638   2.90793
 Alpha virt. eigenvalues --    2.92066   2.96221   2.97003   2.97370   2.98377
 Alpha virt. eigenvalues --    2.99790   3.00817   3.01774   3.03014   3.03710
 Alpha virt. eigenvalues --    3.05859   3.06575   3.08867   3.10426   3.11520
 Alpha virt. eigenvalues --    3.11727   3.13050   3.14024   3.15567   3.16107
 Alpha virt. eigenvalues --    3.16823   3.18184   3.18686   3.20138   3.20912
 Alpha virt. eigenvalues --    3.22095   3.23492   3.24276   3.25198   3.27331
 Alpha virt. eigenvalues --    3.28062   3.30558   3.31230   3.31836   3.32256
 Alpha virt. eigenvalues --    3.32647   3.33214   3.34736   3.35811   3.35878
 Alpha virt. eigenvalues --    3.37147   3.39258   3.39709   3.40726   3.41718
 Alpha virt. eigenvalues --    3.43206   3.43977   3.44643   3.45701   3.47351
 Alpha virt. eigenvalues --    3.49503   3.49689   3.51092   3.51793   3.53111
 Alpha virt. eigenvalues --    3.55800   3.56790   3.57685   3.59226   3.60827
 Alpha virt. eigenvalues --    3.62477   3.62565   3.63914   3.64363   3.65265
 Alpha virt. eigenvalues --    3.66348   3.68367   3.69425   3.70597   3.71818
 Alpha virt. eigenvalues --    3.72110   3.73724   3.74926   3.75458   3.76902
 Alpha virt. eigenvalues --    3.77782   3.79411   3.81239   3.82422   3.83304
 Alpha virt. eigenvalues --    3.83958   3.85169   3.85545   3.86009   3.88135
 Alpha virt. eigenvalues --    3.88442   3.91040   3.91892   3.93091   3.95776
 Alpha virt. eigenvalues --    3.96760   3.97774   3.98321   3.99762   4.00994
 Alpha virt. eigenvalues --    4.01789   4.02058   4.03876   4.04449   4.05885
 Alpha virt. eigenvalues --    4.07523   4.08505   4.09504   4.10338   4.11108
 Alpha virt. eigenvalues --    4.12962   4.13459   4.14933   4.16642   4.17135
 Alpha virt. eigenvalues --    4.18444   4.19533   4.20300   4.22163   4.22401
 Alpha virt. eigenvalues --    4.23687   4.24409   4.25565   4.28588   4.28755
 Alpha virt. eigenvalues --    4.29621   4.30565   4.31395   4.32545   4.33700
 Alpha virt. eigenvalues --    4.34858   4.35851   4.37171   4.38523   4.39309
 Alpha virt. eigenvalues --    4.39977   4.43059   4.43514   4.45531   4.47047
 Alpha virt. eigenvalues --    4.48365   4.50646   4.50674   4.52298   4.54501
 Alpha virt. eigenvalues --    4.56250   4.57687   4.58854   4.61110   4.62100
 Alpha virt. eigenvalues --    4.62750   4.64882   4.69118   4.70095   4.71856
 Alpha virt. eigenvalues --    4.73431   4.74447   4.76949   4.78805   4.82347
 Alpha virt. eigenvalues --    4.82796   4.83876   4.86136   4.87429   4.88938
 Alpha virt. eigenvalues --    4.90711   4.92433   4.94484   4.95791   4.96584
 Alpha virt. eigenvalues --    4.97583   5.00232   5.00832   5.02312   5.02897
 Alpha virt. eigenvalues --    5.03657   5.05208   5.07107   5.08635   5.10489
 Alpha virt. eigenvalues --    5.12286   5.15064   5.17434   5.19121   5.22131
 Alpha virt. eigenvalues --    5.22772   5.24277   5.25382   5.26748   5.29643
 Alpha virt. eigenvalues --    5.31455   5.33803   5.36359   5.38603   5.42854
 Alpha virt. eigenvalues --    5.43952   5.46527   5.53201   5.55069   5.59934
 Alpha virt. eigenvalues --    5.60794   5.62079   5.62844   5.63940   5.66109
 Alpha virt. eigenvalues --    5.66950   5.67883   5.68992   5.70393   5.71569
 Alpha virt. eigenvalues --    5.73686   5.75971   5.77807   5.79192   5.80742
 Alpha virt. eigenvalues --    5.84509   5.86349   5.89174   5.92928   5.94031
 Alpha virt. eigenvalues --    5.97507   5.98948   6.04114   6.10737   6.11891
 Alpha virt. eigenvalues --    6.13668   6.17344   6.18241   6.20025   6.51838
 Alpha virt. eigenvalues --    6.53188   6.53946   6.55496   6.56357   6.58218
 Alpha virt. eigenvalues --    6.68960   6.70965   6.74019   6.75189   6.75681
 Alpha virt. eigenvalues --    6.76025   6.77361   6.78884   6.80038   6.82203
 Alpha virt. eigenvalues --    6.83059   6.85434   6.87406   6.87668   6.88505
 Alpha virt. eigenvalues --    6.91531   6.94637   6.96470   7.00327   7.01805
 Alpha virt. eigenvalues --    7.02189   7.03326   7.04410   7.07523   7.14905
 Alpha virt. eigenvalues --    7.19928   7.22398   7.22520   7.24717   7.27854
 Alpha virt. eigenvalues --    7.38564   7.40217   7.43758   7.45729   7.47939
 Alpha virt. eigenvalues --    7.51730   7.54745   7.56859   7.59757   7.61941
 Alpha virt. eigenvalues --    7.66771   7.69527  23.13381  23.14576  23.19384
 Alpha virt. eigenvalues --   23.22589  23.40933  23.44096  44.10768  44.14105
 Alpha virt. eigenvalues --   44.22546  44.25935  44.30544  44.37536
          Condensed to atoms (all electrons):
               1          2          3          4          5          6
     1  C    5.171973   0.092453   0.255778  -0.039403   0.000282   0.378180
     2  C    0.092453   5.190033  -0.021357   0.206857   0.401584   0.024535
     3  C    0.255778  -0.021357   4.847160   0.025158  -0.017320  -0.036645
     4  C   -0.039403   0.206857   0.025158   4.952272  -0.048994  -0.022769
     5  H    0.000282   0.401584  -0.017320  -0.048994   0.558334   0.005903
     6  H    0.378180   0.024535  -0.036645  -0.022769   0.005903   0.552793
     7  C   -0.038650   0.031399   0.332232  -0.009604   0.002715   0.008685
     8  H   -0.014197  -0.026400   0.404009   0.012922   0.001729  -0.001718
     9  C    0.045043   0.018888  -0.012254   0.208198   0.009522   0.003425
    10  H   -0.020832  -0.020586   0.004721   0.428108  -0.008096   0.000117
    11  H   -0.009709   0.007205  -0.039932  -0.005183  -0.008560  -0.000949
    12  H    0.009351  -0.002766  -0.027467   0.001149   0.000173  -0.000233
    13  H    0.008820  -0.020213  -0.003245  -0.009950  -0.000834  -0.008979
    14  H   -0.001673   0.006262   0.000495  -0.045673  -0.000314   0.000308
    15  O    0.006882  -0.010494  -0.036721   0.000866   0.001033  -0.000875
    16  H   -0.000976  -0.000456  -0.008446   0.000197   0.001396   0.001043
    17  O   -0.035715   0.013337   0.268279  -0.001278   0.000182   0.011751
    18  H    0.000330  -0.001007  -0.051348  -0.000054  -0.000074  -0.002910
    19  O    0.196564  -0.009306  -0.055213   0.010316   0.006953  -0.022404
    20  H   -0.009609  -0.029852   0.006637   0.003687  -0.002540  -0.006545
    21  O   -0.008869   0.183596   0.007495  -0.025612  -0.031451  -0.003667
    22  H    0.014573  -0.054773   0.001171  -0.001544   0.005327   0.001177
    23  O    0.006947  -0.031299  -0.000992   0.284946   0.008679   0.000126
    24  H   -0.000282  -0.010746  -0.000101  -0.045276  -0.002302   0.000132
    25  O   -0.009225  -0.021325   0.001123  -0.024451  -0.001916   0.002607
    26  H    0.001285  -0.012307  -0.000065   0.021992  -0.000184  -0.000602
               7          8          9         10         11         12
     1  C   -0.038650  -0.014197   0.045043  -0.020832  -0.009709   0.009351
     2  C    0.031399  -0.026400   0.018888  -0.020586   0.007205  -0.002766
     3  C    0.332232   0.404009  -0.012254   0.004721  -0.039932  -0.027467
     4  C   -0.009604   0.012922   0.208198   0.428108  -0.005183   0.001149
     5  H    0.002715   0.001729   0.009522  -0.008096  -0.008560   0.000173
     6  H    0.008685  -0.001718   0.003425   0.000117  -0.000949  -0.000233
     7  C    4.687998  -0.031818   0.000538  -0.000002   0.406640   0.414714
     8  H   -0.031818   0.591172  -0.000829  -0.005354   0.005910  -0.005063
     9  C    0.000538  -0.000829   4.885683  -0.056861   0.000553  -0.000148
    10  H   -0.000002  -0.005354  -0.056861   0.610474   0.001307  -0.000040
    11  H    0.406640   0.005910   0.000553   0.001307   0.656334  -0.036472
    12  H    0.414714  -0.005063  -0.000148  -0.000040  -0.036472   0.585918
    13  H    0.000130   0.001431   0.384994   0.005541  -0.000106   0.000012
    14  H   -0.000043   0.000033   0.440271  -0.001538   0.000005  -0.000000
    15  O    0.267418   0.004785  -0.000033  -0.000070  -0.042984  -0.036042
    16  H   -0.029579  -0.000269  -0.000003  -0.000001  -0.007326   0.007204
    17  O   -0.038525  -0.022000  -0.000386   0.000051   0.005561   0.002477
    18  H   -0.018906   0.009321   0.000111  -0.000026   0.002729  -0.003099
    19  O    0.007583   0.002379  -0.001090  -0.000049   0.000245  -0.000527
    20  H    0.000366  -0.000362  -0.000537  -0.000043   0.000051   0.000089
    21  O   -0.000486   0.000219  -0.009220   0.004190   0.000208   0.000014
    22  H   -0.000049   0.000054  -0.005893   0.000082   0.000004   0.000003
    23  O   -0.000000  -0.000122  -0.067766  -0.025639   0.000054  -0.000012
    24  H   -0.000003  -0.000073  -0.008159   0.008297  -0.000006  -0.000002
    25  O   -0.000059  -0.000044   0.216038   0.005907   0.000002   0.000000
    26  H    0.000003   0.000015  -0.046621   0.000700  -0.000001   0.000000
              13         14         15         16         17         18
     1  C    0.008820  -0.001673   0.006882  -0.000976  -0.035715   0.000330
     2  C   -0.020213   0.006262  -0.010494  -0.000456   0.013337  -0.001007
     3  C   -0.003245   0.000495  -0.036721  -0.008446   0.268279  -0.051348
     4  C   -0.009950  -0.045673   0.000866   0.000197  -0.001278  -0.000054
     5  H   -0.000834  -0.000314   0.001033   0.001396   0.000182  -0.000074
     6  H   -0.008979   0.000308  -0.000875   0.001043   0.011751  -0.002910
     7  C    0.000130  -0.000043   0.267418  -0.029579  -0.038525  -0.018906
     8  H    0.001431   0.000033   0.004785  -0.000269  -0.022000   0.009321
     9  C    0.384994   0.440271  -0.000033  -0.000003  -0.000386   0.000111
    10  H    0.005541  -0.001538  -0.000070  -0.000001   0.000051  -0.000026
    11  H   -0.000106   0.000005  -0.042984  -0.007326   0.005561   0.002729
    12  H    0.000012  -0.000000  -0.036042   0.007204   0.002477  -0.003099
    13  H    0.586070  -0.019527  -0.000001   0.000000   0.001031  -0.000044
    14  H   -0.019527   0.560405   0.000000   0.000000  -0.000005   0.000001
    15  O   -0.000001   0.000000   7.924665   0.334086  -0.011589   0.030438
    16  H    0.000000   0.000000   0.334086   0.449652   0.000484  -0.001853
    17  O    0.001031  -0.000005  -0.011589   0.000484   7.850355   0.331373
    18  H   -0.000044   0.000001   0.030438  -0.001853   0.331373   0.501908
    19  O    0.000114   0.000010  -0.033210   0.041842  -0.002551   0.005365
    20  H    0.000010   0.000006   0.001142  -0.002030  -0.000481  -0.000123
    21  O    0.000618  -0.000585  -0.000005  -0.000114  -0.000145   0.000009
    22  H   -0.000832   0.001064   0.000005  -0.000007  -0.000031  -0.000002
    23  O    0.004733   0.003458   0.000000   0.000002   0.000002   0.000000
    24  H   -0.000233  -0.000071   0.000000   0.000003   0.000003  -0.000000
    25  O   -0.026257  -0.033537   0.000000   0.000001  -0.000003  -0.000001
    26  H    0.009317  -0.011715  -0.000000  -0.000000  -0.000000  -0.000000
              19         20         21         22         23         24
     1  C    0.196564  -0.009609  -0.008869   0.014573   0.006947  -0.000282
     2  C   -0.009306  -0.029852   0.183596  -0.054773  -0.031299  -0.010746
     3  C   -0.055213   0.006637   0.007495   0.001171  -0.000992  -0.000101
     4  C    0.010316   0.003687  -0.025612  -0.001544   0.284946  -0.045276
     5  H    0.006953  -0.002540  -0.031451   0.005327   0.008679  -0.002302
     6  H   -0.022404  -0.006545  -0.003667   0.001177   0.000126   0.000132
     7  C    0.007583   0.000366  -0.000486  -0.000049  -0.000000  -0.000003
     8  H    0.002379  -0.000362   0.000219   0.000054  -0.000122  -0.000073
     9  C   -0.001090  -0.000537  -0.009220  -0.005893  -0.067766  -0.008159
    10  H   -0.000049  -0.000043   0.004190   0.000082  -0.025639   0.008297
    11  H    0.000245   0.000051   0.000208   0.000004   0.000054  -0.000006
    12  H   -0.000527   0.000089   0.000014   0.000003  -0.000012  -0.000002
    13  H    0.000114   0.000010   0.000618  -0.000832   0.004733  -0.000233
    14  H    0.000010   0.000006  -0.000585   0.001064   0.003458  -0.000071
    15  O   -0.033210   0.001142  -0.000005   0.000005   0.000000   0.000000
    16  H    0.041842  -0.002030  -0.000114  -0.000007   0.000002   0.000003
    17  O   -0.002551  -0.000481  -0.000145  -0.000031   0.000002   0.000003
    18  H    0.005365  -0.000123   0.000009  -0.000002   0.000000  -0.000000
    19  O    7.936320   0.318798  -0.019117  -0.000214  -0.000157  -0.000053
    20  H    0.318798   0.486061   0.030067   0.000069  -0.000043  -0.000119
    21  O   -0.019117   0.030067   7.992518   0.326532  -0.012007   0.030249
    22  H   -0.000214   0.000069   0.326532   0.449138   0.000708  -0.001299
    23  O   -0.000157  -0.000043  -0.012007   0.000708   7.878334   0.330828
    24  H   -0.000053  -0.000119   0.030249  -0.001299   0.330828   0.491286
    25  O    0.000013   0.000121  -0.026739   0.046010  -0.002627   0.004319
    26  H    0.000004   0.000001   0.002003  -0.002669   0.010267   0.000715
              25         26
     1  C   -0.009225   0.001285
     2  C   -0.021325  -0.012307
     3  C    0.001123  -0.000065
     4  C   -0.024451   0.021992
     5  H   -0.001916  -0.000184
     6  H    0.002607  -0.000602
     7  C   -0.000059   0.000003
     8  H   -0.000044   0.000015
     9  C    0.216038  -0.046621
    10  H    0.005907   0.000700
    11  H    0.000002  -0.000001
    12  H    0.000000   0.000000
    13  H   -0.026257   0.009317
    14  H   -0.033537  -0.011715
    15  O    0.000000  -0.000000
    16  H    0.000001  -0.000000
    17  O   -0.000003  -0.000000
    18  H   -0.000001  -0.000000
    19  O    0.000013   0.000004
    20  H    0.000121   0.000001
    21  O   -0.026739   0.002003
    22  H    0.046010  -0.002669
    23  O   -0.002627   0.010267
    24  H    0.004319   0.000715
    25  O    7.909424   0.320460
    26  H    0.320460   0.514206
 Mulliken charges:
               1
     1  C    0.000682
     2  C    0.096738
     3  C    0.156847
     4  C    0.123123
     5  H    0.118773
     6  H    0.117514
     7  C    0.007302
     8  H    0.074269
     9  C   -0.003463
    10  H    0.069643
    11  H    0.064420
    12  H    0.090765
    13  H    0.087398
    14  H    0.102363
    15  O   -0.399295
    16  H    0.215153
    17  O   -0.372176
    18  H    0.197863
    19  O   -0.382617
    20  H    0.205177
    21  O   -0.439700
    22  H    0.221395
    23  O   -0.388420
    24  H    0.202894
    25  O   -0.359842
    26  H    0.193196
 Sum of Mulliken charges =  -0.00000
 Mulliken charges with hydrogens summed into heavy atoms:
               1
     1  C    0.118196
     2  C    0.215511
     3  C    0.231115
     4  C    0.192766
     7  C    0.162487
     9  C    0.186298
    15  O   -0.184142
    17  O   -0.174313
    19  O   -0.177440
    21  O   -0.218305
    23  O   -0.185526
    25  O   -0.166647
 Electronic spatial extent (au):  <R**2>=           2411.9258
 Charge=             -0.0000 electrons
 Dipole moment (field-independent basis, Debye):
    X=              3.7330    Y=             -0.3748    Z=              0.0059  Tot=              3.7517
 Quadrupole moment (field-independent basis, Debye-Ang):
   XX=            -78.5987   YY=            -72.9659   ZZ=            -76.0808
   XY=             -1.4246   XZ=             -2.3596   YZ=             -4.8005
 Traceless Quadrupole moment (field-independent basis, Debye-Ang):
   XX=             -2.7169   YY=              2.9159   ZZ=             -0.1990
   XY=             -1.4246   XZ=             -2.3596   YZ=             -4.8005
 Octapole moment (field-independent basis, Debye-Ang**2):
  XXX=             77.8959  YYY=             12.2767  ZZZ=            -11.3248  XYY=             13.1126
  XXY=             -0.7333  XXZ=            -19.8092  XZZ=            -14.7749  YZZ=              7.4070
  YYZ=              3.5623  XYZ=              7.4778
 Hexadecapole moment (field-independent basis, Debye-Ang**3):
 XXXX=          -1935.9077 YYYY=           -490.2759 ZZZZ=           -456.1494 XXXY=             48.6263
 XXXZ=             20.7402 YYYX=            -35.3363 YYYZ=            -16.6619 ZZZX=            -13.6508
 ZZZY=            -13.2184 XXYY=           -412.9306 XXZZ=           -443.6445 YYZZ=           -145.9411
 XXYZ=            -28.6350 YYXZ=              3.1049 ZZXY=             12.7839
 N-N= 8.381777240476D+02 E-N=-3.292915023987D+03  KE= 6.850693886227D+02
   1 Symmetry operations used in ECPInt.
 ECPInt:  NShTT=   23436 NPrTT=   62434 LenC2=   22054 LenP2D=   46035.
 LDataN:  DoStor=T MaxTD1= 7 Len=  274
 Calling FoFJK, ICntrl=      2127 FMM=F ISym2X=0 I1Cent= 0 IOpClX= 0 NMat=1 NMatS=1 NMatT=0.
 ***** Axes restored to original set *****
 -------------------------------------------------------------------
 Center     Atomic                   Forces (Hartrees/Bohr)
 Number     Number              X              Y              Z
 -------------------------------------------------------------------
      1        6           0.005417790    0.009523817   -0.005853711
      2        6          -0.000817155   -0.012631316   -0.009517625
      3        6          -0.022116848    0.002573708   -0.010270477
      4        6           0.015430647   -0.002560101   -0.005410412
      5        1          -0.002625455   -0.002926927    0.002730613
      6        1           0.002686697   -0.000917944    0.008630673
      7        6          -0.001804507    0.005288061   -0.013023097
      8        1          -0.000238394   -0.000144626   -0.002993268
      9        6          -0.000167589    0.001671833   -0.003189603
     10        1           0.000118147   -0.000057357   -0.002224808
     11        1           0.003146279   -0.002898902    0.002743808
     12        1           0.001547287   -0.003259768   -0.002573484
     13        1           0.001415725   -0.000516769   -0.002368993
     14        1          -0.002489332    0.006451828    0.001917704
     15        8           0.002232234   -0.011493208   -0.002414072
     16        1          -0.001073722    0.009644091    0.014318785
     17        8           0.007059424    0.010211131   -0.008384528
     18        1           0.005874959   -0.010170027    0.012971778
     19        8           0.015186067   -0.013533541   -0.004863107
     20        1          -0.010296826    0.007836066    0.014041395
     21        8          -0.006243169   -0.004798767    0.008377037
     22        1           0.004035176    0.015851227    0.001069428
     23        8          -0.009446694    0.003077896   -0.012800980
     24        1          -0.003278267   -0.000858724    0.016906678
     25        8           0.016024952   -0.009993968    0.006306781
     26        1          -0.019577427    0.004632287   -0.004126514
 -------------------------------------------------------------------
 Cartesian Forces:  Max     0.022116848 RMS     0.008221428

 GradGradGradGradGradGradGradGradGradGradGradGradGradGradGradGradGradGrad
 Berny optimization.
 FormGI is forming the generalized inverse of G from B-inverse, IUseBI=4.
 Internal  Forces:  Max     0.020214552 RMS     0.005521938
 Search for a local minimum.
 Step number   1 out of a maximum of  140
 All quantities printed in internal units (Hartrees-Bohrs-Radians)
 Mixed Optimization -- RFO/linear search
 Second derivative matrix not updated -- first step.
 ITU=  0
     Eigenvalues ---    0.00230   0.00230   0.00257   0.00277   0.00330
     Eigenvalues ---    0.01051   0.01070   0.01170   0.01215   0.01291
     Eigenvalues ---    0.01319   0.03650   0.03799   0.03906   0.03944
     Eigenvalues ---    0.04603   0.04677   0.04784   0.04841   0.04874
     Eigenvalues ---    0.05060   0.05589   0.05614   0.07691   0.07715
     Eigenvalues ---    0.07804   0.07975   0.11507   0.11627   0.13770
     Eigenvalues ---    0.13868   0.16000   0.16000   0.16000   0.16000
     Eigenvalues ---    0.16000   0.16000   0.16871   0.16916   0.17091
     Eigenvalues ---    0.17438   0.19449   0.19521   0.19617   0.19698
     Eigenvalues ---    0.22004   0.22034   0.28181   0.28294   0.28652
     Eigenvalues ---    0.28792   0.29150   0.34103   0.34130   0.34202
     Eigenvalues ---    0.34295   0.34329   0.34390   0.34418   0.34433
     Eigenvalues ---    0.38451   0.38639   0.39665   0.40129   0.40949
     Eigenvalues ---    0.41246   0.50451   0.50840   0.51098   0.51532
     Eigenvalues ---    0.51552   0.51746
 RFO step:  Lambda=-1.80674353D-02 EMin= 2.30000000D-03
 Linear search not attempted -- first point.
 Iteration  1 RMS(Cart)=  0.12918663 RMS(Int)=  0.00640846
 Iteration  2 RMS(Cart)=  0.01011803 RMS(Int)=  0.00056309
 Iteration  3 RMS(Cart)=  0.00002881 RMS(Int)=  0.00056282
 Iteration  4 RMS(Cart)=  0.00000003 RMS(Int)=  0.00056282
 Variable       Old X    -DE/DX   Delta X   Delta X   Delta X     New X
                                 (Linear)    (Quad)   (Total)
    R1        2.90734  -0.00761   0.00000  -0.02499  -0.02499   2.88235
    R2        2.91501  -0.00581   0.00000  -0.01931  -0.01931   2.89570
    R3        2.07156  -0.00145   0.00000  -0.00403  -0.00403   2.06752
    R4        2.73446  -0.01177   0.00000  -0.02910  -0.02910   2.70536
    R5        2.91745  -0.00551   0.00000  -0.01837  -0.01837   2.89908
    R6        2.07112  -0.00365   0.00000  -0.01015  -0.01015   2.06097
    R7        2.73714  -0.01306   0.00000  -0.03245  -0.03245   2.70469
    R8        2.90439  -0.00234   0.00000  -0.00765  -0.00765   2.89674
    R9        2.06677  -0.00245   0.00000  -0.00676  -0.00676   2.06000
   R10        2.71379  -0.01278   0.00000  -0.03047  -0.03047   2.68331
   R11        2.89691  -0.00095   0.00000  -0.00307  -0.00307   2.89383
   R12        2.06778  -0.00200   0.00000  -0.00554  -0.00554   2.06223
   R13        2.72011  -0.01312   0.00000  -0.03163  -0.03163   2.68848
   R14        2.06631   0.00226   0.00000   0.00624   0.00624   2.07255
   R15        2.06835  -0.00385   0.00000  -0.01067  -0.01067   2.05768
   R16        2.69894  -0.01022   0.00000  -0.02374  -0.02374   2.67520
   R17        2.06605  -0.00180   0.00000  -0.00497  -0.00497   2.06108
   R18        2.06990  -0.00301   0.00000  -0.00835  -0.00835   2.06155
   R19        2.70284  -0.00015   0.00000  -0.00036  -0.00036   2.70248
   R20        1.85727  -0.01699   0.00000  -0.03227  -0.03227   1.82501
   R21        1.85031  -0.01739   0.00000  -0.03259  -0.03259   1.81772
   R22        1.85473  -0.01903   0.00000  -0.03596  -0.03596   1.81877
   R23        1.86113  -0.01621   0.00000  -0.03101  -0.03101   1.83012
   R24        1.85050  -0.01721   0.00000  -0.03226  -0.03226   1.81824
   R25        1.84844  -0.02021   0.00000  -0.03775  -0.03775   1.81069
    A1        1.99941   0.00290   0.00000   0.00799   0.00773   2.00714
    A2        1.92537  -0.00107   0.00000  -0.01777  -0.01818   1.90719
    A3        1.87686  -0.00183   0.00000   0.00081   0.00073   1.87760
    A4        1.91461  -0.00366   0.00000  -0.03832  -0.03859   1.87602
    A5        1.90913   0.00044   0.00000   0.01060   0.01063   1.91976
    A6        1.83040   0.00335   0.00000   0.04121   0.04150   1.87190
    A7        2.02352  -0.00311   0.00000  -0.00849  -0.00918   2.01434
    A8        1.91904   0.00040   0.00000  -0.01441  -0.01466   1.90437
    A9        1.88068   0.00113   0.00000   0.01925   0.01901   1.89969
   A10        1.90493  -0.00041   0.00000  -0.01697  -0.01714   1.88779
   A11        1.90598   0.00398   0.00000   0.03453   0.03443   1.94041
   A12        1.81840  -0.00180   0.00000  -0.01344  -0.01310   1.80530
   A13        1.99102   0.00416   0.00000   0.03389   0.03175   2.02277
   A14        1.92442  -0.00456   0.00000  -0.05644  -0.05587   1.86854
   A15        1.88673   0.00224   0.00000   0.04008   0.03782   1.92454
   A16        1.91466  -0.00181   0.00000  -0.03204  -0.03157   1.88309
   A17        1.88570   0.00087   0.00000   0.03582   0.03340   1.91910
   A18        1.85580  -0.00104   0.00000  -0.02172  -0.02062   1.83518
   A19        1.99116   0.00326   0.00000   0.02471   0.02353   2.01468
   A20        1.92896  -0.00198   0.00000  -0.03429  -0.03420   1.89477
   A21        1.88608  -0.00116   0.00000   0.01554   0.01397   1.90005
   A22        1.90914  -0.00323   0.00000  -0.03701  -0.03672   1.87242
   A23        1.87616   0.00338   0.00000   0.04145   0.04050   1.91666
   A24        1.86743  -0.00027   0.00000  -0.00926  -0.00861   1.85882
   A25        1.95154  -0.00393   0.00000  -0.01343  -0.01495   1.93659
   A26        1.91806  -0.00534   0.00000  -0.04466  -0.04478   1.87328
   A27        1.93956   0.00916   0.00000   0.04387   0.04356   1.98311
   A28        1.89152   0.00176   0.00000  -0.00594  -0.00672   1.88480
   A29        1.89960   0.00112   0.00000   0.03813   0.03759   1.93719
   A30        1.86070  -0.00282   0.00000  -0.01877  -0.01799   1.84271
   A31        1.94515  -0.00137   0.00000  -0.00879  -0.00906   1.93609
   A32        1.93739  -0.00880   0.00000  -0.04781  -0.04879   1.88861
   A33        1.91702   0.01447   0.00000   0.06648   0.06656   1.98358
   A34        1.89060   0.00211   0.00000  -0.00699  -0.00774   1.88286
   A35        1.88908  -0.00707   0.00000  -0.03234  -0.03218   1.85690
   A36        1.88280   0.00056   0.00000   0.03002   0.03067   1.91348
   A37        1.86468  -0.00086   0.00000  -0.00483  -0.00483   1.85984
   A38        1.84151   0.00126   0.00000   0.00707   0.00707   1.84859
   A39        1.83281   0.00192   0.00000   0.01078   0.01078   1.84358
   A40        1.85773  -0.00196   0.00000  -0.01099  -0.01099   1.84674
   A41        1.85587  -0.00171   0.00000  -0.00962  -0.00962   1.84625
   A42        1.84026   0.00613   0.00000   0.03440   0.03440   1.87467
    D1        1.03008  -0.00354   0.00000  -0.04850  -0.04841   0.98168
    D2       -1.14062  -0.00092   0.00000  -0.00690  -0.00695  -1.14758
    D3       -3.11207   0.00040   0.00000   0.00593   0.00594  -3.10613
    D4       -1.14037   0.00001   0.00000   0.01099   0.01103  -1.12934
    D5        2.97211   0.00262   0.00000   0.05259   0.05248   3.02459
    D6        1.00067   0.00395   0.00000   0.06542   0.06538   1.06605
    D7       -3.12711  -0.00241   0.00000  -0.02911  -0.02901   3.12706
    D8        0.98537   0.00020   0.00000   0.01249   0.01244   0.99780
    D9       -0.98608   0.00153   0.00000   0.02532   0.02533  -0.96074
   D10        1.22825  -0.00284   0.00000  -0.07110  -0.07155   1.15670
   D11       -0.93520   0.00005   0.00000  -0.00950  -0.00973  -0.94492
   D12       -2.95712   0.00249   0.00000   0.02428   0.02474  -2.93238
   D13       -2.87879  -0.00502   0.00000  -0.11955  -0.11974  -2.99853
   D14        1.24095  -0.00213   0.00000  -0.05794  -0.05792   1.18304
   D15       -0.78097   0.00031   0.00000  -0.02416  -0.02345  -0.80442
   D16       -0.88003  -0.00278   0.00000  -0.08546  -0.08594  -0.96597
   D17       -3.04347   0.00011   0.00000  -0.02385  -0.02412  -3.06759
   D18        1.21780   0.00255   0.00000   0.00992   0.01034   1.22814
   D19        0.80273  -0.00178   0.00000  -0.03182  -0.03178   0.77094
   D20        2.98399   0.00089   0.00000  -0.01474  -0.01486   2.96913
   D21       -1.24681  -0.00137   0.00000  -0.03218  -0.03210  -1.27891
   D22        0.99446  -0.00305   0.00000  -0.09534  -0.09544   0.89902
   D23       -1.16535   0.00036   0.00000  -0.03773  -0.03778  -1.20312
   D24        3.07985   0.00245   0.00000  -0.01667  -0.01663   3.06322
   D25       -3.11075  -0.00521   0.00000  -0.13535  -0.13530   3.03714
   D26        1.01262  -0.00181   0.00000  -0.07774  -0.07763   0.93499
   D27       -1.02536   0.00029   0.00000  -0.05668  -0.05649  -1.08185
   D28       -1.13320  -0.00546   0.00000  -0.14199  -0.14213  -1.27533
   D29        2.99018  -0.00206   0.00000  -0.08438  -0.08446   2.90572
   D30        0.95219   0.00004   0.00000  -0.06331  -0.06332   0.88887
   D31       -1.31364  -0.00113   0.00000  -0.05947  -0.05989  -1.37353
   D32        0.89802  -0.00163   0.00000  -0.03433  -0.03391   0.86412
   D33        2.93140  -0.00121   0.00000  -0.04506  -0.04506   2.88634
   D34       -1.01486   0.00105   0.00000   0.04744   0.04806  -0.96680
   D35       -3.11620   0.00501   0.00000   0.09393   0.09382  -3.02238
   D36        1.11167   0.00623   0.00000   0.11824   0.11875   1.23043
   D37        1.15382  -0.00333   0.00000  -0.02722  -0.02687   1.12694
   D38       -0.94752   0.00063   0.00000   0.01926   0.01888  -0.92863
   D39       -3.00283   0.00185   0.00000   0.04358   0.04382  -2.95901
   D40       -3.11326  -0.00505   0.00000  -0.05028  -0.05041   3.11951
   D41        1.06859  -0.00109   0.00000  -0.00379  -0.00466   1.06393
   D42       -0.98672   0.00014   0.00000   0.02052   0.02028  -0.96645
   D43       -1.32358  -0.00502   0.00000  -0.08515  -0.08573  -1.40931
   D44        0.83905   0.00195   0.00000   0.00260   0.00322   0.84227
   D45        2.89338  -0.00027   0.00000  -0.02809  -0.02812   2.86526
   D46       -1.10762   0.00082   0.00000   0.03920   0.03976  -1.06786
   D47        3.06648   0.00511   0.00000   0.08692   0.08665  -3.13005
   D48        0.98581   0.00065   0.00000   0.03701   0.03767   1.02348
   D49        1.06284  -0.00193   0.00000  -0.01683  -0.01642   1.04641
   D50       -1.04625   0.00237   0.00000   0.03089   0.03047  -1.01578
   D51       -3.12692  -0.00209   0.00000  -0.01902  -0.01852   3.13775
   D52        3.08459  -0.00209   0.00000  -0.02450  -0.02473   3.05985
   D53        0.97550   0.00220   0.00000   0.02322   0.02216   0.99766
   D54       -1.10517  -0.00226   0.00000  -0.02668  -0.02683  -1.13200
   D55       -0.49849  -0.00247   0.00000  -0.02292  -0.02325  -0.52174
   D56        1.65813   0.00281   0.00000   0.04107   0.04135   1.69948
   D57       -2.57596   0.00062   0.00000   0.01425   0.01431  -2.56165
   D58       -0.79155  -0.00356   0.00000  -0.08764  -0.08847  -0.88002
   D59        1.36496  -0.00165   0.00000  -0.04907  -0.04807   1.31689
   D60       -2.88135  -0.00053   0.00000  -0.04674  -0.04689  -2.92825
   D61        1.42957  -0.00236   0.00000  -0.03115  -0.03006   1.39951
   D62       -2.72640   0.00036   0.00000  -0.02160  -0.02159  -2.74799
   D63       -0.68427  -0.00060   0.00000  -0.03093  -0.03204  -0.71631
         Item               Value     Threshold  Converged?
 Maximum Force            0.020215     0.000450     NO 
 RMS     Force            0.005522     0.000300     NO 
 Maximum Displacement     0.415214     0.001800     NO 
 RMS     Displacement     0.132768     0.001200     NO 
 Predicted change in Energy=-1.128796D-02
 GradGradGradGradGradGradGradGradGradGradGradGradGradGradGradGradGradGrad

                          Input orientation:                          
 ---------------------------------------------------------------------
 Center     Atomic      Atomic             Coordinates (Angstroms)
 Number     Number       Type             X           Y           Z
 ---------------------------------------------------------------------
      1          6           0        0.026056   -0.017217   -0.092980
      2          6           0        1.551051    0.011841   -0.090141
      3          6           0       -0.634299    0.521214    1.180629
      4          6           0        2.221454   -0.727664    1.074864
      5          1           0        1.888420    1.048835   -0.073705
      6          1           0       -0.315261   -1.047646   -0.229894
      7          6           0       -0.443355    2.017674    1.452467
      8          1           0       -0.207168   -0.028727    2.019353
      9          6           0        1.753208   -2.168880    1.295494
     10          1           0        2.022433   -0.177509    1.996074
     11          1           0        0.621290    2.280500    1.469935
     12          1           0       -0.856829    2.223578    2.438518
     13          1           0        0.687351   -2.201502    1.524529
     14          1           0        2.292511   -2.575142    2.152361
     15          8           0       -1.157153    2.852159    0.559043
     16          1           0       -0.945020    2.546466   -0.332151
     17          8           0       -2.017224    0.199258    1.191526
     18          1           0       -2.445331    0.855897    0.634035
     19          8           0       -0.418543    0.731819   -1.229111
     20          1           0        0.143656    0.453803   -1.959146
     21          8           0        2.025000   -0.472128   -1.350956
     22          1           0        1.955674   -1.437061   -1.306153
     23          8           0        3.631247   -0.702224    0.885506
     24          1           0        3.767014   -0.679073   -0.066760
     25          8           0        1.948029   -3.015633    0.159621
     26          1           0        2.867490   -3.285240    0.157341
 ---------------------------------------------------------------------
                    Distance matrix (angstroms):
                    1          2          3          4          5
     1  C    0.000000
     2  C    1.525275   0.000000
     3  C    1.532337   2.578773   0.000000
     4  C    2.586188   1.534127   3.118686   0.000000
     5  H    2.145982   1.090616   2.866330   2.141512   0.000000
     6  H    1.094086   2.150619   2.133702   2.870488   3.045625
     7  C    2.597987   3.221903   1.532889   3.844563   2.950428
     8  H    2.125200   2.746442   1.090107   2.697920   3.151748
     9  C    3.088781   2.591602   3.598609   1.531351   3.499525
    10  H    2.894022   2.147172   2.865552   1.091287   2.409536
    11  H    2.841921   2.906047   2.180662   3.430110   2.346368
    12  H    3.494157   4.133254   2.128344   4.477187   3.902266
    13  H    2.797275   2.872634   3.046015   2.174366   3.815968
    14  H    4.089176   3.503008   4.370114   2.139912   4.272221
    15  O    3.171504   3.977840   2.468411   4.949362   3.595533
    16  H    2.751847   3.565566   2.546900   4.767198   3.215287
    17  O    2.423181   3.796100   1.419949   4.340412   4.192451
    18  H    2.720042   4.148244   1.921097   4.947815   4.395397
    19  O    1.431614   2.386403   2.428529   3.795784   2.599527
    20  H    1.928281   2.381023   3.235421   3.862425   2.636883
    21  O    2.405250   1.431261   3.803620   2.447141   1.990817
    22  H    2.685362   1.934353   4.089851   2.498625   2.775451
    23  O    3.797904   2.406032   4.447334   1.422681   2.650234
    24  H    3.799146   2.321293   4.729506   1.922088   2.552417
    25  O    3.570474   3.063588   4.496683   2.479362   4.071596
    26  H    4.337785   3.558793   5.272451   2.792921   4.449288
                    6          7          8          9         10
     6  H    0.000000
     7  C    3.498990   0.000000
     8  H    2.471637   2.136563   0.000000
     9  C    2.804021   4.730408   2.991203   0.000000
    10  H    3.343184   3.345810   2.234680   2.128110   0.000000
    11  H    3.852675   1.096745   2.514107   4.594415   2.877817
    12  H    4.256128   1.088877   2.381311   5.235693   3.775067
    13  H    2.326932   4.368653   2.401242   1.090675   2.470090
    14  H    3.848227   5.391546   3.570758   1.090925   2.417853
    15  O    4.066901   1.415655   3.366673   5.850076   4.621008
    16  H    3.650301   1.927733   3.564494   5.671344   4.652574
    17  O    2.543989   2.419048   2.003392   4.453654   4.136191
    18  H    2.984468   2.455090   2.776876   5.216754   4.783722
    19  O    2.043428   2.974038   3.342997   4.416355   4.145728
    20  H    2.335652   3.798603   4.022980   4.479041   4.424039
    21  O    2.657973   4.488995   4.066713   3.155398   3.359973
    22  H    2.543053   5.029962   4.209545   2.710188   3.534916
    23  O    4.115623   4.931700   4.058649   2.417892   2.024097
    24  H    4.102125   5.225677   4.535299   2.851435   2.747801
    25  O    3.024429   5.720519   4.126146   1.430089   3.381278
    26  H    3.909818   6.384351   4.850307   1.945065   3.708511
                   11         12         13         14         15
    11  H    0.000000
    12  H    1.768115   0.000000
    13  H    4.482821   4.775061   0.000000
    14  H    5.180343   5.746995   1.763609   0.000000
    15  O    2.078311   2.004428   5.465697   6.625288   0.000000
    16  H    2.402411   2.790814   5.353046   6.548685   0.965752
    17  O    3.372067   2.645634   3.631702   5.214817   2.859658
    18  H    3.483157   2.765872   4.467031   6.043549   2.376992
    19  O    3.280932   3.983584   4.172518   5.451620   2.870345
    20  H    3.914531   4.844846   4.413870   5.540449   3.712882
    21  O    4.183873   5.471004   3.612264   4.094809   4.982478
    22  H    4.827785   5.944158   3.194647   3.656502   5.618368
    23  O    4.277621   5.578081   3.364923   2.627728   5.972352
    24  H    4.584330   6.006807   3.786069   3.270128   6.091687
    25  O    5.614818   6.364742   2.028569   2.069713   6.650765
    26  H    6.143760   7.030036   2.792257   2.194298   7.350291
                   16         17         18         19         20
    16  H    0.000000
    17  O    2.996765   0.000000
    18  H    2.458144   0.961898   0.000000
    19  O    2.091568   2.949387   2.755826   0.000000
    20  H    2.865583   3.828960   3.686343   0.962452   0.000000
    21  O    4.355559   4.822297   5.068303   2.726764   2.183277
    22  H    5.023066   4.969895   5.328304   3.216657   2.699106
    23  O    5.742725   5.728135   6.278198   4.788411   4.646690
    24  H    5.716450   5.984326   6.437428   4.567337   4.241846
    25  O    6.288761   5.208030   5.874982   4.644635   4.447687
    26  H    6.984528   6.088652   6.752948   5.371874   5.087163
                   21         22         23         24         25
    21  O    0.000000
    22  H    0.968457   0.000000
    23  O    2.763102   2.854977   0.000000
    24  H    2.174074   2.321981   0.962174   0.000000
    25  O    2.959254   2.154167   2.951608   2.969759   0.000000
    26  H    3.301264   2.527644   2.790254   2.766130   0.958176
                   26
    26  H    0.000000
 Stoichiometry    C6H14O6
 Framework group  C1[X(C6H14O6)]
 Deg. of freedom    72
 Full point group                 C1      NOp   1
 Largest Abelian subgroup         C1      NOp   1
 Largest concise Abelian subgroup C1      NOp   1
                         Standard orientation:                         
 ---------------------------------------------------------------------
 Center     Atomic      Atomic             Coordinates (Angstroms)
 Number     Number       Type             X           Y           Z
 ---------------------------------------------------------------------
      1          6           0       -0.521908    0.107429   -0.663878
      2          6           0        0.578923    0.759617    0.166354
      3          6           0       -1.440362   -0.843349    0.111054
      4          6           0        1.508225   -0.211177    0.906287
      5          1           0        0.124873    1.423570    0.902866
      6          1           0       -0.068652   -0.464774   -1.478844
      7          6           0       -2.326512   -0.194658    1.180488
      8          1           0       -0.800258   -1.574576    0.604923
      9          6           0        2.126501   -1.315594    0.044292
     10          1           0        0.939996   -0.699197    1.699923
     11          1           0       -1.722802    0.374166    1.898000
     12          1           0       -2.823120   -0.998568    1.721563
     13          1           0        1.352877   -1.950387   -0.389430
     14          1           0        2.750913   -1.939254    0.685600
     15          8           0       -3.366668    0.604007    0.647299
     16          1           0       -2.955704    1.201171    0.009193
     17          8           0       -2.239524   -1.597293   -0.788481
     18          1           0       -2.967757   -1.021580   -1.040429
     19          8           0       -1.293292    1.156228   -1.259280
     20          1           0       -0.652551    1.794009   -1.589430
     21          8           0        1.322885    1.650775   -0.670824
     22          1           0        1.921859    1.090600   -1.185939
     23          8           0        2.537288    0.534455    1.545882
     24          1           0        2.673134    1.314827    0.999674
     25          8           0        2.903824   -0.821903   -1.049871
     26          1           0        3.761877   -0.573776   -0.703057
 ---------------------------------------------------------------------
 Rotational constants (GHZ):           1.4655055           0.5289921           0.5126382
 Standard basis: def2TZVPP (5D, 7F)
 There are   642 symmetry adapted cartesian basis functions of A   symmetry.
 There are   568 symmetry adapted basis functions of A   symmetry.
   568 basis functions,   850 primitive gaussians,   642 cartesian basis functions
    49 alpha electrons       49 beta electrons
       nuclear repulsion energy       837.0841067147 Hartrees.
 NAtoms=   26 NActive=   26 NUniq=   26 SFac= 1.00D+00 NAtFMM=   60 NAOKFM=F Big=F
 Integral buffers will be    131072 words long.
 Raffenetti 2 integral format.
 Two-electron integral symmetry is turned on.
 Nuclear repulsion after empirical dispersion term =      837.0637385456 Hartrees.
 One-electron integrals computed using PRISM.
   1 Symmetry operations used in ECPInt.
 ECPInt:  NShTT=   23436 NPrTT=   62434 LenC2=   22080 LenP2D=   46109.
 LDataN:  DoStor=T MaxTD1= 6 Len=  172
 NBasis=   568 RedAO= T EigKep=  4.04D-05  NBF=   568
[...]
 0589666,0.04231208,-0.12521683,0.04516669,0.00674038,-0.00567482,0.009
 70559,-0.00207728,0.00856946,-0.00583122,0.00021248,0.00171055,-0.0017
 0535,0.00152942,0.00193133,-0.00070428,0.01528215,-0.02159664,0.038330
 98,0.00111058,-0.00354209,0.00446650,0.00101542,-0.00021699,-0.0026841
 4,-0.00111343,0.00012759,0.00032692,0.00019945,-0.00007356,0.00035306,
 -0.00013496,0.00041345,0.00000229,0.00000411,0.00090185,-0.00028133,0.
 00061940,0.00036286,-0.00056734,0.00055412,-0.00002033,-0.00004209,0.0
 0306321,-0.00306637,-0.00984742,-0.00277139,-0.00078777,-0.00027986,-0
 .00100142,0.00175903,0.00017977,-0.00045870,-0.00113509,0.00035741,-0.
 15868038,0.20666862,-0.04046762,0.07244887,-0.16345760,-0.01185934,0.0
 1256813,-0.02312824,-0.01590706,0.02351392,-0.04003751,-0.00058206,-0.
 00130982,0.00386403,0.00124588,-0.00069012,0.00031647,-0.00319297,0.01
 468671,-0.00830711,-0.00048186,0.00289331,0.00308097,0.00419382,-0.002
 90587,-0.00570445,0.00078208,-0.00091480,-0.00120748,0.00032651,-0.000
 07239,0.00045281,-0.00014999,-0.00030985,-0.00009277,0.00005615,0.0002
 9062,0.00034299,-0.00033824,-0.00042329,0.00029551,-0.00031922,0.00031
 253,0.00009453,0.00373077,-0.00897911,-0.00096669,0.00081592,-0.000458
 35,-0.00742003,0.00161604,-0.00093092,0.00317345,-0.00007640,0.0002407
 1,-0.00053881,-0.18204962,-0.00518504,0.54703843,0.00858242,-0.0040070
 7,-0.01096768,0.00032746,-0.00011153,-0.00743629,-0.00219063,0.0012441
 5,-0.00311211,0.00014343,0.00039826,0.00045930,-0.00029125,-0.00012053
 ,0.00001078,-0.00019198,0.00095765,-0.00000203,0.00030438,0.00046534,0
 .00023733,0.00052438,-0.00011808,-0.00118498,0.00051749,0.00004182,-0.
 00040361,0.00016665,-0.00011381,0.00042078,-0.00015814,-0.00009870,0.0
 0000087,-0.00005477,-0.00009618,-0.00000947,-0.00016433,-0.00011446,0.
 00009990,-0.00008119,-0.00006909,0.00007740,0.00037865,-0.00021906,-0.
 00053302,-0.00064188,0.00021739,0.00051593,0.00010065,-0.00000456,0.00
 029007,0.00019086,0.00002672,-0.00006613,-0.19808927,0.09066169,0.2403
 8677,0.19094054,-0.01343771,0.00522520,0.02048715,0.00094056,0.0025649
 6,0.00380846,0.00169012,-0.00211251,0.00217491,-0.00008360,-0.00029783
 ,-0.00064811,-0.00037658,-0.00042608,-0.00055327,-0.00034802,-0.000861
 99,0.00127776,0.00059963,-0.00015962,0.00066833,-0.00029046,0.00056686
 ,0.00071900,-0.00002393,0.00015968,0.00049903,-0.00010085,0.00006657,-
 0.00022931,-0.00013597,0.00006023,-0.00006787,-0.00013086,-0.00001033,
 -0.00005772,0.00001337,0.00003015,0.00000927,-0.00002051,-0.00006412,-
 0.00006172,0.00044199,-0.00191597,-0.00153137,0.00014170,0.00240358,-0
 .00066326,0.00009958,0.00000961,-0.00021634,-0.00002808,-0.00012176,0.
 00002059,0.10005828,-0.06207538,-0.10423781,-0.08779598,0.06004508,0.0
 1840845,-0.00660929,-0.03416077,-0.00015135,-0.00089200,-0.00077840,-0
 .00322630,0.00485018,-0.00429468,0.00037630,-0.00006681,-0.00132231,-0
 .00050089,-0.00012241,-0.00015555,0.00051289,-0.00032060,0.00081198,-0
 .00011664,0.00038382,0.00024183,0.00077830,-0.00066808,-0.00113813,0.0
 0010616,0.00021132,0.00024588,0.00000090,0.00004914,0.00004044,-0.0000
 7454,-0.00016499,-0.00004408,-0.00006060,0.00007882,0.00010371,0.00003
 304,0.00001732,-0.00006855,0.00004709,-0.00013946,0.00001178,-0.000311
 06,0.00075100,0.00122795,0.00059362,-0.00151205,-0.00087272,-0.0001580
 5,-0.00013777,0.00107069,0.00030186,-0.00006802,-0.00017794,0.20379073
 ,-0.07520878,-0.31321415,-0.22281708,0.08124258,0.35120338,-0.02282239
 ,0.02170439,0.04191553,-0.08113140,-0.00086068,0.04424092,-0.00386011,
 -0.00046051,-0.00776632,-0.00427425,-0.00148980,-0.00586321,0.00487863
 ,-0.00000696,-0.00481370,0.00385881,0.00011088,-0.00013671,-0.00084816
 ,-0.00090100,0.00061673,0.00017443,-0.00033573,0.00043927,-0.00062409,
 0.00031354,0.00112891,-0.00003422,0.00086444,-0.00197591,0.00029626,0.
 00020549,-0.00005376,-0.00004781,0.00052921,0.00016935,0.00050823,0.00
 051388,-0.00030644,0.00004569,-0.00027265,0.00012437,0.00013738,0.0010
 2588,0.00037843,0.00015183,-0.00115455,-0.00014668,-0.00434071,0.00059
 929,0.00303320,0.00032279,-0.00042794,0.00012131,-0.00100562,0.0019394
 6,0.00614134,0.00044472,-0.00345302,0.00171487,0.12648955,0.00412061,-
 0.00234082,-0.00480727,0.01681765,-0.11118437,-0.05363504,-0.00004516,
 0.00117107,0.00181647,-0.00329340,0.00919247,0.00879118,0.01566693,-0.
 01416219,-0.04007686,0.00134855,0.00223357,0.00125602,-0.00130177,-0.0
 0022469,-0.00015376,0.00001235,-0.00009256,-0.00034229,0.00025625,-0.0
 0374615,-0.00692959,0.00146171,-0.00041011,0.00255336,0.00068741,0.000
 55385,0.00020626,0.00037935,0.00011383,-0.00009100,-0.00027071,0.00000
 693,0.00046439,0.00021005,0.00138892,0.00048736,0.00076216,-0.00023766
 ,0.00016264,-0.00037116,0.00025395,-0.00007830,0.00157561,0.00024350,-
 0.00094772,-0.00027107,-0.00001860,-0.00003851,0.00347481,0.00140887,-
 0.00301182,-0.00205102,-0.00167891,-0.00133167,0.05013746,0.60894395,0
 .01190801,-0.00809171,-0.02472333,0.04836051,-0.01613443,-0.17863354,0
 .00017766,0.00115115,0.00446676,0.01229832,-0.01618262,-0.04840179,0.0
 0479178,-0.00890527,-0.01172122,-0.00070977,0.00099152,0.00073136,-0.0
 0094418,0.00076446,-0.00107473,-0.00041219,0.00000869,0.00059391,-0.00
 024299,-0.00411158,-0.00043109,-0.00416261,0.00537743,-0.00493482,0.00
 030184,0.00022664,0.00001953,0.00017225,-0.00015730,-0.00001554,0.0000
 1889,0.00023157,0.00001611,-0.00010283,0.00064461,0.00047132,0.0005775
 0,-0.00048012,0.00130389,0.00011515,-0.00042275,-0.00066736,0.00333133
 ,-0.00044541,-0.00105250,-0.00001999,0.00021504,-0.00040628,-0.0038015
 4,0.00220522,0.00636858,0.00305323,-0.00332567,0.00024440,-0.08902918,
 0.05430310,0.29944295,0.00147149,0.00384822,0.00005477,0.00157201,0.01
 563967,0.00186791,-0.00051755,-0.00064916,0.00064544,0.00224758,-0.001
 27429,-0.00057199,-0.00002106,0.00027579,0.00127142,-0.00102561,-0.001
 17599,0.00034530,0.00034317,0.00014074,-0.00026455,0.00002836,0.000034
 20,-0.00017506,0.00080773,-0.00056773,-0.00030407,-0.00013436,0.000083
 69,0.00028565,-0.00011800,-0.00005237,0.00002352,-0.00001435,-0.000157
 58,-0.00003937,-0.00028484,-0.00013425,0.00035339,-0.00014052,0.000005
 96,0.00008454,-0.00006062,-0.00017319,-0.00011632,-0.00004794,0.000245
 95,0.00010176,0.00010143,-0.00010975,-0.00021268,-0.00007075,0.0000742
 2,0.00004876,-0.00133611,-0.00090507,0.00004586,0.00065561,0.00154572,
 0.00009689,-0.03098939,-0.08594265,0.01144863,0.03510260,0.00058474,0.
 00190566,0.00166973,-0.00190654,-0.01798175,-0.00575026,-0.00009603,0.
 00015133,-0.00114586,-0.00019526,0.00284300,0.00016580,0.00100766,0.00
 177622,-0.00123782,0.00031626,-0.00024770,-0.00016990,-0.00005924,-0.0
 0005190,0.00018223,0.00002554,-0.00000072,0.00015945,-0.00213482,0.005
 48704,0.00501132,0.00029376,-0.00096746,0.00073373,-0.00001897,-0.0000
 8852,-0.00005503,-0.00007614,0.00011601,0.00006063,0.00029819,-0.00028
 782,-0.00044358,0.00009748,-0.00106497,-0.00121695,-0.00012323,0.00018
 126,0.00015245,0.00015938,-0.00030258,-0.00011455,-0.00085080,-0.00001
 208,0.00050449,0.00011455,-0.00003729,-0.00002266,-0.00073182,-0.00002
 495,0.00094788,0.00149631,-0.00133433,0.00021034,-0.06794603,-0.483362
 50,-0.01557336,0.06911300,0.49943129,-0.00006788,-0.00071020,0.0008436
 0,-0.00496456,-0.04437891,-0.00600205,0.00018585,0.00009390,0.00013442
 ,-0.00122638,-0.00156279,-0.00060201,0.00283077,-0.00247915,-0.0063127
 4,0.00085307,0.00044710,0.00030413,-0.00023462,-0.00021172,0.00003689,
 0.00002306,-0.00001773,-0.00019510,0.00086656,-0.00010559,-0.00660926,
 0.00041851,0.00047490,0.00059001,0.00013670,0.00011214,0.00004109,0.00
 007927,0.00004616,-0.00001338,-0.00018740,0.00006566,0.00020897,0.0001
 2627,0.00012632,0.00049761,0.00005929,0.00011441,-0.00010317,-0.000045
 23,0.00000758,0.00003648,-0.00008170,0.00012950,-0.00013056,-0.0000046
 7,-0.00003050,0.00002857,-0.00083638,0.00029921,-0.00088043,0.00032613
 ,0.00106959,0.00043659,0.01796875,0.02735759,-0.04158726,-0.01429120,0
 .02216431,0.05561857,0.00535984,0.00258389,-0.00377063,-0.04689398,0.0
 0268082,0.00156499,0.00169519,-0.00070007,-0.00014800,-0.22530484,0.00
 359020,-0.00488691,0.00152306,0.00008432,0.00110471,-0.00014152,-0.000
 18022,0.00022646,-0.00014426,-0.00074286,0.00012362,0.00016176,0.00014
 111,-0.00057467,-0.04040484,-0.00646136,0.00851016,-0.02249107,0.00211
 323,0.00723705,0.00000223,-0.00012033,-0.00004653,-0.00007251,0.000133
 99,0.00007165,-0.00059273,-0.00566470,0.00042704,0.00195141,0.00060917
 ,0.00020464,-0.00024449,0.00090981,-0.00017487,0.00011389,-0.00060256,
 -0.00005965,-0.00141684,0.00044244,0.00023515,0.00018280,-0.00024586,-
 0.00009109,-0.00411330,0.00194953,-0.00344884,-0.00031460,0.00025835,0
 .00100781,0.00390882,-0.00037495,0.00196900,-0.00121897,-0.00020942,-0
 .00008280,0.37952663,-0.00181890,-0.00089203,0.00310491,0.02338543,-0.
 00015753,-0.00370984,-0.00059640,0.00001373,0.00065813,-0.00385521,-0.
 06359636,0.00818694,-0.00040825,0.00246860,-0.00201171,0.00109025,0.00
 036618,0.00018322,-0.00044813,-0.00000298,-0.00010480,0.00000596,-0.00
 016444,-0.00006481,-0.03742183,-0.00059499,0.00442316,0.01156952,0.005
 22450,0.00052356,0.00014115,0.00015177,0.00001421,0.00007009,-0.000033
 51,-0.00003164,-0.00235449,-0.00646814,0.00010092,0.00055614,0.0029970
 4,-0.00092426,0.00030031,-0.00002390,0.00004011,-0.00014155,0.00010939
 ,0.00003217,0.00061155,0.00018224,-0.00026870,-0.00010400,-0.00001576,
 0.00003379,0.00204316,-0.00018913,0.00121694,-0.00015950,-0.00024574,-
 0.00039244,-0.00088477,0.00382114,-0.00009420,0.00120766,-0.00154274,0
 .00127880,0.01352577,0.06383300,0.00112790,0.00271988,-0.00301935,-0.0
 2369966,-0.00066137,-0.00166689,-0.00018178,0.00030995,-0.00200838,0.0
 4518936,0.00549590,-0.09926013,0.00006961,-0.00087950,0.00091273,-0.00
 012071,-0.00023904,0.00000613,-0.00022154,0.00027481,0.00003789,-0.000
 04478,-0.00027118,0.00092976,0.01270354,-0.00327940,-0.00109126,0.0365
 3419,0.00226738,-0.00122358,0.00004683,-0.00001594,-0.00010776,-0.0000
 7575,0.00011497,0.00006795,0.00087744,0.00234096,0.00135459,0.00012426
 ,-0.00167291,0.00047003,0.00015025,-0.00016197,0.00050843,0.00016163,-
 0.00030711,-0.00026555,0.00004365,-0.00017723,0.00076651,0.00012386,0.
 00003823,-0.00003358,-0.00250674,0.00061739,-0.00015909,0.00075143,-0.
 00033507,0.00048412,-0.01095620,0.00139145,-0.00079234,0.00081920,0.00
 143619,-0.00014251,-0.10148340,-0.08730098,0.59929666,-0.00047219,-0.0
 0035475,0.00033510,-0.00390400,0.00283265,0.00406163,-0.00019112,-0.00
 004197,0.00080568,-0.01590492,-0.00553413,0.04572204,-0.00017136,0.000
 32912,-0.00043894,0.00012598,0.00002117,0.00001592,-0.00000691,0.00005
 362,-0.00010917,-0.00000075,0.00004537,-0.00021537,-0.00346665,0.00072
 177,0.00185516,-0.00564270,-0.00063903,0.00023750,0.00003053,0.0000751
 9,0.00005439,0.00006368,-0.00006730,-0.00004561,-0.00011508,-0.0008244
 0,-0.00017771,-0.00003212,0.00024294,-0.00013060,0.00008459,-0.0001824
 0,-0.00009647,-0.00011745,0.00026452,0.00008901,0.00041472,-0.00002931
 ,-0.00035774,-0.00010409,0.00004101,0.00002599,0.00110100,-0.00046892,
 0.00000174,-0.00071298,0.00039528,-0.00034241,0.00488408,-0.00107251,0
 .00095216,-0.00144481,-0.00159833,-0.00099216,-0.05452075,-0.00443253,
 0.04422295,0.07896401,0.00023277,-0.00038512,-0.00032284,0.00210793,0.
 00295389,-0.00035399,0.00005430,0.00010669,-0.00038419,0.00124877,-0.0
 0293203,-0.00195872,0.00052605,-0.00110769,-0.00009459,-0.00033475,-0.
 00003127,-0.00002138,0.00017013,0.00011465,0.00002938,-0.00003868,-0.0
 0005947,0.00018937,-0.00379784,0.00052270,0.00298466,0.00418916,-0.000
 62639,-0.00145868,-0.00005813,-0.00004559,-0.00003900,-0.00004827,0.00
 000404,0.00001748,-0.00025341,-0.00069725,-0.00049469,0.00004570,0.000
 19332,-0.00024531,-0.00008624,-0.00008901,0.00004891,0.00008164,0.0000
 0430,-0.00002371,-0.00003997,-0.00011757,0.00014270,0.00005301,0.00004
 302,0.00000482,-0.00024452,-0.00009212,-0.00002028,0.00008792,0.000114
 37,0.00008085,0.00072863,-0.00364546,0.00023839,-0.00236089,0.00074636
 ,-0.00118154,-0.01350688,-0.01149157,0.07522291,0.01031794,0.01842005,
 0.00116823,-0.00067231,-0.00133664,-0.00638163,0.00233730,0.00410245,0
 .00032591,-0.00006469,0.00036173,0.00448383,-0.00113299,-0.00602583,0.
 00037363,-0.00049713,0.00009673,-0.00019412,-0.00007486,0.00006332,0.0
 0012213,-0.00003972,0.00001549,0.00003771,0.00003340,-0.00011545,-0.00
 140891,0.00050773,0.00041973,0.00056540,0.00115547,0.00066153,-0.00002
 216,-0.00002136,0.00002539,0.00001030,-0.00002674,-0.00001833,-0.00049
 035,-0.00071341,0.00001462,0.00004755,0.00005126,-0.00010160,-0.000063
 43,0.00002139,-0.00014198,-0.00003905,0.00007209,0.00006601,0.00007643
 ,-0.00001550,-0.00018889,-0.00000940,0.00000718,0.00001307,-0.00037157
 ,0.00025445,-0.00101933,-0.00073256,0.00044120,0.00011846,0.00380157,0
 .00002581,-0.00065629,-0.00136970,-0.00171758,0.00002202,0.09423712,0.
 07153197,-0.49939318,-0.09406714,-0.07165584,0.50377551,-0.00064873,-0
 .00123832,0.00064046,-0.00079568,0.00019632,0.00107425,0.00046704,0.00
 013460,0.00039414,-0.00077854,-0.00466832,-0.00427910,-0.00003925,0.00
 018010,-0.00022394,0.00027514,0.00041741,0.00019030,-0.00025886,-0.000
 28819,-0.00003917,-0.00000896,-0.00017210,-0.00031744,-0.09759315,0.03
 090331,0.03442310,0.00059239,-0.00168570,0.00021669,0.00007348,0.00005
 235,-0.00000965,0.00000853,0.00003619,0.00000828,-0.00301516,0.0234504
 9,0.03454911,0.00685433,-0.00910654,-0.00857287,-0.00000580,0.00033282
 ,-0.00013418,-0.00002660,-0.00007997,0.00005521,-0.00007118,0.00018748
 ,-0.00009374,0.00004442,-0.00006113,0.00000770,0.00036921,0.00049195,-
 0.00050230,-0.00032979,0.00000240,0.00002432,0.00397267,-0.00096752,-0
 .00029592,-0.00448547,0.00108133,0.00004399,0.00474313,-0.00297716,-0.
 00392110,0.00075289,0.00153345,-0.00021307,0.60461779,-0.00068304,-0.0
 0050108,-0.00054458,-0.00081409,0.00541394,0.00122738,-0.00090268,0.00
 018129,-0.00001390,0.00890205,-0.02401947,-0.04503473,-0.00007360,0.00
 026630,-0.00039940,0.00025690,-0.00008127,-0.00005932,-0.00034963,0.00
 034744,-0.00013189,-0.00016241,-0.00009166,0.00037971,0.00438725,-0.10
 682369,-0.07550586,-0.00335021,-0.00843195,0.00110202,0.00013694,0.000
 18206,0.00000278,0.00005147,-0.00003718,-0.00003693,0.00384597,-0.0032
 7144,-0.00706135,-0.00218015,0.00740673,0.00069756,0.00043303,-0.00042
 623,0.00024492,-0.00015305,0.00022428,-0.00003584,0.00109428,-0.000022
 61,-0.00004268,-0.00013784,0.00004542,0.00000825,0.00112101,-0.0002577
 7,0.00042985,-0.00080216,0.00013341,-0.00038584,0.00128329,-0.00881341
 ,0.00754993,-0.00140895,-0.00440170,-0.00423627,0.00113192,0.00290611,
 0.00114895,0.00062427,0.00042622,-0.00022546,-0.12724608,0.17391821,-0
 .00085284,0.00028270,-0.00001966,0.00032390,-0.00241974,-0.00758291,-0
 .00054096,0.00038822,-0.00120874,0.00599254,-0.01411091,-0.01102617,0.
 00013503,-0.00020600,0.00158363,0.00013457,0.00015984,-0.00028834,-0.0
 0014071,0.00030472,0.00002722,-0.00000876,0.00000088,0.00056950,-0.008
 19925,-0.06507314,-0.18428984,-0.00064527,-0.00158862,0.00172881,0.000
 01617,0.00001370,-0.00004253,-0.00003132,0.00007554,0.00004018,0.00463
 216,-0.00941808,-0.01140229,0.00931429,-0.02522372,-0.03692677,0.00015
 969,-0.00028284,0.00042183,0.00007431,-0.00011303,-0.00019643,0.000180
 45,-0.00015367,0.00048225,0.00000797,0.00001575,-0.00006266,-0.0000770
 4,-0.00008392,0.00132569,0.00074458,-0.00051547,-0.00007290,-0.0019285
 9,0.01259209,0.00245365,0.00266408,-0.00667067,0.00322215,-0.00152250,
 0.00237992,0.00448554,-0.00131876,-0.00117818,-0.00133896,-0.03698361,
 0.13321529,0.27335999,-0.00007979,0.00001405,-0.00009410,-0.00046149,0
 .00016520,0.00022464,-0.00007336,0.00004799,0.00000761,0.00202714,-0.0
 0024171,-0.00178763,0.00008337,-0.00013237,0.00006471,-0.00001449,-0.0
 0004464,0.00001417,-0.00001166,0.00003488,-0.00001400,-0.00001622,0.00
 000693,0.00001599,-0.00815668,-0.00035401,-0.00136645,-0.00045597,-0.0
 0054512,0.00003642,0.00000498,0.00001368,0.00000543,0.00000813,-0.0000
 0393,-0.00000514,0.00173183,0.00048840,0.00171938,0.00159072,-0.001299
 67,-0.00168768,0.00002561,-0.00006265,0.00001735,-0.00001259,0.0000384
 6,-0.00000061,0.00008432,-0.00003290,-0.00001348,-0.00001413,0.0000166
 1,0.00000339,0.00006292,-0.00007387,0.00003261,-0.00005644,0.00003861,
 -0.00003430,-0.00009573,-0.00094898,0.00024494,-0.00041963,0.00135842,
 -0.00090326,-0.00129407,0.00109576,0.00026557,0.00038639,-0.00060781,0
 .00011327,-0.51471386,0.11499552,0.02786989,0.51987070,0.00030150,0.00
 026383,-0.00001067,0.00034248,-0.00050538,-0.00050147,0.00016947,-0.00
 007486,-0.00014720,0.00460496,-0.00188326,-0.00178906,-0.00000289,0.00
 002788,0.00011628,-0.00011796,-0.00003312,-0.00003657,0.00013030,-0.00
 006459,0.00005150,-0.00000462,0.00004427,-0.00004607,0.02327952,-0.006
 24665,-0.00261973,-0.00054925,0.00014129,0.00023826,-0.00005121,-0.000
 05550,-0.00001138,-0.00002844,0.00001749,0.00001745,-0.00085081,-0.001
 15232,-0.00167748,-0.00108415,0.00157041,0.00008522,-0.00012916,0.0001
 0669,-0.00003185,0.00006814,-0.00009162,-0.00001249,-0.00034355,0.0000
 1451,0.00008664,0.00005499,-0.00001632,-0.00001017,-0.00046806,0.00011
 622,-0.00010002,0.00028449,-0.00007512,0.00014483,-0.00176220,0.000585
 38,0.00001666,0.00269707,-0.00092915,0.00112722,-0.00134536,0.00334511
 ,0.00192271,-0.00071927,-0.00232908,0.00041835,0.08949085,-0.03427195,
 -0.02239067,-0.11396683,0.04149585,-0.00001926,-0.00036631,-0.00002446
 ,-0.00022556,0.00013052,0.00072669,0.00005807,0.00007120,-0.00007695,0
 .00070759,-0.00066026,-0.00022433,0.00003461,-0.00001532,-0.00014376,0
 .00015426,0.00005665,-0.00002916,0.00002205,-0.00000803,0.00008242,0.0
 0000822,0.00002803,0.00003712,0.04113496,-0.01159141,-0.00759811,-0.00
 006719,0.00006579,-0.00002739,-0.00000646,-0.00000617,0.00000195,0.000
 00401,0.00001185,-0.00000220,0.00079797,-0.00402166,-0.00568118,0.0006
 6573,0.00083760,0.00039477,-0.00001695,0.00000604,-0.00003318,0.000001
 19,-0.00000868,0.00001003,-0.00000159,0.00000517,-0.00000339,0.0000066
 3,-0.00000644,0.00000488,-0.00003179,0.00015527,-0.00021975,-0.0001095
 7,0.00002515,0.00005899,0.00118214,0.00003610,-0.00101439,-0.00281218,
 0.00071965,0.00055736,-0.00062949,0.00119466,-0.00015675,-0.00008718,0
 .00047347,0.00058042,-0.01604147,-0.01229261,-0.03524224,-0.02472875,0
 .02515971,0.04802261\\-0.00002349,0.00000413,0.00002516,0.00002730,-0.
 00001732,0.00000930,0.00001991,0.00000728,-0.00004087,-0.00004371,0.00
 000689,-0.00002937,0.00000365,0.00000252,0.00000140,0.00000146,-0.0000
 0212,-0.00000214,0.00000075,0.00000241,0.00002179,0.00000139,-0.000008
 27,0.00001907,0.00002130,0.00000131,-0.00000143,-0.00000316,0.00000822
 ,0.00001348,-0.00000637,0.00000292,-0.00000152,0.00000186,0.00000564,-
 0.00000058,-0.00000193,0.00000709,-0.00000344,0.00000040,-0.00000583,0
 .00000259,0.00000423,0.00000678,-0.00000332,-0.00000293,0.00000041,-0.
 00000504,-0.00000025,-0.00002067,0.00001530,-0.00000157,0.00001208,-0.
 00000683,-0.00001662,0.00000236,0.00000677,0.00001273,-0.00000537,-0.0
 0001571,-0.00000751,-0.00000575,-0.00000095,-0.00000105,-0.00000663,-0
 .00000259,0.00001032,-0.00001888,-0.00000700,0.00000735,0.00000732,-0.
 00000442,-0.00002891,0.00000457,0.00001431,0.00002484,0.00000893,-0.00
 000399\\\@
 The archive entry for this job was punched.


 I FIND THAT THE THREE TRULY GREAT TIMES FOR THINKING THOUGHTS
 ARE WHEN I AM STANDING IN THE SHOWER, SITTING ON THE JOHN, OR WALKING.

                                    -- COLIN FLETCHER
 Job cpu time:       0 days 11 hours 16 minutes 41.6 seconds.
 Elapsed time:       0 days  0 hours 42 minutes 25.3 seconds.
 File lengths (MBytes):  RWF=    704 Int=      0 D2E=      0 Chk=     27 Scr=      1
 Normal termination of Gaussian 16 at Wed Oct 11 15:29:56 2023.
