 Entering Gaussian System, Link 0=/opt/software/gaussian/g16.c01/g16
 Initial command:
 /opt/software/gaussian/g16.c01/l1.exe "/scratch/arhender/14836905/Gau-47577.inp" -scrdir="/scratch/arhender/14836905/"
 Entering Link 1 = /opt/software/gaussian/g16.c01/l1.exe PID=     47578.
  
 Copyright (c) 1988-2019, Gaussian, Inc.  All Rights Reserved.
  
 This is part of the Gaussian(R) 16 program.  It is based on
 the Gaussian(R) 09 system (copyright 2009, Gaussian, Inc.),
 the Gaussian(R) 03 system (copyright 2003, Gaussian, Inc.),
 the Gaussian(R) 98 system (copyright 1998, Gaussian, Inc.),
 the Gaussian(R) 94 system (copyright 1995, Gaussian, Inc.),
 the Gaussian 92(TM) system (copyright 1992, Gaussian, Inc.),
 the Gaussian 90(TM) system (copyright 1990, Gaussian, Inc.),
 the Gaussian 88(TM) system (copyright 1988, Gaussian, Inc.),
 the Gaussian 86(TM) system (copyright 1986, Carnegie Mellon
 University), and the Gaussian 82(TM) system (copyright 1983,
 Carnegie Mellon University). Gaussian is a federally registered
 trademark of Gaussian, Inc.
  
 This software contains proprietary and confidential information,
 including trade secrets, belonging to Gaussian, Inc.
  
 This software is provided under written license and may be
 used, copied, transmitted, or stored only in accord with that
 written license.
  
 The following legend is applicable only to US Government
 contracts under FAR:
  
                    RESTRICTED RIGHTS LEGEND
  
 Use, reproduction and disclosure by the US Government is
 subject to restrictions as set forth in subparagraphs (a)
 and (c) of the Commercial Computer Software - Restricted
 Rights clause in FAR 52.227-19.
  
 Gaussian, Inc.
 340 Quinnipiac St., Bldg. 40, Wallingford CT 06492
  
  
 ---------------------------------------------------------------
 Warning -- This program may not be used in any manner that
 competes with the business of Gaussian, Inc. or will provide
 assistance to any competitor of Gaussian, Inc.  The licensee
 of this program is prohibited from giving any competitor of
 Gaussian, Inc. access to this program.  By using this program,
 the user acknowledges that Gaussian, Inc. is engaged in the
 business of creating and licensing software in the field of
 computational chemistry and represents and warrants to the
 licensee that it is not a competitor of Gaussian, Inc. and that
 it will not use this program in any manner prohibited above.
 ---------------------------------------------------------------
  

 Cite this work as:
 Gaussian 16, Revision C.01,
 M. J. Frisch, G. W. Trucks, H. B. Schlegel, G. E. Scuseria, 
 M. A. Robb, J. R. Cheeseman, G. Scalmani, V. Barone, 
 G. A. Petersson, H. Nakatsuji, X. Li, M. Caricato, A. V. Marenich, 
 J. Bloino, B. G. Janesko, R. Gomperts, B. Mennucci, H. P. Hratchian, 
 J. V. Ortiz, A. F. Izmaylov, J. L. Sonnenberg, D. Williams-Young, 
 F. Ding, F. Lipparini, F. Egidi, J. Goings, B. Peng, A. Petrone, 
 T. Henderson, D. Ranasinghe, V. G. Zakrzewski, J. Gao, N. Rega, 
 G. Zheng, W. Liang, M. Hada, M. Ehara, K. Toyota, R. Fukuda, 
 J. Hasegawa, M. Ishida, T. Nakajima, Y. Honda, O. Kitao, H. Nakai, 
 T. Vreven, K. Throssell, J. A. Montgomery, Jr., J. E. Peralta, 
 F. Ogliaro, M. J. Bearpark, J. J. Heyd, E. N. Brothers, K. N. Kudin, 
 V. N. Staroverov, T. A. Keith, R. Kobayashi, J. Normand, 
 K. Raghavachari, A. P. Rendell, J. C. Burant, S. S. Iyengar, 
 J. Tomasi, M. Cossi, J. M. Millam, M. Klene, C. Adamo, R. Cammi, 
 J. W. Ochterski, R. L. Martin, K. Morokuma, O. Farkas, 
 J. B. Foresman, and D. J. Fox, Gaussian, Inc., Wallingford CT, 2019.
 
 ******************************************
 Gaussian 16:  ES64L-G16RevC.01  3-Jul-2019
                11-Oct-2023 
 ******************************************
 %chk=MannitolConformerOpt_42.chk
 %mem=8GB
 %nprocs=16
 Will use up to   16 processors via shared memory.
 ---------------------------------------------
 # opt freq wb97xd/Def2TZVPP geom=connectivity
 ---------------------------------------------
 1/18=20,19=15,26=3,38=1,57=2/1,3;
 2/9=110,12=2,17=6,18=5,40=1/2;
 3/5=44,7=202,11=2,25=1,30=1,71=1,74=-58/1,2,3;
 4//1;
 5/5=2,38=5/2;
 6/7=2,8=2,9=2,10=2,28=1/1;
 7//1,2,3,16;
 1/18=20,19=15,26=3/3(2);
 2/9=110/2;
 99//99;
 2/9=110/2;
 3/5=44,7=202,11=2,25=1,30=1,71=1,74=-58/1,2,3;
 4/5=5,16=3,69=1/1;
 5/5=2,38=5/2;
 7//1,2,3,16;
 1/18=20,19=15,26=3/3(-5);
 2/9=110/2;
 6/7=2,8=2,9=2,10=2,19=2,28=1/1;
 99/9=1/99;
 -------------------
 Title Card Required
 -------------------
 Symbolic Z-matrix:
 Charge =  0 Multiplicity = 1
 C                     0.        0.        0. 
 C                     1.5471    0.        0. 
 C                    -0.6617    0.6813   -1.2239 
 C                     2.2088   -0.7674    1.1718 
 H                     1.9301    1.0238    0. 
 H                    -0.3829    0.4755    0.9067 
 C                    -0.3934    2.1826   -1.3495 
 H                    -1.7455    0.5343   -1.1436 
 C                     1.9406   -0.1814    2.5597 
 H                     3.2926   -0.7646    1.0043 
 H                    -1.0195    2.6115   -2.1392 
 H                    -0.6211    2.7009   -0.4132 
 H                     2.1683    0.8885    2.5839 
 H                     2.5666   -0.6816    3.3063 
 O                     0.9593    2.4512   -1.6985 
 H                     1.1006    2.046    -2.575 
 O                    -0.2674    0.0113   -2.4341 
 H                     0.6987   -0.1596   -2.353 
 O                    -0.4401   -1.3819    0.0129 
 H                    -0.5866   -1.6174   -0.9284 
 O                     1.9873   -0.6304   -1.2298 
 H                     2.1337   -1.5734   -1.0012 
 O                     1.8146   -2.1505    1.1405 
 H                     0.8484   -2.1579    0.9515 
 O                     0.5879   -0.3658    2.9596 
 H                     0.4466   -1.3301    3.0079 
 

 GradGradGradGradGradGradGradGradGradGradGradGradGradGradGradGradGradGrad
 Berny optimization.
 Initialization pass.
                           ----------------------------
                           !    Initial Parameters    !
                           ! (Angstroms and Degrees)  !
 --------------------------                            --------------------------
 ! Name  Definition              Value          Derivative Info.                !
 --------------------------------------------------------------------------------
 ! R1    R(1,2)                  1.5471         estimate D2E/DX2                !
 ! R2    R(1,3)                  1.5492         estimate D2E/DX2                !
 ! R3    R(1,6)                  1.0931         estimate D2E/DX2                !
 ! R4    R(1,19)                 1.4503         estimate D2E/DX2                !
 ! R5    R(2,4)                  1.5491         estimate D2E/DX2                !
 ! R6    R(2,5)                  1.0931         estimate D2E/DX2                !
 ! R7    R(2,21)                 1.4504         estimate D2E/DX2                !
 ! R8    R(3,7)                  1.5302         estimate D2E/DX2                !
 ! R9    R(3,8)                  1.0967         estimate D2E/DX2                !
 ! R10   R(3,17)                 1.4384         estimate D2E/DX2                !
 ! R11   R(4,9)                  1.5302         estimate D2E/DX2                !
 ! R12   R(4,10)                 1.0967         estimate D2E/DX2                !
 ! R13   R(4,23)                 1.4385         estimate D2E/DX2                !
 ! R14   R(7,11)                 1.0953         estimate D2E/DX2                !
 ! R15   R(7,12)                 1.0941         estimate D2E/DX2                !
 ! R16   R(7,15)                 1.4226         estimate D2E/DX2                !
 ! R17   R(9,13)                 1.0941         estimate D2E/DX2                !
 ! R18   R(9,14)                 1.0952         estimate D2E/DX2                !
 ! R19   R(9,25)                 1.4226         estimate D2E/DX2                !
 ! R20   R(15,16)                0.9759         estimate D2E/DX2                !
 ! R21   R(17,18)                0.9844         estimate D2E/DX2                !
 ! R22   R(19,20)                0.9813         estimate D2E/DX2                !
 ! R23   R(21,22)                0.9813         estimate D2E/DX2                !
 ! R24   R(23,24)                0.9845         estimate D2E/DX2                !
 ! R25   R(25,26)                0.9758         estimate D2E/DX2                !
 ! A1    A(2,1,3)              115.2856         estimate D2E/DX2                !
 ! A2    A(2,1,6)              110.5054         estimate D2E/DX2                !
 ! A3    A(2,1,19)             107.6646         estimate D2E/DX2                !
 ! A4    A(3,1,6)              108.3243         estimate D2E/DX2                !
 ! A5    A(3,1,19)             107.2441         estimate D2E/DX2                !
 ! A6    A(6,1,19)             107.5061         estimate D2E/DX2                !
 ! A7    A(1,2,4)              115.286          estimate D2E/DX2                !
 ! A8    A(1,2,5)              110.5106         estimate D2E/DX2                !
 ! A9    A(1,2,21)             107.6684         estimate D2E/DX2                !
 ! A10   A(4,2,5)              108.3188         estimate D2E/DX2                !
 ! A11   A(4,2,21)             107.2432         estimate D2E/DX2                !
 ! A12   A(5,2,21)             107.5026         estimate D2E/DX2                !
 ! A13   A(1,3,7)              114.9241         estimate D2E/DX2                !
 ! A14   A(1,3,8)              107.7775         estimate D2E/DX2                !
 ! A15   A(1,3,17)             110.0453         estimate D2E/DX2                !
 ! A16   A(7,3,8)              108.1069         estimate D2E/DX2                !
 ! A17   A(7,3,17)             109.8688         estimate D2E/DX2                !
 ! A18   A(8,3,17)             105.669          estimate D2E/DX2                !
 ! A19   A(2,4,9)              114.9291         estimate D2E/DX2                !
 ! A20   A(2,4,10)             107.7779         estimate D2E/DX2                !
 ! A21   A(2,4,23)             110.0461         estimate D2E/DX2                !
 ! A22   A(9,4,10)             108.1052         estimate D2E/DX2                !
 ! A23   A(9,4,23)             109.8709         estimate D2E/DX2                !
 ! A24   A(10,4,23)            105.6611         estimate D2E/DX2                !
 ! A25   A(3,7,11)             110.0685         estimate D2E/DX2                !
 ! A26   A(3,7,12)             110.9786         estimate D2E/DX2                !
 ! A27   A(3,7,15)             111.8448         estimate D2E/DX2                !
 ! A28   A(11,7,12)            108.2123         estimate D2E/DX2                !
 ! A29   A(11,7,15)            107.0221         estimate D2E/DX2                !
 ! A30   A(12,7,15)            108.5651         estimate D2E/DX2                !
 ! A31   A(4,9,13)             110.9808         estimate D2E/DX2                !
 ! A32   A(4,9,14)             110.0727         estimate D2E/DX2                !
 ! A33   A(4,9,25)             111.838          estimate D2E/DX2                !
 ! A34   A(13,9,14)            108.2143         estimate D2E/DX2                !
 ! A35   A(13,9,25)            108.5677         estimate D2E/DX2                !
 ! A36   A(14,9,25)            107.018          estimate D2E/DX2                !
 ! A37   A(7,15,16)            106.2374         estimate D2E/DX2                !
 ! A38   A(3,17,18)            106.2941         estimate D2E/DX2                !
 ! A39   A(1,19,20)            105.3925         estimate D2E/DX2                !
 ! A40   A(2,21,22)            105.3928         estimate D2E/DX2                !
 ! A41   A(4,23,24)            106.2799         estimate D2E/DX2                !
 ! A42   A(9,25,26)            106.2426         estimate D2E/DX2                !
 ! D1    D(3,1,2,4)           -175.8827         estimate D2E/DX2                !
 ! D2    D(3,1,2,5)             60.8969         estimate D2E/DX2                !
 ! D3    D(3,1,2,21)           -56.2429         estimate D2E/DX2                !
 ! D4    D(6,1,2,4)             60.8942         estimate D2E/DX2                !
 ! D5    D(6,1,2,5)            -62.3262         estimate D2E/DX2                !
 ! D6    D(6,1,2,21)          -179.466          estimate D2E/DX2                !
 ! D7    D(19,1,2,4)           -56.2448         estimate D2E/DX2                !
 ! D8    D(19,1,2,5)          -179.4652         estimate D2E/DX2                !
 ! D9    D(19,1,2,21)           63.395          estimate D2E/DX2                !
 ! D10   D(2,1,3,7)            -64.3202         estimate D2E/DX2                !
 ! D11   D(2,1,3,8)            175.0899         estimate D2E/DX2                !
 ! D12   D(2,1,3,17)            60.3248         estimate D2E/DX2                !
 ! D13   D(6,1,3,7)             60.0514         estimate D2E/DX2                !
 ! D14   D(6,1,3,8)            -60.5385         estimate D2E/DX2                !
 ! D15   D(6,1,3,17)          -175.3036         estimate D2E/DX2                !
 ! D16   D(19,1,3,7)           175.8106         estimate D2E/DX2                !
 ! D17   D(19,1,3,8)            55.2207         estimate D2E/DX2                !
 ! D18   D(19,1,3,17)          -59.5444         estimate D2E/DX2                !
 ! D19   D(2,1,19,20)          -94.2916         estimate D2E/DX2                !
 ! D20   D(3,1,19,20)           30.3341         estimate D2E/DX2                !
 ! D21   D(6,1,19,20)          146.6349         estimate D2E/DX2                !
 ! D22   D(1,2,4,9)            -64.321          estimate D2E/DX2                !
 ! D23   D(1,2,4,10)           175.0877         estimate D2E/DX2                !
 ! D24   D(1,2,4,23)            60.3312         estimate D2E/DX2                !
 ! D25   D(5,2,4,9)             60.0535         estimate D2E/DX2                !
 ! D26   D(5,2,4,10)           -60.5378         estimate D2E/DX2                !
 ! D27   D(5,2,4,23)          -175.2942         estimate D2E/DX2                !
 ! D28   D(21,2,4,9)           175.8053         estimate D2E/DX2                !
 ! D29   D(21,2,4,10)           55.2141         estimate D2E/DX2                !
 ! D30   D(21,2,4,23)          -59.5424         estimate D2E/DX2                !
 ! D31   D(1,2,21,22)          -94.2843         estimate D2E/DX2                !
 ! D32   D(4,2,21,22)           30.3436         estimate D2E/DX2                !
 ! D33   D(5,2,21,22)          146.6358         estimate D2E/DX2                !
 ! D34   D(1,3,7,11)          -171.0393         estimate D2E/DX2                !
 ! D35   D(1,3,7,12)           -51.2744         estimate D2E/DX2                !
 ! D36   D(1,3,7,15)            70.1299         estimate D2E/DX2                !
 ! D37   D(8,3,7,11)           -50.6304         estimate D2E/DX2                !
 ! D38   D(8,3,7,12)            69.1344         estimate D2E/DX2                !
 ! D39   D(8,3,7,15)          -169.4613         estimate D2E/DX2                !
 ! D40   D(17,3,7,11)           64.2231         estimate D2E/DX2                !
 ! D41   D(17,3,7,12)         -176.012          estimate D2E/DX2                !
 ! D42   D(17,3,7,15)          -54.6077         estimate D2E/DX2                !
 ! D43   D(1,3,17,18)          -43.2495         estimate D2E/DX2                !
 ! D44   D(7,3,17,18)           84.2562         estimate D2E/DX2                !
 ! D45   D(8,3,17,18)         -159.347          estimate D2E/DX2                !
 ! D46   D(2,4,9,13)           -51.2742         estimate D2E/DX2                !
 ! D47   D(2,4,9,14)          -171.0458         estimate D2E/DX2                !
 ! D48   D(2,4,9,25)            70.1302         estimate D2E/DX2                !
 ! D49   D(10,4,9,13)           69.1372         estimate D2E/DX2                !
 ! D50   D(10,4,9,14)          -50.6344         estimate D2E/DX2                !
 ! D51   D(10,4,9,25)         -169.4584         estimate D2E/DX2                !
 ! D52   D(23,4,9,13)         -176.0184         estimate D2E/DX2                !
 ! D53   D(23,4,9,14)           64.2101         estimate D2E/DX2                !
 ! D54   D(23,4,9,25)          -54.614          estimate D2E/DX2                !
 ! D55   D(2,4,23,24)          -43.2549         estimate D2E/DX2                !
 ! D56   D(9,4,23,24)           84.2594         estimate D2E/DX2                !
 ! D57   D(10,4,23,24)        -159.349          estimate D2E/DX2                !
 ! D58   D(3,7,15,16)           62.4427         estimate D2E/DX2                !
 ! D59   D(11,7,15,16)         -58.1783         estimate D2E/DX2                !
 ! D60   D(12,7,15,16)        -174.7697         estimate D2E/DX2                !
 ! D61   D(4,9,25,26)           62.4489         estimate D2E/DX2                !
 ! D62   D(13,9,25,26)        -174.7633         estimate D2E/DX2                !
 ! D63   D(14,9,25,26)         -58.1705         estimate D2E/DX2                !
 --------------------------------------------------------------------------------
 Trust Radius=3.00D-01 FncErr=1.00D-07 GrdErr=1.00D-06 EigMax=2.50D+02 EigMin=1.00D-04
 Number of steps in this run=    140 maximum allowed number of steps=    156.
 GradGradGradGradGradGradGradGradGradGradGradGradGradGradGradGradGradGrad

                          Input orientation:                          
 ---------------------------------------------------------------------
 Center     Atomic      Atomic             Coordinates (Angstroms)
 Number     Number       Type             X           Y           Z
 ---------------------------------------------------------------------
      1          6           0        0.000000    0.000000    0.000000
      2          6           0        1.547100    0.000000    0.000000
      3          6           0       -0.661700    0.681300   -1.223900
      4          6           0        2.208800   -0.767400    1.171800
      5          1           0        1.930100    1.023800    0.000000
      6          1           0       -0.382900    0.475500    0.906700
      7          6           0       -0.393400    2.182600   -1.349500
      8          1           0       -1.745500    0.534300   -1.143600
      9          6           0        1.940600   -0.181400    2.559700
     10          1           0        3.292600   -0.764600    1.004300
     11          1           0       -1.019500    2.611500   -2.139200
     12          1           0       -0.621100    2.700900   -0.413200
     13          1           0        2.168300    0.888500    2.583900
     14          1           0        2.566600   -0.681600    3.306300
     15          8           0        0.959300    2.451200   -1.698500
     16          1           0        1.100600    2.046000   -2.575000
     17          8           0       -0.267400    0.011300   -2.434100
     18          1           0        0.698700   -0.159600   -2.353000
     19          8           0       -0.440100   -1.381900    0.012900
     20          1           0       -0.586600   -1.617400   -0.928400
     21          8           0        1.987300   -0.630400   -1.229800
     22          1           0        2.133700   -1.573400   -1.001200
     23          8           0        1.814600   -2.150500    1.140500
     24          1           0        0.848400   -2.157900    0.951500
     25          8           0        0.587900   -0.365800    2.959600
     26          1           0        0.446600   -1.330100    3.007900
 ---------------------------------------------------------------------
                    Distance matrix (angstroms):
                    1          2          3          4          5
     1  C    0.000000
     2  C    1.547100   0.000000
     3  C    1.549176   2.615511   0.000000
     4  C    2.615495   1.549150   4.009723   0.000000
     5  H    2.184823   1.093094   2.886636   2.158515   0.000000
     6  H    1.093077   2.184744   2.158597   2.886518   2.544151
     7  C    2.596085   3.217209   1.530249   4.672355   2.926195
     8  H    2.154082   3.526260   1.096667   4.763611   3.880395
     9  C    3.217281   2.596115   4.672456   1.530227   2.829255
    10  H    3.526251   2.154066   4.763611   1.096671   2.462397
    11  H    3.526399   4.240701   2.165979   5.727269   3.974558
    12  H    2.802028   3.488078   2.176618   4.748649   3.080912
    13  H    3.488194   2.802117   4.748808   2.176619   2.598381
    14  H    4.240711   3.526412   5.727314   2.165981   3.774274
    15  O    3.132657   3.039538   2.446514   4.489906   2.421740
    16  H    3.468150   3.319052   2.606449   4.814752   2.891987
    17  O    2.448770   3.036014   1.438387   4.443023   3.432056
    18  H    2.459728   2.506365   1.957720   3.882530   2.907471
    19  O    1.450345   2.420491   2.415693   2.955898   3.377189
    20  H    1.954996   2.833829   2.318832   3.598278   3.764524
    21  O    2.420573   1.450375   2.955976   2.415681   2.062052
    22  H    2.833843   1.955016   3.598267   2.318880   2.790932
    23  O    3.036143   2.448866   4.443145   1.438520   3.374946
    24  H    2.506325   2.459688   3.882502   1.957731   3.492655
    25  O    3.039518   3.132588   4.489943   2.446391   3.534363
    26  H    3.319048   3.468102   4.814789   2.606385   4.097448
                    6          7          8          9         10
     6  H    0.000000
     7  C    2.829265   0.000000
     8  H    2.462492   2.141836   0.000000
     9  C    2.926188   5.130097   5.273897   0.000000
    10  H    3.880293   5.273799   5.628771   2.141797   0.000000
    11  H    3.774290   1.095255   2.415172   6.216281   6.314574
    12  H    2.598323   1.094139   2.547924   4.869096   5.416276
    13  H    3.080940   4.869152   5.416414   1.094129   2.547926
    14  H    3.974482   6.216246   6.314604   1.095211   2.415195
    15  O    3.534396   1.422584   3.361304   5.101549   4.805287
    16  H    4.097496   1.937149   3.526248   5.659687   5.051309
    17  O    3.374873   2.430386   2.030689   5.463555   5.009812
    18  H    3.492686   2.772291   2.813940   5.067288   4.285534
    19  O    2.062058   3.816278   2.591020   3.687156   3.911136
    20  H    2.790935   3.828139   2.453400   4.540449   4.417102
    21  O    3.377202   3.687144   3.911234   3.816293   2.590950
    22  H    3.764485   4.540384   4.417111   3.828180   2.453413
    23  O    3.432134   5.463618   5.009948   2.430506   2.030703
    24  H    2.907388   5.067209   4.285522   2.772320   2.813927
    25  O    2.421701   5.101533   4.805329   1.422575   3.361196
    26  H    2.891938   5.659646   5.051360   1.937119   3.526176
                   11         12         13         14         15
    11  H    0.000000
    12  H    1.773638   0.000000
    13  H    5.953022   4.477517   0.000000
    14  H    7.304662   5.952934   1.773617   0.000000
    15  O    2.033608   2.052318   4.716213   6.119303   0.000000
    16  H    2.237082   2.840163   5.393889   6.646702   0.975912
    17  O    2.722804   3.382763   5.646454   6.439244   2.828253
    18  H    3.267555   3.699616   5.256541   5.982408   2.704174
    19  O    4.573235   4.108963   4.309119   4.514106   4.424914
    20  H    4.420072   4.349062   5.119107   5.362003   4.419996
    21  O    4.514174   4.309077   4.109030   4.573228   3.282183
    22  H    5.362005   5.119014   4.349148   4.420098   4.250041
    23  O    6.439348   5.646477   3.382902   2.722841   5.474222
    24  H    5.982362   5.256403   3.699651   3.267531   5.317763
    25  O    6.119298   4.716154   2.052336   2.033515   5.456310
    26  H    6.646676   5.393781   2.840108   2.236961   6.058984
                   16         17         18         19         20
    16  H    0.000000
    17  O    2.455867   0.000000
    18  H    2.252882   0.984446   0.000000
    19  O    4.563056   2.821106   2.896268   0.000000
    20  H    4.356425   2.240912   2.409702   0.981309   0.000000
    21  O    3.123927   2.635487   1.773054   2.828662   2.773080
    22  H    4.079730   3.213994   2.425988   2.772998   2.721630
    23  O    5.650252   4.667533   4.172944   2.635508   3.214079
    24  H    5.492958   4.172856   3.864626   1.772957   2.425982
    25  O    6.058996   5.474097   5.317755   3.282116   4.250000
    26  H    6.557022   5.650178   5.492984   3.123931   4.079767
                   21         22         23         24         25
    21  O    0.000000
    22  H    0.981295   0.000000
    23  O    2.821144   2.240926   0.000000
    24  H    2.896277   2.409704   0.984540   0.000000
    25  O    4.424862   4.419924   2.828263   2.704061   0.000000
    26  H    4.563051   4.356419   2.455944   2.252882   0.975794
                   26
    26  H    0.000000
 Stoichiometry    C6H14O6
 Framework group  C1[X(C6H14O6)]
 Deg. of freedom    72
 Full point group                 C1      NOp   1
 Largest Abelian subgroup         C1      NOp   1
 Largest concise Abelian subgroup C1      NOp   1
                         Standard orientation:                         
 ---------------------------------------------------------------------
 Center     Atomic      Atomic             Coordinates (Angstroms)
 Number     Number       Type             X           Y           Z
 ---------------------------------------------------------------------
      1          6           0        0.254381    0.036247   -0.730564
      2          6           0       -0.254355    0.036309    0.730499
      3          6           0        1.793967   -0.014118   -0.895149
      4          6           0       -1.793916   -0.013962    0.895097
      5          1           0        0.120034    0.912393    1.266376
      6          1           0       -0.120043    0.912306   -1.266422
      7          6           0        2.540927    1.205565   -0.351013
      8          1           0        2.013625   -0.098397   -1.966283
      9          6           0       -2.540918    1.205662    0.350949
     10          1           0       -2.013578   -0.098199    1.966236
     11          1           0        3.594577    1.163907   -0.647103
     12          1           0        2.112464    2.133572   -0.741350
     13          1           0       -2.112487    2.133710    0.741196
     14          1           0       -3.594549    1.164006    0.646943
     15          8           0        2.509411    1.254865    1.070367
     16          1           0        2.973232    0.454580    1.381522
     17          8           0        2.314851   -1.213662   -0.296210
     18          1           0        1.848109   -1.317897    0.564267
     19          8           0       -0.286661   -1.139591   -1.384919
     20          1           0        0.407097   -1.828207   -1.298453
     21          8           0        0.286627   -1.139490    1.385039
     22          1           0       -0.407093   -1.828119    1.298538
     23          8           0       -2.314919   -1.213697    0.296323
     24          1           0       -1.848085   -1.317870   -0.564219
     25          8           0       -2.509385    1.254752   -1.070430
     26          1           0       -2.973208    0.454586   -1.381518
 ---------------------------------------------------------------------
 Rotational constants (GHZ):           1.4244985           0.6058290           0.5770807
 Standard basis: def2TZVPP (5D, 7F)
 There are   642 symmetry adapted cartesian basis functions of A   symmetry.
 There are   568 symmetry adapted basis functions of A   symmetry.
   568 basis functions,   850 primitive gaussians,   642 cartesian basis functions
    49 alpha electrons       49 beta electrons
       nuclear repulsion energy       854.8666312523 Hartrees.
 NAtoms=   26 NActive=   26 NUniq=   26 SFac= 1.00D+00 NAtFMM=   60 NAOKFM=F Big=F
 Integral buffers will be    131072 words long.
 Raffenetti 2 integral format.
 Two-electron integral symmetry is turned on.
 Nuclear repulsion after empirical dispersion term =      854.8465895182 Hartrees.
 One-electron integrals computed using PRISM.
   1 Symmetry operations used in ECPInt.
 ECPInt:  NShTT=   23436 NPrTT=   62434 LenC2=   22203 LenP2D=   46505.
 LDataN:  DoStor=T MaxTD1= 6 Len=  172
 NBasis=   568 RedAO= T EigKep=  4.09D-05  NBF=   568
 NBsUse=   568 1.00D-06 EigRej= -1.00D+00 NBFU=   568
 ExpMin= 9.52D-02 ExpMax= 2.70D+04 ExpMxC= 9.22D+02 IAcc=3 IRadAn=         5 AccDes= 0.00D+00
 Harris functional with IExCor= 4639 and IRadAn=       5 diagonalized for initial guess.
 HarFok:  IExCor= 4639 AccDes= 0.00D+00 IRadAn=         5 IDoV= 1 UseB2=F ITyADJ=14
 ICtDFT=  3500011 ScaDFX=  1.000000  1.000000  1.000000  1.000000
 FoFCou: FMM=F IPFlag=           0 FMFlag=      100000 FMFlg1=           0
         NFxFlg=           0 DoJE=T BraDBF=F KetDBF=T FulRan=T
         wScrn=  0.000000 ICntrl=       500 IOpCl=  0 I1Cent=   200000004 NGrid=           0
         NMat0=    1 NMatS0=      1 NMatT0=    0 NMatD0=    1 NMtDS0=    0 NMtDT0=    0
 Petite list used in FoFCou.
 Requested convergence on RMS density matrix=1.00D-08 within 128 cycles.
 Requested convergence on MAX density matrix=1.00D-06.
 Requested convergence on             energy=1.00D-06.
 No special actions if energy rises.
 Integral accuracy reduced to 1.0D-05 until final iterations.
 Initial convergence to 1.0D-05 achieved.  Increase integral accuracy.
 SCF Done:  E(RwB97XD) =  -688.474577049     A.U. after   13 cycles
            NFock= 13  Conv=0.84D-08     -V/T= 2.0049

 **********************************************************************

            Population analysis using the SCF Density.

 **********************************************************************

 Orbital symmetries:
       Occupied  (A) (A) (A) (A) (A) (A) (A) (A) (A) (A) (A) (A)
                 (A) (A) (A) (A) (A) (A) (A) (A) (A) (A) (A) (A)
                 (A) (A) (A) (A) (A) (A) (A) (A) (A) (A) (A) (A)
                 (A) (A) (A) (A) (A) (A) (A) (A) (A) (A) (A) (A)
                 (A)
       Virtual   (A) (A) (A) (A) (A) (A) (A) (A) (A) (A) (A) (A)
                 (A) (A) (A) (A) (A) (A) (A) (A) (A) (A) (A) (A)
                 (A) (A) (A) (A) (A) (A) (A) (A) (A) (A) (A) (A)
                 (A) (A) (A) (A) (A) (A) (A) (A) (A) (A) (A) (A)
                 (A) (A) (A) (A) (A) (A) (A) (A) (A) (A) (A) (A)
                 (A) (A) (A) (A) (A) (A) (A) (A) (A) (A) (A) (A)
                 (A) (A) (A) (A) (A) (A) (A) (A) (A) (A) (A) (A)
                 (A) (A) (A) (A) (A) (A) (A) (A) (A) (A) (A) (A)
                 (A) (A) (A) (A) (A) (A) (A) (A) (A) (A) (A) (A)
                 (A) (A) (A) (A) (A) (A) (A) (A) (A) (A) (A) (A)
                 (A) (A) (A) (A) (A) (A) (A) (A) (A) (A) (A) (A)
                 (A) (A) (A) (A) (A) (A) (A) (A) (A) (A) (A) (A)
                 (A) (A) (A) (A) (A) (A) (A) (A) (A) (A) (A) (A)
                 (A) (A) (A) (A) (A) (A) (A) (A) (A) (A) (A) (A)
                 (A) (A) (A) (A) (A) (A) (A) (A) (A) (A) (A) (A)
                 (A) (A) (A) (A) (A) (A) (A) (A) (A) (A) (A) (A)
                 (A) (A) (A) (A) (A) (A) (A) (A) (A) (A) (A) (A)
                 (A) (A) (A) (A) (A) (A) (A) (A) (A) (A) (A) (A)
                 (A) (A) (A) (A) (A) (A) (A) (A) (A) (A) (A) (A)
                 (A) (A) (A) (A) (A) (A) (A) (A) (A) (A) (A) (A)
                 (A) (A) (A) (A) (A) (A) (A) (A) (A) (A) (A) (A)
                 (A) (A) (A) (A) (A) (A) (A) (A) (A) (A) (A) (A)
                 (A) (A) (A) (A) (A) (A) (A) (A) (A) (A) (A) (A)
                 (A) (A) (A) (A) (A) (A) (A) (A) (A) (A) (A) (A)
                 (A) (A) (A) (A) (A) (A) (A) (A) (A) (A) (A) (A)
                 (A) (A) (A) (A) (A) (A) (A) (A) (A) (A) (A) (A)
                 (A) (A) (A) (A) (A) (A) (A) (A) (A) (A) (A) (A)
                 (A) (A) (A) (A) (A) (A) (A) (A) (A) (A) (A) (A)
                 (A) (A) (A) (A) (A) (A) (A) (A) (A) (A) (A) (A)
                 (A) (A) (A) (A) (A) (A) (A) (A) (A) (A) (A) (A)
                 (A) (A) (A) (A) (A) (A) (A) (A) (A) (A) (A) (A)
                 (A) (A) (A) (A) (A) (A) (A) (A) (A) (A) (A) (A)
                 (A) (A) (A) (A) (A) (A) (A) (A) (A) (A) (A) (A)
                 (A) (A) (A) (A) (A) (A) (A) (A) (A) (A) (A) (A)
                 (A) (A) (A) (A) (A) (A) (A) (A) (A) (A) (A) (A)
                 (A) (A) (A) (A) (A) (A) (A) (A) (A) (A) (A) (A)
                 (A) (A) (A) (A) (A) (A) (A) (A) (A) (A) (A) (A)
                 (A) (A) (A) (A) (A) (A) (A) (A) (A) (A) (A) (A)
                 (A) (A) (A) (A) (A) (A) (A) (A) (A) (A) (A) (A)
                 (A) (A) (A) (A) (A) (A) (A) (A) (A) (A) (A) (A)
                 (A) (A) (A) (A) (A) (A) (A) (A) (A) (A) (A) (A)
                 (A) (A) (A) (A) (A) (A) (A) (A) (A) (A) (A) (A)
                 (A) (A) (A) (A) (A) (A) (A) (A) (A) (A) (A) (A)
                 (A) (A) (A)
 The electronic state is 1-A.
 Alpha  occ. eigenvalues --  -19.27333 -19.27332 -19.25812 -19.25811 -19.25274
 Alpha  occ. eigenvalues --  -19.25273 -10.35284 -10.35265 -10.34951 -10.34950
 Alpha  occ. eigenvalues --  -10.33901 -10.33901  -1.16861  -1.14224  -1.13325
 Alpha  occ. eigenvalues --   -1.13045  -1.11455  -1.10620  -0.88876  -0.85616
 Alpha  occ. eigenvalues --   -0.80987  -0.75235  -0.71960  -0.69335  -0.65138
 Alpha  occ. eigenvalues --   -0.61426  -0.60591  -0.60223  -0.59568  -0.57015
 Alpha  occ. eigenvalues --   -0.56935  -0.55992  -0.54858  -0.52177  -0.51483
 Alpha  occ. eigenvalues --   -0.50050  -0.49203  -0.48474  -0.46471  -0.44749
 Alpha  occ. eigenvalues --   -0.43922  -0.43125  -0.40964  -0.40653  -0.39167
 Alpha  occ. eigenvalues --   -0.38948  -0.36983  -0.36241  -0.34848
 Alpha virt. eigenvalues --    0.09135   0.11266   0.11361   0.12546   0.13375
 Alpha virt. eigenvalues --    0.14559   0.15454   0.17665   0.17777   0.18249
 Alpha virt. eigenvalues --    0.19389   0.19419   0.21186   0.21586   0.21913
 Alpha virt. eigenvalues --    0.23051   0.23131   0.23892   0.24678   0.26339
 Alpha virt. eigenvalues --    0.26838   0.29168   0.30724   0.31080   0.34073
 Alpha virt. eigenvalues --    0.34809   0.36082   0.36138   0.36851   0.37584
 Alpha virt. eigenvalues --    0.38423   0.38910   0.39183   0.40147   0.41372
 Alpha virt. eigenvalues --    0.41977   0.42756   0.43301   0.43698   0.45096
 Alpha virt. eigenvalues --    0.45187   0.45678   0.45941   0.46387   0.47753
 Alpha virt. eigenvalues --    0.48372   0.48854   0.49855   0.50739   0.50840
 Alpha virt. eigenvalues --    0.50861   0.51534   0.52743   0.53210   0.54162
 Alpha virt. eigenvalues --    0.54670   0.56049   0.57659   0.58011   0.59045
 Alpha virt. eigenvalues --    0.60887   0.61238   0.61686   0.62550   0.63214
 Alpha virt. eigenvalues --    0.65439   0.65883   0.66497   0.66551   0.69706
 Alpha virt. eigenvalues --    0.71076   0.71362   0.72376   0.73946   0.74807
 Alpha virt. eigenvalues --    0.75201   0.76570   0.78899   0.79634   0.80186
 Alpha virt. eigenvalues --    0.81726   0.82879   0.83973   0.84690   0.86982
 Alpha virt. eigenvalues --    0.87687   0.88427   0.89306   0.90667   0.91757
 Alpha virt. eigenvalues --    0.92524   0.92807   0.93534   0.95282   0.96424
 Alpha virt. eigenvalues --    0.97214   0.98739   0.99335   0.99968   1.03739
 Alpha virt. eigenvalues --    1.03964   1.05414   1.07840   1.08456   1.08682
 Alpha virt. eigenvalues --    1.08895   1.10404   1.12047   1.12303   1.13723
 Alpha virt. eigenvalues --    1.15863   1.16431   1.16464   1.19438   1.20240
 Alpha virt. eigenvalues --    1.21195   1.22025   1.22782   1.23290   1.24875
 Alpha virt. eigenvalues --    1.25213   1.26476   1.27453   1.29763   1.30941
 Alpha virt. eigenvalues --    1.31235   1.33106   1.33722   1.33735   1.35256
 Alpha virt. eigenvalues --    1.35705   1.37466   1.37649   1.40195   1.42361
 Alpha virt. eigenvalues --    1.43129   1.43140   1.44921   1.44947   1.46737
 Alpha virt. eigenvalues --    1.47465   1.49316   1.49654   1.51735   1.52053
 Alpha virt. eigenvalues --    1.54172   1.54291   1.55543   1.56082   1.58419
 Alpha virt. eigenvalues --    1.59179   1.60402   1.61458   1.61667   1.62296
 Alpha virt. eigenvalues --    1.64507   1.66792   1.67731   1.73033   1.73373
 Alpha virt. eigenvalues --    1.74516   1.77483   1.81624   1.82236   1.84042
 Alpha virt. eigenvalues --    1.85781   1.88748   1.89083   1.89779   1.91900
 Alpha virt. eigenvalues --    1.96996   1.97380   1.99022   1.99589   2.00410
 Alpha virt. eigenvalues --    2.00587   2.01511   2.03326   2.03743   2.04464
 Alpha virt. eigenvalues --    2.06637   2.07620   2.10203   2.12154   2.14014
 Alpha virt. eigenvalues --    2.16696   2.16942   2.17879   2.17941   2.20269
 Alpha virt. eigenvalues --    2.20845   2.22250   2.24387   2.24477   2.27155
 Alpha virt. eigenvalues --    2.27613   2.28928   2.29820   2.32748   2.34130
 Alpha virt. eigenvalues --    2.36401   2.38594   2.39172   2.39369   2.41788
 Alpha virt. eigenvalues --    2.43201   2.45651   2.46905   2.49362   2.55375
 Alpha virt. eigenvalues --    2.57709   2.60172   2.60912   2.62867   2.66692
 Alpha virt. eigenvalues --    2.66947   2.69599   2.70507   2.70711   2.72651
 Alpha virt. eigenvalues --    2.73407   2.73794   2.74745   2.75559   2.75806
 Alpha virt. eigenvalues --    2.78681   2.78781   2.80439   2.81183   2.82401
 Alpha virt. eigenvalues --    2.84681   2.86639   2.88490   2.90295   2.91856
 Alpha virt. eigenvalues --    2.92272   2.93532   2.96258   2.97650   2.98290
 Alpha virt. eigenvalues --    3.00351   3.02130   3.04422   3.05341   3.06984
 Alpha virt. eigenvalues --    3.08339   3.08713   3.09907   3.10298   3.11154
 Alpha virt. eigenvalues --    3.12462   3.13407   3.15479   3.15860   3.17909
 Alpha virt. eigenvalues --    3.17944   3.19951   3.20398   3.20976   3.22451
 Alpha virt. eigenvalues --    3.23444   3.24830   3.24867   3.26236   3.27753
 Alpha virt. eigenvalues --    3.28830   3.29523   3.30538   3.31504   3.32756
 Alpha virt. eigenvalues --    3.32954   3.33450   3.35446   3.37485   3.37922
 Alpha virt. eigenvalues --    3.39241   3.41120   3.42046   3.42862   3.44357
 Alpha virt. eigenvalues --    3.45149   3.45794   3.46518   3.47590   3.50133
 Alpha virt. eigenvalues --    3.51521   3.51590   3.52768   3.53624   3.54003
 Alpha virt. eigenvalues --    3.55288   3.56852   3.57250   3.58376   3.60524
 Alpha virt. eigenvalues --    3.62189   3.63247   3.63768   3.64804   3.64967
 Alpha virt. eigenvalues --    3.68063   3.69172   3.69275   3.70560   3.72144
 Alpha virt. eigenvalues --    3.73489   3.74111   3.74259   3.75290   3.77583
 Alpha virt. eigenvalues --    3.78317   3.80959   3.81532   3.82294   3.82498
 Alpha virt. eigenvalues --    3.84100   3.84389   3.86286   3.86329   3.86784
 Alpha virt. eigenvalues --    3.87692   3.91278   3.93332   3.94594   3.95175
 Alpha virt. eigenvalues --    3.95827   3.96497   3.99628   3.99804   4.01972
 Alpha virt. eigenvalues --    4.02063   4.03498   4.04252   4.04976   4.05231
 Alpha virt. eigenvalues --    4.08899   4.09086   4.10174   4.11235   4.12258
 Alpha virt. eigenvalues --    4.13550   4.15873   4.16776   4.17605   4.18787
 Alpha virt. eigenvalues --    4.19406   4.21295   4.21623   4.22300   4.23230
 Alpha virt. eigenvalues --    4.25202   4.26130   4.27336   4.28484   4.29866
 Alpha virt. eigenvalues --    4.30263   4.31353   4.31684   4.34146   4.34439
 Alpha virt. eigenvalues --    4.34695   4.37315   4.37999   4.39986   4.40301
 Alpha virt. eigenvalues --    4.41752   4.43420   4.43894   4.46148   4.48077
 Alpha virt. eigenvalues --    4.48176   4.49568   4.51526   4.51713   4.52581
 Alpha virt. eigenvalues --    4.53467   4.55516   4.56054   4.60412   4.61831
 Alpha virt. eigenvalues --    4.64515   4.66650   4.67881   4.70226   4.73806
 Alpha virt. eigenvalues --    4.75079   4.76374   4.77991   4.80931   4.83606
 Alpha virt. eigenvalues --    4.83916   4.85571   4.88910   4.90798   4.91866
 Alpha virt. eigenvalues --    4.92486   4.92584   4.96217   4.97073   4.97159
 Alpha virt. eigenvalues --    4.98174   5.02041   5.03473   5.04171   5.05117
 Alpha virt. eigenvalues --    5.05990   5.06594   5.07987   5.09844   5.11664
 Alpha virt. eigenvalues --    5.12958   5.13895   5.15153   5.16986   5.18665
 Alpha virt. eigenvalues --    5.19830   5.20891   5.25476   5.26582   5.30757
 Alpha virt. eigenvalues --    5.33548   5.34272   5.34537   5.36709   5.37807
 Alpha virt. eigenvalues --    5.41542   5.44779   5.55801   5.58353   5.59024
 Alpha virt. eigenvalues --    5.60713   5.63305   5.64992   5.66587   5.68065
 Alpha virt. eigenvalues --    5.68289   5.68623   5.70914   5.73349   5.73593
 Alpha virt. eigenvalues --    5.75227   5.76135   5.76233   5.79571   5.85204
 Alpha virt. eigenvalues --    5.85631   5.88031   5.90429   5.95702   5.97860
 Alpha virt. eigenvalues --    5.97936   6.01837   6.02733   6.10619   6.14823
 Alpha virt. eigenvalues --    6.15186   6.15207   6.18636   6.21980   6.54680
 Alpha virt. eigenvalues --    6.54904   6.55183   6.56505   6.57387   6.58508
 Alpha virt. eigenvalues --    6.69502   6.71660   6.73571   6.77180   6.78080
 Alpha virt. eigenvalues --    6.78309   6.79039   6.79068   6.80600   6.80890
 Alpha virt. eigenvalues --    6.86235   6.87803   6.88696   6.91018   6.91083
 Alpha virt. eigenvalues --    6.93792   7.00418   7.01350   7.01500   7.02433
 Alpha virt. eigenvalues --    7.04227   7.04794   7.05414   7.05847   7.16036
 Alpha virt. eigenvalues --    7.16307   7.22342   7.25475   7.26819   7.29813
 Alpha virt. eigenvalues --    7.38586   7.41224   7.45587   7.45883   7.48602
 Alpha virt. eigenvalues --    7.50539   7.57256   7.57967   7.62375   7.63854
 Alpha virt. eigenvalues --    7.72229   7.74761  23.11862  23.14579  23.14948
 Alpha virt. eigenvalues --   23.24054  23.43850  23.46420  44.08036  44.11598
 Alpha virt. eigenvalues --   44.23218  44.30107  44.39087  44.40093
          Condensed to atoms (all electrons):
               1          2          3          4          5          6
     1  C    4.998437   0.188983   0.295478   0.017425  -0.034016   0.413571
     2  C    0.188983   4.998459   0.017426   0.295479   0.413569  -0.034017
     3  C    0.295478   0.017426   4.869496  -0.001183  -0.004458  -0.024068
     4  C    0.017425   0.295479  -0.001183   4.869567  -0.024075  -0.004463
     5  H   -0.034016   0.413569  -0.004458  -0.024075   0.537872   0.007391
     6  H    0.413571  -0.034017  -0.024068  -0.004463   0.007391   0.537867
     7  C   -0.031551   0.005861   0.298259   0.000788  -0.006115  -0.005205
     8  H   -0.059982   0.009225   0.434817   0.000117  -0.000576  -0.005205
     9  C    0.005859  -0.031561   0.000788   0.298268  -0.005205  -0.006115
    10  H    0.009226  -0.059988   0.000117   0.434815  -0.005209  -0.000576
    11  H    0.006898   0.001591  -0.048057   0.000045   0.000833  -0.000583
    12  H    0.002608  -0.002248  -0.038233  -0.000336  -0.001254  -0.000080
    13  H   -0.002246   0.002601  -0.000336  -0.038225  -0.000079  -0.001254
    14  H    0.001590   0.006899   0.000045  -0.048049  -0.000583   0.000833
    15  O   -0.030023   0.014797  -0.030244   0.001897   0.019769  -0.001052
    16  H   -0.004457   0.001190  -0.001015  -0.000183  -0.002918  -0.000249
    17  O   -0.018223  -0.013342   0.242883   0.001613   0.000711   0.003600
    18  H   -0.002891  -0.006839  -0.033518   0.001073  -0.001031  -0.000084
    19  O    0.215623  -0.028769  -0.033911  -0.027362   0.004027  -0.014261
    20  H   -0.043458   0.005884  -0.022023  -0.001561   0.000343   0.006716
    21  O   -0.028749   0.215608  -0.027357  -0.033908  -0.014261   0.004026
    22  H    0.005884  -0.043453  -0.001561  -0.022023   0.006717   0.000343
    23  O   -0.013343  -0.018192   0.001613   0.242865   0.003600   0.000711
    24  H   -0.006837  -0.002894   0.001073  -0.033513  -0.000084  -0.001031
    25  O    0.014796  -0.030022   0.001896  -0.030260  -0.001053   0.019772
    26  H    0.001189  -0.004458  -0.000183  -0.001007  -0.000249  -0.002918
               7          8          9         10         11         12
     1  C   -0.031551  -0.059982   0.005859   0.009226   0.006898   0.002608
     2  C    0.005861   0.009225  -0.031561  -0.059988   0.001591  -0.002248
     3  C    0.298259   0.434817   0.000788   0.000117  -0.048057  -0.038233
     4  C    0.000788   0.000117   0.298268   0.434815   0.000045  -0.000336
     5  H   -0.006115  -0.000576  -0.005205  -0.005209   0.000833  -0.001254
     6  H   -0.005205  -0.005205  -0.006115  -0.000576  -0.000583  -0.000080
     7  C    4.752811  -0.022024  -0.000489   0.000130   0.436391   0.401621
     8  H   -0.022024   0.572981   0.000130   0.000017  -0.003406   0.003560
     9  C   -0.000489   0.000130   4.752764  -0.022024   0.000010  -0.000105
    10  H    0.000130   0.000017  -0.022024   0.572991  -0.000002   0.000001
    11  H    0.436391  -0.003406   0.000010  -0.000002   0.585726  -0.029522
    12  H    0.401621   0.003560  -0.000105   0.000001  -0.029522   0.607104
    13  H   -0.000105   0.000001   0.401619   0.003559  -0.000003   0.000104
    14  H    0.000010  -0.000002   0.436406  -0.003407   0.000000  -0.000003
    15  O    0.244874   0.004395   0.000249  -0.000021  -0.037887  -0.031443
    16  H   -0.037064   0.000756  -0.000001  -0.000002  -0.009224   0.010325
    17  O   -0.044412  -0.032941   0.000099   0.000018   0.001702   0.004256
    18  H   -0.007089   0.006012  -0.000142   0.000056   0.000161  -0.000059
    19  O    0.003011   0.003672  -0.001256  -0.001521  -0.000246   0.000104
    20  H    0.002522  -0.004040  -0.000154   0.000084  -0.000171  -0.000155
    21  O   -0.001256  -0.001521   0.003012   0.003673  -0.000045   0.000209
    22  H   -0.000154   0.000084   0.002521  -0.004041  -0.000003   0.000007
    23  O    0.000099   0.000018  -0.044391  -0.032941  -0.000000   0.000003
    24  H   -0.000142   0.000056  -0.007091   0.006014   0.000006   0.000013
    25  O    0.000249  -0.000021   0.244863   0.004397   0.000002  -0.000054
    26  H   -0.000001  -0.000002  -0.037065   0.000756  -0.000000   0.000004
              13         14         15         16         17         18
     1  C   -0.002246   0.001590  -0.030023  -0.004457  -0.018223  -0.002891
     2  C    0.002601   0.006899   0.014797   0.001190  -0.013342  -0.006839
     3  C   -0.000336   0.000045  -0.030244  -0.001015   0.242883  -0.033518
     4  C   -0.038225  -0.048049   0.001897  -0.000183   0.001613   0.001073
     5  H   -0.000079  -0.000583   0.019769  -0.002918   0.000711  -0.001031
     6  H   -0.001254   0.000833  -0.001052  -0.000249   0.003600  -0.000084
     7  C   -0.000105   0.000010   0.244874  -0.037064  -0.044412  -0.007089
     8  H    0.000001  -0.000002   0.004395   0.000756  -0.032941   0.006012
     9  C    0.401619   0.436406   0.000249  -0.000001   0.000099  -0.000142
    10  H    0.003559  -0.003407  -0.000021  -0.000002   0.000018   0.000056
    11  H   -0.000003   0.000000  -0.037887  -0.009224   0.001702   0.000161
    12  H    0.000104  -0.000003  -0.031443   0.010325   0.004256  -0.000059
    13  H    0.607092  -0.029521  -0.000054   0.000004   0.000003   0.000013
    14  H   -0.029521   0.585697   0.000002  -0.000000  -0.000000   0.000006
    15  O   -0.000054   0.000002   7.893477   0.317876  -0.005126   0.001760
    16  H    0.000004  -0.000000   0.317876   0.521518   0.013444   0.002478
    17  O    0.000003  -0.000000  -0.005126   0.013444   7.951662   0.336664
    18  H    0.000013   0.000006   0.001760   0.002478   0.336664   0.439664
    19  O    0.000209  -0.000045   0.000008   0.000070  -0.013284   0.000319
    20  H    0.000007  -0.000003  -0.000081  -0.000154   0.032529  -0.001589
    21  O    0.000104  -0.000246  -0.002269   0.001126  -0.031127   0.048576
    22  H   -0.000155  -0.000171  -0.000015  -0.000011   0.001255  -0.002590
    23  O    0.004256   0.001700  -0.000014   0.000002  -0.000039  -0.000415
    24  H   -0.000059   0.000161   0.000025   0.000006  -0.000416   0.000083
    25  O   -0.031441  -0.037888  -0.000006  -0.000000  -0.000014   0.000025
    26  H    0.010324  -0.009226  -0.000000  -0.000000   0.000002   0.000006
              19         20         21         22         23         24
     1  C    0.215623  -0.043458  -0.028749   0.005884  -0.013343  -0.006837
     2  C   -0.028769   0.005884   0.215608  -0.043453  -0.018192  -0.002894
     3  C   -0.033911  -0.022023  -0.027357  -0.001561   0.001613   0.001073
     4  C   -0.027362  -0.001561  -0.033908  -0.022023   0.242865  -0.033513
     5  H    0.004027   0.000343  -0.014261   0.006717   0.003600  -0.000084
     6  H   -0.014261   0.006716   0.004026   0.000343   0.000711  -0.001031
     7  C    0.003011   0.002522  -0.001256  -0.000154   0.000099  -0.000142
     8  H    0.003672  -0.004040  -0.001521   0.000084   0.000018   0.000056
     9  C   -0.001256  -0.000154   0.003012   0.002521  -0.044391  -0.007091
    10  H   -0.001521   0.000084   0.003673  -0.004041  -0.032941   0.006014
    11  H   -0.000246  -0.000171  -0.000045  -0.000003  -0.000000   0.000006
    12  H    0.000104  -0.000155   0.000209   0.000007   0.000003   0.000013
    13  H    0.000209   0.000007   0.000104  -0.000155   0.004256  -0.000059
    14  H   -0.000045  -0.000003  -0.000246  -0.000171   0.001700   0.000161
    15  O    0.000008  -0.000081  -0.002269  -0.000015  -0.000014   0.000025
    16  H    0.000070  -0.000154   0.001126  -0.000011   0.000002   0.000006
    17  O   -0.013284   0.032529  -0.031127   0.001255  -0.000039  -0.000416
    18  H    0.000319  -0.001589   0.048576  -0.002590  -0.000415   0.000083
    19  O    7.936530   0.330929   0.004383   0.004446  -0.031129   0.048573
    20  H    0.330929   0.484729   0.004444   0.000003   0.001255  -0.002591
    21  O    0.004383   0.004444   7.936524   0.330929  -0.013289   0.000319
    22  H    0.004446   0.000003   0.330929   0.484732   0.032530  -0.001590
    23  O   -0.031129   0.001255  -0.013289   0.032530   7.951738   0.336629
    24  H    0.048573  -0.002591   0.000319  -0.001590   0.336629   0.439651
    25  O   -0.002270  -0.000015   0.000008  -0.000081  -0.005131   0.001762
    26  H    0.001126  -0.000011   0.000070  -0.000154   0.013443   0.002479
              25         26
     1  C    0.014796   0.001189
     2  C   -0.030022  -0.004458
     3  C    0.001896  -0.000183
     4  C   -0.030260  -0.001007
     5  H   -0.001053  -0.000249
     6  H    0.019772  -0.002918
     7  C    0.000249  -0.000001
     8  H   -0.000021  -0.000002
     9  C    0.244863  -0.037065
    10  H    0.004397   0.000756
    11  H    0.000002  -0.000000
    12  H   -0.000054   0.000004
    13  H   -0.031441   0.010324
    14  H   -0.037888  -0.009226
    15  O   -0.000006  -0.000000
    16  H   -0.000000  -0.000000
    17  O   -0.000014   0.000002
    18  H    0.000025   0.000006
    19  O   -0.002270   0.001126
    20  H   -0.000015  -0.000011
    21  O    0.000008   0.000070
    22  H   -0.000081  -0.000154
    23  O   -0.005131   0.013443
    24  H    0.001762   0.002479
    25  O    7.893415   0.317908
    26  H    0.317908   0.521555
 Mulliken charges:
               1
     1  C    0.098208
     2  C    0.098213
     3  C    0.102256
     4  C    0.102194
     5  H    0.106336
     6  H    0.106333
     7  C    0.008982
     8  H    0.093878
     9  C    0.009011
    10  H    0.093877
    11  H    0.095788
    12  H    0.073573
    13  H    0.073583
    14  H    0.095796
    15  O   -0.360895
    16  H    0.186481
    17  O   -0.431517
    18  H    0.219355
    19  O   -0.398975
    20  H    0.206561
    21  O   -0.398983
    22  H    0.206552
    23  O   -0.431576
    24  H    0.219400
    25  O   -0.360841
    26  H    0.186411
 Sum of Mulliken charges =  -0.00000
 Mulliken charges with hydrogens summed into heavy atoms:
               1
     1  C    0.204541
     2  C    0.204548
     3  C    0.196134
     4  C    0.196071
     7  C    0.178343
     9  C    0.178390
    15  O   -0.174415
    17  O   -0.212162
    19  O   -0.192414
    21  O   -0.192431
    23  O   -0.212176
    25  O   -0.174430
 Electronic spatial extent (au):  <R**2>=           2207.1763
 Charge=             -0.0000 electrons
 Dipole moment (field-independent basis, Debye):
    X=              0.0004    Y=              0.1885    Z=             -0.0003  Tot=              0.1885
 Quadrupole moment (field-independent basis, Debye-Ang):
   XX=            -73.7166   YY=            -74.3533   ZZ=            -72.6512
   XY=             -0.0026   XZ=             -3.3848   YZ=              0.0007
 Traceless Quadrupole moment (field-independent basis, Debye-Ang):
   XX=             -0.1429   YY=             -0.7796   ZZ=              0.9225
   XY=             -0.0026   XZ=             -3.3848   YZ=              0.0007
 Octapole moment (field-independent basis, Debye-Ang**2):
  XXX=             -0.0008  YYY=            -20.1987  ZZZ=             -0.0009  XYY=             -0.0015
  XXY=              6.8074  XXZ=             -0.0009  XZZ=              0.0022  YZZ=             -7.8548
  YYZ=              0.0000  XYZ=            -18.2035
 Hexadecapole moment (field-independent basis, Debye-Ang**3):
 XXXX=          -1657.8637 YYYY=           -512.7554 ZZZZ=           -448.6605 XXXY=             -0.0212
 XXXZ=             49.6969 YYYX=             -0.0104 YYYZ=              0.0004 ZZZX=             10.7005
 ZZZY=              0.0022 XXYY=           -436.7506 XXZZ=           -328.2738 YYZZ=           -168.2312
 XXYZ=              0.0025 YYXZ=            -16.6253 ZZXY=             -0.0009
 N-N= 8.548465895182D+02 E-N=-3.326729077928D+03  KE= 6.850907984413D+02
   1 Symmetry operations used in ECPInt.
 ECPInt:  NShTT=   23436 NPrTT=   62434 LenC2=   22203 LenP2D=   46505.
 LDataN:  DoStor=T MaxTD1= 7 Len=  274
 Calling FoFJK, ICntrl=      2127 FMM=F ISym2X=0 I1Cent= 0 IOpClX= 0 NMat=1 NMatS=1 NMatT=0.
 ***** Axes restored to original set *****
 -------------------------------------------------------------------
 Center     Atomic                   Forces (Hartrees/Bohr)
 Number     Number              X              Y              Z
 -------------------------------------------------------------------
      1        6          -0.003410432   -0.006426502   -0.004506130
      2        6           0.003434474   -0.006965807   -0.003610031
      3        6           0.009308246   -0.003477131   -0.007649454
      4        6          -0.009263501   -0.008460907    0.000469434
      5        1          -0.002553871   -0.002358706   -0.002579365
      6        1           0.002539668   -0.003375886   -0.000886201
      7        6           0.007318267    0.000262259   -0.006783398
      8        1           0.003057108   -0.000036425    0.002171059
      9        6          -0.007354836   -0.005904636    0.003363503
     10        1          -0.003058878    0.001912429   -0.001044608
     11        1          -0.005642457   -0.003872949    0.003684308
     12        1           0.003288727   -0.001107930   -0.001465745
     13        1          -0.003289718   -0.001807758   -0.000302032
     14        1           0.005667654    0.001454476   -0.005130276
     15        8          -0.001231681   -0.006530120   -0.009537402
     16        1          -0.001634164    0.007856104    0.015646958
     17        8           0.005036978    0.004533198    0.008619806
     18        1          -0.015239432   -0.001056378    0.000610234
     19        8          -0.008013543    0.009768801   -0.016857386
     20        1           0.003753167    0.002964086    0.017778215
     21        8           0.007993222   -0.010375102    0.016486021
     22        1          -0.003748108    0.017109446   -0.005624073
     23        8          -0.005120065    0.009824348    0.000002831
     24        1           0.015313116    0.000028446   -0.001205351
     25        8           0.001223865   -0.011358397   -0.001343565
     26        1           0.001626194    0.017401042   -0.000307354
 -------------------------------------------------------------------
 Cartesian Forces:  Max     0.017778215 RMS     0.007192903

 GradGradGradGradGradGradGradGradGradGradGradGradGradGradGradGradGradGrad
 Berny optimization.
 FormGI is forming the generalized inverse of G from B-inverse, IUseBI=4.
 Internal  Forces:  Max     0.018324721 RMS     0.005358351
 Search for a local minimum.
 Step number   1 out of a maximum of  140
 All quantities printed in internal units (Hartrees-Bohrs-Radians)
 Mixed Optimization -- RFO/linear search
 Second derivative matrix not updated -- first step.
 ITU=  0
     Eigenvalues ---    0.00230   0.00230   0.00230   0.00366   0.00366
     Eigenvalues ---    0.01025   0.01026   0.01182   0.01184   0.01393
     Eigenvalues ---    0.01393   0.03812   0.03813   0.03827   0.03827
     Eigenvalues ---    0.04658   0.04659   0.04765   0.04765   0.04887
     Eigenvalues ---    0.04888   0.05693   0.05693   0.07675   0.07676
     Eigenvalues ---    0.07741   0.07741   0.11691   0.11691   0.13925
     Eigenvalues ---    0.13925   0.16000   0.16000   0.16000   0.16000
     Eigenvalues ---    0.16000   0.16000   0.17083   0.17083   0.17564
     Eigenvalues ---    0.17565   0.19416   0.19417   0.20110   0.20110
     Eigenvalues ---    0.22045   0.22045   0.27721   0.27724   0.27899
     Eigenvalues ---    0.29400   0.29402   0.34053   0.34053   0.34212
     Eigenvalues ---    0.34217   0.34339   0.34340   0.34457   0.34459
     Eigenvalues ---    0.38196   0.38200   0.39789   0.39808   0.42074
     Eigenvalues ---    0.42075   0.50513   0.50531   0.51131   0.51134
     Eigenvalues ---    0.52187   0.52210
 RFO step:  Lambda=-2.01296392D-02 EMin= 2.30000000D-03
 Linear search not attempted -- first point.
 Iteration  1 RMS(Cart)=  0.14174717 RMS(Int)=  0.00789359
 Iteration  2 RMS(Cart)=  0.01048693 RMS(Int)=  0.00055891
 Iteration  3 RMS(Cart)=  0.00003637 RMS(Int)=  0.00055816
 Iteration  4 RMS(Cart)=  0.00000001 RMS(Int)=  0.00055816
 Variable       Old X    -DE/DX   Delta X   Delta X   Delta X     New X
                                 (Linear)    (Quad)   (Total)
    R1        2.92360   0.00086   0.00000   0.00289   0.00289   2.92648
    R2        2.92752  -0.00751   0.00000  -0.02527  -0.02527   2.90225
    R3        2.06562  -0.00309   0.00000  -0.00848  -0.00848   2.05713
    R4        2.74076  -0.01083   0.00000  -0.02694  -0.02694   2.71382
    R5        2.92747  -0.00751   0.00000  -0.02524  -0.02524   2.90222
    R6        2.06565  -0.00310   0.00000  -0.00851  -0.00851   2.05714
    R7        2.74081  -0.01085   0.00000  -0.02698  -0.02698   2.71383
    R8        2.89175  -0.00309   0.00000  -0.00982  -0.00982   2.88193
    R9        2.07240  -0.00286   0.00000  -0.00792  -0.00792   2.06448
   R10        2.71816  -0.01218   0.00000  -0.02913  -0.02913   2.68903
   R11        2.89171  -0.00308   0.00000  -0.00981  -0.00981   2.88190
   R12        2.07241  -0.00286   0.00000  -0.00793  -0.00793   2.06448
   R13        2.71841  -0.01224   0.00000  -0.02928  -0.02928   2.68913
   R14        2.06973  -0.00095   0.00000  -0.00262  -0.00262   2.06711
   R15        2.06762  -0.00246   0.00000  -0.00678  -0.00678   2.06084
   R16        2.68829  -0.00397   0.00000  -0.00901  -0.00901   2.67928
   R17        2.06760  -0.00246   0.00000  -0.00677  -0.00677   2.06084
   R18        2.06965  -0.00092   0.00000  -0.00255  -0.00255   2.06710
   R19        2.68828  -0.00396   0.00000  -0.00897  -0.00897   2.67931
   R20        1.84421  -0.01755   0.00000  -0.03238  -0.03238   1.81182
   R21        1.86033  -0.01472   0.00000  -0.02802  -0.02802   1.83232
   R22        1.85441  -0.01832   0.00000  -0.03448  -0.03448   1.81992
   R23        1.85438  -0.01831   0.00000  -0.03445  -0.03445   1.81993
   R24        1.86051  -0.01480   0.00000  -0.02817  -0.02817   1.83234
   R25        1.84398  -0.01745   0.00000  -0.03218  -0.03218   1.81181
    A1        2.01211   0.00073   0.00000   0.01577   0.01412   2.02624
    A2        1.92868  -0.00563   0.00000  -0.05488  -0.05423   1.87445
    A3        1.87910   0.00989   0.00000   0.07618   0.07577   1.95488
    A4        1.89062   0.00189   0.00000  -0.01211  -0.01247   1.87815
    A5        1.87176  -0.00490   0.00000  -0.00002  -0.00235   1.86941
    A6        1.87634  -0.00216   0.00000  -0.02560  -0.02446   1.85187
    A7        2.01212   0.00074   0.00000   0.01578   0.01414   2.02626
    A8        1.92877  -0.00563   0.00000  -0.05494  -0.05430   1.87448
    A9        1.87917   0.00988   0.00000   0.07612   0.07572   1.95489
   A10        1.89052   0.00190   0.00000  -0.01205  -0.01241   1.87811
   A11        1.87175  -0.00490   0.00000  -0.00003  -0.00235   1.86940
   A12        1.87627  -0.00216   0.00000  -0.02556  -0.02442   1.85186
   A13        2.00580  -0.00328   0.00000  -0.00524  -0.00614   1.99966
   A14        1.88107  -0.00128   0.00000  -0.02789  -0.02787   1.85320
   A15        1.92065   0.00334   0.00000   0.03058   0.03020   1.95085
   A16        1.88682   0.00103   0.00000  -0.00666  -0.00682   1.88001
   A17        1.91757   0.00262   0.00000   0.02958   0.02913   1.94670
   A18        1.84427  -0.00256   0.00000  -0.02450  -0.02407   1.82021
   A19        2.00589  -0.00329   0.00000  -0.00528  -0.00619   1.99970
   A20        1.88108  -0.00128   0.00000  -0.02789  -0.02787   1.85321
   A21        1.92067   0.00335   0.00000   0.03056   0.03019   1.95086
   A22        1.88679   0.00103   0.00000  -0.00659  -0.00676   1.88004
   A23        1.91761   0.00261   0.00000   0.02950   0.02906   1.94667
   A24        1.84413  -0.00255   0.00000  -0.02442  -0.02399   1.82015
   A25        1.92106  -0.00644   0.00000  -0.03061  -0.03153   1.88952
   A26        1.93694  -0.00064   0.00000  -0.01373  -0.01387   1.92307
   A27        1.95206   0.00620   0.00000   0.02895   0.02883   1.98089
   A28        1.88866   0.00131   0.00000  -0.00278  -0.00304   1.88562
   A29        1.86789   0.00462   0.00000   0.05459   0.05473   1.92262
   A30        1.89482  -0.00497   0.00000  -0.03503  -0.03470   1.86012
   A31        1.93698  -0.00065   0.00000  -0.01378  -0.01392   1.92306
   A32        1.92113  -0.00646   0.00000  -0.03067  -0.03160   1.88953
   A33        1.95194   0.00623   0.00000   0.02908   0.02895   1.98090
   A34        1.88870   0.00131   0.00000  -0.00279  -0.00306   1.88564
   A35        1.89486  -0.00498   0.00000  -0.03509  -0.03476   1.86011
   A36        1.86782   0.00462   0.00000   0.05465   0.05480   1.92261
   A37        1.85419   0.00192   0.00000   0.01066   0.01066   1.86485
   A38        1.85518  -0.00013   0.00000  -0.00074  -0.00074   1.85445
   A39        1.83945   0.00204   0.00000   0.01131   0.01131   1.85075
   A40        1.83945   0.00203   0.00000   0.01126   0.01126   1.85071
   A41        1.85493  -0.00010   0.00000  -0.00053  -0.00053   1.85440
   A42        1.85428   0.00191   0.00000   0.01058   0.01058   1.86487
    D1       -3.06973  -0.00195   0.00000  -0.07825  -0.07920   3.13425
    D2        1.06285  -0.00049   0.00000  -0.02955  -0.03050   1.03235
    D3       -0.98162  -0.00057   0.00000  -0.01308  -0.01261  -0.99424
    D4        1.06280  -0.00049   0.00000  -0.02951  -0.03046   1.03235
    D5       -1.08780   0.00098   0.00000   0.01919   0.01824  -1.06955
    D6       -3.13227   0.00090   0.00000   0.03565   0.03613  -3.09614
    D7       -0.98166  -0.00056   0.00000  -0.01306  -0.01258  -0.99424
    D8       -3.13226   0.00090   0.00000   0.03564   0.03612  -3.09614
    D9        1.10645   0.00082   0.00000   0.05211   0.05401   1.16046
   D10       -1.12260   0.00503   0.00000   0.11271   0.11264  -1.00996
   D11        3.05590   0.00678   0.00000   0.14495   0.14464  -3.08265
   D12        1.05287   0.00877   0.00000   0.17338   0.17333   1.22620
   D13        1.04809  -0.00036   0.00000   0.04191   0.04186   1.08996
   D14       -1.05660   0.00138   0.00000   0.07414   0.07386  -0.98273
   D15       -3.05962   0.00337   0.00000   0.10257   0.10256  -2.95707
   D16        3.06847  -0.00447   0.00000   0.00588   0.00621   3.07468
   D17        0.96378  -0.00272   0.00000   0.03812   0.03821   1.00199
   D18       -1.03925  -0.00073   0.00000   0.06655   0.06690  -0.97234
   D19       -1.64570  -0.00128   0.00000  -0.00682  -0.00728  -1.65298
   D20        0.52943   0.00256   0.00000   0.05769   0.05815   0.58758
   D21        2.55926   0.00120   0.00000   0.03074   0.03074   2.59000
   D22       -1.12261   0.00504   0.00000   0.11280   0.11272  -1.00989
   D23        3.05586   0.00678   0.00000   0.14499   0.14468  -3.08265
   D24        1.05298   0.00876   0.00000   0.17333   0.17329   1.22626
   D25        1.04813  -0.00036   0.00000   0.04196   0.04192   1.09005
   D26       -1.05658   0.00138   0.00000   0.07416   0.07388  -0.98271
   D27       -3.05946   0.00337   0.00000   0.10250   0.10248  -2.95698
   D28        3.06838  -0.00446   0.00000   0.00603   0.00635   3.07474
   D29        0.96367  -0.00272   0.00000   0.03822   0.03831   1.00198
   D30       -1.03921  -0.00073   0.00000   0.06656   0.06692  -0.97229
   D31       -1.64557  -0.00129   0.00000  -0.00689  -0.00734  -1.65291
   D32        0.52960   0.00256   0.00000   0.05761   0.05807   0.58766
   D33        2.55928   0.00121   0.00000   0.03076   0.03075   2.59003
   D34       -2.98520   0.00545   0.00000   0.07825   0.07796  -2.90723
   D35       -0.89491   0.00248   0.00000   0.04608   0.04630  -0.84861
   D36        1.22400  -0.00004   0.00000   0.01162   0.01173   1.23573
   D37       -0.88367   0.00242   0.00000   0.03425   0.03396  -0.84970
   D38        1.20662  -0.00055   0.00000   0.00208   0.00230   1.20892
   D39       -2.95766  -0.00307   0.00000  -0.03239  -0.03227  -2.98993
   D40        1.12091   0.00133   0.00000   0.01712   0.01679   1.13769
   D41       -3.07199  -0.00164   0.00000  -0.01505  -0.01488  -3.08687
   D42       -0.95308  -0.00416   0.00000  -0.04952  -0.04945  -1.00253
   D43       -0.75485   0.00199   0.00000   0.05390   0.05336  -0.70149
   D44        1.47055   0.00213   0.00000   0.09143   0.09204   1.56259
   D45       -2.78113   0.00324   0.00000   0.08490   0.08484  -2.69629
   D46       -0.89490   0.00247   0.00000   0.04602   0.04624  -0.84866
   D47       -2.98531   0.00546   0.00000   0.07830   0.07801  -2.90730
   D48        1.22400  -0.00005   0.00000   0.01154   0.01165   1.23566
   D49        1.20667  -0.00056   0.00000   0.00204   0.00226   1.20893
   D50       -0.88374   0.00242   0.00000   0.03431   0.03402  -0.84971
   D51       -2.95761  -0.00308   0.00000  -0.03245  -0.03233  -2.98994
   D52       -3.07210  -0.00164   0.00000  -0.01501  -0.01483  -3.08694
   D53        1.12068   0.00134   0.00000   0.01727   0.01693   1.13761
   D54       -0.95319  -0.00416   0.00000  -0.04949  -0.04942  -1.00262
   D55       -0.75494   0.00199   0.00000   0.05402   0.05348  -0.70146
   D56        1.47060   0.00213   0.00000   0.09144   0.09205   1.56265
   D57       -2.78116   0.00324   0.00000   0.08499   0.08492  -2.69624
   D58        1.08983  -0.00020   0.00000   0.01731   0.01808   1.10791
   D59       -1.01540   0.00106   0.00000   0.00247   0.00147  -1.01393
   D60       -3.05031  -0.00037   0.00000  -0.00526  -0.00503  -3.05534
   D61        1.08994  -0.00020   0.00000   0.01733   0.01811   1.10805
   D62       -3.05020  -0.00037   0.00000  -0.00526  -0.00503  -3.05522
   D63       -1.01527   0.00106   0.00000   0.00246   0.00146  -1.01380
         Item               Value     Threshold  Converged?
 Maximum Force            0.018325     0.000450     NO 
 RMS     Force            0.005358     0.000300     NO 
 Maximum Displacement     0.527840     0.001800     NO 
 RMS     Displacement     0.141960     0.001200     NO 
 Predicted change in Energy=-1.325283D-02
 GradGradGradGradGradGradGradGradGradGradGradGradGradGradGradGradGradGrad

                          Input orientation:                          
 ---------------------------------------------------------------------
 Center     Atomic      Atomic             Coordinates (Angstroms)
 Number     Number       Type             X           Y           Z
 ---------------------------------------------------------------------
      1          6           0       -0.000718   -0.009122   -0.013531
      2          6           0        1.547849   -0.016223   -0.001810
      3          6           0       -0.664020    0.711979   -1.196215
      4          6           0        2.211175   -0.728648    1.186089
      5          1           0        1.878055    1.021009    0.010125
      6          1           0       -0.330882    0.483222    0.899495
      7          6           0       -0.272592    2.178395   -1.345172
      8          1           0       -1.740162    0.672178   -1.012270
      9          6           0        1.819752   -0.179554    2.553940
     10          1           0        3.287317   -0.584241    1.065384
     11          1           0       -0.967261    2.649016   -2.046957
     12          1           0       -0.361907    2.690915   -0.386709
     13          1           0        1.909067    0.907296    2.562705
     14          1           0        2.514408   -0.582513    3.296649
     15          8           0        1.063601    2.365347   -1.780878
     16          1           0        1.125670    1.984066   -2.658389
     17          8           0       -0.489356   -0.001709   -2.414819
     18          1           0        0.419496   -0.339385   -2.403656
     19          8           0       -0.545277   -1.337223    0.030764
     20          1           0       -0.709661   -1.588087   -0.884405
     21          8           0        2.092408   -0.593876   -1.198534
     22          1           0        2.256716   -1.520868   -0.995606
     23          8           0        2.036574   -2.139375    1.120036
     24          1           0        1.127721   -2.286331    0.815771
     25          8           0        0.483545   -0.478586    2.921859
     26          1           0        0.421480   -1.432780    2.991835
 ---------------------------------------------------------------------
                    Distance matrix (angstroms):
                    1          2          3          4          5
     1  C    0.000000
     2  C    1.548628   0.000000
     3  C    1.535806   2.617107   0.000000
     4  C    2.617112   1.535791   4.002191   0.000000
     5  H    2.142783   1.088590   2.830708   2.134282   0.000000
     6  H    1.088589   2.142762   2.134318   2.830693   2.441229
     7  C    2.575347   3.151979   1.525051   4.585551   2.793144
     8  H    2.118328   3.507982   1.092474   4.733726   3.776039
     9  C    3.151994   2.575358   4.585589   1.525035   2.813494
    10  H    3.507990   2.118324   4.733718   1.092476   2.382523
    11  H    3.483493   4.196654   2.137248   5.653641   3.870119
    12  H    2.749530   3.335253   2.159343   4.559370   2.821966
    13  H    3.335280   2.749565   4.559431   2.159317   2.555300
    14  H    4.196656   3.483497   5.653667   2.137234   3.711801
    15  O    3.145535   3.011886   2.461733   4.437637   2.382913
    16  H    3.498117   3.352134   2.638019   4.828783   2.935052
    17  O    2.450512   3.158010   1.422973   4.559369   3.539907
    18  H    2.449154   2.673290   1.933207   4.030870   3.131199
    19  O    1.436092   2.475334   2.391403   3.050110   3.381453
    20  H    1.937564   2.888958   2.321554   3.681965   3.782042
    21  O    2.475348   1.436097   3.050108   2.391380   2.028462
    22  H    2.888920   1.937544   3.681922   2.321525   2.759713
    23  O    3.158087   2.450544   4.559436   1.423025   3.353365
    24  H    2.673350   2.449150   4.030917   1.933233   3.485766
    25  O    3.011880   3.145531   4.437667   2.461735   3.559725
    26  H    3.352205   3.498178   4.828878   2.638092   4.127140
                    6          7          8          9         10
     6  H    0.000000
     7  C    2.813456   0.000000
     8  H    2.382565   2.129148   0.000000
     9  C    2.793151   5.014070   5.110409   0.000000
    10  H    3.776025   5.110370   5.583079   2.129159   0.000000
    11  H    3.711767   1.093870   2.361322   6.077541   6.184015
    12  H    2.555228   1.090552   2.523135   4.652596   5.113908
    13  H    2.821964   4.652615   5.113961   1.090549   2.523138
    14  H    3.870118   6.077539   6.184043   1.093864   2.361342
    15  O    3.559688   1.417816   3.364322   5.083201   4.663281
    16  H    4.127058   1.928066   3.555805   5.686069   5.013522
    17  O    3.353348   2.438028   1.996443   5.481986   5.168599
    18  H    3.485765   2.817551   2.761040   5.154030   4.507615
    19  O    2.028467   3.785119   2.559954   3.646913   4.040569
    20  H    2.759727   3.819650   2.487385   4.494899   4.559080
    21  O    3.381450   3.646945   4.040566   3.785112   2.559927
    22  H    3.781990   4.494901   4.559031   3.819599   2.487386
    23  O    3.539987   5.482029   5.168684   2.438030   1.996443
    24  H    3.131287   5.154059   4.507689   2.817561   2.761028
    25  O    2.382924   5.083192   4.663314   1.417827   3.364343
    26  H    2.935132   5.686118   5.013621   1.928080   3.555876
                   11         12         13         14         15
    11  H    0.000000
    12  H    1.767663   0.000000
    13  H    5.705772   4.127670   0.000000
    14  H    7.149750   5.705755   1.767666   0.000000
    15  O    2.067768   2.020340   4.659124   6.047810   0.000000
    16  H    2.279554   2.805895   5.388225   6.631621   0.958776
    17  O    2.718466   3.373380   5.599506   6.479259   2.901121
    18  H    3.313740   3.723088   5.332709   6.077931   2.849263
    19  O    4.514986   4.053863   4.180000   4.538421   4.424880
    20  H    4.401242   4.321862   4.996723   5.374664   4.424676
    21  O    4.538473   4.180021   4.053894   4.514963   3.186623
    22  H    5.374690   4.996704   4.321853   4.401178   4.140391
    23  O    6.479318   5.599527   3.373390   2.718416   5.445595
    24  H    6.077978   5.332723   3.723109   3.313707   5.327740
    25  O    6.047798   4.659093   2.020341   2.067770   5.526315
    26  H    6.631672   5.388238   2.805891   2.279520   6.133260
                   16         17         18         19         20
    16  H    0.000000
    17  O    2.571174   0.000000
    18  H    2.441720   0.969620   0.000000
    19  O    4.588526   2.787042   2.802297   0.000000
    20  H    4.390414   2.215242   2.267681   0.963063   0.000000
    21  O    3.116335   2.914706   2.077430   3.003518   2.989769
    22  H    4.040876   3.444259   2.598824   2.989703   2.969221
    23  O    5.666482   4.842019   4.274496   2.914776   3.444345
    24  H    5.505096   4.274476   3.828432   2.077490   2.598868
    25  O    6.133201   5.445556   5.327720   3.186560   4.140336
    26  H    6.640463   5.666524   5.505165   3.116358   4.040896
                   21         22         23         24         25
    21  O    0.000000
    22  H    0.963063   0.000000
    23  O    2.787016   2.215165   0.000000
    24  H    2.802223   2.267521   0.969633   0.000000
    25  O    4.424859   4.424593   2.901153   2.849301   0.000000
    26  H    4.588568   4.390391   2.571272   2.441840   0.958767
                   26
    26  H    0.000000
 Stoichiometry    C6H14O6
 Framework group  C1[X(C6H14O6)]
 Deg. of freedom    72
 Full point group                 C1      NOp   1
 Largest Abelian subgroup         C1      NOp   1
 Largest concise Abelian subgroup C1      NOp   1
                         Standard orientation:                         
 ---------------------------------------------------------------------
 Center     Atomic      Atomic             Coordinates (Angstroms)
 Number     Number       Type             X           Y           Z
 ---------------------------------------------------------------------
      1          6           0        0.263118    0.029008   -0.728250
      2          6           0       -0.263099    0.028869    0.728234
      3          6           0        1.789844    0.034056   -0.894925
      4          6           0       -1.789807    0.033944    0.894942
      5          1           0        0.124215    0.922560    1.214375
      6          1           0       -0.124180    0.922817   -1.214184
      7          6           0        2.496295    1.211726   -0.231750
      8          1           0        1.978606    0.095280   -1.969225
      9          6           0       -2.496286    1.211690    0.231968
     10          1           0       -1.978554    0.094956    1.969258
     11          1           0        3.522886    1.251311   -0.607376
     12          1           0        2.002333    2.146293   -0.499873
     13          1           0       -2.002342    2.146217    0.500249
     14          1           0       -3.522877    1.251180    0.607587
     15          8           0        2.496431    1.146108    1.184547
     16          1           0        2.998144    0.365736    1.426528
     17          8           0        2.367320   -1.207277   -0.507025
     18          1           0        1.892199   -1.490519    0.289340
     19          8           0       -0.240552   -1.084458   -1.482484
     20          1           0        0.430296   -1.772705   -1.421095
     21          8           0        0.240523   -1.084769    1.482256
     22          1           0       -0.430346   -1.772978    1.420660
     23          8           0       -2.367357   -1.207359    0.506866
     24          1           0       -1.892215   -1.490490   -0.289542
     25          8           0       -2.496411    1.146322   -1.184352
     26          1           0       -2.998191    0.366052   -1.426489
 ---------------------------------------------------------------------
 Rotational constants (GHZ):           1.3893977           0.5929344           0.5861755
 Standard basis: def2TZVPP (5D, 7F)
 There are   642 symmetry adapted cartesian basis functions of A   symmetry.
 There are   568 symmetry adapted basis functions of A   symmetry.
   568 basis functions,   850 primitive gaussians,   642 cartesian basis functions
    49 alpha electrons       49 beta electrons
       nuclear repulsion energy       851.9673377582 Hartrees.
 NAtoms=   26 NActive=   26 NUniq=   26 SFac= 1.00D+00 NAtFMM=   60 NAOKFM=F Big=F
 Integral buffers will be    131072 words long.
 Raffenetti 2 integral format.
 Two-electron integral symmetry is turned on.
 Nuclear repulsion after empirical dispersion term =      851.9471253273 Hartrees.
 One-electron integrals computed using PRISM.
   1 Symmetry operations used in ECPInt.
 ECPInt:  NShTT=   23436 NPrTT=   62434 LenC2=   22220 LenP2D=   46487.
 LDataN:  DoStor=T MaxTD1= 6 Len=  172
 NBasis=   568 RedAO= T EigKep=  4.20D-05  NBF=   568
[...]
 9,0.12053876,-0.04209587,-0.18712946,0.02583908,-0.01215727,-0.0231518
 6,-0.00312692,-0.01279191,-0.04733694,0.00223973,0.00018723,-0.0073609
 7,0.00223393,-0.00356345,0.00180579,-0.00036482,-0.01059931,-0.0278157
 6,0.00026628,0.00657092,0.00202965,0.00671099,-0.00068922,0.00138002,-
 0.00188236,-0.00017280,0.00035853,0.00012815,-0.00008497,0.00122778,-0
 .00045751,-0.00049061,-0.00296981,0.00068545,-0.00006487,0.00112098,-0
 .00027060,0.00007337,0.00050494,0.00050385,0.00003361,0.00008115,-0.00
 040105,-0.00254064,-0.00068774,0.00124399,0.00020429,-0.00015933,-0.00
 050190,0.00005464,0.00528251,-0.00147898,-0.00026578,-0.00148401,0.000
 72096,0.10895495,0.34706531,-0.01242986,-0.02062512,-0.09565592,0.0035
 0043,-0.00364580,0.00065456,0.01002817,0.02905788,-0.00543867,0.001616
 00,0.00260923,-0.00039919,-0.00066193,0.00044358,0.00110768,-0.0131924
 3,-0.03017880,0.00455446,-0.00416877,-0.00008173,-0.00420887,0.0011311
 9,-0.00057494,0.00121659,0.00095891,-0.00009779,-0.00001913,-0.0001029
 0,-0.00047549,0.00019471,0.00024565,0.00168001,0.00007505,0.00003846,0
 .00051099,0.00042496,0.00005321,-0.00012871,0.00003126,-0.00015479,0.0
 0012962,0.00007811,0.00136200,0.00027231,0.00028428,-0.00040117,-0.000
 40407,0.00017910,0.00209583,0.00851298,-0.00079509,-0.00190735,-0.0002
 5712,-0.00011243,0.09059944,0.10529587,0.57061182,-0.00438522,-0.00583
 044,-0.01271872,-0.00058647,-0.00402453,-0.00282652,0.00338516,0.00006
 143,-0.00056691,0.00010731,-0.00023538,0.00006377,-0.00058892,0.000252
 63,0.00045124,-0.00014165,0.00141179,0.00067779,-0.00010646,0.00042647
 ,0.00011002,-0.00079002,0.00077463,0.00015716,0.00014749,0.00000732,-0
 .00002549,-0.00000036,0.00005543,-0.00002052,-0.00003405,0.00002740,-0
 .00004150,0.00003940,-0.00001823,-0.00001047,-0.00003200,0.00002539,0.
 00001313,-0.00000036,-0.00001682,0.00005255,-0.00050543,-0.00013733,0.
 00005646,0.00008146,-0.00012267,0.00001786,-0.00274986,0.00204148,-0.0
 0045084,-0.00025099,-0.00241451,0.00189417,-0.02073700,-0.03384184,-0.
 06896226,0.02851959,-0.00772431,-0.01948749,-0.04090771,-0.00032228,-0
 .00162090,-0.00063921,0.00034141,-0.00365765,-0.00298400,-0.00003461,-
 0.00005813,-0.00011014,-0.00026632,0.00021573,0.00005242,-0.00292925,-
 0.00634899,0.00088138,-0.00057891,-0.00055622,-0.00064311,0.00059533,-
 0.00055466,0.00044234,-0.00019204,-0.00019147,0.00001672,0.00004064,-0
 .00002158,0.00003320,0.00004484,0.00029141,0.00002374,0.00004216,0.000
 30102,0.00019885,0.00004115,0.00002357,-0.00000071,0.00004356,0.000021
 02,0.00002352,0.00074850,0.00061372,0.00000333,-0.00031413,-0.00033980
 ,0.00013884,0.00133484,0.00390835,-0.00138222,-0.00206419,-0.00021060,
 0.00089083,-0.02951311,-0.07285572,-0.09308837,0.03968428,0.09846284,0
 .00097274,-0.00290511,0.00136125,-0.00018102,0.00210045,0.00063174,-0.
 00030979,0.00691985,0.00430186,-0.00020261,-0.00043550,-0.00033475,0.0
 0087053,-0.00001337,-0.00003377,-0.00073711,0.00096401,0.00076028,-0.0
 0021048,-0.00064161,-0.00156794,0.00038961,-0.00039039,0.00001364,0.00
 000202,0.00007781,-0.00014583,0.00010820,0.00002372,0.00006761,0.00002
 735,0.00047221,-0.00004789,-0.00011129,-0.00055402,0.00000674,-0.00002
 268,0.00003183,0.00001359,0.00000040,-0.00002384,0.00001746,0.00017666
 ,-0.00007480,-0.00038476,0.00029803,0.00045431,0.00009166,-0.00179146,
 -0.00516375,0.00016616,0.00298334,0.00126123,-0.00039383,-0.08430512,-
 0.13721301,-0.47345138,0.08267089,0.13495242,0.47126029,-0.01471879,0.
 02039569,0.04068474,-0.08135079,0.01967240,0.04592391,0.00373857,-0.00
 295222,-0.00285035,0.00393776,-0.00474254,-0.00789026,0.00423873,0.002
 09728,-0.00110476,-0.00841920,-0.00001062,-0.00115031,-0.00154414,-0.0
 0049728,0.00072781,0.00022144,-0.00005582,0.00056697,-0.00123543,0.001
 97753,-0.00089582,0.00291177,-0.00119644,0.00087057,0.00016092,0.00010
 159,-0.00012280,0.00020810,0.00005148,0.00004413,-0.00006721,0.0000437
 0,-0.00001200,0.00010020,-0.00007227,-0.00048995,0.00160363,0.00047992
 ,-0.00044663,-0.00088158,-0.00019644,0.00006175,-0.01135965,0.00620429
 ,-0.00770418,-0.00502852,-0.00140807,0.00392999,0.00291860,0.00100098,
 0.00000870,0.00135040,0.00058301,-0.00007667,0.12053911,0.00254626,-0.
 00726612,-0.01197656,0.03055904,-0.11324186,-0.05937331,-0.00151801,0.
 00009101,-0.00129907,-0.00294002,-0.00160309,0.00507389,0.01660619,-0.
 01473114,-0.03704073,0.00224115,0.00129070,0.00071364,-0.00076913,0.00
 007479,0.00005105,0.00013057,0.00003382,0.00015071,0.00064004,-0.00013
 661,0.00105421,-0.00068172,0.00024115,0.00002235,0.00012149,-0.0000328
 8,0.00018942,-0.00008118,0.00028774,-0.00001481,-0.00000392,0.00067398
 ,0.00074540,0.00001031,0.00039120,-0.00008260,0.00073170,-0.00111690,0
 .00016873,-0.00008264,0.00021708,-0.00052871,0.00422316,0.00388605,0.0
 0327076,0.00059767,-0.00627110,-0.00136558,-0.00047258,0.00623390,0.00
 336734,0.00202348,0.00011171,-0.00017805,-0.13083893,0.60901059,0.0123
 9215,-0.01145765,-0.01523102,0.03150801,-0.01290958,-0.16954330,0.0005
 8463,-0.00167422,-0.00785110,0.01598593,-0.02174466,-0.05117251,0.0032
 5992,-0.00659545,-0.00853038,0.00284838,-0.00009468,0.00162284,0.00059
 852,0.00027694,0.00026455,0.00002747,0.00016865,0.00138866,-0.00775521
 ,0.00784704,-0.00204251,0.00113587,-0.00128513,0.00235548,-0.00010166,
 -0.00034125,0.00019214,-0.00004027,0.00061775,0.00024846,0.00007534,-0
 .00003615,0.00087198,0.00054845,-0.00107717,-0.00328593,-0.00067223,0.
 00068133,0.00112874,0.00034619,-0.00094958,-0.00000401,-0.01292266,0.0
 0641826,0.00297622,0.00563495,-0.00458058,0.00127965,-0.00088241,0.001
 23045,0.00382274,0.00111181,0.00071783,-0.00150126,-0.05441519,-0.0320
 7475,0.30866598,-0.00058656,0.00437235,0.00225144,-0.00438510,0.013971
 67,-0.00074374,0.00010731,0.00005289,0.00023811,0.00338524,0.00047362,
 -0.00031770,-0.00014164,-0.00125590,-0.00093545,-0.00058891,-0.0005169
 7,-0.00001417,0.00014751,0.00001915,-0.00001833,-0.00000035,-0.0000075
 8,-0.00005863,-0.00010648,-0.00029551,-0.00032660,-0.00079006,-0.00049
 896,-0.00061304,-0.00000036,-0.00003873,0.00003930,-0.00003200,-0.0000
 2342,-0.00001639,0.00003940,0.00001775,0.00001128,-0.00003405,0.000024
 03,-0.00004355,-0.00007416,-0.00010133,0.00008929,0.00002208,0.0001035
 9,-0.00005245,-0.00117674,-0.00118948,-0.00048250,0.00048933,0.0024595
 1,0.00001010,0.00135036,-0.00192439,-0.00127564,-0.00198256,0.00026187
 ,-0.00019981,-0.02073757,0.07679166,-0.00205780,0.02852004,0.00031000,
 0.00074686,0.00085873,0.00272590,-0.02115625,-0.00202963,0.00019548,-0
 .00049950,-0.00020400,0.00011581,0.00420389,0.00279728,0.00201322,-0.0
 0001419,-0.00235816,-0.00064725,0.00003611,0.00008084,0.00008738,-0.00
 011680,0.00003866,-0.00011469,0.00007178,-0.00002525,0.00045527,-0.001
 87807,0.00005161,-0.00062156,-0.00008754,-0.00063537,-0.00002058,0.000
 01809,-0.00002231,0.00000097,0.00002855,0.00002922,0.00007897,-0.00007
 585,-0.00035635,-0.00004504,0.00022928,0.00050477,-0.00010341,0.000279
 70,-0.00005311,0.00003781,-0.00017284,0.00007478,-0.00183885,0.0004823
 8,-0.00035607,0.00213353,-0.00059462,0.00144995,-0.00020285,-0.0009313
 1,0.00036893,0.00005533,0.00048088,-0.00000471,0.08836923,-0.48176747,
 0.07723091,-0.09164579,0.50186154,0.00020136,-0.00188088,-0.00173595,0
 .00729245,-0.04003234,0.00302993,-0.00006341,0.00012133,0.00010665,-0.
 00044623,-0.00710658,-0.00355961,0.00225184,-0.00244077,-0.00557453,0.
 00064014,0.00014662,0.00014581,0.00017103,-0.00002245,-0.00022051,0.00
 001426,-0.00001577,-0.00002576,0.00041488,0.00005007,-0.00024605,-0.00
 034635,0.00019734,-0.00045348,-0.00003839,0.00002505,0.00002038,-0.000
 04699,-0.00000332,0.00000862,-0.00008901,0.00039649,0.00038361,-0.0000
 2700,0.00005633,0.00001426,-0.00021911,0.00040256,0.00006946,0.0001314
 9,-0.00022286,0.00025905,-0.00116553,-0.00080660,-0.00073608,0.0009323
 5,0.00251341,0.00071268,-0.00055190,0.00126478,-0.00045825,-0.00032470
 ,0.00026890,0.00034233,-0.01301728,0.12135563,-0.06453997,0.00325090,-
 0.07660116,0.06786328,-0.00317781,-0.00772125,0.00169942,0.00636967,0.
 01185187,0.00345659,0.00115050,0.00085265,-0.00003747,-0.10142849,-0.0
 4579860,-0.01216327,0.00000044,0.00136974,-0.00237372,0.00008696,0.000
 46809,0.00003769,-0.00054248,-0.00024899,-0.00030059,0.00039110,-0.000
 20026,0.00029906,-0.00110418,0.00086183,0.00443020,-0.00519010,-0.0431
 0679,-0.00402432,0.00004665,0.00017807,-0.00005116,0.00000500,-0.00003
 944,0.00001461,0.00105660,0.00031517,0.00047778,-0.00003446,0.00005165
 ,0.00068511,0.00055546,0.00025028,-0.00021647,-0.00016996,-0.00003908,
 0.00003106,0.00057078,0.00070719,-0.00056262,-0.00085350,-0.00003543,-
 0.00008715,-0.01136013,0.00948325,-0.00974275,-0.00117685,0.00188636,0
 .00108725,0.00341250,-0.00188126,0.00092494,-0.00274982,0.00096647,-0.
 00201396,0.56448726,-0.00510265,-0.00273012,-0.00075698,-0.00705358,-0
 .04546445,0.00022483,0.00041824,0.00056735,-0.00078901,-0.00367459,-0.
 21606951,0.00130485,0.00351075,-0.00061429,0.00536074,0.00001517,0.000
 22502,0.00015086,-0.00106464,0.00014890,-0.00018462,0.00037062,-0.0000
 0094,0.00027434,-0.00733393,-0.03939662,-0.00528289,-0.00866928,-0.017
 75087,-0.00141458,0.00017131,0.00001858,0.00007973,-0.00007014,0.00012
 575,-0.00001583,0.00110784,-0.00096670,-0.00556664,-0.00044116,0.00177
 955,-0.00015499,0.00095712,-0.00086651,0.00097935,0.00003300,0.0000146
 0,-0.00021590,0.00016984,0.00067530,0.00053593,-0.00033310,-0.00031943
 ,-0.00035527,0.00394132,0.00715782,0.00155515,0.00097976,-0.00095148,0
 .00039589,0.00057614,0.00340923,-0.00049650,-0.00054894,-0.00171921,0.
 00156944,0.07148343,0.35953492,0.00091545,-0.00313518,0.00072982,0.007
 45827,0.02552469,-0.00475140,0.00063891,-0.00025091,-0.00036023,-0.009
 32544,-0.01168690,-0.06651017,-0.00249192,0.00237507,-0.00362055,-0.00
 072994,0.00061213,-0.00029239,0.00058245,-0.00030068,-0.00027902,-0.00
 006759,-0.00004556,0.00004780,-0.00495224,-0.03711144,0.00073751,-0.00
 158725,-0.00056378,0.00293816,-0.00011345,0.00008529,-0.00004302,-0.00
 000491,0.00004086,0.00008930,0.00210695,-0.00306528,-0.00626381,-0.000
 08007,0.00111440,0.00307957,-0.00055109,0.00101740,-0.00042654,0.00004
 266,-0.00033645,0.00025761,-0.00088749,0.00070890,0.00002246,0.0010613
 3,-0.00037098,0.00082977,-0.00907330,0.00470283,-0.00029575,0.00082926
 ,-0.00005462,0.00069781,-0.00089739,0.00949461,0.00107919,-0.00201734,
 -0.00221208,0.00579214,0.13410361,0.01600382,0.09902542,0.00538445,0.0
 0835169,0.00126203,0.00306213,0.00081365,-0.00002401,-0.00101025,-0.00
 154888,-0.00035998,-0.00967421,-0.00780239,-0.00043179,-0.00109977,0.0
 0043195,-0.00080903,-0.00022547,-0.00064318,-0.00006967,0.00102161,0.0
 0028541,0.00051841,-0.00036137,0.00019025,-0.00028773,0.00211615,0.002
 17891,-0.00113633,0.00180558,-0.00032366,-0.00015375,-0.00010380,-0.00
 029666,0.00007779,-0.00000389,0.00003229,-0.00001554,-0.00047158,0.000
 59341,0.00082939,-0.00022943,-0.00013665,-0.00017647,-0.00089111,-0.00
 003932,-0.00001730,0.00017875,0.00003630,-0.00001555,-0.00085348,-0.00
 078533,0.00078796,0.00118208,-0.00003135,0.00014969,-0.00502983,-0.005
 26761,0.00208786,0.00048945,-0.00181686,-0.00145640,-0.00195572,0.0018
 1246,-0.00065051,-0.00025093,-0.00168321,0.00321341,-0.45691978,-0.050
 95811,-0.11002788,0.46450875,0.00211338,-0.00555273,0.00205268,-0.0013
 2850,0.00013469,0.00170864,0.00001853,-0.00016916,0.00034967,-0.047256
 46,-0.01202425,-0.01071564,0.00034729,0.00039674,-0.00066174,0.0000163
 4,0.00001765,0.00004523,-0.00009789,-0.00020300,-0.00006240,0.00001774
 ,0.00000865,-0.00004495,-0.00215035,-0.00178023,0.00019337,-0.00088364
 ,-0.00672573,-0.00080092,-0.00000335,0.00009813,-0.00005903,0.00001549
 ,-0.00003280,0.00001532,0.00029990,-0.00000135,-0.00027996,0.00011439,
 -0.00000091,0.00023043,0.00012738,0.00030221,-0.00019963,-0.00005937,-
 0.00009310,0.00009243,0.00009365,0.00028320,-0.00067132,-0.00011803,0.
 00000160,0.00025329,-0.00282633,-0.00279516,-0.00318912,-0.00115139,0.
 00206096,0.00005732,0.00065242,-0.00021756,0.00005672,-0.00055603,0.00
 053081,0.00050190,-0.00565597,-0.05006158,-0.00169587,0.05667614,0.074
 33633,0.00161027,0.00550929,0.00056827,0.00166929,0.00186419,0.0026752
 6,-0.00039741,-0.00049816,-0.00008140,-0.00023403,-0.00131133,-0.00120
 212,-0.00048445,-0.00031856,-0.00015361,0.00022723,-0.00081059,0.00014
 166,0.00028712,0.00023454,0.00028075,-0.00010143,0.00006433,-0.0000972
 0,-0.00337373,-0.00198807,-0.00007547,0.00179482,0.00297727,0.00020949
 ,-0.00001415,-0.00015377,0.00006116,-0.00000987,-0.00001509,-0.0000399
 5,0.00053058,0.00031561,0.00002373,0.00022034,0.00000570,-0.00006075,-
 0.00026658,-0.00031853,0.00006872,0.00006528,0.00015829,-0.00009123,-0
 .00000915,-0.00068704,0.00022721,0.00009735,0.00031928,-0.00029869,0.0
 0307204,-0.00640402,-0.00219642,-0.00217330,0.00112069,-0.00194285,-0.
 00131375,-0.00092124,-0.00137896,0.00301790,0.00087228,-0.00113508,-0.
 11218209,-0.01402846,-0.03683789,0.10608890,0.01340263,0.04401660,-0.0
 0216232,0.00062667,0.00128157,-0.00185343,0.00213576,-0.00186363,0.001
 04560,-0.00044742,0.00012198,-0.02642303,-0.00757707,0.01333821,-0.000
 00547,0.00035955,-0.00033529,0.00040233,-0.00142618,-0.00098793,-0.000
 72126,-0.00011619,0.00015111,0.00028019,-0.00011919,0.00026884,-0.2298
 8014,-0.00056999,0.04488240,0.00095373,0.00126882,0.00357787,0.0000960
 1,0.00006666,-0.00002103,-0.00004635,-0.00008833,-0.00004904,-0.013662
 42,-0.00629955,0.00608901,-0.04266451,-0.00787622,0.01139431,0.0007349
 0,-0.00006580,-0.00003706,-0.00011835,0.00003124,-0.00003411,0.0005554
 3,0.00004353,-0.00110364,-0.00089110,0.00017691,-0.00023659,0.00160361
 ,0.00025549,-0.00095995,-0.00007416,0.00024206,-0.00001015,0.00226926,
 -0.00002618,0.00288260,-0.00050544,-0.00050410,-0.00058081,0.00556180,
 0.00044215,-0.00217920,-0.00207377,0.00127851,0.00062960,0.35349266,0.
 00057130,-0.00247464,0.00113806,-0.00004341,-0.00021587,-0.00024904,-0
 .00032800,0.00037727,-0.00003789,0.00857789,-0.00047597,-0.00264223,0.
 00006574,0.00031169,-0.00033958,-0.00061849,0.00021621,0.00129128,-0.0
 0005252,-0.00006421,-0.00016106,0.00003674,-0.00001229,0.00001929,-0.0
 4764205,-0.10189038,0.01764418,0.00064271,-0.00007952,-0.00267785,0.00
 001232,0.00002148,0.00004259,-0.00003576,0.00005829,0.00001551,-0.0412
 6145,-0.00430133,0.01307218,0.00755429,0.00773040,-0.00569977,0.000063
 40,0.00006845,0.00006173,0.00000414,-0.00002279,-0.00000681,0.00007546
 ,0.00029984,0.00036758,0.00003356,-0.00009404,0.00000819,0.00017265,0.
 00099400,-0.00093802,-0.00003200,0.00025851,-0.00004200,-0.00027851,0.
 00069830,0.00051713,0.00001377,-0.00019879,0.00042943,0.00456324,0.004
 07165,-0.00229022,0.00000026,0.00090181,0.00184386,0.09409277,0.621897
 08,-0.00225128,0.00333386,-0.00220465,-0.00069705,0.00052449,0.0038269
 5,0.00093316,-0.00141824,0.00023668,0.04146754,0.00715588,-0.00679344,
 0.00018402,-0.00005627,-0.00017785,0.00067342,-0.00087366,-0.00405999,
 -0.00007895,-0.00039348,-0.00005976,-0.00014832,0.00002818,-0.00006254
 ,0.04644861,0.00079467,-0.07706248,0.00198940,-0.00315519,-0.00695471,
 -0.00001875,0.00015089,-0.00011582,0.00004045,-0.00005036,0.00004343,0
 .00460025,0.00202533,0.00005443,-0.01312195,-0.00508201,0.01217989,0.0
 0004101,0.00052625,-0.00023992,-0.00004901,-0.00021245,0.00015657,-0.0
 0032219,0.00040572,-0.00159258,0.00002688,-0.00011072,0.00046497,-0.00
 063241,-0.00042538,-0.00098174,0.00013120,0.00041361,0.00009063,-0.000
 35005,-0.00045448,-0.00110197,0.00014787,0.00035131,0.00042781,-0.0008
 6685,0.00162890,0.00216608,-0.00009309,0.00090101,0.00104876,-0.090914
 28,-0.04106672,0.08961197,0.00037955,0.00084446,-0.00026968,0.00017954
 ,-0.00015196,0.00018171,0.00001498,-0.00016171,-0.00000457,0.00000835,
 -0.00215868,0.00122678,-0.00010025,0.00006642,-0.00008555,0.00028442,0
 .00014932,0.00020797,0.00010467,0.00001667,0.00003571,-0.00007377,0.00
 003716,-0.00006193,-0.01243670,-0.04661627,0.00506803,0.00014649,0.000
 04660,-0.00038270,-0.00001527,-0.00000874,-0.00001632,0.00001153,-0.00
 001178,0.00000697,-0.00653337,-0.00049189,0.00214705,0.00038918,-0.000
 40296,-0.00094323,-0.00011835,0.00004149,-0.00002643,0.00002241,-0.000
 01870,0.00001709,-0.00016994,-0.00005311,-0.00000941,0.00017873,-0.000
 03023,0.00008289,-0.00088151,-0.00026818,0.00023396,0.00002209,-0.0001
 3399,0.00002758,-0.00031240,0.00026038,-0.00036720,0.00008146,-0.00011
 803,0.00041657,0.00101283,0.00107345,-0.00275239,0.00140544,0.00031616
 ,0.00124919,-0.04591378,-0.02618803,0.01286035,0.06231368,0.00007879,0
 .00031417,0.00021174,-0.00024832,-0.00044891,0.00046312,0.00001631,-0.
 00014160,0.00007947,0.00211399,0.00183764,-0.00045423,0.00007578,-0.00
 004451,0.00010740,0.00006586,-0.00029773,0.00015430,-0.00001208,-0.000
 02946,0.00002946,-0.00001179,0.00000992,-0.00001072,0.00051082,-0.0084
 1905,0.00032963,0.00006376,-0.00051719,-0.00054208,-0.00000084,0.00000
 955,-0.00001350,0.00000379,-0.00001311,-0.00000415,-0.00178274,0.00190
 151,-0.00030126,0.00158377,0.00096433,-0.00053145,0.00001570,0.0000276
 9,-0.00003328,-0.00000645,-0.00001200,0.00001491,-0.00000937,-0.000022
 01,-0.00019670,-0.00000308,0.00001149,0.00003757,0.00003660,-0.0005643
 1,-0.00011881,-0.00000167,0.00010497,-0.00007090,0.00004346,-0.0002665
 3,-0.00044568,0.00004116,0.00024255,-0.00016656,-0.00056223,-0.0008169
 6,0.00143994,-0.00006951,0.00058478,-0.00123310,-0.07590390,-0.5280751
 5,0.03505886,0.07396220,0.53365991,0.00005321,0.00158925,-0.00062767,-
 0.00005379,-0.00006836,-0.00041503,-0.00013182,0.00001073,-0.00016666,
 0.00189468,0.00425019,-0.00034925,-0.00005865,-0.00017145,0.00014613,0
 .00018336,0.00016488,-0.00006297,0.00006190,0.00014932,0.00009000,0.00
 002041,0.00000875,0.00000574,0.00280884,0.01379272,-0.00159529,-0.0004
 8464,-0.00038217,0.00029060,0.00000683,-0.00007578,0.00004246,-0.00001
 191,0.00000776,-0.00002254,0.00174581,-0.00018761,-0.00035740,-0.00008
 474,-0.00124129,0.00073979,-0.00004350,-0.00023892,0.00010609,0.000024
 50,0.00009907,-0.00007177,0.00004904,-0.00031725,0.00029416,-0.0000393
 9,0.00010344,-0.00019582,0.00020273,-0.00053976,0.00077750,-0.00011608
 ,-0.00036852,-0.00001881,-0.00008117,-0.00034787,0.00028632,0.00011693
 ,0.00014891,-0.00049072,-0.00262492,-0.00080216,0.00218815,0.00070960,
 -0.00148006,-0.00373000,0.01469521,0.01970017,-0.00890073,-0.01884243,
 -0.03380398,0.01203771\\-0.00001457,0.00001327,0.00000389,0.00001385,0
 .00000940,0.00000903,-0.00002014,0.00001949,0.00001514,0.00002080,0.00
 002287,0.00001081,-0.00001335,-0.00000964,0.00000139,0.00001349,-0.000
 00341,-0.00000964,0.00001359,0.00001709,0.00000060,0.00001527,0.000002
 72,-0.00001226,-0.00001374,0.00000865,0.00001446,-0.00001524,-0.000009
 67,0.00000819,0.00000207,0.00000528,-0.00000137,-0.00000010,-0.0000072
 8,-0.00000507,0.00000026,-0.00000786,-0.00000420,-0.00000214,0.0000011
 4,0.00000526,-0.00001069,-0.00001472,-0.00000654,0.00000768,0.00001024
 ,0.00000757,0.00000155,-0.00002560,-0.00000545,0.00000046,0.00000633,-
 0.00000261,-0.00000896,-0.00002278,0.00000522,0.00000221,0.00000486,-0
 .00000006,0.00000961,-0.00000538,-0.00002169,-0.00000205,0.00000227,0.
 00000402,-0.00000225,-0.00001672,-0.00002093,-0.00000099,0.00000118,0.
 00000763,0.00001116,-0.00001306,-0.00000911,-0.00000778,0.00001133,0.0
 0000571\\\@
 The archive entry for this job was punched.


 CONTRAIWISE...CONTINUED TWEEDLEDEE, IF IT WAS SO, IT MIGHT BE,
 AND IF IT WERE SO, IT WOULD BE.....
 BUT AS IT ISN'T, IT AIN'T....
 THAT'S LOGIC.....
 ALICE THROUGH THE LOOKING GLASS
 Job cpu time:       0 days 10 hours 52 minutes  5.9 seconds.
 Elapsed time:       0 days  0 hours 41 minutes 16.4 seconds.
 File lengths (MBytes):  RWF=    704 Int=      0 D2E=      0 Chk=     27 Scr=      1
 Normal termination of Gaussian 16 at Wed Oct 11 15:32:56 2023.
