 Entering Gaussian System, Link 0=/opt/software/gaussian/g16.c01/g16
 Initial command:
 /opt/software/gaussian/g16.c01/l1.exe "/scratch/arhender/13209910/Gau-238315.inp" -scrdir="/scratch/arhender/13209910/"
 Entering Link 1 = /opt/software/gaussian/g16.c01/l1.exe PID=    239389.
  
 Copyright (c) 1988-2019, Gaussian, Inc.  All Rights Reserved.
  
 This is part of the Gaussian(R) 16 program.  It is based on
 the Gaussian(R) 09 system (copyright 2009, Gaussian, Inc.),
 the Gaussian(R) 03 system (copyright 2003, Gaussian, Inc.),
 the Gaussian(R) 98 system (copyright 1998, Gaussian, Inc.),
 the Gaussian(R) 94 system (copyright 1995, Gaussian, Inc.),
 the Gaussian 92(TM) system (copyright 1992, Gaussian, Inc.),
 the Gaussian 90(TM) system (copyright 1990, Gaussian, Inc.),
 the Gaussian 88(TM) system (copyright 1988, Gaussian, Inc.),
 the Gaussian 86(TM) system (copyright 1986, Carnegie Mellon
 University), and the Gaussian 82(TM) system (copyright 1983,
 Carnegie Mellon University). Gaussian is a federally registered
 trademark of Gaussian, Inc.
  
 This software contains proprietary and confidential information,
 including trade secrets, belonging to Gaussian, Inc.
  
 This software is provided under written license and may be
 used, copied, transmitted, or stored only in accord with that
 written license.
  
 The following legend is applicable only to US Government
 contracts under FAR:
  
                    RESTRICTED RIGHTS LEGEND
  
 Use, reproduction and disclosure by the US Government is
 subject to restrictions as set forth in subparagraphs (a)
 and (c) of the Commercial Computer Software - Restricted
 Rights clause in FAR 52.227-19.
  
 Gaussian, Inc.
 340 Quinnipiac St., Bldg. 40, Wallingford CT 06492
  
  
 ---------------------------------------------------------------
 Warning -- This program may not be used in any manner that
 competes with the business of Gaussian, Inc. or will provide
 assistance to any competitor of Gaussian, Inc.  The licensee
 of this program is prohibited from giving any competitor of
 Gaussian, Inc. access to this program.  By using this program,
 the user acknowledges that Gaussian, Inc. is engaged in the
 business of creating and licensing software in the field of
 computational chemistry and represents and warrants to the
 licensee that it is not a competitor of Gaussian, Inc. and that
 it will not use this program in any manner prohibited above.
 ---------------------------------------------------------------
  

 Cite this work as:
 Gaussian 16, Revision C.01,
 M. J. Frisch, G. W. Trucks, H. B. Schlegel, G. E. Scuseria, 
 M. A. Robb, J. R. Cheeseman, G. Scalmani, V. Barone, 
 G. A. Petersson, H. Nakatsuji, X. Li, M. Caricato, A. V. Marenich, 
 J. Bloino, B. G. Janesko, R. Gomperts, B. Mennucci, H. P. Hratchian, 
 J. V. Ortiz, A. F. Izmaylov, J. L. Sonnenberg, D. Williams-Young, 
 F. Ding, F. Lipparini, F. Egidi, J. Goings, B. Peng, A. Petrone, 
 T. Henderson, D. Ranasinghe, V. G. Zakrzewski, J. Gao, N. Rega, 
 G. Zheng, W. Liang, M. Hada, M. Ehara, K. Toyota, R. Fukuda, 
 J. Hasegawa, M. Ishida, T. Nakajima, Y. Honda, O. Kitao, H. Nakai, 
 T. Vreven, K. Throssell, J. A. Montgomery, Jr., J. E. Peralta, 
 F. Ogliaro, M. J. Bearpark, J. J. Heyd, E. N. Brothers, K. N. Kudin, 
 V. N. Staroverov, T. A. Keith, R. Kobayashi, J. Normand, 
 K. Raghavachari, A. P. Rendell, J. C. Burant, S. S. Iyengar, 
 J. Tomasi, M. Cossi, J. M. Millam, M. Klene, C. Adamo, R. Cammi, 
 J. W. Ochterski, R. L. Martin, K. Morokuma, O. Farkas, 
 J. B. Foresman, and D. J. Fox, Gaussian, Inc., Wallingford CT, 2019.
 
 ******************************************
 Gaussian 16:  ES64L-G16RevC.01  3-Jul-2019
                27-Sep-2023 
 ******************************************
 %chk=MannitolConformerOpt_7.chk
 %mem=8GB
 %nprocs=16
 Will use up to   16 processors via shared memory.
 ---------------------------------------------
 # opt freq wb97xd/def2tzvpp geom=connectivity
 ---------------------------------------------
 1/18=20,19=15,26=3,38=1,57=2/1,3;
 2/9=110,12=2,17=6,18=5,40=1/2;
 3/5=44,7=202,11=2,25=1,30=1,71=1,74=-58/1,2,3;
 4//1;
 5/5=2,38=5/2;
 6/7=2,8=2,9=2,10=2,28=1/1;
 7//1,2,3,16;
 1/18=20,19=15,26=3/3(2);
 2/9=110/2;
 99//99;
 2/9=110/2;
 3/5=44,7=202,11=2,25=1,30=1,71=1,74=-58/1,2,3;
 4/5=5,16=3,69=1/1;
 5/5=2,38=5/2;
 7//1,2,3,16;
 1/18=20,19=15,26=3/3(-5);
 2/9=110/2;
 6/7=2,8=2,9=2,10=2,19=2,28=1/1;
 99/9=1/99;
 --------------------------------
 Mannitol Conformer Optimziations
 --------------------------------
 Symbolic Z-matrix:
 Charge =  0 Multiplicity = 1
 C                     0.        0.        0. 
 C                     1.5367    0.        0. 
 C                    -0.6407    0.6108    1.2625 
 C                     2.1999   -0.7926    1.1346 
 H                     1.9139    1.0294    0. 
 H                    -0.3799   -1.0173   -0.1504 
 C                    -0.479     2.1352    1.3718 
 H                    -0.2407    0.1315    2.1605 
 C                     1.7927   -2.2687    1.1965 
 H                     2.0187   -0.3132    2.1024 
 H                     0.5728    2.4339    1.3681 
 H                    -0.9362    2.4928    2.2998 
 H                     2.0334   -2.7889    0.2642 
 H                     0.7303   -2.3872    1.4253 
 O                    -1.1515    2.8015    0.302 
 H                    -0.9196    2.3191   -0.5226 
 O                    -2.0461    0.3135    1.2365 
 H                    -2.4293    0.9264    0.5757 
 O                    -0.4366    0.7332   -1.1685 
 H                     0.101     0.3598   -1.9012 
 O                     1.9648   -0.5467   -1.2671 
 H                     2.9403   -0.616    -1.1853 
 O                     3.6247   -0.7403    0.9171 
 H                     3.9942   -1.386     1.5563 
 O                     2.5523   -2.8865    2.2402 
 H                     2.2799   -3.8219    2.2703 
 

 GradGradGradGradGradGradGradGradGradGradGradGradGradGradGradGradGradGrad
 Berny optimization.
 Initialization pass.
                           ----------------------------
                           !    Initial Parameters    !
                           ! (Angstroms and Degrees)  !
 --------------------------                            --------------------------
 ! Name  Definition              Value          Derivative Info.                !
 --------------------------------------------------------------------------------
 ! R1    R(1,2)                  1.5367         estimate D2E/DX2                !
 ! R2    R(1,3)                  1.5419         estimate D2E/DX2                !
 ! R3    R(1,6)                  1.0963         estimate D2E/DX2                !
 ! R4    R(1,19)                 1.4469         estimate D2E/DX2                !
 ! R5    R(2,4)                  1.5347         estimate D2E/DX2                !
 ! R6    R(2,5)                  1.0963         estimate D2E/DX2                !
 ! R7    R(2,21)                 1.4449         estimate D2E/DX2                !
 ! R8    R(3,7)                  1.5368         estimate D2E/DX2                !
 ! R9    R(3,8)                  1.0937         estimate D2E/DX2                !
 ! R10   R(3,17)                 1.4367         estimate D2E/DX2                !
 ! R11   R(4,9)                  1.5325         estimate D2E/DX2                !
 ! R12   R(4,10)                 1.0951         estimate D2E/DX2                !
 ! R13   R(4,23)                 1.4423         estimate D2E/DX2                !
 ! R14   R(7,11)                 1.0934         estimate D2E/DX2                !
 ! R15   R(7,12)                 1.0946         estimate D2E/DX2                !
 ! R16   R(7,15)                 1.4285         estimate D2E/DX2                !
 ! R17   R(9,13)                 1.0944         estimate D2E/DX2                !
 ! R18   R(9,14)                 1.0932         estimate D2E/DX2                !
 ! R19   R(9,25)                 1.4311         estimate D2E/DX2                !
 ! R20   R(15,16)                0.9831         estimate D2E/DX2                !
 ! R21   R(17,18)                0.9794         estimate D2E/DX2                !
 ! R22   R(19,20)                0.9825         estimate D2E/DX2                !
 ! R23   R(21,22)                0.9814         estimate D2E/DX2                !
 ! R24   R(23,24)                0.9808         estimate D2E/DX2                !
 ! R25   R(25,26)                0.9747         estimate D2E/DX2                !
 ! A1    A(2,1,3)              114.5523         estimate D2E/DX2                !
 ! A2    A(2,1,6)              110.2754         estimate D2E/DX2                !
 ! A3    A(2,1,19)             107.5623         estimate D2E/DX2                !
 ! A4    A(3,1,6)              109.629          estimate D2E/DX2                !
 ! A5    A(3,1,19)             109.5799         estimate D2E/DX2                !
 ! A6    A(6,1,19)             104.7656         estimate D2E/DX2                !
 ! A7    A(1,2,4)              115.6029         estimate D2E/DX2                !
 ! A8    A(1,2,5)              110.1242         estimate D2E/DX2                !
 ! A9    A(1,2,21)             107.2347         estimate D2E/DX2                !
 ! A10   A(4,2,5)              109.6479         estimate D2E/DX2                !
 ! A11   A(4,2,21)             108.9584         estimate D2E/DX2                !
 ! A12   A(5,2,21)             104.6747         estimate D2E/DX2                !
 ! A13   A(1,3,7)              114.044          estimate D2E/DX2                !
 ! A14   A(1,3,8)              110.2867         estimate D2E/DX2                !
 ! A15   A(1,3,17)             108.0395         estimate D2E/DX2                !
 ! A16   A(7,3,8)              109.7442         estimate D2E/DX2                !
 ! A17   A(7,3,17)             108.0267         estimate D2E/DX2                !
 ! A18   A(8,3,17)             106.3757         estimate D2E/DX2                !
 ! A19   A(2,4,9)              114.3609         estimate D2E/DX2                !
 ! A20   A(2,4,10)             110.8398         estimate D2E/DX2                !
 ! A21   A(2,4,23)             107.2586         estimate D2E/DX2                !
 ! A22   A(9,4,10)             109.9982         estimate D2E/DX2                !
 ! A23   A(9,4,23)             107.6689         estimate D2E/DX2                !
 ! A24   A(10,4,23)            106.3113         estimate D2E/DX2                !
 ! A25   A(3,7,11)             111.8356         estimate D2E/DX2                !
 ! A26   A(3,7,12)             109.9016         estimate D2E/DX2                !
 ! A27   A(3,7,15)             111.0914         estimate D2E/DX2                !
 ! A28   A(11,7,12)            108.3864         estimate D2E/DX2                !
 ! A29   A(11,7,15)            108.8384         estimate D2E/DX2                !
 ! A30   A(12,7,15)            106.6126         estimate D2E/DX2                !
 ! A31   A(4,9,13)             111.4068         estimate D2E/DX2                !
 ! A32   A(4,9,14)             111.7828         estimate D2E/DX2                !
 ! A33   A(4,9,25)             107.7125         estimate D2E/DX2                !
 ! A34   A(13,9,14)            109.9078         estimate D2E/DX2                !
 ! A35   A(13,9,25)            107.4182         estimate D2E/DX2                !
 ! A36   A(14,9,25)            108.4453         estimate D2E/DX2                !
 ! A37   A(7,15,16)            106.7521         estimate D2E/DX2                !
 ! A38   A(3,17,18)            105.3939         estimate D2E/DX2                !
 ! A39   A(1,19,20)            104.1559         estimate D2E/DX2                !
 ! A40   A(2,21,22)            104.3672         estimate D2E/DX2                !
 ! A41   A(4,23,24)            104.4781         estimate D2E/DX2                !
 ! A42   A(9,25,26)            106.7665         estimate D2E/DX2                !
 ! D1    D(3,1,2,4)             60.7549         estimate D2E/DX2                !
 ! D2    D(3,1,2,5)            -64.1822         estimate D2E/DX2                !
 ! D3    D(3,1,2,21)          -177.5204         estimate D2E/DX2                !
 ! D4    D(6,1,2,4)            -63.4727         estimate D2E/DX2                !
 ! D5    D(6,1,2,5)            171.5902         estimate D2E/DX2                !
 ! D6    D(6,1,2,21)            58.252          estimate D2E/DX2                !
 ! D7    D(19,1,2,4)          -177.17           estimate D2E/DX2                !
 ! D8    D(19,1,2,5)            57.8929         estimate D2E/DX2                !
 ! D9    D(19,1,2,21)          -55.4452         estimate D2E/DX2                !
 ! D10   D(2,1,3,7)             70.7021         estimate D2E/DX2                !
 ! D11   D(2,1,3,8)            -53.3052         estimate D2E/DX2                !
 ! D12   D(2,1,3,17)          -169.1864         estimate D2E/DX2                !
 ! D13   D(6,1,3,7)           -164.7275         estimate D2E/DX2                !
 ! D14   D(6,1,3,8)             71.2652         estimate D2E/DX2                !
 ! D15   D(6,1,3,17)           -44.6161         estimate D2E/DX2                !
 ! D16   D(19,1,3,7)           -50.2677         estimate D2E/DX2                !
 ! D17   D(19,1,3,8)          -174.2751         estimate D2E/DX2                !
 ! D18   D(19,1,3,17)           69.8437         estimate D2E/DX2                !
 ! D19   D(2,1,19,20)           47.7991         estimate D2E/DX2                !
 ! D20   D(3,1,19,20)          172.9101         estimate D2E/DX2                !
 ! D21   D(6,1,19,20)          -69.5433         estimate D2E/DX2                !
 ! D22   D(1,2,4,9)             57.2883         estimate D2E/DX2                !
 ! D23   D(1,2,4,10)           -67.7453         estimate D2E/DX2                !
 ! D24   D(1,2,4,23)           176.6            estimate D2E/DX2                !
 ! D25   D(5,2,4,9)           -177.5291         estimate D2E/DX2                !
 ! D26   D(5,2,4,10)            57.4373         estimate D2E/DX2                !
 ! D27   D(5,2,4,23)           -58.2174         estimate D2E/DX2                !
 ! D28   D(21,2,4,9)           -63.5086         estimate D2E/DX2                !
 ! D29   D(21,2,4,10)          171.4578         estimate D2E/DX2                !
 ! D30   D(21,2,4,23)           55.8032         estimate D2E/DX2                !
 ! D31   D(1,2,21,22)         -174.2022         estimate D2E/DX2                !
 ! D32   D(4,2,21,22)          -48.402          estimate D2E/DX2                !
 ! D33   D(5,2,21,22)           68.8219         estimate D2E/DX2                !
 ! D34   D(1,3,7,11)           -58.271          estimate D2E/DX2                !
 ! D35   D(1,3,7,12)          -178.6985         estimate D2E/DX2                !
 ! D36   D(1,3,7,15)            63.5576         estimate D2E/DX2                !
 ! D37   D(8,3,7,11)            66.0276         estimate D2E/DX2                !
 ! D38   D(8,3,7,12)           -54.3998         estimate D2E/DX2                !
 ! D39   D(8,3,7,15)          -172.1438         estimate D2E/DX2                !
 ! D40   D(17,3,7,11)         -178.3897         estimate D2E/DX2                !
 ! D41   D(17,3,7,12)           61.1828         estimate D2E/DX2                !
 ! D42   D(17,3,7,15)          -56.5611         estimate D2E/DX2                !
 ! D43   D(1,3,17,18)          -75.8456         estimate D2E/DX2                !
 ! D44   D(7,3,17,18)           47.976          estimate D2E/DX2                !
 ! D45   D(8,3,17,18)          165.7452         estimate D2E/DX2                !
 ! D46   D(2,4,9,13)            58.7634         estimate D2E/DX2                !
 ! D47   D(2,4,9,14)           -64.6398         estimate D2E/DX2                !
 ! D48   D(2,4,9,25)           176.3271         estimate D2E/DX2                !
 ! D49   D(10,4,9,13)         -175.7597         estimate D2E/DX2                !
 ! D50   D(10,4,9,14)           60.837          estimate D2E/DX2                !
 ! D51   D(10,4,9,25)          -58.1961         estimate D2E/DX2                !
 ! D52   D(23,4,9,13)          -60.3173         estimate D2E/DX2                !
 ! D53   D(23,4,9,14)          176.2795         estimate D2E/DX2                !
 ! D54   D(23,4,9,25)           57.2463         estimate D2E/DX2                !
 ! D55   D(2,4,23,24)         -169.925          estimate D2E/DX2                !
 ! D56   D(9,4,23,24)          -46.4017         estimate D2E/DX2                !
 ! D57   D(10,4,23,24)          71.4505         estimate D2E/DX2                !
 ! D58   D(3,7,15,16)          -45.5822         estimate D2E/DX2                !
 ! D59   D(11,7,15,16)          77.9774         estimate D2E/DX2                !
 ! D60   D(12,7,15,16)        -165.3055         estimate D2E/DX2                !
 ! D61   D(4,9,25,26)          179.7342         estimate D2E/DX2                !
 ! D62   D(13,9,25,26)         -60.149          estimate D2E/DX2                !
 ! D63   D(14,9,25,26)          58.5912         estimate D2E/DX2                !
 --------------------------------------------------------------------------------
 Trust Radius=3.00D-01 FncErr=1.00D-07 GrdErr=1.00D-06 EigMax=2.50D+02 EigMin=1.00D-04
 Number of steps in this run=    140 maximum allowed number of steps=    156.
 GradGradGradGradGradGradGradGradGradGradGradGradGradGradGradGradGradGrad

                          Input orientation:                          
 ---------------------------------------------------------------------
 Center     Atomic      Atomic             Coordinates (Angstroms)
 Number     Number       Type             X           Y           Z
 ---------------------------------------------------------------------
      1          6           0        0.000000    0.000000    0.000000
      2          6           0        1.536700    0.000000    0.000000
      3          6           0       -0.640700    0.610800    1.262500
      4          6           0        2.199900   -0.792600    1.134600
      5          1           0        1.913900    1.029400    0.000000
      6          1           0       -0.379900   -1.017300   -0.150400
      7          6           0       -0.479000    2.135200    1.371800
      8          1           0       -0.240700    0.131500    2.160500
      9          6           0        1.792700   -2.268700    1.196500
     10          1           0        2.018700   -0.313200    2.102400
     11          1           0        0.572800    2.433900    1.368100
     12          1           0       -0.936200    2.492800    2.299800
     13          1           0        2.033400   -2.788900    0.264200
     14          1           0        0.730300   -2.387200    1.425300
     15          8           0       -1.151500    2.801500    0.302000
     16          1           0       -0.919600    2.319100   -0.522600
     17          8           0       -2.046100    0.313500    1.236500
     18          1           0       -2.429300    0.926400    0.575700
     19          8           0       -0.436600    0.733200   -1.168500
     20          1           0        0.101000    0.359800   -1.901200
     21          8           0        1.964800   -0.546700   -1.267100
     22          1           0        2.940300   -0.616000   -1.185300
     23          8           0        3.624700   -0.740300    0.917100
     24          1           0        3.994200   -1.386000    1.556300
     25          8           0        2.552300   -2.886500    2.240200
     26          1           0        2.279900   -3.821900    2.270300
 ---------------------------------------------------------------------
                    Distance matrix (angstroms):
                    1          2          3          4          5
     1  C    0.000000
     2  C    1.536700   0.000000
     3  C    1.541908   2.589991   0.000000
     4  C    2.599056   1.534720   3.170946   0.000000
     5  H    2.173172   1.096332   2.880124   2.165363   0.000000
     6  H    1.096286   2.175057   2.171408   2.890862   3.077843
     7  C    2.582703   3.240981   1.536844   3.975523   2.971632
     8  H    2.177840   2.800750   1.093678   2.804097   3.180611
     9  C    3.129279   2.577624   3.770585   1.532486   3.510522
    10  H    2.931438   2.179565   2.937961   1.095123   2.496727
    11  H    2.850205   2.953755   2.192585   3.621088   2.375472
    12  H    3.518466   4.197424   2.169155   4.688994   3.943817
    13  H    3.461572   2.845079   4.439074   2.184155   3.829295
    14  H    2.874638   2.894907   3.300629   2.187917   3.886585
    15  O    3.043938   3.894358   2.445944   4.984241   3.553621
    16  H    2.548921   3.418296   2.486495   4.707469   3.156764
    17  O    2.411170   3.803113   1.436737   4.388890   4.209875
    18  H    2.662921   4.113247   1.941749   4.969590   4.382400
    19  O    1.446926   2.407673   2.442621   3.818831   2.641586
    20  H    1.937581   2.409409   3.259159   3.866457   2.711002
    21  O    2.401013   1.444885   3.811471   2.425676   2.022925
    22  H    3.229513   1.937649   4.507807   2.441581   2.272834
    23  O    3.811505   2.397678   4.487584   1.442254   2.626737
    24  H    4.505186   3.222169   5.055277   1.936354   3.547376
    25  O    4.456974   3.792337   4.835520   2.393941   4.556350
    26  H    4.995911   4.507053   5.403184   3.236182   5.368736
                    6          7          8          9         10
     6  H    0.000000
     7  C    3.502166   0.000000
     8  H    2.584449   2.166483   0.000000
     9  C    2.846108   4.958396   3.290132   0.000000
    10  H    3.365137   3.573086   2.303480   2.166959   0.000000
    11  H    3.888992   1.093398   2.567241   4.861281   3.190044
    12  H    4.316683   1.094575   2.465535   5.597861   4.079710
    13  H    3.022330   5.637880   4.158873   1.094408   3.083551
    14  H    2.364741   4.681599   2.797715   1.093200   2.533755
    15  O    3.922151   1.428525   3.378236   5.930883   4.795098
    16  H    3.400202   1.953637   3.527822   5.599981   4.738484
    17  O    2.543765   2.406803   2.036264   4.626634   4.202991
    18  H    2.916373   2.428712   2.816634   5.330979   4.863345
    19  O    2.025831   2.901814   3.388607   4.424297   4.221639
    20  H    2.278809   3.768418   4.082436   4.400751   4.489913
    21  O    2.639337   4.486484   4.131904   3.010686   3.378011
    22  H    3.500827   5.079318   4.676740   3.117912   3.427828
    23  O    4.153686   5.031462   4.152998   2.402144   2.041222
    24  H    4.709726   5.695824   4.538969   2.399003   2.313380
    25  O    4.219795   5.929618   4.112849   1.431076   2.631652
    26  H    4.560713   6.626151   4.689867   1.950087   3.522413
                   11         12         13         14         15
    11  H    0.000000
    12  H    1.774434   0.000000
    13  H    5.534400   6.392069   0.000000
    14  H    4.824011   5.230332   1.790973   0.000000
    15  O    2.060318   2.032942   6.434096   5.632547   0.000000
    16  H    2.411469   2.827789   5.952388   5.354040   0.983083
    17  O    3.372247   2.666802   5.216567   3.877863   2.804237
    18  H    3.451530   2.766853   5.815168   4.656698   2.285538
    19  O    3.216459   3.921084   4.534172   4.222126   2.636535
    20  H    3.900360   4.824300   4.282224   4.359774   3.519197
    21  O    4.214964   5.511546   2.716072   3.487183   4.835684
    22  H    4.628909   6.069416   2.764962   3.851815   5.534817
    23  O    4.426403   5.759045   2.674935   3.368694   5.977858
    24  H    5.131572   6.317177   2.735395   3.416520   6.751789
    25  O    5.743312   6.411712   2.045326   2.057437   7.058902
    26  H    6.546998   7.086579   2.269865   2.274566   7.714800
                   16         17         18         19         20
    16  H    0.000000
    17  O    2.895836   0.000000
    18  H    2.329178   0.979360   0.000000
    19  O    1.779201   2.924152   2.655261   0.000000
    20  H    2.604039   3.802281   3.585873   0.982492   0.000000
    21  O    4.133625   4.805754   4.987389   2.722974   2.167389
    22  H    4.894161   5.620789   5.857706   3.636492   3.086474
    23  O    5.664215   5.776719   6.288510   4.797404   4.644297
    24  H    6.495770   6.282977   6.897110   5.616719   5.491733
    25  O    6.839987   5.691458   6.490386   5.801292   5.805043
    26  H    7.466523   6.073265   6.898883   6.320890   6.295684
                   21         22         23         24         25
    21  O    0.000000
    22  H    0.981374   0.000000
    23  O    2.750178   2.214484   0.000000
    24  H    3.576937   3.036441   0.980834   0.000000
    25  O    4.256874   4.127925   2.739856   2.190501   0.000000
    26  H    4.831089   4.759737   3.624348   3.063042   0.974721
                   26
    26  H    0.000000
 Stoichiometry    C6H14O6
 Framework group  C1[X(C6H14O6)]
 Deg. of freedom    72
 Full point group                 C1      NOp   1
 Largest Abelian subgroup         C1      NOp   1
 Largest concise Abelian subgroup C1      NOp   1
                         Standard orientation:                         
 ---------------------------------------------------------------------
 Center     Atomic      Atomic             Coordinates (Angstroms)
 Number     Number       Type             X           Y           Z
 ---------------------------------------------------------------------
      1          6           0       -0.681706    0.188530   -0.655881
      2          6           0        0.438841    0.866284    0.148154
      3          6           0       -1.386504   -0.969822    0.078258
      4          6           0        1.608545   -0.041908    0.551073
      5          1           0        0.023564    1.350048    1.040040
      6          1           0       -0.297003   -0.165928   -1.619316
      7          6           0       -2.275983   -0.520601    1.248265
      8          1           0       -0.651059   -1.698076    0.431671
      9          6           0        2.309942   -0.728811   -0.625670
     10          1           0        1.286779   -0.789726    1.283555
     11          1           0       -1.709836    0.038509    1.998193
     12          1           0       -2.722748   -1.394157    1.733440
     13          1           0        2.707293    0.002748   -1.336066
     14          1           0        1.645889   -1.426760   -1.142376
     15          8           0       -3.358942    0.289930    0.789001
     16          1           0       -2.978684    0.938486    0.155573
     17          8           0       -2.215478   -1.659421   -0.871199
     18          1           0       -2.995949   -1.082490   -1.002196
     19          8           0       -1.650960    1.206921   -0.997963
     20          1           0       -1.108365    1.946455   -1.350057
     21          8           0        0.945000    1.954512   -0.656369
     22          1           0        1.713943    2.294437   -0.150137
     23          8           0        2.582791    0.785940    1.218614
     24          1           0        3.372325    0.211059    1.309067
     25          8           0        3.420333   -1.463973   -0.101699
     26          1           0        3.853093   -1.897902   -0.859660
 ---------------------------------------------------------------------
 Rotational constants (GHZ):           1.4398412           0.5091102           0.4599292
 Standard basis: def2TZVPP (5D, 7F)
 There are   642 symmetry adapted cartesian basis functions of A   symmetry.
 There are   568 symmetry adapted basis functions of A   symmetry.
   568 basis functions,   850 primitive gaussians,   642 cartesian basis functions
    49 alpha electrons       49 beta electrons
       nuclear repulsion energy       825.0557006664 Hartrees.
 NAtoms=   26 NActive=   26 NUniq=   26 SFac= 1.00D+00 NAtFMM=   60 NAOKFM=F Big=F
 Integral buffers will be    131072 words long.
 Raffenetti 2 integral format.
 Two-electron integral symmetry is turned on.
 Nuclear repulsion after empirical dispersion term =      825.0368785295 Hartrees.
 One-electron integrals computed using PRISM.
   1 Symmetry operations used in ECPInt.
 ECPInt:  NShTT=   23436 NPrTT=   62434 LenC2=   21902 LenP2D=   45488.
 LDataN:  DoStor=T MaxTD1= 6 Len=  172
 NBasis=   568 RedAO= T EigKep=  7.16D-05  NBF=   568
 NBsUse=   568 1.00D-06 EigRej= -1.00D+00 NBFU=   568
 ExpMin= 9.52D-02 ExpMax= 2.70D+04 ExpMxC= 9.22D+02 IAcc=3 IRadAn=         5 AccDes= 0.00D+00
 Harris functional with IExCor= 4639 and IRadAn=       5 diagonalized for initial guess.
 HarFok:  IExCor= 4639 AccDes= 0.00D+00 IRadAn=         5 IDoV= 1 UseB2=F ITyADJ=14
 ICtDFT=  3500011 ScaDFX=  1.000000  1.000000  1.000000  1.000000
 FoFCou: FMM=F IPFlag=           0 FMFlag=      100000 FMFlg1=           0
         NFxFlg=           0 DoJE=T BraDBF=F KetDBF=T FulRan=T
         wScrn=  0.000000 ICntrl=       500 IOpCl=  0 I1Cent=   200000004 NGrid=           0
         NMat0=    1 NMatS0=      1 NMatT0=    0 NMatD0=    1 NMtDS0=    0 NMtDT0=    0
 Petite list used in FoFCou.
 Requested convergence on RMS density matrix=1.00D-08 within 128 cycles.
 Requested convergence on MAX density matrix=1.00D-06.
 Requested convergence on             energy=1.00D-06.
 No special actions if energy rises.
 Integral accuracy reduced to 1.0D-05 until final iterations.
 Initial convergence to 1.0D-05 achieved.  Increase integral accuracy.
 SCF Done:  E(RwB97XD) =  -688.469915681     A.U. after   14 cycles
            NFock= 14  Conv=0.14D-08     -V/T= 2.0050

 **********************************************************************

            Population analysis using the SCF Density.

 **********************************************************************

 Orbital symmetries:
       Occupied  (A) (A) (A) (A) (A) (A) (A) (A) (A) (A) (A) (A)
                 (A) (A) (A) (A) (A) (A) (A) (A) (A) (A) (A) (A)
                 (A) (A) (A) (A) (A) (A) (A) (A) (A) (A) (A) (A)
                 (A) (A) (A) (A) (A) (A) (A) (A) (A) (A) (A) (A)
                 (A)
       Virtual   (A) (A) (A) (A) (A) (A) (A) (A) (A) (A) (A) (A)
                 (A) (A) (A) (A) (A) (A) (A) (A) (A) (A) (A) (A)
                 (A) (A) (A) (A) (A) (A) (A) (A) (A) (A) (A) (A)
                 (A) (A) (A) (A) (A) (A) (A) (A) (A) (A) (A) (A)
                 (A) (A) (A) (A) (A) (A) (A) (A) (A) (A) (A) (A)
                 (A) (A) (A) (A) (A) (A) (A) (A) (A) (A) (A) (A)
                 (A) (A) (A) (A) (A) (A) (A) (A) (A) (A) (A) (A)
                 (A) (A) (A) (A) (A) (A) (A) (A) (A) (A) (A) (A)
                 (A) (A) (A) (A) (A) (A) (A) (A) (A) (A) (A) (A)
                 (A) (A) (A) (A) (A) (A) (A) (A) (A) (A) (A) (A)
                 (A) (A) (A) (A) (A) (A) (A) (A) (A) (A) (A) (A)
                 (A) (A) (A) (A) (A) (A) (A) (A) (A) (A) (A) (A)
                 (A) (A) (A) (A) (A) (A) (A) (A) (A) (A) (A) (A)
                 (A) (A) (A) (A) (A) (A) (A) (A) (A) (A) (A) (A)
                 (A) (A) (A) (A) (A) (A) (A) (A) (A) (A) (A) (A)
                 (A) (A) (A) (A) (A) (A) (A) (A) (A) (A) (A) (A)
                 (A) (A) (A) (A) (A) (A) (A) (A) (A) (A) (A) (A)
                 (A) (A) (A) (A) (A) (A) (A) (A) (A) (A) (A) (A)
                 (A) (A) (A) (A) (A) (A) (A) (A) (A) (A) (A) (A)
                 (A) (A) (A) (A) (A) (A) (A) (A) (A) (A) (A) (A)
                 (A) (A) (A) (A) (A) (A) (A) (A) (A) (A) (A) (A)
                 (A) (A) (A) (A) (A) (A) (A) (A) (A) (A) (A) (A)
                 (A) (A) (A) (A) (A) (A) (A) (A) (A) (A) (A) (A)
                 (A) (A) (A) (A) (A) (A) (A) (A) (A) (A) (A) (A)
                 (A) (A) (A) (A) (A) (A) (A) (A) (A) (A) (A) (A)
                 (A) (A) (A) (A) (A) (A) (A) (A) (A) (A) (A) (A)
                 (A) (A) (A) (A) (A) (A) (A) (A) (A) (A) (A) (A)
                 (A) (A) (A) (A) (A) (A) (A) (A) (A) (A) (A) (A)
                 (A) (A) (A) (A) (A) (A) (A) (A) (A) (A) (A) (A)
                 (A) (A) (A) (A) (A) (A) (A) (A) (A) (A) (A) (A)
                 (A) (A) (A) (A) (A) (A) (A) (A) (A) (A) (A) (A)
                 (A) (A) (A) (A) (A) (A) (A) (A) (A) (A) (A) (A)
                 (A) (A) (A) (A) (A) (A) (A) (A) (A) (A) (A) (A)
                 (A) (A) (A) (A) (A) (A) (A) (A) (A) (A) (A) (A)
                 (A) (A) (A) (A) (A) (A) (A) (A) (A) (A) (A) (A)
                 (A) (A) (A) (A) (A) (A) (A) (A) (A) (A) (A) (A)
                 (A) (A) (A) (A) (A) (A) (A) (A) (A) (A) (A) (A)
                 (A) (A) (A) (A) (A) (A) (A) (A) (A) (A) (A) (A)
                 (A) (A) (A) (A) (A) (A) (A) (A) (A) (A) (A) (A)
                 (A) (A) (A) (A) (A) (A) (A) (A) (A) (A) (A) (A)
                 (A) (A) (A) (A) (A) (A) (A) (A) (A) (A) (A) (A)
                 (A) (A) (A) (A) (A) (A) (A) (A) (A) (A) (A) (A)
                 (A) (A) (A) (A) (A) (A) (A) (A) (A) (A) (A) (A)
                 (A) (A) (A)
 The electronic state is 1-A.
 Alpha  occ. eigenvalues --  -19.27702 -19.27418 -19.26909 -19.26909 -19.24693
 Alpha  occ. eigenvalues --  -19.23512 -10.36121 -10.35959 -10.35775 -10.35157
 Alpha  occ. eigenvalues --  -10.35067 -10.33156  -1.16459  -1.15453  -1.13831
 Alpha  occ. eigenvalues --   -1.12434  -1.11586  -1.09845  -0.90213  -0.85182
 Alpha  occ. eigenvalues --   -0.80497  -0.76527  -0.72042  -0.67822  -0.65209
 Alpha  occ. eigenvalues --   -0.64532  -0.61420  -0.60060  -0.58547  -0.57642
 Alpha  occ. eigenvalues --   -0.56325  -0.55814  -0.54396  -0.52882  -0.52042
 Alpha  occ. eigenvalues --   -0.51372  -0.49245  -0.47506  -0.46965  -0.45333
 Alpha  occ. eigenvalues --   -0.44943  -0.42789  -0.41237  -0.39419  -0.38458
 Alpha  occ. eigenvalues --   -0.38179  -0.37700  -0.36829  -0.35148
 Alpha virt. eigenvalues --    0.08305   0.09926   0.11557   0.11928   0.13642
 Alpha virt. eigenvalues --    0.14034   0.14989   0.15457   0.17266   0.18203
 Alpha virt. eigenvalues --    0.18921   0.19464   0.20132   0.20574   0.21950
 Alpha virt. eigenvalues --    0.22723   0.24316   0.24842   0.25179   0.25886
 Alpha virt. eigenvalues --    0.27883   0.29496   0.30787   0.31763   0.33509
 Alpha virt. eigenvalues --    0.35049   0.35655   0.36623   0.37219   0.37680
 Alpha virt. eigenvalues --    0.37848   0.38665   0.39709   0.40008   0.41432
 Alpha virt. eigenvalues --    0.41483   0.41882   0.42890   0.43343   0.44366
 Alpha virt. eigenvalues --    0.44946   0.45448   0.46007   0.46966   0.47654
 Alpha virt. eigenvalues --    0.47793   0.48620   0.49371   0.50170   0.50558
 Alpha virt. eigenvalues --    0.52023   0.52328   0.53253   0.53913   0.55042
 Alpha virt. eigenvalues --    0.55160   0.56287   0.57050   0.57295   0.59178
 Alpha virt. eigenvalues --    0.59515   0.60594   0.62289   0.63167   0.63404
 Alpha virt. eigenvalues --    0.65117   0.65714   0.66961   0.67391   0.69194
 Alpha virt. eigenvalues --    0.69828   0.70250   0.71152   0.71766   0.73158
 Alpha virt. eigenvalues --    0.74591   0.75043   0.76399   0.78389   0.78939
 Alpha virt. eigenvalues --    0.80574   0.81565   0.82616   0.83366   0.84423
 Alpha virt. eigenvalues --    0.87680   0.88272   0.88965   0.89712   0.90763
 Alpha virt. eigenvalues --    0.92004   0.92504   0.93125   0.94953   0.95849
 Alpha virt. eigenvalues --    0.97031   0.97461   0.99265   1.00692   1.01249
 Alpha virt. eigenvalues --    1.02280   1.03660   1.05239   1.05852   1.06831
 Alpha virt. eigenvalues --    1.08104   1.09141   1.10049   1.10416   1.11164
 Alpha virt. eigenvalues --    1.12099   1.13201   1.15450   1.15692   1.17147
 Alpha virt. eigenvalues --    1.18295   1.19595   1.21245   1.22502   1.23214
 Alpha virt. eigenvalues --    1.23979   1.26168   1.26722   1.27046   1.28551
 Alpha virt. eigenvalues --    1.30225   1.30491   1.32315   1.33963   1.34690
 Alpha virt. eigenvalues --    1.35756   1.36347   1.37651   1.38269   1.39405
 Alpha virt. eigenvalues --    1.41324   1.42573   1.43654   1.44930   1.45803
 Alpha virt. eigenvalues --    1.47893   1.48059   1.48346   1.50964   1.52773
 Alpha virt. eigenvalues --    1.53267   1.53798   1.55054   1.56696   1.58455
 Alpha virt. eigenvalues --    1.59281   1.60153   1.61697   1.63048   1.64755
 Alpha virt. eigenvalues --    1.66693   1.68132   1.70412   1.71460   1.75426
 Alpha virt. eigenvalues --    1.76336   1.77024   1.81151   1.82322   1.83632
 Alpha virt. eigenvalues --    1.84913   1.87331   1.89790   1.90321   1.91424
 Alpha virt. eigenvalues --    1.91990   1.94527   1.97093   1.97856   1.98998
 Alpha virt. eigenvalues --    2.00245   2.01983   2.02756   2.04517   2.04797
 Alpha virt. eigenvalues --    2.05193   2.07590   2.08435   2.09893   2.11217
 Alpha virt. eigenvalues --    2.11382   2.13286   2.14556   2.16127   2.16525
 Alpha virt. eigenvalues --    2.17399   2.19943   2.20367   2.21697   2.25257
 Alpha virt. eigenvalues --    2.27231   2.28390   2.30106   2.30813   2.31968
 Alpha virt. eigenvalues --    2.33392   2.33475   2.36667   2.39229   2.41725
 Alpha virt. eigenvalues --    2.42532   2.43533   2.45614   2.49038   2.50506
 Alpha virt. eigenvalues --    2.52270   2.54943   2.59304   2.61314   2.62075
 Alpha virt. eigenvalues --    2.65027   2.66549   2.68256   2.69335   2.70442
 Alpha virt. eigenvalues --    2.71442   2.73442   2.74608   2.76211   2.77101
 Alpha virt. eigenvalues --    2.77959   2.79185   2.80713   2.81361   2.83043
 Alpha virt. eigenvalues --    2.83691   2.85606   2.87531   2.87937   2.89984
 Alpha virt. eigenvalues --    2.91038   2.92767   2.96561   2.96820   2.98022
 Alpha virt. eigenvalues --    2.98470   3.00958   3.01303   3.02106   3.03663
 Alpha virt. eigenvalues --    3.04320   3.06079   3.06829   3.07424   3.09430
 Alpha virt. eigenvalues --    3.11173   3.12323   3.13398   3.13752   3.14847
 Alpha virt. eigenvalues --    3.17238   3.17348   3.19060   3.19609   3.22332
 Alpha virt. eigenvalues --    3.22685   3.22934   3.24062   3.25325   3.26961
 Alpha virt. eigenvalues --    3.27607   3.28861   3.29823   3.30724   3.31380
 Alpha virt. eigenvalues --    3.34013   3.34437   3.34974   3.35684   3.36974
 Alpha virt. eigenvalues --    3.37624   3.39548   3.40002   3.40753   3.41387
 Alpha virt. eigenvalues --    3.42018   3.43362   3.44970   3.45842   3.46244
 Alpha virt. eigenvalues --    3.47379   3.48611   3.50436   3.51157   3.52551
 Alpha virt. eigenvalues --    3.53189   3.55673   3.57143   3.58311   3.58755
 Alpha virt. eigenvalues --    3.60997   3.62129   3.64402   3.64563   3.65428
 Alpha virt. eigenvalues --    3.66045   3.67330   3.70818   3.70973   3.71967
 Alpha virt. eigenvalues --    3.73589   3.74605   3.75515   3.75763   3.78011
 Alpha virt. eigenvalues --    3.78987   3.80386   3.81572   3.82389   3.83024
 Alpha virt. eigenvalues --    3.84973   3.85084   3.86706   3.87931   3.90037
 Alpha virt. eigenvalues --    3.90595   3.90836   3.91980   3.92419   3.94940
 Alpha virt. eigenvalues --    3.96646   3.97253   3.98829   3.99186   4.00545
 Alpha virt. eigenvalues --    4.01945   4.02460   4.03537   4.04909   4.05289
 Alpha virt. eigenvalues --    4.05877   4.07182   4.08113   4.08682   4.10284
 Alpha virt. eigenvalues --    4.11899   4.12635   4.14998   4.15979   4.16823
 Alpha virt. eigenvalues --    4.17762   4.18771   4.19530   4.21032   4.21334
 Alpha virt. eigenvalues --    4.24155   4.24360   4.26236   4.26444   4.27255
 Alpha virt. eigenvalues --    4.27631   4.29893   4.30753   4.32647   4.33413
 Alpha virt. eigenvalues --    4.33766   4.34912   4.37041   4.38623   4.41487
 Alpha virt. eigenvalues --    4.41844   4.43007   4.44302   4.45475   4.47316
 Alpha virt. eigenvalues --    4.49722   4.49959   4.50757   4.53724   4.55604
 Alpha virt. eigenvalues --    4.56337   4.58131   4.59289   4.60598   4.61946
 Alpha virt. eigenvalues --    4.63499   4.66925   4.67084   4.68538   4.70456
 Alpha virt. eigenvalues --    4.72452   4.75307   4.76939   4.78316   4.79480
 Alpha virt. eigenvalues --    4.79968   4.83366   4.83747   4.85129   4.87713
 Alpha virt. eigenvalues --    4.89285   4.91572   4.92872   4.93909   4.95343
 Alpha virt. eigenvalues --    4.95899   4.99711   5.00340   5.00671   5.04410
 Alpha virt. eigenvalues --    5.04776   5.05118   5.07947   5.08901   5.10574
 Alpha virt. eigenvalues --    5.11565   5.16120   5.16218   5.19485   5.19843
 Alpha virt. eigenvalues --    5.22022   5.22950   5.24672   5.25552   5.27924
 Alpha virt. eigenvalues --    5.31576   5.32167   5.38313   5.40950   5.43816
 Alpha virt. eigenvalues --    5.44700   5.48690   5.53087   5.55361   5.56375
 Alpha virt. eigenvalues --    5.60293   5.61222   5.63590   5.64542   5.66418
 Alpha virt. eigenvalues --    5.67024   5.69714   5.70699   5.71453   5.73426
 Alpha virt. eigenvalues --    5.74470   5.77947   5.80549   5.80880   5.83985
 Alpha virt. eigenvalues --    5.85803   5.86451   5.90845   5.91454   5.95304
 Alpha virt. eigenvalues --    5.98064   6.02823   6.04400   6.10829   6.12245
 Alpha virt. eigenvalues --    6.13761   6.17091   6.18494   6.20287   6.51535
 Alpha virt. eigenvalues --    6.53072   6.53604   6.54418   6.55579   6.57842
 Alpha virt. eigenvalues --    6.69808   6.72079   6.73318   6.74584   6.75223
 Alpha virt. eigenvalues --    6.76920   6.77287   6.78555   6.79100   6.79492
 Alpha virt. eigenvalues --    6.80766   6.82713   6.85064   6.87507   6.87863
 Alpha virt. eigenvalues --    6.89591   6.91568   6.95098   6.96222   7.00354
 Alpha virt. eigenvalues --    7.02411   7.02987   7.05275   7.09437   7.14969
 Alpha virt. eigenvalues --    7.19554   7.20290   7.20843   7.22373   7.25613
 Alpha virt. eigenvalues --    7.40560   7.40974   7.42385   7.45146   7.47786
 Alpha virt. eigenvalues --    7.48668   7.51286   7.53056   7.55756   7.56593
 Alpha virt. eigenvalues --    7.61916   7.67983  23.12398  23.13134  23.17936
 Alpha virt. eigenvalues --   23.21775  23.42161  23.44227  44.11353  44.14160
 Alpha virt. eigenvalues --   44.20603  44.26743  44.30199  44.37960
          Condensed to atoms (all electrons):
               1          2          3          4          5          6
     1  C    5.206236   0.018848   0.225199   0.024026  -0.033885   0.391234
     2  C    0.018848   5.290393   0.023449   0.112747   0.429386   0.003752
     3  C    0.225199   0.023449   4.847103  -0.002006  -0.005030  -0.031932
     4  C    0.024026   0.112747  -0.002006   5.006117  -0.028987  -0.011203
     5  H   -0.033885   0.429386  -0.005030  -0.028987   0.553535   0.005222
     6  H    0.391234   0.003752  -0.031932  -0.011203   0.005222   0.541895
     7  C   -0.029575   0.024560   0.331895  -0.005328  -0.000526   0.007657
     8  H   -0.012736  -0.024550   0.403720   0.012285   0.001179  -0.001680
     9  C    0.030666  -0.005682  -0.008537   0.258390   0.006842   0.001091
    10  H   -0.019270  -0.019144   0.006590   0.422871  -0.004553   0.001666
    11  H   -0.009038   0.007025  -0.041286  -0.005899  -0.005918  -0.000791
    12  H    0.008282  -0.002153  -0.027048   0.000830   0.000318  -0.000156
    13  H   -0.013090   0.018585   0.002084  -0.037939   0.000696   0.002408
    14  H    0.016081  -0.021815  -0.005789  -0.025017  -0.000723  -0.004631
    15  O    0.004890  -0.009354  -0.036827   0.000674   0.001055  -0.000772
    16  H   -0.000842  -0.000823  -0.007593   0.000296   0.001242   0.001002
    17  O   -0.032356   0.009721   0.268000  -0.000681   0.000198   0.009764
    18  H    0.001262  -0.000872  -0.052785  -0.000069  -0.000072  -0.003000
    19  O    0.198011  -0.008294  -0.054137   0.008935   0.006689  -0.021827
    20  H   -0.021075  -0.014348   0.005442   0.001630  -0.001382  -0.005234
    21  O   -0.025715   0.215592   0.005174  -0.023039  -0.037009   0.002618
    22  H    0.007528  -0.042108  -0.000739  -0.002054  -0.006028  -0.000055
    23  O    0.007002  -0.066709  -0.000726   0.268730   0.002544  -0.000166
    24  H   -0.001026   0.005724  -0.000026  -0.036896  -0.000397  -0.000011
    25  O   -0.001222   0.005964   0.000365  -0.072147  -0.000056   0.000120
    26  H    0.000231  -0.001667  -0.000015   0.010356   0.000034   0.000007
               7          8          9         10         11         12
     1  C   -0.029575  -0.012736   0.030666  -0.019270  -0.009038   0.008282
     2  C    0.024560  -0.024550  -0.005682  -0.019144   0.007025  -0.002153
     3  C    0.331895   0.403720  -0.008537   0.006590  -0.041286  -0.027048
     4  C   -0.005328   0.012285   0.258390   0.422871  -0.005899   0.000830
     5  H   -0.000526   0.001179   0.006842  -0.004553  -0.005918   0.000318
     6  H    0.007657  -0.001680   0.001091   0.001666  -0.000791  -0.000156
     7  C    4.686762  -0.031112   0.000057  -0.001405   0.408215   0.414591
     8  H   -0.031112   0.582555  -0.001255  -0.002387   0.005667  -0.005476
     9  C    0.000057  -0.001255   4.782026  -0.040189   0.000542  -0.000077
    10  H   -0.001405  -0.002387  -0.040189   0.603756   0.001369  -0.000035
    11  H    0.408215   0.005667   0.000542   0.001369   0.653567  -0.036319
    12  H    0.414591  -0.005476  -0.000077  -0.000035  -0.036319   0.587326
    13  H   -0.000086   0.000046   0.410078   0.009135   0.000005   0.000002
    14  H    0.000346   0.000542   0.423194  -0.004902  -0.000095  -0.000006
    15  O    0.266861   0.004682  -0.000020  -0.000059  -0.042655  -0.036120
    16  H   -0.029751  -0.000257  -0.000010   0.000005  -0.007444   0.007210
    17  O   -0.038717  -0.021102  -0.000578   0.000081   0.005559   0.002625
    18  H   -0.018983   0.009120   0.000088  -0.000031   0.002714  -0.003224
    19  O    0.006778   0.002084  -0.000702  -0.000035   0.000251  -0.000575
    20  H    0.000646  -0.000411  -0.000098  -0.000055   0.000047   0.000078
    21  O   -0.000390   0.000113  -0.018778   0.003981   0.000145   0.000000
    22  H   -0.000004   0.000023  -0.001041   0.001423  -0.000041  -0.000003
    23  O    0.000005  -0.000108  -0.035142  -0.038900   0.000044  -0.000006
    24  H    0.000028  -0.000039  -0.006757  -0.003832  -0.000020   0.000001
    25  O   -0.000017   0.000150   0.276482   0.005835  -0.000001   0.000000
    26  H    0.000000   0.000013  -0.028955  -0.000149   0.000000   0.000000
              13         14         15         16         17         18
     1  C   -0.013090   0.016081   0.004890  -0.000842  -0.032356   0.001262
     2  C    0.018585  -0.021815  -0.009354  -0.000823   0.009721  -0.000872
     3  C    0.002084  -0.005789  -0.036827  -0.007593   0.268000  -0.052785
     4  C   -0.037939  -0.025017   0.000674   0.000296  -0.000681  -0.000069
     5  H    0.000696  -0.000723   0.001055   0.001242   0.000198  -0.000072
     6  H    0.002408  -0.004631  -0.000772   0.001002   0.009764  -0.003000
     7  C   -0.000086   0.000346   0.266861  -0.029751  -0.038717  -0.018983
     8  H    0.000046   0.000542   0.004682  -0.000257  -0.021102   0.009120
     9  C    0.410078   0.423194  -0.000020  -0.000010  -0.000578   0.000088
    10  H    0.009135  -0.004902  -0.000059   0.000005   0.000081  -0.000031
    11  H    0.000005  -0.000095  -0.042655  -0.007444   0.005559   0.002714
    12  H    0.000002  -0.000006  -0.036120   0.007210   0.002625  -0.003224
    13  H    0.581358  -0.036486   0.000000   0.000001  -0.000004  -0.000003
    14  H   -0.036486   0.613058  -0.000000   0.000001   0.001001  -0.000023
    15  O    0.000000  -0.000000   7.925961   0.334045  -0.011582   0.030879
    16  H    0.000001   0.000001   0.334045   0.449818   0.000441  -0.001920
    17  O   -0.000004   0.001001  -0.011582   0.000441   7.853234   0.330718
    18  H   -0.000003  -0.000023   0.030879  -0.001920   0.330718   0.503039
    19  O    0.000010   0.000047  -0.032510   0.041559  -0.002489   0.005635
    20  H    0.000016  -0.000043   0.001204  -0.002005  -0.000475  -0.000127
    21  O    0.016869   0.000972  -0.000003  -0.000048  -0.000082   0.000007
    22  H    0.000033   0.000304   0.000001   0.000008   0.000015   0.000000
    23  O   -0.000936   0.005877   0.000000   0.000001   0.000001   0.000000
    24  H   -0.002444   0.001854   0.000000   0.000000  -0.000000  -0.000000
    25  O   -0.049158  -0.041735   0.000000   0.000000  -0.000000  -0.000000
    26  H   -0.005169  -0.005308  -0.000000  -0.000000  -0.000000   0.000000
              19         20         21         22         23         24
     1  C    0.198011  -0.021075  -0.025715   0.007528   0.007002  -0.001026
     2  C   -0.008294  -0.014348   0.215592  -0.042108  -0.066709   0.005724
     3  C   -0.054137   0.005442   0.005174  -0.000739  -0.000726  -0.000026
     4  C    0.008935   0.001630  -0.023039  -0.002054   0.268730  -0.036896
     5  H    0.006689  -0.001382  -0.037009  -0.006028   0.002544  -0.000397
     6  H   -0.021827  -0.005234   0.002618  -0.000055  -0.000166  -0.000011
     7  C    0.006778   0.000646  -0.000390  -0.000004   0.000005   0.000028
     8  H    0.002084  -0.000411   0.000113   0.000023  -0.000108  -0.000039
     9  C   -0.000702  -0.000098  -0.018778  -0.001041  -0.035142  -0.006757
    10  H   -0.000035  -0.000055   0.003981   0.001423  -0.038900  -0.003832
    11  H    0.000251   0.000047   0.000145  -0.000041   0.000044  -0.000020
    12  H   -0.000575   0.000078   0.000000  -0.000003  -0.000006   0.000001
    13  H    0.000010   0.000016   0.016869   0.000033  -0.000936  -0.002444
    14  H    0.000047  -0.000043   0.000972   0.000304   0.005877   0.001854
    15  O   -0.032510   0.001204  -0.000003   0.000001   0.000000   0.000000
    16  H    0.041559  -0.002005  -0.000048   0.000008   0.000001   0.000000
    17  O   -0.002489  -0.000475  -0.000082   0.000015   0.000001  -0.000000
    18  H    0.005635  -0.000127   0.000007   0.000000   0.000000  -0.000000
    19  O    7.928314   0.321797  -0.013839  -0.000188  -0.000082   0.000017
    20  H    0.321797   0.485210   0.023031  -0.001346  -0.000022   0.000005
    21  O   -0.013839   0.023031   7.933006   0.328245  -0.010815  -0.000026
    22  H   -0.000188  -0.001346   0.328245   0.482519   0.026747  -0.001182
    23  O   -0.000082  -0.000022  -0.010815   0.026747   7.913594   0.329906
    24  H    0.000017   0.000005  -0.000026  -0.001182   0.329906   0.482945
    25  O    0.000001  -0.000000   0.000195  -0.000050  -0.008796   0.024025
    26  H   -0.000001  -0.000001   0.000084  -0.000004   0.000005  -0.001417
              25         26
     1  C   -0.001222   0.000231
     2  C    0.005964  -0.001667
     3  C    0.000365  -0.000015
     4  C   -0.072147   0.010356
     5  H   -0.000056   0.000034
     6  H    0.000120   0.000007
     7  C   -0.000017   0.000000
     8  H    0.000150   0.000013
     9  C    0.276482  -0.028955
    10  H    0.005835  -0.000149
    11  H   -0.000001   0.000000
    12  H    0.000000   0.000000
    13  H   -0.049158  -0.005169
    14  H   -0.041735  -0.005308
    15  O    0.000000  -0.000000
    16  H    0.000000  -0.000000
    17  O   -0.000000  -0.000000
    18  H   -0.000000   0.000000
    19  O    0.000001  -0.000001
    20  H   -0.000000  -0.000001
    21  O    0.000195   0.000084
    22  H   -0.000050  -0.000004
    23  O   -0.008796   0.000005
    24  H    0.024025  -0.001417
    25  O    7.890519   0.326453
    26  H    0.326453   0.519124
 Mulliken charges:
               1
     1  C    0.060332
     2  C    0.051771
     3  C    0.155455
     4  C    0.123380
     5  H    0.115626
     6  H    0.113021
     7  C    0.007492
     8  H    0.078934
     9  C   -0.041635
    10  H    0.078236
    11  H    0.064357
    12  H    0.089934
    13  H    0.103988
    14  H    0.083296
    15  O   -0.400351
    16  H    0.215065
    17  O   -0.373290
    18  H    0.197648
    19  O   -0.385449
    20  H    0.207515
    21  O   -0.400287
    22  H    0.207995
    23  O   -0.392050
    24  H    0.209570
    25  O   -0.356928
    26  H    0.186375
 Sum of Mulliken charges =  -0.00000
 Mulliken charges with hydrogens summed into heavy atoms:
               1
     1  C    0.173353
     2  C    0.167397
     3  C    0.234389
     4  C    0.201615
     7  C    0.161782
     9  C    0.145648
    15  O   -0.185286
    17  O   -0.175641
    19  O   -0.177934
    21  O   -0.192291
    23  O   -0.182480
    25  O   -0.170553
 Electronic spatial extent (au):  <R**2>=           2551.6877
 Charge=             -0.0000 electrons
 Dipole moment (field-independent basis, Debye):
    X=              4.1156    Y=             -0.2698    Z=             -0.8792  Tot=              4.2171
 Quadrupole moment (field-independent basis, Debye-Ang):
   XX=            -77.4955   YY=            -73.2178   ZZ=            -71.7279
   XY=             -5.0971   XZ=             -3.6403   YZ=             -1.1930
 Traceless Quadrupole moment (field-independent basis, Debye-Ang):
   XX=             -3.3484   YY=              0.9293   ZZ=              2.4192
   XY=             -5.0971   XZ=             -3.6403   YZ=             -1.1930
 Octapole moment (field-independent basis, Debye-Ang**2):
  XXX=             75.6987  YYY=             18.1369  ZZZ=             -5.4841  XYY=             12.4583
  XXY=            -10.3115  XXZ=            -32.5365  XZZ=              7.4411  YZZ=             -3.9761
  YYZ=             -2.3112  XYZ=             17.2911
 Hexadecapole moment (field-independent basis, Debye-Ang**3):
 XXXX=          -2066.6396 YYYY=           -579.3038 ZZZZ=           -379.5286 XXXY=            -39.6153
 XXXZ=             23.2340 YYYX=            -39.8809 YYYZ=             -4.3947 ZZZX=              2.8194
 ZZZY=             -8.3768 XXYY=           -417.8524 XXZZ=           -384.5683 YYZZ=           -158.3163
 XXYZ=             18.3766 YYXZ=            -29.1153 ZZXY=            -20.4003
 N-N= 8.250368785295D+02 E-N=-3.266885872394D+03  KE= 6.850349236186D+02
   1 Symmetry operations used in ECPInt.
 ECPInt:  NShTT=   23436 NPrTT=   62434 LenC2=   21902 LenP2D=   45488.
 LDataN:  DoStor=T MaxTD1= 7 Len=  274
 Calling FoFJK, ICntrl=      2127 FMM=F ISym2X=0 I1Cent= 0 IOpClX= 0 NMat=1 NMatS=1 NMatT=0.
 ***** Axes restored to original set *****
 -------------------------------------------------------------------
 Center     Atomic                   Forces (Hartrees/Bohr)
 Number     Number              X              Y              Z
 -------------------------------------------------------------------
      1        6           0.007099550    0.004785714   -0.009058608
      2        6           0.008960704   -0.008206290   -0.010772807
      3        6          -0.021081721    0.002569012   -0.009237755
      4        6           0.013585883   -0.006832895    0.000118074
      5        1          -0.004020029    0.000194101    0.008885849
      6        1           0.003099291    0.000008923    0.008362472
      7        6          -0.001817934    0.005122278   -0.012787722
      8        1          -0.000092060   -0.000211544   -0.003147989
      9        6           0.000624115   -0.003784689    0.006032170
     10        1          -0.006419402   -0.001041344   -0.001162844
     11        1           0.002971020   -0.002986199    0.002768445
     12        1           0.001514300   -0.003331820   -0.002536120
     13        1          -0.003986029    0.007215884   -0.003258107
     14        1          -0.001589117    0.003767714   -0.003176156
     15        8           0.002440791   -0.011878131   -0.002580571
     16        1          -0.001366776    0.010487809    0.014191268
     17        8           0.007692935    0.010268633   -0.009283189
     18        1           0.005808075   -0.009990890    0.013293483
     19        8           0.017235796   -0.015827082   -0.006003144
     20        1          -0.012055395    0.010909267    0.012946524
     21        8           0.011154255    0.000091915    0.013430612
     22        1          -0.019324582    0.000213405   -0.004104397
     23        8          -0.006773353   -0.010554029    0.011152976
     24        1          -0.004652374    0.012551483   -0.014483702
     25        8          -0.007099641   -0.011327262   -0.000811248
     26        1           0.008091697    0.017786035    0.001222486
 -------------------------------------------------------------------
 Cartesian Forces:  Max     0.021081721 RMS     0.008609648

 GradGradGradGradGradGradGradGradGradGradGradGradGradGradGradGradGradGrad
 Berny optimization.
 FormGI is forming the generalized inverse of G from B-inverse, IUseBI=4.
 Internal  Forces:  Max     0.020397481 RMS     0.005913297
 Search for a local minimum.
 Step number   1 out of a maximum of  140
 All quantities printed in internal units (Hartrees-Bohrs-Radians)
 Mixed Optimization -- RFO/linear search
 Second derivative matrix not updated -- first step.
 ITU=  0
     Eigenvalues ---    0.00230   0.00279   0.00280   0.00307   0.00336
     Eigenvalues ---    0.01071   0.01098   0.01133   0.01206   0.01281
     Eigenvalues ---    0.01314   0.03732   0.03807   0.03889   0.03909
     Eigenvalues ---    0.04671   0.04700   0.04792   0.04878   0.04898
     Eigenvalues ---    0.05334   0.05535   0.05614   0.07711   0.07806
     Eigenvalues ---    0.07806   0.07973   0.11339   0.11623   0.13591
     Eigenvalues ---    0.13865   0.16000   0.16000   0.16000   0.16000
     Eigenvalues ---    0.16000   0.16000   0.16882   0.16901   0.17114
     Eigenvalues ---    0.17282   0.19361   0.19508   0.19585   0.19647
     Eigenvalues ---    0.22024   0.22034   0.28351   0.28800   0.28813
     Eigenvalues ---    0.28992   0.29195   0.34091   0.34096   0.34227
     Eigenvalues ---    0.34289   0.34308   0.34391   0.34423   0.34445
     Eigenvalues ---    0.38651   0.38923   0.39278   0.40036   0.40835
     Eigenvalues ---    0.41202   0.50791   0.50904   0.51119   0.51223
     Eigenvalues ---    0.51509   0.52424
 RFO step:  Lambda=-1.89422085D-02 EMin= 2.30000000D-03
 Linear search not attempted -- first point.
 Iteration  1 RMS(Cart)=  0.10188125 RMS(Int)=  0.00412390
 Iteration  2 RMS(Cart)=  0.00591107 RMS(Int)=  0.00058724
 Iteration  3 RMS(Cart)=  0.00001461 RMS(Int)=  0.00058714
 Iteration  4 RMS(Cart)=  0.00000001 RMS(Int)=  0.00058714
 Variable       Old X    -DE/DX   Delta X   Delta X   Delta X     New X
                                 (Linear)    (Quad)   (Total)
    R1        2.90394  -0.01145   0.00000  -0.03727  -0.03727   2.86667
    R2        2.91378  -0.00598   0.00000  -0.01976  -0.01976   2.89402
    R3        2.07168  -0.00223   0.00000  -0.00620  -0.00620   2.06549
    R4        2.73429  -0.00966   0.00000  -0.02383  -0.02383   2.71046
    R5        2.90020  -0.01080   0.00000  -0.03496  -0.03496   2.86524
    R6        2.07177  -0.00120   0.00000  -0.00334  -0.00334   2.06843
    R7        2.73044  -0.01072   0.00000  -0.02625  -0.02625   2.70418
    R8        2.90421  -0.00224   0.00000  -0.00730  -0.00730   2.89691
    R9        2.06675  -0.00253   0.00000  -0.00696  -0.00696   2.05979
   R10        2.71504  -0.01334   0.00000  -0.03180  -0.03180   2.68323
   R11        2.89598  -0.01210   0.00000  -0.03893  -0.03893   2.85705
   R12        2.06948  -0.00042   0.00000  -0.00117  -0.00117   2.06832
   R13        2.72547  -0.01071   0.00000  -0.02602  -0.02602   2.69945
   R14        2.06622   0.00203   0.00000   0.00560   0.00560   2.07182
   R15        2.06845  -0.00387   0.00000  -0.01070  -0.01070   2.05775
   R16        2.69952  -0.00985   0.00000  -0.02285  -0.02285   2.67667
   R17        2.06813  -0.00153   0.00000  -0.00423  -0.00423   2.06390
   R18        2.06585   0.00047   0.00000   0.00130   0.00130   2.06714
   R19        2.70434  -0.00196   0.00000  -0.00459  -0.00459   2.69975
   R20        1.85776  -0.01737   0.00000  -0.03297  -0.03297   1.82478
   R21        1.85072  -0.01749   0.00000  -0.03276  -0.03276   1.81796
   R22        1.85664  -0.02040   0.00000  -0.03863  -0.03863   1.81801
   R23        1.85453  -0.01957   0.00000  -0.03691  -0.03691   1.81762
   R24        1.85351  -0.01945   0.00000  -0.03663  -0.03663   1.81688
   R25        1.84196  -0.01929   0.00000  -0.03552  -0.03552   1.80644
    A1        1.99932   0.00111   0.00000  -0.00154  -0.00186   1.99746
    A2        1.92467  -0.00070   0.00000  -0.01567  -0.01630   1.90837
    A3        1.87732  -0.00083   0.00000   0.00455   0.00457   1.88189
    A4        1.91339  -0.00295   0.00000  -0.03432  -0.03474   1.87865
    A5        1.91253   0.00055   0.00000   0.00974   0.00984   1.92236
    A6        1.82850   0.00309   0.00000   0.04255   0.04282   1.87132
    A7        2.01765   0.00212   0.00000  -0.00421  -0.00438   2.01328
    A8        1.92203  -0.00019   0.00000  -0.01230  -0.01232   1.90971
    A9        1.87160  -0.00673   0.00000  -0.03666  -0.03645   1.83515
   A10        1.91372  -0.00342   0.00000  -0.02319  -0.02392   1.88980
   A11        1.90168   0.00354   0.00000   0.01838   0.01806   1.91974
   A12        1.82692   0.00505   0.00000   0.06595   0.06604   1.89296
   A13        1.99044   0.00489   0.00000   0.03664   0.03473   2.02517
   A14        1.92487  -0.00474   0.00000  -0.05641  -0.05584   1.86903
   A15        1.88565   0.00157   0.00000   0.03523   0.03296   1.91861
   A16        1.91540  -0.00200   0.00000  -0.03100  -0.03045   1.88495
   A17        1.88542   0.00084   0.00000   0.03471   0.03243   1.91785
   A18        1.85661  -0.00073   0.00000  -0.01956  -0.01861   1.83800
   A19        1.99597   0.00021   0.00000  -0.00874  -0.00870   1.98727
   A20        1.93452   0.00095   0.00000  -0.00792  -0.00797   1.92655
   A21        1.87202  -0.00718   0.00000  -0.03886  -0.03857   1.83344
   A22        1.91983  -0.00300   0.00000  -0.01926  -0.02001   1.89982
   A23        1.87918   0.00611   0.00000   0.03463   0.03433   1.91351
   A24        1.85548   0.00326   0.00000   0.04567   0.04558   1.90106
   A25        1.95190  -0.00408   0.00000  -0.01410  -0.01565   1.93625
   A26        1.91814  -0.00548   0.00000  -0.04514  -0.04525   1.87289
   A27        1.93891   0.00958   0.00000   0.04547   0.04517   1.98408
   A28        1.89170   0.00187   0.00000  -0.00535  -0.00614   1.88556
   A29        1.89959   0.00102   0.00000   0.03766   0.03712   1.93671
   A30        1.86074  -0.00298   0.00000  -0.01935  -0.01854   1.84220
   A31        1.94442  -0.00378   0.00000  -0.03782  -0.03759   1.90683
   A32        1.95098  -0.00032   0.00000  -0.01721  -0.01711   1.93386
   A33        1.87994  -0.01173   0.00000  -0.04525  -0.04499   1.83495
   A34        1.91825  -0.00013   0.00000  -0.00355  -0.00575   1.91250
   A35        1.87480   0.00951   0.00000   0.06417   0.06308   1.93788
   A36        1.89273   0.00698   0.00000   0.04482   0.04394   1.93667
   A37        1.86318  -0.00017   0.00000  -0.00092  -0.00092   1.86225
   A38        1.83947   0.00152   0.00000   0.00847   0.00847   1.84794
   A39        1.81786   0.00708   0.00000   0.03958   0.03958   1.85745
   A40        1.82155   0.00507   0.00000   0.02832   0.02832   1.84987
   A41        1.82349   0.00556   0.00000   0.03110   0.03110   1.85459
   A42        1.86343   0.00591   0.00000   0.03304   0.03304   1.89647
    D1        1.06037  -0.00288   0.00000  -0.03962  -0.03969   1.02069
    D2       -1.12019   0.00025   0.00000   0.00548   0.00558  -1.11461
    D3       -3.09831  -0.00199   0.00000  -0.04637  -0.04628   3.13859
    D4       -1.10781   0.00078   0.00000   0.01996   0.01980  -1.08801
    D5        2.99481   0.00392   0.00000   0.06506   0.06506   3.05988
    D6        1.01669   0.00167   0.00000   0.01322   0.01320   1.02989
    D7       -3.09220  -0.00206   0.00000  -0.02479  -0.02488  -3.11708
    D8        1.01042   0.00108   0.00000   0.02031   0.02038   1.03080
    D9       -0.96770  -0.00117   0.00000  -0.03154  -0.03148  -0.99918
   D10        1.23399  -0.00261   0.00000  -0.06670  -0.06720   1.16678
   D11       -0.93035   0.00013   0.00000  -0.00855  -0.00878  -0.93913
   D12       -2.95286   0.00267   0.00000   0.02534   0.02567  -2.92719
   D13       -2.87504  -0.00507   0.00000  -0.11616  -0.11632  -2.99136
   D14        1.24381  -0.00234   0.00000  -0.05801  -0.05789   1.18592
   D15       -0.77870   0.00020   0.00000  -0.02413  -0.02345  -0.80215
   D16       -0.87734  -0.00270   0.00000  -0.07881  -0.07926  -0.95660
   D17       -3.04167   0.00003   0.00000  -0.02066  -0.02084  -3.06251
   D18        1.21900   0.00258   0.00000   0.01322   0.01361   1.23261
   D19        0.83425  -0.00098   0.00000  -0.02422  -0.02415   0.81010
   D20        3.01785   0.00020   0.00000  -0.01693  -0.01704   3.00081
   D21       -1.21376  -0.00131   0.00000  -0.02933  -0.02929  -1.24305
   D22        0.99987  -0.00342   0.00000  -0.03410  -0.03439   0.96548
   D23       -1.18238  -0.00032   0.00000   0.00520   0.00511  -1.17727
   D24        3.08225  -0.00060   0.00000  -0.02289  -0.02303   3.05922
   D25       -3.09847  -0.00490   0.00000  -0.07343  -0.07332   3.11140
   D26        1.00247  -0.00179   0.00000  -0.03414  -0.03382   0.96864
   D27       -1.01608  -0.00208   0.00000  -0.06223  -0.06197  -1.07805
   D28       -1.10843   0.00120   0.00000   0.00258   0.00240  -1.10603
   D29        2.99250   0.00430   0.00000   0.04187   0.04190   3.03440
   D30        0.97395   0.00402   0.00000   0.01378   0.01375   0.98770
   D31       -3.04040  -0.00034   0.00000   0.00939   0.00907  -3.03133
   D32       -0.84477   0.00015   0.00000  -0.00794  -0.00862  -0.85340
   D33        1.20117   0.00048   0.00000   0.00824   0.00924   1.21041
   D34       -1.01702   0.00081   0.00000   0.04350   0.04416  -0.97286
   D35       -3.11888   0.00484   0.00000   0.09005   0.08996  -3.02892
   D36        1.10929   0.00608   0.00000   0.11436   0.11492   1.22421
   D37        1.15240  -0.00341   0.00000  -0.02828  -0.02792   1.12448
   D38       -0.94946   0.00062   0.00000   0.01827   0.01787  -0.93159
   D39       -3.00448   0.00186   0.00000   0.04259   0.04283  -2.96165
   D40       -3.11349  -0.00488   0.00000  -0.04882  -0.04897   3.12073
   D41        1.06784  -0.00085   0.00000  -0.00227  -0.00317   1.06467
   D42       -0.98718   0.00039   0.00000   0.02205   0.02179  -0.96539
   D43       -1.32376  -0.00530   0.00000  -0.08459  -0.08506  -1.40882
   D44        0.83734   0.00212   0.00000   0.00261   0.00310   0.84044
   D45        2.89280  -0.00017   0.00000  -0.02628  -0.02630   2.86650
   D46        1.02562  -0.00337   0.00000  -0.03920  -0.03938   0.98624
   D47       -1.12818  -0.00019   0.00000   0.00592   0.00565  -1.12253
   D48        3.07749  -0.00112   0.00000  -0.01025  -0.01033   3.06716
   D49       -3.06759  -0.00439   0.00000  -0.07225  -0.07204  -3.13963
   D50        1.06181  -0.00120   0.00000  -0.02713  -0.02702   1.03479
   D51       -1.01571  -0.00213   0.00000  -0.04329  -0.04300  -1.05871
   D52       -1.05274   0.00129   0.00000  -0.00897  -0.00899  -1.06172
   D53        3.07666   0.00447   0.00000   0.03615   0.03604   3.11269
   D54        0.99914   0.00354   0.00000   0.01999   0.02006   1.01920
   D55       -2.96575   0.00058   0.00000   0.02660   0.02646  -2.93929
   D56       -0.80986   0.00018   0.00000   0.01347   0.01263  -0.79723
   D57        1.24705   0.00142   0.00000   0.03188   0.03286   1.27991
   D58       -0.79556  -0.00367   0.00000  -0.08898  -0.08983  -0.88539
   D59        1.36096  -0.00173   0.00000  -0.05055  -0.04954   1.31142
   D60       -2.88513  -0.00061   0.00000  -0.04807  -0.04822  -2.93335
   D61        3.13695   0.00135   0.00000   0.02112   0.02137  -3.12486
   D62       -1.04980  -0.00431   0.00000  -0.01309  -0.01501  -1.06481
   D63        1.02261   0.00456   0.00000   0.04240   0.04408   1.06669
         Item               Value     Threshold  Converged?
 Maximum Force            0.020397     0.000450     NO 
 RMS     Force            0.005913     0.000300     NO 
 Maximum Displacement     0.409030     0.001800     NO 
 RMS     Displacement     0.102137     0.001200     NO 
 Predicted change in Energy=-1.126373D-02
 GradGradGradGradGradGradGradGradGradGradGradGradGradGradGradGradGradGrad

                          Input orientation:                          
 ---------------------------------------------------------------------
 Center     Atomic      Atomic             Coordinates (Angstroms)
 Number     Number       Type             X           Y           Z
 ---------------------------------------------------------------------
      1          6           0        0.029921   -0.033046   -0.069730
      2          6           0        1.546495   -0.021284   -0.036866
      3          6           0       -0.635609    0.555891    1.177491
      4          6           0        2.176546   -0.767878    1.122683
      5          1           0        1.901941    1.013675   -0.012489
      6          1           0       -0.321848   -1.062206   -0.178144
      7          6           0       -0.437514    2.059760    1.399230
      8          1           0       -0.222564    0.031128    2.038947
      9          6           0        1.736114   -2.209958    1.233236
     10          1           0        1.959788   -0.258521    2.066884
     11          1           0        0.628391    2.315312    1.422516
     12          1           0       -0.863772    2.302827    2.371318
     13          1           0        1.951360   -2.725224    0.294616
     14          1           0        0.665682   -2.273760    1.449311
     15          8           0       -1.132355    2.868634    0.466924
     16          1           0       -0.907592    2.535549   -0.411134
     17          8           0       -2.021270    0.245932    1.178707
     18          1           0       -2.434970    0.887265    0.593014
     19          8           0       -0.389463    0.684376   -1.238782
     20          1           0        0.151334    0.360246   -1.965428
     21          8           0        1.951916   -0.610506   -1.276297
     22          1           0        2.908108   -0.701708   -1.226077
     23          8           0        3.582996   -0.712854    0.878879
     24          1           0        3.987282   -1.331096    1.494282
     25          8           0        2.507339   -2.754356    2.305557
     26          1           0        2.277744   -3.676398    2.410052
 ---------------------------------------------------------------------
                    Distance matrix (angstroms):
                    1          2          3          4          5
     1  C    0.000000
     2  C    1.516976   0.000000
     3  C    1.531449   2.563078   0.000000
     4  C    2.563167   1.516219   3.108630   0.000000
     5  H    2.145544   1.094567   2.839855   2.130248   0.000000
     6  H    1.093008   2.143405   2.134111   2.832093   3.046631
     7  C    2.599264   3.213940   1.532981   3.860741   2.925798
     8  H    2.124709   2.727878   1.089995   2.689549   3.112444
     9  C    3.057412   2.537599   3.643913   1.511886   3.459934
    10  H    2.887966   2.157048   2.861882   1.094506   2.438365
    11  H    2.846006   2.903858   2.180205   3.463054   2.318497
    12  H    3.494812   4.124346   2.128161   4.497983   3.872159
    13  H    3.327536   2.754104   4.270549   2.137196   3.751816
    14  H    2.780733   2.838697   3.126366   2.158026   3.804264
    15  O    3.171534   3.972615   2.469908   4.960148   3.588546
    16  H    2.755570   3.563708   2.552793   4.772539   3.220014
    17  O    2.417397   3.778620   1.419906   4.318867   4.171326
    18  H    2.713280   4.132103   1.920709   4.928095   4.380800
    19  O    1.434315   2.385475   2.432175   3.777560   2.619687
    20  H    1.939869   2.410683   3.245843   3.861422   2.702881
    21  O    2.341651   1.430992   3.751912   2.414608   2.058561
    22  H    3.173043   1.931628   4.462804   2.460942   2.329744
    23  O    3.739831   2.337561   4.415371   1.428485   2.569316
    24  H    4.448795   3.165037   5.003218   1.932373   3.480942
    25  O    4.380082   3.725567   4.701955   2.335532   4.465188
    26  H    4.947327   4.458922   5.283852   3.182302   5.292138
                    6          7          8          9         10
     6  H    0.000000
     7  C    3.499737   0.000000
     8  H    2.474011   2.137941   0.000000
     9  C    2.746732   4.794028   3.083514   0.000000
    10  H    3.300291   3.401066   2.201667   2.133801   0.000000
    11  H    3.856513   1.096359   2.514281   4.662720   2.968577
    12  H    4.256394   1.088914   2.383745   5.331030   3.824354
    13  H    2.855976   5.461040   3.919963   1.092170   3.037372
    14  H    2.256476   4.472017   2.539519   1.093885   2.473316
    15  O    4.065039   1.416431   3.369038   5.882810   4.679778
    16  H    3.652564   1.929965   3.569914   5.675648   4.708425
    17  O    2.537776   2.418033   2.005368   4.489132   4.110007
    18  H    2.976644   2.452459   2.778207   5.234560   4.774831
    19  O    2.044524   2.975415   3.346356   4.359601   4.163588
    20  H    2.332736   3.815235   4.035238   4.398742   4.462390
    21  O    2.565146   4.471928   4.016330   2.983719   3.361669
    22  H    3.414782   5.070614   4.582416   3.113938   3.455332
    23  O    4.060436   4.911482   4.047413   2.403718   2.062178
    24  H    4.630108   5.575460   4.458151   2.430699   2.364111
    25  O    4.127522   5.715706   3.909267   1.428646   2.566314
    26  H    4.504512   6.426344   4.487204   1.956707   3.449745
                   11         12         13         14         15
    11  H    0.000000
    12  H    1.768313   0.000000
    13  H    5.331923   6.125272   0.000000
    14  H    4.589302   4.912685   1.786087   0.000000
    15  O    2.078352   2.004742   6.389854   5.535543   0.000000
    16  H    2.402086   2.792511   6.028882   5.391280   0.965634
    17  O    3.370828   2.644418   5.038965   3.693479   2.859260
    18  H    3.480168   2.763122   5.690255   4.509918   2.374558
    19  O    3.283060   3.984617   4.410911   4.133974   2.869199
    20  H    3.940562   4.859160   4.227058   4.343154   3.722393
    21  O    4.194726   5.451670   2.634351   3.442347   4.965477
    22  H    4.616770   6.016275   2.706011   3.828515   5.651454
    23  O    4.265562   5.576330   2.655792   3.357460   5.935596
    24  H    4.958185   6.124322   2.743678   3.453066   6.701036
    25  O    5.478297   6.078143   2.086587   2.087063   6.945931
    26  H    6.292550   6.754388   2.342291   2.342896   7.631642
                   16         17         18         19         20
    16  H    0.000000
    17  O    3.001703   0.000000
    18  H    2.461308   0.962024   0.000000
    19  O    2.092917   2.949454   2.753314   0.000000
    20  H    2.875605   3.823462   3.675914   0.962048   0.000000
    21  O    4.338543   4.748341   4.998240   2.675852   2.158554
    22  H    5.069865   5.565947   5.863651   3.577060   3.045355
    23  O    5.690486   5.693590   6.233619   4.713509   4.584531
    24  H    6.522373   6.220073   6.854103   5.539644   5.435506
    25  O    6.857496   5.547956   6.373431   5.725267   5.787298
    26  H    7.529524   5.948311   6.807225   6.280472   6.321466
                   21         22         23         24         25
    21  O    0.000000
    22  H    0.961843   0.000000
    23  O    2.704751   2.210529   0.000000
    24  H    3.512559   2.993509   0.961453   0.000000
    25  O    4.211208   4.104439   2.712965   2.207729   0.000000
    26  H    4.805729   4.739997   3.582006   3.043287   0.955926
                   26
    26  H    0.000000
 Stoichiometry    C6H14O6
 Framework group  C1[X(C6H14O6)]
 Deg. of freedom    72
 Full point group                 C1      NOp   1
 Largest Abelian subgroup         C1      NOp   1
 Largest concise Abelian subgroup C1      NOp   1
                         Standard orientation:                         
 ---------------------------------------------------------------------
 Center     Atomic      Atomic             Coordinates (Angstroms)
 Number     Number       Type             X           Y           Z
 ---------------------------------------------------------------------
      1          6           0       -0.648227    0.292411   -0.678031
      2          6           0        0.459369    0.882011    0.174506
      3          6           0       -1.362674   -0.906829   -0.048167
      4          6           0        1.573822   -0.076958    0.545035
      5          1           0        0.032223    1.285223    1.098109
      6          1           0       -0.233458   -0.034374   -1.635028
      7          6           0       -2.191775   -0.612726    1.207271
      8          1           0       -0.594996   -1.633492    0.217765
      9          6           0        2.228428   -0.742706   -0.644111
     10          1           0        1.200884   -0.851198    1.222835
     11          1           0       -1.578345   -0.131517    1.978078
     12          1           0       -2.536740   -1.568409    1.598935
     13          1           0        2.604946    0.024448   -1.324218
     14          1           0        1.515595   -1.382776   -1.172092
     15          8           0       -3.364978    0.138451    0.951138
     16          1           0       -3.095015    0.905940    0.431013
     17          8           0       -2.170783   -1.553853   -1.019997
     18          1           0       -2.979993   -1.036623   -1.076055
     19          8           0       -1.590138    1.337219   -0.958102
     20          1           0       -1.074441    2.103131   -1.228238
     21          8           0        0.984484    1.968876   -0.594077
     22          1           0        1.752573    2.288151   -0.111122
     23          8           0        2.534990    0.721228    1.237585
     24          1           0        3.325851    0.180497    1.318453
     25          8           0        3.299723   -1.513500   -0.097089
     26          1           0        3.760876   -1.947589   -0.813119
 ---------------------------------------------------------------------
 Rotational constants (GHZ):           1.4065168           0.5248370           0.4743500
 Standard basis: def2TZVPP (5D, 7F)
 There are   642 symmetry adapted cartesian basis functions of A   symmetry.
 There are   568 symmetry adapted basis functions of A   symmetry.
   568 basis functions,   850 primitive gaussians,   642 cartesian basis functions
    49 alpha electrons       49 beta electrons
       nuclear repulsion energy       830.7295400145 Hartrees.
 NAtoms=   26 NActive=   26 NUniq=   26 SFac= 1.00D+00 NAtFMM=   60 NAOKFM=F Big=F
 Integral buffers will be    131072 words long.
 Raffenetti 2 integral format.
 Two-electron integral symmetry is turned on.
 Nuclear repulsion after empirical dispersion term =      830.7102299756 Hartrees.
 One-electron integrals computed using PRISM.
   1 Symmetry operations used in ECPInt.
 ECPInt:  NShTT=   23436 NPrTT=   62434 LenC2=   21953 LenP2D=   45695.
 LDataN:  DoStor=T MaxTD1= 6 Len=  172
[...]
 5788,-0.00198111,0.00167885,0.00197032,-0.00061154,0.01448838,-0.02093
 616,0.03919343,0.00109650,-0.00339232,0.00423365,0.00121570,-0.0003843
 4,-0.00290533,-0.00148948,0.00040196,-0.00017514,0.00022168,-0.0000332
 3,0.00041166,-0.00010761,0.00040245,-0.00000313,0.00000408,0.00089136,
 -0.00029162,-0.00026646,0.00019198,0.00009086,0.00072085,0.00003101,-0
 .00060686,0.00332909,-0.00354281,-0.00967940,-0.00266615,-0.00046836,0
 .00056296,-0.00097710,0.00176912,0.00024152,-0.00044864,-0.00112516,0.
 00037653,-0.16766958,0.21879754,-0.03978401,0.07282179,-0.16746458,-0.
 01134858,0.01302667,-0.02381433,-0.01498476,0.02224911,-0.04079328,-0.
 00043635,-0.00176249,0.00402007,0.00111097,-0.00060855,0.00040260,-0.0
 0308220,0.01460309,-0.00969252,-0.00059599,0.00297377,0.00263453,0.004
 24726,-0.00294167,-0.00539372,0.00081730,-0.00082710,-0.00004397,0.000
 21206,-0.00001147,0.00036954,-0.00010916,-0.00032015,-0.00009737,0.000
 05326,0.00027962,0.00034602,-0.00003516,0.00019993,-0.00000565,-0.0003
 7042,-0.00024681,0.00033973,0.00399011,-0.00899415,-0.00055297,0.00060
 887,0.00028269,-0.00631691,0.00190668,-0.00089824,0.00317981,-0.000074
 21,0.00022879,-0.00059716,-0.17684038,0.01416723,0.55379507,0.00761861
 ,-0.00411970,-0.01089317,0.00134070,-0.00019130,-0.00716681,-0.0018435
 3,0.00104623,-0.00298357,0.00015910,0.00018586,0.00037891,-0.00033461,
 0.00012100,0.00020886,-0.00014138,0.00093349,-0.00006795,0.00022368,0.
 00049265,0.00014274,0.00049581,-0.00011031,-0.00107555,0.00039213,0.00
 019380,-0.00017359,0.00013357,-0.00012134,0.00042280,-0.00013648,-0.00
 009990,0.00001064,-0.00004575,-0.00010224,-0.00000264,0.00008249,0.000
 14993,-0.00001899,-0.00017845,-0.00006874,0.00020099,0.00039750,-0.000
 10985,-0.00040951,-0.00066509,0.00009853,0.00050882,0.00019481,-0.0000
 2483,0.00020955,0.00020609,0.00005869,-0.00006876,-0.18780475,0.102743
 38,0.23397650,0.18179166,-0.01280554,0.00618706,0.02038554,0.00062130,
 0.00213630,0.00265151,0.00166785,-0.00211783,0.00237327,-0.00004908,-0
 .00017636,-0.00053304,-0.00029844,-0.00046093,-0.00066284,-0.00042659,
 -0.00066320,0.00127835,0.00062108,-0.00021966,0.00073279,-0.00030541,0
 .00059266,0.00074477,0.00008775,0.00006665,0.00030895,-0.00008048,0.00
 003903,-0.00020072,-0.00013462,0.00006604,-0.00006327,-0.00012761,-0.0
 0000157,-0.00006368,0.00006049,-0.00012842,-0.00002900,-0.00000562,0.0
 0002459,-0.00000629,0.00057584,-0.00185871,-0.00156040,-0.00015884,0.0
 0248216,-0.00053230,-0.00000241,0.00003497,-0.00021251,-0.00001615,-0.
 00014026,0.00002543,0.11152913,-0.07669866,-0.12388040,-0.10039748,0.0
 7310130,0.01850992,-0.00889705,-0.03366103,-0.00043595,-0.00102573,-0.
 00088337,-0.00331686,0.00473614,-0.00445124,0.00029968,0.00008037,-0.0
 0128959,-0.00036620,-0.00006084,-0.00016187,0.00056992,-0.00027166,0.0
 0095246,-0.00016598,0.00039486,0.00023157,0.00083806,-0.00069338,-0.00
 111667,0.00001777,0.00027494,-0.00002041,0.00002069,0.00002194,0.00009
 050,-0.00006161,-0.00016541,-0.00003104,-0.00005572,0.00009037,0.00010
 338,-0.00000681,0.00004048,-0.00000139,0.00004581,-0.00002161,-0.00002
 542,-0.00038915,0.00090769,0.00129442,0.00063895,-0.00166747,-0.000830
 87,-0.00017546,-0.00009981,0.00102372,0.00030093,-0.00005535,-0.000156
 07,0.19762631,-0.09221180,-0.31392380,-0.21658228,0.10026704,0.3515970
 6,-0.02556000,0.02440456,0.04421212,-0.10347024,0.02359446,0.04803134,
 -0.00391553,-0.00062620,-0.00704732,-0.00164448,-0.00329011,-0.0044112
 0,0.00648633,0.00195371,-0.00356872,0.00345336,0.00012595,0.00014690,-
 0.00049903,-0.00079857,0.00073063,0.00020585,-0.00028798,0.00021520,0.
 00012666,0.00068693,0.00055347,0.00016225,0.00122261,-0.00186046,0.000
 11791,0.00007724,-0.00006288,-0.00012612,0.00046495,0.00014633,-0.0003
 0216,-0.00023050,0.00000558,0.00043199,0.00026357,-0.00042775,-0.00004
 998,0.00095348,0.00004886,0.00013251,-0.00090010,0.00004161,-0.0042349
 1,0.00055886,0.00266904,0.00027063,-0.00037678,0.00018209,-0.00232892,
 0.00149951,0.00457796,-0.00082504,-0.00045792,0.00171685,0.64288998,0.
 00528340,-0.00168858,-0.00437624,0.00965212,-0.09535405,-0.06015791,-0
 .00037342,0.00032224,0.00130724,-0.00142421,0.00860442,0.00826027,0.01
 382997,-0.01142619,-0.03879380,0.00104525,0.00138154,0.00092177,-0.001
 30501,-0.00039507,-0.00025879,-0.00000619,-0.00009176,-0.00030001,-0.0
 0208570,-0.00137011,-0.00241364,0.00147511,-0.00051578,0.00325670,0.00
 065224,0.00060339,0.00017316,0.00037182,0.00010424,-0.00010024,0.00018
 672,0.00181548,0.00178217,-0.00031103,0.00010607,0.00093184,0.00080261
 ,-0.00003711,0.00020063,-0.00038462,0.00009158,-0.00008417,0.00105445,
 0.00043528,-0.00051372,-0.00023616,-0.00008951,-0.00003323,0.00233607,
 0.00139017,-0.00207967,-0.00006831,-0.00176531,-0.00058948,-0.09517080
 ,0.11089632,0.00916110,-0.00450579,-0.01285437,0.00542135,-0.05291689,
 -0.18847320,-0.00154592,0.00017729,0.00217683,0.01322858,-0.01527705,-
 0.05003011,0.00654098,-0.01504967,-0.01903112,-0.00051987,0.00054095,0
 .00060058,-0.00112778,0.00026133,-0.00111124,-0.00038745,-0.00003956,0
 .00058354,0.00000807,-0.00349385,0.00083966,-0.00427350,0.00507205,-0.
 00496573,0.00051293,0.00049331,0.00004715,0.00029439,-0.00005121,-0.00
 003569,0.00010644,0.00125326,-0.00066458,-0.00007012,0.00002208,-0.000
 38653,0.00078493,-0.00044821,0.00119549,0.00004290,-0.00027426,-0.0005
 8548,0.00180948,-0.00003617,-0.00012851,-0.00007542,0.00008100,-0.0002
 4188,-0.00220945,0.00029697,0.00405463,0.00147603,0.00035918,-0.000275
 94,-0.01535132,0.09425916,0.31022472,-0.00074270,0.00194336,0.00203808
 ,-0.01470318,0.00161139,0.00321731,-0.00035101,-0.00003578,-0.00029049
 ,0.00268651,-0.00035159,-0.00125606,0.00069905,-0.00072873,-0.00141854
 ,0.00039640,0.00009674,-0.00000037,-0.00011015,-0.00002670,-0.00000726
 ,0.00000023,-0.00001818,-0.00002550,-0.00025872,-0.00052861,0.00067955
 ,-0.00116893,0.00032453,-0.00026512,0.00007658,0.00011631,0.00003954,0
 .00007027,0.00000084,-0.00003209,-0.00007188,-0.00043172,0.00010446,-0
 .00005556,-0.00018110,-0.00009807,0.00012944,-0.00011959,-0.00001927,-
 0.00009427,0.00013020,0.00004389,0.00008365,0.00000584,-0.00004471,-0.
 00006211,0.00000676,0.00004536,0.00115192,-0.00054457,0.00016380,-0.00
 062916,-0.00011025,-0.00005478,-0.51367980,0.06410177,-0.01459735,0.52
 880182,0.00005014,-0.00129975,-0.00091835,0.01789733,-0.00277303,-0.00
 272843,0.00035161,0.00059819,-0.00002447,-0.00141538,0.00209756,0.0008
 7782,0.00086162,-0.00035867,-0.00004083,0.00003923,0.00017533,-0.00004
 379,0.00011441,0.00015148,0.00015394,-0.00002209,0.00000323,0.00009008
 ,0.00014261,0.00011446,0.00105486,0.00022842,-0.00021870,-0.00028939,-
 0.00005884,-0.00007893,-0.00003825,-0.00006574,0.00003276,0.00002696,-
 0.00044216,-0.00059489,-0.00004984,0.00013344,-0.00006711,-0.00037603,
 -0.00010546,-0.00010771,0.00003436,0.00010076,0.00004384,-0.00003741,0
 .00005688,-0.00015147,-0.00006565,0.00003918,0.00004938,-0.00001939,0.
 00050220,-0.00002122,-0.00037777,-0.00037763,-0.00022394,-0.00036596,0
 .04731434,-0.01699864,-0.01169372,-0.06545609,0.02246491,0.00165352,-0
 .00292641,-0.00818006,0.04250383,-0.00622843,-0.00249229,0.00122380,0.
 00012908,0.00157429,0.00596777,-0.00005297,-0.00294167,-0.00014241,-0.
 00090232,0.00001524,-0.00030673,0.00011315,0.00002637,0.00005602,0.000
 04612,-0.00013483,-0.00003412,0.00009386,-0.00013238,-0.00009450,0.000
 61220,-0.00019902,-0.00056051,-0.00013316,0.00084736,-0.00003611,-0.00
 004373,0.00002970,0.00001913,-0.00006971,-0.00001561,0.00019900,0.0001
 8653,-0.00004115,-0.00027176,-0.00033769,0.00024897,-0.00008741,0.0001
 0804,0.00000483,0.00003277,-0.00013238,-0.00002995,0.00070070,-0.00009
 253,-0.00055493,0.00002721,0.00003514,-0.00008726,-0.00184650,0.001054
 95,0.00055844,0.00111816,-0.00107706,0.00067212,-0.06087834,-0.0059578
 3,-0.04116046,0.01170783,0.01598285,0.04687624,0.00431246,0.00154243,-
 0.00188781,-0.04027710,0.00421580,-0.00293864,0.00159615,-0.00067565,0
 .00038966,-0.21797735,-0.01641436,0.04622625,0.00144560,-0.00017055,0.
 00078694,-0.00009031,-0.00003296,0.00020852,-0.00004776,-0.00078611,0.
 00013740,0.00017674,0.00018574,-0.00079471,-0.04214659,-0.00517186,0.0
 0678022,-0.02835379,0.00400819,0.01045375,-0.00001486,-0.00012033,-0.0
 0003118,-0.00007245,0.00011310,0.00006246,0.00155823,0.00065001,-0.000
 84673,0.00003150,-0.00615736,0.00091574,-0.00032049,0.00093078,-0.0002
 9431,0.00011570,-0.00053386,0.00000524,-0.00153372,0.00047159,0.000047
 24,0.00015748,-0.00025441,-0.00007810,-0.00306535,0.00160002,-0.002881
 52,-0.00017826,0.00016353,0.00081473,0.00036962,0.00043541,0.00030698,
 -0.00133543,0.00035034,0.00049860,0.43212799,-0.00239477,-0.00213104,0
 .00335862,0.03006235,0.00064618,-0.00282323,-0.00076621,0.00018740,0.0
 0027156,0.02351270,-0.08544243,0.01176021,-0.00029192,0.00177347,-0.00
 171691,0.00077253,0.00038505,0.00021039,-0.00033265,0.00014299,-0.0000
 9568,-0.00009664,-0.00024972,0.00015790,-0.03607214,-0.00127671,0.0106
 0665,0.01636806,0.00474447,-0.00125328,0.00010990,0.00013869,-0.000017
 06,0.00003638,-0.00003928,-0.00002626,0.00090247,0.00334794,0.00020863
 ,-0.00264748,-0.00701595,0.00142436,0.00029515,-0.00014860,0.00008482,
 -0.00011708,0.00017277,0.00003169,0.00081632,0.00009261,-0.00012944,-0
 .00007311,0.00003007,0.00004985,0.00257779,-0.00046588,0.00161949,-0.0
 0008188,-0.00021518,-0.00047220,0.00069889,0.00275425,-0.00007497,-0.0
 0067666,-0.00258473,-0.00119958,-0.14254971,0.36595849,0.00149617,0.00
 271886,-0.00376648,-0.03017399,0.00099681,-0.00170047,0.00004109,0.000
 20980,-0.00195242,0.01977961,0.01418330,-0.08713284,0.00049842,-0.0007
 6812,0.00121352,-0.00006448,-0.00023764,0.00008191,-0.00027269,0.00018
 895,-0.00000558,-0.00007516,-0.00022575,0.00076942,0.00433267,0.003264
 95,-0.00019409,0.03492556,0.00080548,0.00046247,0.00006926,-0.00002801
 ,-0.00011516,-0.00008895,0.00013004,0.00007323,-0.00019049,0.00186129,
 0.00083321,-0.00020996,0.00061346,0.00162842,0.00012866,-0.00004284,0.
 00050314,0.00017853,-0.00036265,-0.00026541,-0.00004007,-0.00010516,0.
 00075197,0.00013692,0.00001492,-0.00004247,-0.00283041,0.00083370,-0.0
 0053869,0.00064586,-0.00020231,0.00058600,-0.00850349,0.00325399,0.000
 30273,0.00030577,-0.00167455,0.00370974,0.05836138,-0.24316289,0.26420
 318,0.00084689,0.00121480,-0.00134408,-0.00849971,-0.00044291,0.002265
 99,-0.00004336,0.00000512,-0.00023069,-0.02565494,0.03231173,-0.025087
 64,0.00019007,-0.00012821,0.00033504,-0.00011397,-0.00015918,-0.000036
 02,-0.00004601,0.00008101,-0.00003161,-0.00000311,0.00002139,0.0001113
 7,-0.00300765,0.00066148,-0.00279700,0.00000259,0.00040969,0.00023725,
 0.00001019,0.00001640,0.00000413,0.00001011,0.00000622,-0.00000170,0.0
 0000215,-0.00030909,0.00017944,0.00062042,0.00076368,-0.00017001,0.000
 05973,-0.00011578,0.00009851,-0.00000324,0.00000513,-0.00004359,0.0000
 7078,-0.00008375,0.00007654,-0.00001456,0.00002488,-0.00000870,-0.0007
 5063,0.00003438,-0.00033921,-0.00009143,0.00010625,0.00006505,0.001031
 09,-0.00034300,0.00125681,-0.00023494,-0.00018838,-0.00096247,-0.11141
 285,0.11726773,-0.08304233,0.14385153,0.00030009,0.00069917,-0.0002402
 3,-0.00141013,-0.00039686,-0.00087601,0.00016623,-0.00004314,-0.000011
 58,0.00211195,0.00089300,-0.00038154,-0.00007616,0.00011788,0.00004848
 ,-0.00006022,-0.00008824,-0.00007937,0.00014228,-0.00001985,0.00004667
 ,0.00005999,0.00006088,-0.00002954,-0.00557190,0.00277682,-0.00174492,
 -0.00031597,-0.00025471,0.00064497,-0.00005563,-0.00004271,0.00001763,
 -0.00000212,0.00000002,0.00000196,0.00017619,-0.00030302,0.00011769,0.
 00088455,-0.00065074,0.00057338,-0.00011417,0.00001604,-0.00004826,0.0
 0003660,-0.00002265,0.00000265,-0.00024621,-0.00005520,0.00000216,0.00
 002039,0.00000498,-0.00000446,-0.00053228,0.00001974,-0.00021372,0.000
 11826,0.00000728,0.00010711,-0.00134536,0.00008203,-0.00090455,0.00046
 265,-0.00008975,0.00123065,0.15511624,-0.27990471,0.21510329,-0.153636
 66,0.27769192,0.00007998,0.00006107,0.00001404,0.00045145,0.00030040,-
 0.00143488,-0.00008451,0.00001449,0.00006803,0.00364410,-0.00626241,0.
 00453468,0.00003819,-0.00000250,-0.00008735,0.00003725,0.00000403,0.00
 000197,-0.00000526,0.00004454,0.00001200,-0.00001962,-0.00001180,0.000
 08323,0.00177239,0.00018889,0.00225527,0.00185258,-0.00077969,-0.00032
 741,0.00000202,0.00001877,0.00001311,0.00002454,-0.00001922,-0.0000126
 3,-0.00061914,-0.00014575,-0.00056267,-0.00015072,0.00067133,-0.000789
 70,0.00002581,-0.00005564,-0.00000906,-0.00001974,0.00003386,0.0000076
 0,0.00011976,-0.00003553,-0.00004719,-0.00001063,0.00001955,0.00001342
 ,0.00003481,-0.00001033,0.00007094,-0.00003957,0.00000681,0.00002517,-
 0.00132734,-0.00004759,0.00016838,0.00023097,0.00082982,0.00117246,-0.
 11525995,0.21905446,-0.18042041,0.11011043,-0.21255578,0.17726188,-0.0
 0090504,-0.00194060,0.00050048,-0.00029654,-0.00217171,0.00102543,0.00
 055609,-0.00014922,0.00028966,-0.00031733,-0.00105310,0.00272966,0.000
 11198,0.00013526,-0.00003680,0.00062651,0.00097855,0.00045886,-0.00024
 339,-0.00040290,0.00001244,-0.00012804,-0.00015743,-0.00039694,-0.1309
 6594,0.01962408,-0.07339131,0.00036810,0.00032765,0.00025594,0.0000767
 8,0.00004610,-0.00002953,-0.00002480,0.00007331,0.00002749,-0.00189666
 ,0.00417542,-0.00900629,-0.02191141,0.02238262,-0.03332302,-0.00005591
 ,0.00051325,-0.00014706,0.00002983,-0.00022420,0.00002709,-0.00031079,
 0.00035442,-0.00002138,0.00011459,-0.00010201,0.00000380,0.00024227,0.
 00119993,-0.00085139,-0.00020679,-0.00006428,0.00015064,0.00094682,0.0
 0045198,-0.00078926,-0.00056804,0.00003081,-0.00036723,0.00451331,-0.0
 0551757,0.00299912,0.00131890,0.00301515,0.00046454,0.18804441,-0.0017
 6417,0.00044020,-0.00081073,-0.00480701,-0.00708087,-0.00440744,-0.000
 81651,0.00014869,0.00029145,0.02552770,-0.02982768,0.03924776,0.001189
 29,-0.00153271,0.00233514,0.00007364,0.00001103,-0.00014242,-0.0002102
 9,0.00025270,-0.00013770,-0.00007485,0.00004598,0.00025905,0.04755120,
 -0.11750969,0.05817596,0.00073398,0.00281089,-0.00074628,0.00010325,0.
 00015824,0.00005801,0.00010993,-0.00006683,-0.00005466,-0.00569494,0.0
 0781092,-0.00028649,0.00826222,-0.00168417,0.00504277,0.00032384,-0.00
 039118,0.00013964,-0.00017747,0.00025458,0.00000405,0.00091243,-0.0000
 9185,-0.00021869,-0.00015119,0.00005682,0.00002018,0.00106343,-0.00042
 134,0.00088867,-0.00027703,-0.00004605,-0.00037315,-0.00031496,0.00078
 475,0.00195003,0.00041816,-0.00009065,-0.00055664,0.00197436,-0.002024
 18,0.00304712,0.00262704,0.00004838,-0.00113603,0.03476617,0.67989853,
 0.00028045,-0.00122720,0.00059160,0.00080706,-0.00057343,0.00075714,0.
 00055711,0.00016599,-0.00051802,-0.00365952,0.01048280,-0.00692653,-0.
 00022572,0.00039473,-0.00040976,0.00041310,0.00029899,0.00010301,-0.00
 002138,-0.00019990,0.00009654,0.00004239,-0.00003512,-0.00017238,-0.07
 590091,0.02274074,-0.14693386,0.00062943,0.00079244,0.00120428,-0.0000
 2662,-0.00009027,-0.00005108,-0.00008392,0.00012453,0.00006448,-0.0282
 9744,0.02284923,-0.02626449,-0.00741712,0.00334999,0.00372599,-0.00018
 167,0.00032441,0.00003076,0.00014466,-0.00027731,-0.00006614,-0.000624
 83,0.00014466,0.00030685,0.00012614,-0.00007450,-0.00004871,-0.0005582
 7,0.00076542,-0.00049989,0.00021311,-0.00017285,0.00024972,0.00001833,
 0.00196797,-0.00028662,-0.00047002,-0.00049992,0.00027895,-0.00058031,
 0.00232141,0.00097495,-0.00062892,-0.00074542,-0.00187884,0.13591802,-
 0.06591326,0.19814379,0.00022692,0.00017479,0.00001153,0.00061537,0.00
 078067,0.00021120,0.00004044,0.00004028,-0.00009674,-0.00443730,0.0009
 4978,-0.00287157,-0.00008752,0.00018925,-0.00020286,0.00000970,-0.0000
 8351,-0.00001937,0.00002151,0.00004722,-0.00000008,0.00003358,0.000014
 86,0.00001913,0.00132789,0.02874834,-0.00177271,-0.00007725,-0.0001363
 9,0.00009801,-0.00001669,-0.00001834,-0.00000008,-0.00000623,0.0000049
 6,0.00000276,0.00069127,-0.00060734,-0.00061249,-0.00063813,0.00129377
 ,-0.00004536,-0.00000933,-0.00006405,0.00003601,0.00001420,0.00001440,
 -0.00001728,-0.00005065,-0.00007908,0.00004403,-0.00000921,0.00001873,
 -0.00000618,-0.00009922,-0.00009486,0.00006858,0.00004457,0.00000750,-
 0.00000449,0.00001122,0.00002951,-0.00000351,-0.00003002,-0.00008155,-
 0.00012024,0.00042153,-0.00180245,0.00159300,0.00186196,0.00075627,-0.
 00135233,-0.03911893,-0.11134822,-0.02047313,0.03926034,-0.00014997,-0
 .00027637,0.00008511,-0.00067241,-0.00080230,-0.00048800,0.00017297,-0
 .00001640,0.00006295,0.00227351,-0.00122950,0.00337179,0.00016561,-0.0
 0003888,0.00017169,0.00011737,0.00013937,0.00006262,-0.00001493,-0.000
 09615,0.00002108,-0.00001032,-0.00002126,-0.00008059,-0.00584489,-0.01
 611366,-0.00448453,0.00007194,0.00060921,0.00000508,0.00000396,-0.0000
 0389,-0.00000327,-0.00000278,0.00001481,0.00000648,-0.00134862,0.00210
 098,-0.00061322,-0.00048631,0.00038552,-0.00085440,-0.00004956,0.00011
 703,-0.00005318,0.00001652,-0.00005126,0.00001008,-0.00014344,0.000056
 77,-0.00001021,0.00003455,-0.00001886,-0.00000075,-0.00002660,0.000221
 20,-0.00017866,0.00000873,-0.00002198,0.00004994,-0.00001977,0.0003603
 3,-0.00000069,-0.00000896,-0.00007194,0.00011787,0.00110963,0.00112404
 ,-0.00041605,-0.00014998,-0.00054654,-0.00018577,-0.07629172,-0.531954
 50,0.00308587,0.08124546,0.54613425,0.00018427,0.00012314,0.00003245,0
 .00048542,0.00177668,0.00079763,-0.00006852,-0.00003357,0.00004341,-0.
 00345670,0.00244513,-0.00459811,-0.00019894,0.00018045,-0.00045142,-0.
 00007985,-0.00005449,0.00000387,0.00000983,0.00002367,0.00000091,-0.00
 003064,-0.00000836,0.00001817,0.00391905,0.03271137,-0.00264968,-0.000
 12707,-0.00001727,0.00011674,0.00000065,0.00000458,-0.00000307,0.00000
 105,-0.00001806,-0.00000809,0.00087873,0.00047767,0.00005761,-0.000283
 70,-0.00053716,0.00056135,0.00001603,-0.00002738,-0.00002020,-0.000012
 48,0.00003259,0.00001731,0.00007009,-0.00001484,-0.00004943,-0.0000103
 6,0.00001376,0.00001698,-0.00000463,-0.00011799,-0.00003652,-0.0000305
 7,0.00006303,0.00000260,0.00014253,-0.00060860,0.00003776,0.00000304,0
 .00019304,-0.00004510,-0.00040186,-0.00018854,0.00004014,-0.00001657,-
 0.00006125,-0.00013205,-0.02650297,-0.03667634,-0.02247173,0.02551417,
 0.00031876,0.02871846\\-0.00001424,0.00000730,-0.00000628,0.00000913,-
 0.00000320,0.00000870,0.00000598,0.00000100,-0.00000578,-0.00000535,0.
 00000129,0.00000097,-0.00000222,0.00000290,-0.00000282,-0.00000175,-0.
 00000645,0.00000448,-0.00001265,-0.00000025,-0.00000642,0.00000564,-0.
 00000209,0.00000653,-0.00000788,0.00000919,-0.00001488,-0.00000112,0.0
 0000419,0.00000235,0.00000329,0.00000091,0.00000200,-0.00000060,-0.000
 00190,0.00000194,0.00000227,-0.00000501,0.00000197,0.00000304,0.000001
 13,0.00000196,0.00000141,-0.00000046,0.00000982,-0.00000084,-0.0000007
 7,-0.00000894,0.00000109,-0.00000097,-0.00000235,-0.00000488,0.0000014
 9,0.00000052,0.00000079,-0.00000767,0.00000911,0.00000677,0.00000050,-
 0.00000713,-0.00000628,0.00000024,-0.00000452,0.00000756,-0.00000176,0
 .00000293,0.00000283,0.00001310,-0.00000821,0.00000366,-0.00000731,0.0
 0000400,0.00000317,0.00000148,0.00001155,0.00000120,-0.00000689,-0.000
 00151\\\@
 The archive entry for this job was punched.


 THE TEST OF A FIRST RATE INTELLIGENCE IS THE ABILITY TO HOLD TWO OPPOSED
 IDEAS IN THE MIND AT THE SAME TIME, AND STILL RETAIN THE ABILITY TO FUNCTION.
 ONE SHOULD, FOR EXAMPLE, BE ABLE TO SEE THAT THINGS ARE HOPELESS AND YET BE
 DETERMINED TO MAKE THEM OTHERWISE.

                                                       -- F. SCOTT FITZGERALD
 Job cpu time:       0 days 10 hours  2 minutes  1.9 seconds.
 Elapsed time:       0 days  0 hours 38 minutes 14.8 seconds.
 File lengths (MBytes):  RWF=    704 Int=      0 D2E=      0 Chk=     27 Scr=      1
 Normal termination of Gaussian 16 at Wed Sep 27 12:24:45 2023.
