 Entering Gaussian System, Link 0=/opt/software/gaussian/g16.c01/g16
 Initial command:
 /opt/software/gaussian/g16.c01/l1.exe "/scratch/arhender/14836870/Gau-11571.inp" -scrdir="/scratch/arhender/14836870/"
 Entering Link 1 = /opt/software/gaussian/g16.c01/l1.exe PID=     11603.
  
 Copyright (c) 1988-2019, Gaussian, Inc.  All Rights Reserved.
  
 This is part of the Gaussian(R) 16 program.  It is based on
 the Gaussian(R) 09 system (copyright 2009, Gaussian, Inc.),
 the Gaussian(R) 03 system (copyright 2003, Gaussian, Inc.),
 the Gaussian(R) 98 system (copyright 1998, Gaussian, Inc.),
 the Gaussian(R) 94 system (copyright 1995, Gaussian, Inc.),
 the Gaussian 92(TM) system (copyright 1992, Gaussian, Inc.),
 the Gaussian 90(TM) system (copyright 1990, Gaussian, Inc.),
 the Gaussian 88(TM) system (copyright 1988, Gaussian, Inc.),
 the Gaussian 86(TM) system (copyright 1986, Carnegie Mellon
 University), and the Gaussian 82(TM) system (copyright 1983,
 Carnegie Mellon University). Gaussian is a federally registered
 trademark of Gaussian, Inc.
  
 This software contains proprietary and confidential information,
 including trade secrets, belonging to Gaussian, Inc.
  
 This software is provided under written license and may be
 used, copied, transmitted, or stored only in accord with that
 written license.
  
 The following legend is applicable only to US Government
 contracts under FAR:
  
                    RESTRICTED RIGHTS LEGEND
  
 Use, reproduction and disclosure by the US Government is
 subject to restrictions as set forth in subparagraphs (a)
 and (c) of the Commercial Computer Software - Restricted
 Rights clause in FAR 52.227-19.
  
 Gaussian, Inc.
 340 Quinnipiac St., Bldg. 40, Wallingford CT 06492
  
  
 ---------------------------------------------------------------
 Warning -- This program may not be used in any manner that
 competes with the business of Gaussian, Inc. or will provide
 assistance to any competitor of Gaussian, Inc.  The licensee
 of this program is prohibited from giving any competitor of
 Gaussian, Inc. access to this program.  By using this program,
 the user acknowledges that Gaussian, Inc. is engaged in the
 business of creating and licensing software in the field of
 computational chemistry and represents and warrants to the
 licensee that it is not a competitor of Gaussian, Inc. and that
 it will not use this program in any manner prohibited above.
 ---------------------------------------------------------------
  

 Cite this work as:
 Gaussian 16, Revision C.01,
 M. J. Frisch, G. W. Trucks, H. B. Schlegel, G. E. Scuseria, 
 M. A. Robb, J. R. Cheeseman, G. Scalmani, V. Barone, 
 G. A. Petersson, H. Nakatsuji, X. Li, M. Caricato, A. V. Marenich, 
 J. Bloino, B. G. Janesko, R. Gomperts, B. Mennucci, H. P. Hratchian, 
 J. V. Ortiz, A. F. Izmaylov, J. L. Sonnenberg, D. Williams-Young, 
 F. Ding, F. Lipparini, F. Egidi, J. Goings, B. Peng, A. Petrone, 
 T. Henderson, D. Ranasinghe, V. G. Zakrzewski, J. Gao, N. Rega, 
 G. Zheng, W. Liang, M. Hada, M. Ehara, K. Toyota, R. Fukuda, 
 J. Hasegawa, M. Ishida, T. Nakajima, Y. Honda, O. Kitao, H. Nakai, 
 T. Vreven, K. Throssell, J. A. Montgomery, Jr., J. E. Peralta, 
 F. Ogliaro, M. J. Bearpark, J. J. Heyd, E. N. Brothers, K. N. Kudin, 
 V. N. Staroverov, T. A. Keith, R. Kobayashi, J. Normand, 
 K. Raghavachari, A. P. Rendell, J. C. Burant, S. S. Iyengar, 
 J. Tomasi, M. Cossi, J. M. Millam, M. Klene, C. Adamo, R. Cammi, 
 J. W. Ochterski, R. L. Martin, K. Morokuma, O. Farkas, 
 J. B. Foresman, and D. J. Fox, Gaussian, Inc., Wallingford CT, 2019.
 
 ******************************************
 Gaussian 16:  ES64L-G16RevC.01  3-Jul-2019
                11-Oct-2023 
 ******************************************
 %chk=MannitolConformerOpt_26.chk
 %mem=8GB
 %nprocs=16
 Will use up to   16 processors via shared memory.
 ---------------------------------------------
 # opt freq wb97xd/Def2TZVPP geom=connectivity
 ---------------------------------------------
 1/18=20,19=15,26=3,38=1,57=2/1,3;
 2/9=110,12=2,17=6,18=5,40=1/2;
 3/5=44,7=202,11=2,25=1,30=1,71=1,74=-58/1,2,3;
 4//1;
 5/5=2,38=5/2;
 6/7=2,8=2,9=2,10=2,28=1/1;
 7//1,2,3,16;
 1/18=20,19=15,26=3/3(2);
 2/9=110/2;
 99//99;
 2/9=110/2;
 3/5=44,7=202,11=2,25=1,30=1,71=1,74=-58/1,2,3;
 4/5=5,16=3,69=1/1;
 5/5=2,38=5/2;
 7//1,2,3,16;
 1/18=20,19=15,26=3/3(-5);
 2/9=110/2;
 6/7=2,8=2,9=2,10=2,19=2,28=1/1;
 99/9=1/99;
 -----------------
 Mannitol Conf Opt
 -----------------
 Symbolic Z-matrix:
 Charge =  0 Multiplicity = 1
 C                     0.        0.        0. 
 C                     1.5418    0.       -0.0089 
 C                    -0.7268    0.575     1.2168 
 C                     2.2752   -0.8753    1.0416 
 H                     1.9412    1.0112    0. 
 H                    -0.3763   -1.0116   -0.1974 
 C                    -0.2863    1.9865    1.6132 
 H                    -0.6689   -0.1117    2.0625 
 C                     2.534    -0.2001    2.3907 
 H                     3.2565   -1.1456    0.63 
 H                    -0.5847    2.7181    0.8557 
 H                     0.7889    2.0746    1.7811 
 H                     2.9089    0.8201    2.2682 
 H                     3.2838   -0.7696    2.9509 
 O                    -0.9592    2.344     2.825 
 H                    -0.5159    1.8447    3.5385 
 O                    -2.135     0.6415    0.8834 
 H                    -2.5384    1.1781    1.5971 
 O                    -0.4035    0.7626   -1.1684 
 H                    -1.3766    0.8517   -1.0681 
 O                     1.9154   -0.5529   -1.2963 
 H                     1.322    -0.0958   -1.9316 
 O                     1.5735   -2.1062    1.2646 
 H                     1.5587   -2.5539    0.3947 
 O                     1.3597   -0.1759    3.1941 
 H                     1.0734   -1.1136    3.2274 
 

 GradGradGradGradGradGradGradGradGradGradGradGradGradGradGradGradGradGrad
 Berny optimization.
 Initialization pass.
                           ----------------------------
                           !    Initial Parameters    !
                           ! (Angstroms and Degrees)  !
 --------------------------                            --------------------------
 ! Name  Definition              Value          Derivative Info.                !
 --------------------------------------------------------------------------------
 ! R1    R(1,2)                  1.5418         estimate D2E/DX2                !
 ! R2    R(1,3)                  1.5295         estimate D2E/DX2                !
 ! R3    R(1,6)                  1.0972         estimate D2E/DX2                !
 ! R4    R(1,19)                 1.4524         estimate D2E/DX2                !
 ! R5    R(2,4)                  1.5516         estimate D2E/DX2                !
 ! R6    R(2,5)                  1.0873         estimate D2E/DX2                !
 ! R7    R(2,21)                 1.4501         estimate D2E/DX2                !
 ! R8    R(3,7)                  1.5309         estimate D2E/DX2                !
 ! R9    R(3,8)                  1.0909         estimate D2E/DX2                !
 ! R10   R(3,17)                 1.4487         estimate D2E/DX2                !
 ! R11   R(4,9)                  1.5307         estimate D2E/DX2                !
 ! R12   R(4,10)                 1.0979         estimate D2E/DX2                !
 ! R13   R(4,23)                 1.4343         estimate D2E/DX2                !
 ! R14   R(7,11)                 1.0946         estimate D2E/DX2                !
 ! R15   R(7,12)                 1.0918         estimate D2E/DX2                !
 ! R16   R(7,15)                 1.4315         estimate D2E/DX2                !
 ! R17   R(9,13)                 1.0938         estimate D2E/DX2                !
 ! R18   R(9,14)                 1.0956         estimate D2E/DX2                !
 ! R19   R(9,25)                 1.423          estimate D2E/DX2                !
 ! R20   R(15,16)                0.9772         estimate D2E/DX2                !
 ! R21   R(17,18)                0.9798         estimate D2E/DX2                !
 ! R22   R(19,20)                0.9823         estimate D2E/DX2                !
 ! R23   R(21,22)                0.9822         estimate D2E/DX2                !
 ! R24   R(23,24)                0.9785         estimate D2E/DX2                !
 ! R25   R(25,26)                0.981          estimate D2E/DX2                !
 ! A1    A(2,1,3)              118.6699         estimate D2E/DX2                !
 ! A2    A(2,1,6)              109.9934         estimate D2E/DX2                !
 ! A3    A(2,1,19)             105.8526         estimate D2E/DX2                !
 ! A4    A(3,1,6)              109.0719         estimate D2E/DX2                !
 ! A5    A(3,1,19)             108.0939         estimate D2E/DX2                !
 ! A6    A(6,1,19)             104.1272         estimate D2E/DX2                !
 ! A7    A(1,2,4)              117.9529         estimate D2E/DX2                !
 ! A8    A(1,2,5)              111.5488         estimate D2E/DX2                !
 ! A9    A(1,2,21)             105.2342         estimate D2E/DX2                !
 ! A10   A(4,2,5)              110.2111         estimate D2E/DX2                !
 ! A11   A(4,2,21)             105.32           estimate D2E/DX2                !
 ! A12   A(5,2,21)             105.5004         estimate D2E/DX2                !
 ! A13   A(1,3,7)              114.5753         estimate D2E/DX2                !
 ! A14   A(1,3,8)              110.7846         estimate D2E/DX2                !
 ! A15   A(1,3,17)             107.2221         estimate D2E/DX2                !
 ! A16   A(7,3,8)              111.3697         estimate D2E/DX2                !
 ! A17   A(7,3,17)             107.2763         estimate D2E/DX2                !
 ! A18   A(8,3,17)             105.0047         estimate D2E/DX2                !
 ! A19   A(2,4,9)              115.3277         estimate D2E/DX2                !
 ! A20   A(2,4,10)             107.9102         estimate D2E/DX2                !
 ! A21   A(2,4,23)             110.9859         estimate D2E/DX2                !
 ! A22   A(9,4,10)             106.7325         estimate D2E/DX2                !
 ! A23   A(9,4,23)             108.9197         estimate D2E/DX2                !
 ! A24   A(10,4,23)            106.5152         estimate D2E/DX2                !
 ! A25   A(3,7,11)             111.0163         estimate D2E/DX2                !
 ! A26   A(3,7,12)             113.4282         estimate D2E/DX2                !
 ! A27   A(3,7,15)             108.3135         estimate D2E/DX2                !
 ! A28   A(11,7,12)            108.7214         estimate D2E/DX2                !
 ! A29   A(11,7,15)            106.9045         estimate D2E/DX2                !
 ! A30   A(12,7,15)            108.2159         estimate D2E/DX2                !
 ! A31   A(4,9,13)             111.7575         estimate D2E/DX2                !
 ! A32   A(4,9,14)             109.6991         estimate D2E/DX2                !
 ! A33   A(4,9,25)             111.4432         estimate D2E/DX2                !
 ! A34   A(13,9,14)            107.9103         estimate D2E/DX2                !
 ! A35   A(13,9,25)            109.2817         estimate D2E/DX2                !
 ! A36   A(14,9,25)            106.5538         estimate D2E/DX2                !
 ! A37   A(7,15,16)            106.0964         estimate D2E/DX2                !
 ! A38   A(3,17,18)            104.9345         estimate D2E/DX2                !
 ! A39   A(1,19,20)            103.9275         estimate D2E/DX2                !
 ! A40   A(2,21,22)            103.9549         estimate D2E/DX2                !
 ! A41   A(4,23,24)            105.1794         estimate D2E/DX2                !
 ! A42   A(9,25,26)            104.1076         estimate D2E/DX2                !
 ! D1    D(3,1,2,4)             65.059          estimate D2E/DX2                !
 ! D2    D(3,1,2,5)            -63.9951         estimate D2E/DX2                !
 ! D3    D(3,1,2,21)          -177.9073         estimate D2E/DX2                !
 ! D4    D(6,1,2,4)            -61.471          estimate D2E/DX2                !
 ! D5    D(6,1,2,5)            169.4749         estimate D2E/DX2                !
 ! D6    D(6,1,2,21)            55.5627         estimate D2E/DX2                !
 ! D7    D(19,1,2,4)          -173.3912         estimate D2E/DX2                !
 ! D8    D(19,1,2,5)            57.5547         estimate D2E/DX2                !
 ! D9    D(19,1,2,21)          -56.3575         estimate D2E/DX2                !
 ! D10   D(2,1,3,7)             52.4969         estimate D2E/DX2                !
 ! D11   D(2,1,3,8)            -74.5268         estimate D2E/DX2                !
 ! D12   D(2,1,3,17)           171.4208         estimate D2E/DX2                !
 ! D13   D(6,1,3,7)            179.4648         estimate D2E/DX2                !
 ! D14   D(6,1,3,8)             52.441          estimate D2E/DX2                !
 ! D15   D(6,1,3,17)           -61.6114         estimate D2E/DX2                !
 ! D16   D(19,1,3,7)           -67.9133         estimate D2E/DX2                !
 ! D17   D(19,1,3,8)           165.0629         estimate D2E/DX2                !
 ! D18   D(19,1,3,17)           51.0105         estimate D2E/DX2                !
 ! D19   D(2,1,19,20)         -172.3855         estimate D2E/DX2                !
 ! D20   D(3,1,19,20)          -44.2549         estimate D2E/DX2                !
 ! D21   D(6,1,19,20)           71.6391         estimate D2E/DX2                !
 ! D22   D(1,2,4,9)            -87.3768         estimate D2E/DX2                !
 ! D23   D(1,2,4,10)           153.4334         estimate D2E/DX2                !
 ! D24   D(1,2,4,23)            37.0778         estimate D2E/DX2                !
 ! D25   D(5,2,4,9)             42.2993         estimate D2E/DX2                !
 ! D26   D(5,2,4,10)           -76.8905         estimate D2E/DX2                !
 ! D27   D(5,2,4,23)           166.754          estimate D2E/DX2                !
 ! D28   D(21,2,4,9)           155.6354         estimate D2E/DX2                !
 ! D29   D(21,2,4,10)           36.4456         estimate D2E/DX2                !
 ! D30   D(21,2,4,23)          -79.9099         estimate D2E/DX2                !
 ! D31   D(1,2,21,22)           44.8553         estimate D2E/DX2                !
 ! D32   D(4,2,21,22)          170.1879         estimate D2E/DX2                !
 ! D33   D(5,2,21,22)          -73.2157         estimate D2E/DX2                !
 ! D34   D(1,3,7,11)            67.9358         estimate D2E/DX2                !
 ! D35   D(1,3,7,12)           -54.8304         estimate D2E/DX2                !
 ! D36   D(1,3,7,15)          -174.9815         estimate D2E/DX2                !
 ! D37   D(8,3,7,11)          -165.3411         estimate D2E/DX2                !
 ! D38   D(8,3,7,12)            71.8928         estimate D2E/DX2                !
 ! D39   D(8,3,7,15)           -48.2584         estimate D2E/DX2                !
 ! D40   D(17,3,7,11)          -50.9576         estimate D2E/DX2                !
 ! D41   D(17,3,7,12)         -173.7237         estimate D2E/DX2                !
 ! D42   D(17,3,7,15)           66.1251         estimate D2E/DX2                !
 ! D43   D(1,3,17,18)         -168.5977         estimate D2E/DX2                !
 ! D44   D(7,3,17,18)          -45.0667         estimate D2E/DX2                !
 ! D45   D(8,3,17,18)           73.5164         estimate D2E/DX2                !
 ! D46   D(2,4,9,13)           -44.5202         estimate D2E/DX2                !
 ! D47   D(2,4,9,14)          -164.1632         estimate D2E/DX2                !
 ! D48   D(2,4,9,25)            78.0776         estimate D2E/DX2                !
 ! D49   D(10,4,9,13)           75.3185         estimate D2E/DX2                !
 ! D50   D(10,4,9,14)          -44.3245         estimate D2E/DX2                !
 ! D51   D(10,4,9,25)         -162.0837         estimate D2E/DX2                !
 ! D52   D(23,4,9,13)         -170.0466         estimate D2E/DX2                !
 ! D53   D(23,4,9,14)           70.3104         estimate D2E/DX2                !
 ! D54   D(23,4,9,25)          -47.4488         estimate D2E/DX2                !
 ! D55   D(2,4,23,24)           60.4267         estimate D2E/DX2                !
 ! D56   D(9,4,23,24)         -171.561          estimate D2E/DX2                !
 ! D57   D(10,4,23,24)         -56.785          estimate D2E/DX2                !
 ! D58   D(3,7,15,16)           74.8337         estimate D2E/DX2                !
 ! D59   D(11,7,15,16)        -165.4692         estimate D2E/DX2                !
 ! D60   D(12,7,15,16)         -48.5216         estimate D2E/DX2                !
 ! D61   D(4,9,25,26)           54.033          estimate D2E/DX2                !
 ! D62   D(13,9,25,26)         178.0414         estimate D2E/DX2                !
 ! D63   D(14,9,25,26)         -65.6072         estimate D2E/DX2                !
 --------------------------------------------------------------------------------
 Trust Radius=3.00D-01 FncErr=1.00D-07 GrdErr=1.00D-06 EigMax=2.50D+02 EigMin=1.00D-04
 Number of steps in this run=    140 maximum allowed number of steps=    156.
 GradGradGradGradGradGradGradGradGradGradGradGradGradGradGradGradGradGrad

                          Input orientation:                          
 ---------------------------------------------------------------------
 Center     Atomic      Atomic             Coordinates (Angstroms)
 Number     Number       Type             X           Y           Z
 ---------------------------------------------------------------------
      1          6           0        0.000000    0.000000    0.000000
      2          6           0        1.541800    0.000000   -0.008900
      3          6           0       -0.726800    0.575000    1.216800
      4          6           0        2.275200   -0.875300    1.041600
      5          1           0        1.941200    1.011200    0.000000
      6          1           0       -0.376300   -1.011600   -0.197400
      7          6           0       -0.286300    1.986500    1.613200
      8          1           0       -0.668900   -0.111700    2.062500
      9          6           0        2.534000   -0.200100    2.390700
     10          1           0        3.256500   -1.145600    0.630000
     11          1           0       -0.584700    2.718100    0.855700
     12          1           0        0.788900    2.074600    1.781100
     13          1           0        2.908900    0.820100    2.268200
     14          1           0        3.283800   -0.769600    2.950900
     15          8           0       -0.959200    2.344000    2.825000
     16          1           0       -0.515900    1.844700    3.538500
     17          8           0       -2.135000    0.641500    0.883400
     18          1           0       -2.538400    1.178100    1.597100
     19          8           0       -0.403500    0.762600   -1.168400
     20          1           0       -1.376600    0.851700   -1.068100
     21          8           0        1.915400   -0.552900   -1.296300
     22          1           0        1.322000   -0.095800   -1.931600
     23          8           0        1.573500   -2.106200    1.264600
     24          1           0        1.558700   -2.553900    0.394700
     25          8           0        1.359700   -0.175900    3.194100
     26          1           0        1.073400   -1.113600    3.227400
 ---------------------------------------------------------------------
                    Distance matrix (angstroms):
                    1          2          3          4          5
     1  C    0.000000
     2  C    1.541826   0.000000
     3  C    1.529531   2.641877   0.000000
     4  C    2.650965   1.551637   3.338573   0.000000
     5  H    2.188786   1.087256   2.964641   2.180681   0.000000
     6  H    1.097225   2.176689   2.154092   2.929872   3.082449
     7  C    2.574988   3.149498   1.530851   3.883028   2.918113
     8  H    2.171131   3.031562   1.090925   3.208278   3.511044
     9  C    3.489505   2.604339   3.551287   1.530668   2.744833
    10  H    3.509144   2.158886   4.378525   1.097919   2.603594
    11  H    2.908980   3.557753   2.177949   4.596315   3.166370
    12  H    2.845812   2.841641   2.205580   3.384946   2.372959
    13  H    3.778756   2.779696   3.792602   2.186436   2.473397
    14  H    4.481455   3.519555   4.571648   2.161914   3.698869
    15  O    3.794078   4.447508   2.402015   4.899566   4.262546
    16  H    4.023687   4.496787   2.654601   4.628515   4.387829
    17  O    2.397946   3.837523   1.448656   4.666430   4.187180
    18  H    3.222130   4.540395   1.946857   5.262678   4.758718
    19  O    1.452422   2.389601   2.414311   3.839564   2.631459
    20  H    1.939396   3.219372   2.391562   4.557303   3.489137
    21  O    2.377993   1.450060   3.816943   2.387294   2.031617
    22  H    2.342635   1.937593   3.815754   3.218094   2.310830
    23  O    2.917395   2.461480   3.533058   1.434304   3.384169
    24  H    3.017903   2.585650   3.960981   1.936375   3.607219
    25  O    3.475917   3.212991   2.971035   2.441425   3.456823
    26  H    3.578883   3.454438   3.183489   2.505760   3.960298
                    6          7          8          9         10
     6  H    0.000000
     7  C    3.503566   0.000000
     8  H    2.450017   2.179609   0.000000
     9  C    3.978271   3.652372   3.220885   0.000000
    10  H    3.728241   4.829924   4.304622   2.125098   0.000000
    11  H    3.881123   1.094572   3.077535   4.538547   5.452883
    12  H    3.846659   1.091791   2.642778   2.931083   4.217081
    13  H    4.497427   3.463931   3.702866   1.093784   2.582344
    14  H    4.833910   4.704375   4.104379   1.095607   2.351318
    15  O    4.553540   1.431454   2.587691   4.343214   5.896394
    16  H    4.704773   1.944120   2.455501   3.847147   5.624257
    17  O    2.644597   2.399859   2.026582   4.977932   5.685614
    18  H    3.562260   2.392849   2.318450   5.315870   6.317890
    19  O    2.022713   3.041211   3.357611   4.714116   4.502340
    20  H    2.287052   3.109002   3.351065   5.325634   5.323379
    21  O    2.582610   4.445360   4.260845   3.755144   2.420842
    22  H    2.594294   4.414545   4.462821   4.490223   3.377301
    23  O    2.671575   4.508943   3.105323   2.413271   2.039107
    24  H    2.544307   5.050148   3.702445   3.236603   2.218378
    25  O    3.900559   3.143968   2.323759   1.423031   3.333583
    26  H    3.720388   3.750339   2.323016   1.915177   3.393145
                   11         12         13         14         15
    11  H    0.000000
    12  H    1.776861   0.000000
    13  H    4.219337   2.511063   0.000000
    14  H    5.614197   3.960105   1.770247   0.000000
    15  O    2.039202   2.053815   4.194579   5.264352   0.000000
    16  H    2.822229   2.200866   3.793774   4.649469   0.977189
    17  O    2.591614   3.377696   5.233593   5.969016   2.837397
    18  H    2.595808   3.450869   5.500147   6.286837   2.315369
    19  O    2.820247   3.441324   4.773418   5.736937   4.330920
    20  H    2.794917   3.781906   5.431151   6.363985   4.190156
    21  O    4.645540   4.200375   3.946876   4.467458   5.800040
    22  H    4.395746   4.333471   4.582079   5.304854   5.812206
    23  O    5.300839   4.285027   3.369531   2.748678   5.352915
    24  H    5.709700   4.892618   4.088633   3.562844   6.019602
    25  O    4.198100   2.717928   2.061390   2.028247   3.444333
    26  H    4.801685   3.512455   2.833429   2.254031   4.030929
                   16         17         18         19         20
    16  H    0.000000
    17  O    3.334476   0.000000
    18  H    2.881648   0.979816   0.000000
    19  O    4.830992   2.687497   3.518299   0.000000
    20  H    4.790367   2.104212   2.925681   0.982305   0.000000
    21  O    5.919037   4.752202   5.586095   2.669119   3.586397
    22  H    6.088137   4.518704   5.383051   2.072842   2.987613
    23  O    5.014561   4.631214   5.273036   4.249474   4.784742
    24  H    5.790952   4.908445   5.670963   4.158447   4.727989
    25  O    2.778365   4.268537   4.424806   4.798027   5.168138
    26  H    3.372565   4.343794   4.577649   5.002441   5.321299
                   21         22         23         24         25
    21  O    0.000000
    22  H    0.982176   0.000000
    23  O    3.014605   3.784264   0.000000
    24  H    2.643996   3.392632   0.978458   0.000000
    25  O    4.540333   5.126464   2.737652   3.678468   0.000000
    26  H    4.635430   5.264314   2.255646   3.214680   0.980998
                   26
    26  H    0.000000
 Stoichiometry    C6H14O6
 Framework group  C1[X(C6H14O6)]
 Deg. of freedom    72
 Full point group                 C1      NOp   1
 Largest Abelian subgroup         C1      NOp   1
 Largest concise Abelian subgroup C1      NOp   1
                         Standard orientation:                         
 ---------------------------------------------------------------------
 Center     Atomic      Atomic             Coordinates (Angstroms)
 Number     Number       Type             X           Y           Z
 ---------------------------------------------------------------------
      1          6           0        0.103435    1.126424    0.280861
      2          6           0       -1.098395    0.724852   -0.597530
      3          6           0        1.247412    0.127172    0.460525
      4          6           0       -1.989525   -0.451101   -0.117323
      5          1           0       -0.803460    0.574097   -1.633103
      6          1           0       -0.246083    1.452632    1.268448
      7          6           0        1.824253   -0.422024   -0.846817
      8          1           0        0.955245   -0.678501    1.135540
      9          6           0       -1.527340   -1.843546   -0.553702
     10          1           0       -2.994237   -0.306039   -0.535578
     11          1           0        2.347460    0.361067   -1.404589
     12          1           0        1.072356   -0.872917   -1.497473
     13          1           0       -1.233307   -1.861524   -1.607070
     14          1           0       -2.343131   -2.562416   -0.419293
     15          8           0        2.795373   -1.423068   -0.524487
     16          1           0        2.289669   -2.210574   -0.243426
     17          8           0        2.318944    0.820583    1.145802
     18          1           0        3.091197    0.221310    1.078461
     19          8           0        0.647703    2.332197   -0.318649
     20          1           0        1.477727    2.491272    0.182027
     21          8           0       -1.967864    1.885285   -0.607228
     22          1           0       -1.355449    2.638888   -0.754536
     23          8           0       -2.135670   -0.435515    1.309430
     24          1           0       -2.559425    0.422318    1.514211
     25          8           0       -0.443841   -2.305948    0.244566
     26          1           0       -0.774760   -2.228543    1.164816
 ---------------------------------------------------------------------
 Rotational constants (GHZ):           1.0540375           0.7714572           0.5406838
 Standard basis: def2TZVPP (5D, 7F)
 There are   642 symmetry adapted cartesian basis functions of A   symmetry.
 There are   568 symmetry adapted basis functions of A   symmetry.
   568 basis functions,   850 primitive gaussians,   642 cartesian basis functions
    49 alpha electrons       49 beta electrons
       nuclear repulsion energy       844.4951615711 Hartrees.
 NAtoms=   26 NActive=   26 NUniq=   26 SFac= 1.00D+00 NAtFMM=   60 NAOKFM=F Big=F
 Integral buffers will be    131072 words long.
 Raffenetti 2 integral format.
 Two-electron integral symmetry is turned on.
 Nuclear repulsion after empirical dispersion term =      844.4750189479 Hartrees.
 One-electron integrals computed using PRISM.
   1 Symmetry operations used in ECPInt.
 ECPInt:  NShTT=   23436 NPrTT=   62434 LenC2=   22270 LenP2D=   46574.
 LDataN:  DoStor=T MaxTD1= 6 Len=  172
 NBasis=   568 RedAO= T EigKep=  6.40D-05  NBF=   568
 NBsUse=   568 1.00D-06 EigRej= -1.00D+00 NBFU=   568
 ExpMin= 9.52D-02 ExpMax= 2.70D+04 ExpMxC= 9.22D+02 IAcc=3 IRadAn=         5 AccDes= 0.00D+00
 Harris functional with IExCor= 4639 and IRadAn=       5 diagonalized for initial guess.
 HarFok:  IExCor= 4639 AccDes= 0.00D+00 IRadAn=         5 IDoV= 1 UseB2=F ITyADJ=14
 ICtDFT=  3500011 ScaDFX=  1.000000  1.000000  1.000000  1.000000
 FoFCou: FMM=F IPFlag=           0 FMFlag=      100000 FMFlg1=           0
         NFxFlg=           0 DoJE=T BraDBF=F KetDBF=T FulRan=T
         wScrn=  0.000000 ICntrl=       500 IOpCl=  0 I1Cent=   200000004 NGrid=           0
         NMat0=    1 NMatS0=      1 NMatT0=    0 NMatD0=    1 NMtDS0=    0 NMtDT0=    0
 Petite list used in FoFCou.
 Requested convergence on RMS density matrix=1.00D-08 within 128 cycles.
 Requested convergence on MAX density matrix=1.00D-06.
 Requested convergence on             energy=1.00D-06.
 No special actions if energy rises.
 Integral accuracy reduced to 1.0D-05 until final iterations.
 Initial convergence to 1.0D-05 achieved.  Increase integral accuracy.
 SCF Done:  E(RwB97XD) =  -688.466256225     A.U. after   14 cycles
            NFock= 14  Conv=0.26D-08     -V/T= 2.0050

 **********************************************************************

            Population analysis using the SCF Density.

 **********************************************************************

 Orbital symmetries:
       Occupied  (A) (A) (A) (A) (A) (A) (A) (A) (A) (A) (A) (A)
                 (A) (A) (A) (A) (A) (A) (A) (A) (A) (A) (A) (A)
                 (A) (A) (A) (A) (A) (A) (A) (A) (A) (A) (A) (A)
                 (A) (A) (A) (A) (A) (A) (A) (A) (A) (A) (A) (A)
                 (A)
       Virtual   (A) (A) (A) (A) (A) (A) (A) (A) (A) (A) (A) (A)
                 (A) (A) (A) (A) (A) (A) (A) (A) (A) (A) (A) (A)
                 (A) (A) (A) (A) (A) (A) (A) (A) (A) (A) (A) (A)
                 (A) (A) (A) (A) (A) (A) (A) (A) (A) (A) (A) (A)
                 (A) (A) (A) (A) (A) (A) (A) (A) (A) (A) (A) (A)
                 (A) (A) (A) (A) (A) (A) (A) (A) (A) (A) (A) (A)
                 (A) (A) (A) (A) (A) (A) (A) (A) (A) (A) (A) (A)
                 (A) (A) (A) (A) (A) (A) (A) (A) (A) (A) (A) (A)
                 (A) (A) (A) (A) (A) (A) (A) (A) (A) (A) (A) (A)
                 (A) (A) (A) (A) (A) (A) (A) (A) (A) (A) (A) (A)
                 (A) (A) (A) (A) (A) (A) (A) (A) (A) (A) (A) (A)
                 (A) (A) (A) (A) (A) (A) (A) (A) (A) (A) (A) (A)
                 (A) (A) (A) (A) (A) (A) (A) (A) (A) (A) (A) (A)
                 (A) (A) (A) (A) (A) (A) (A) (A) (A) (A) (A) (A)
                 (A) (A) (A) (A) (A) (A) (A) (A) (A) (A) (A) (A)
                 (A) (A) (A) (A) (A) (A) (A) (A) (A) (A) (A) (A)
                 (A) (A) (A) (A) (A) (A) (A) (A) (A) (A) (A) (A)
                 (A) (A) (A) (A) (A) (A) (A) (A) (A) (A) (A) (A)
                 (A) (A) (A) (A) (A) (A) (A) (A) (A) (A) (A) (A)
                 (A) (A) (A) (A) (A) (A) (A) (A) (A) (A) (A) (A)
                 (A) (A) (A) (A) (A) (A) (A) (A) (A) (A) (A) (A)
                 (A) (A) (A) (A) (A) (A) (A) (A) (A) (A) (A) (A)
                 (A) (A) (A) (A) (A) (A) (A) (A) (A) (A) (A) (A)
                 (A) (A) (A) (A) (A) (A) (A) (A) (A) (A) (A) (A)
                 (A) (A) (A) (A) (A) (A) (A) (A) (A) (A) (A) (A)
                 (A) (A) (A) (A) (A) (A) (A) (A) (A) (A) (A) (A)
                 (A) (A) (A) (A) (A) (A) (A) (A) (A) (A) (A) (A)
                 (A) (A) (A) (A) (A) (A) (A) (A) (A) (A) (A) (A)
                 (A) (A) (A) (A) (A) (A) (A) (A) (A) (A) (A) (A)
                 (A) (A) (A) (A) (A) (A) (A) (A) (A) (A) (A) (A)
                 (A) (A) (A) (A) (A) (A) (A) (A) (A) (A) (A) (A)
                 (A) (A) (A) (A) (A) (A) (A) (A) (A) (A) (A) (A)
                 (A) (A) (A) (A) (A) (A) (A) (A) (A) (A) (A) (A)
                 (A) (A) (A) (A) (A) (A) (A) (A) (A) (A) (A) (A)
                 (A) (A) (A) (A) (A) (A) (A) (A) (A) (A) (A) (A)
                 (A) (A) (A) (A) (A) (A) (A) (A) (A) (A) (A) (A)
                 (A) (A) (A) (A) (A) (A) (A) (A) (A) (A) (A) (A)
                 (A) (A) (A) (A) (A) (A) (A) (A) (A) (A) (A) (A)
                 (A) (A) (A) (A) (A) (A) (A) (A) (A) (A) (A) (A)
                 (A) (A) (A) (A) (A) (A) (A) (A) (A) (A) (A) (A)
                 (A) (A) (A) (A) (A) (A) (A) (A) (A) (A) (A) (A)
                 (A) (A) (A) (A) (A) (A) (A) (A) (A) (A) (A) (A)
                 (A) (A) (A) (A) (A) (A) (A) (A) (A) (A) (A) (A)
                 (A) (A) (A)
 The electronic state is 1-A.
 Alpha  occ. eigenvalues --  -19.27160 -19.26653 -19.25767 -19.25593 -19.25553
 Alpha  occ. eigenvalues --  -19.25213 -10.35588 -10.35173 -10.34887 -10.34766
 Alpha  occ. eigenvalues --  -10.33976 -10.33418  -1.15696  -1.14626  -1.13464
 Alpha  occ. eigenvalues --   -1.12604  -1.11462  -1.10059  -0.88635  -0.85517
 Alpha  occ. eigenvalues --   -0.80140  -0.75675  -0.72029  -0.68054  -0.63840
 Alpha  occ. eigenvalues --   -0.61491  -0.60972  -0.60457  -0.58893  -0.58634
 Alpha  occ. eigenvalues --   -0.56509  -0.54247  -0.54171  -0.52439  -0.51658
 Alpha  occ. eigenvalues --   -0.50802  -0.49574  -0.46453  -0.45083  -0.44236
 Alpha  occ. eigenvalues --   -0.43779  -0.43424  -0.42916  -0.39516  -0.39101
 Alpha  occ. eigenvalues --   -0.37312  -0.36812  -0.36486  -0.35202
 Alpha virt. eigenvalues --    0.08665   0.10771   0.11344   0.11732   0.14094
 Alpha virt. eigenvalues --    0.14419   0.15735   0.16093   0.17231   0.18233
 Alpha virt. eigenvalues --    0.19100   0.19951   0.20587   0.21452   0.21848
 Alpha virt. eigenvalues --    0.22816   0.23692   0.24550   0.25034   0.26405
 Alpha virt. eigenvalues --    0.27630   0.29577   0.30196   0.32813   0.34554
 Alpha virt. eigenvalues --    0.34799   0.35315   0.36783   0.37728   0.38962
 Alpha virt. eigenvalues --    0.39204   0.39441   0.40462   0.40634   0.41243
 Alpha virt. eigenvalues --    0.41570   0.42527   0.42844   0.44342   0.44658
 Alpha virt. eigenvalues --    0.45272   0.45688   0.46009   0.47295   0.47809
 Alpha virt. eigenvalues --    0.49267   0.49906   0.50236   0.50832   0.51013
 Alpha virt. eigenvalues --    0.52029   0.52614   0.52973   0.53945   0.55255
 Alpha virt. eigenvalues --    0.55490   0.56853   0.57440   0.57955   0.59517
 Alpha virt. eigenvalues --    0.60509   0.60926   0.62260   0.63136   0.63696
 Alpha virt. eigenvalues --    0.65595   0.65643   0.66906   0.68384   0.69231
 Alpha virt. eigenvalues --    0.69722   0.69888   0.70429   0.71619   0.72597
 Alpha virt. eigenvalues --    0.74836   0.75828   0.76830   0.77808   0.79234
 Alpha virt. eigenvalues --    0.82053   0.83911   0.84464   0.86067   0.86891
 Alpha virt. eigenvalues --    0.87016   0.87779   0.89212   0.90809   0.92124
 Alpha virt. eigenvalues --    0.92631   0.93080   0.94006   0.95360   0.95970
 Alpha virt. eigenvalues --    0.96638   0.98304   0.99677   1.00703   1.02002
 Alpha virt. eigenvalues --    1.02623   1.04573   1.05730   1.06811   1.07541
 Alpha virt. eigenvalues --    1.08917   1.10309   1.11821   1.12466   1.13435
 Alpha virt. eigenvalues --    1.14714   1.16714   1.16784   1.17396   1.18506
 Alpha virt. eigenvalues --    1.19904   1.20212   1.21681   1.22844   1.25162
 Alpha virt. eigenvalues --    1.25864   1.27011   1.27359   1.28318   1.29247
 Alpha virt. eigenvalues --    1.31476   1.32475   1.32873   1.33394   1.34680
 Alpha virt. eigenvalues --    1.35966   1.36329   1.37305   1.38580   1.39110
 Alpha virt. eigenvalues --    1.40507   1.42220   1.43674   1.45576   1.47089
 Alpha virt. eigenvalues --    1.47807   1.49097   1.50145   1.51205   1.52446
 Alpha virt. eigenvalues --    1.53039   1.56250   1.57163   1.57702   1.59180
 Alpha virt. eigenvalues --    1.59851   1.60735   1.63260   1.64882   1.65350
 Alpha virt. eigenvalues --    1.67027   1.71189   1.71914   1.73799   1.75299
 Alpha virt. eigenvalues --    1.76293   1.78439   1.82127   1.82772   1.84877
 Alpha virt. eigenvalues --    1.85765   1.86810   1.88323   1.90188   1.92194
 Alpha virt. eigenvalues --    1.95260   1.95880   1.97836   1.99494   2.00127
 Alpha virt. eigenvalues --    2.01286   2.01527   2.02502   2.03919   2.04568
 Alpha virt. eigenvalues --    2.06206   2.07220   2.08803   2.08928   2.09981
 Alpha virt. eigenvalues --    2.11524   2.12181   2.14142   2.14799   2.15553
 Alpha virt. eigenvalues --    2.17681   2.20043   2.20789   2.22096   2.23837
 Alpha virt. eigenvalues --    2.24749   2.27285   2.29590   2.30236   2.31564
 Alpha virt. eigenvalues --    2.36607   2.36703   2.37900   2.38403   2.42954
 Alpha virt. eigenvalues --    2.43526   2.45723   2.48346   2.50052   2.50691
 Alpha virt. eigenvalues --    2.54746   2.55053   2.58887   2.59330   2.62840
 Alpha virt. eigenvalues --    2.63242   2.67416   2.69902   2.71108   2.72393
 Alpha virt. eigenvalues --    2.72625   2.73478   2.74958   2.76992   2.77528
 Alpha virt. eigenvalues --    2.78595   2.80315   2.82237   2.83178   2.84921
 Alpha virt. eigenvalues --    2.86625   2.88052   2.89003   2.89650   2.90236
 Alpha virt. eigenvalues --    2.92393   2.93407   2.95672   2.96137   2.97801
 Alpha virt. eigenvalues --    2.99407   3.00615   3.02315   3.03223   3.04977
 Alpha virt. eigenvalues --    3.05551   3.06690   3.08011   3.09370   3.10384
 Alpha virt. eigenvalues --    3.12366   3.12778   3.13915   3.15974   3.16553
 Alpha virt. eigenvalues --    3.16872   3.17711   3.19985   3.20979   3.21439
 Alpha virt. eigenvalues --    3.24189   3.24428   3.24611   3.26192   3.27796
 Alpha virt. eigenvalues --    3.28617   3.30345   3.31167   3.31762   3.33180
 Alpha virt. eigenvalues --    3.33889   3.34510   3.35720   3.36596   3.39225
 Alpha virt. eigenvalues --    3.39606   3.40438   3.41838   3.42257   3.43245
 Alpha virt. eigenvalues --    3.44169   3.44966   3.45864   3.47392   3.48033
 Alpha virt. eigenvalues --    3.48954   3.49356   3.51064   3.51845   3.52570
 Alpha virt. eigenvalues --    3.53910   3.55537   3.56518   3.58915   3.58992
 Alpha virt. eigenvalues --    3.60685   3.62026   3.64618   3.65073   3.66244
 Alpha virt. eigenvalues --    3.67673   3.69064   3.69747   3.71311   3.72476
 Alpha virt. eigenvalues --    3.73690   3.74909   3.75737   3.76637   3.76995
 Alpha virt. eigenvalues --    3.78876   3.80598   3.81739   3.82842   3.83448
 Alpha virt. eigenvalues --    3.83973   3.85746   3.86567   3.88022   3.90273
 Alpha virt. eigenvalues --    3.91845   3.93323   3.94220   3.95464   3.96115
 Alpha virt. eigenvalues --    3.97805   3.98367   3.98905   4.01215   4.02373
 Alpha virt. eigenvalues --    4.03121   4.04076   4.05007   4.06553   4.07473
 Alpha virt. eigenvalues --    4.08525   4.09064   4.09662   4.11149   4.12171
 Alpha virt. eigenvalues --    4.13561   4.14110   4.14943   4.17228   4.17850
 Alpha virt. eigenvalues --    4.19290   4.19817   4.20664   4.21186   4.22545
 Alpha virt. eigenvalues --    4.24028   4.24255   4.25714   4.26871   4.27477
 Alpha virt. eigenvalues --    4.28251   4.30143   4.31340   4.32521   4.33593
 Alpha virt. eigenvalues --    4.34423   4.35947   4.38886   4.40333   4.40537
 Alpha virt. eigenvalues --    4.41337   4.42583   4.43634   4.46639   4.47130
 Alpha virt. eigenvalues --    4.47670   4.49235   4.49468   4.51862   4.53265
 Alpha virt. eigenvalues --    4.55273   4.56683   4.58659   4.60185   4.61217
 Alpha virt. eigenvalues --    4.62677   4.63473   4.67035   4.70250   4.73872
 Alpha virt. eigenvalues --    4.74610   4.76910   4.78988   4.82470   4.83652
 Alpha virt. eigenvalues --    4.84733   4.85539   4.86325   4.88807   4.91097
 Alpha virt. eigenvalues --    4.91670   4.93832   4.95218   4.95331   4.95859
 Alpha virt. eigenvalues --    4.97652   4.99685   5.01128   5.02868   5.03867
 Alpha virt. eigenvalues --    5.05000   5.06864   5.07358   5.08924   5.10146
 Alpha virt. eigenvalues --    5.11646   5.12630   5.13326   5.18807   5.21002
 Alpha virt. eigenvalues --    5.22453   5.24067   5.26335   5.27217   5.29345
 Alpha virt. eigenvalues --    5.31638   5.33344   5.36064   5.40849   5.43434
 Alpha virt. eigenvalues --    5.47581   5.48340   5.51945   5.55749   5.59540
 Alpha virt. eigenvalues --    5.60758   5.62909   5.63739   5.64699   5.66068
 Alpha virt. eigenvalues --    5.67466   5.68881   5.69687   5.72745   5.74665
 Alpha virt. eigenvalues --    5.76572   5.81267   5.82571   5.84255   5.85030
 Alpha virt. eigenvalues --    5.87829   5.88571   5.91067   5.94392   5.96040
 Alpha virt. eigenvalues --    5.98168   6.00644   6.03051   6.11652   6.12584
 Alpha virt. eigenvalues --    6.14255   6.16681   6.18517   6.21330   6.52487
 Alpha virt. eigenvalues --    6.52739   6.53072   6.55298   6.55727   6.56574
 Alpha virt. eigenvalues --    6.70407   6.72765   6.73775   6.74633   6.76896
 Alpha virt. eigenvalues --    6.77105   6.77689   6.79002   6.79553   6.80446
 Alpha virt. eigenvalues --    6.81063   6.82025   6.82459   6.85470   6.86741
 Alpha virt. eigenvalues --    6.88730   6.89555   6.92336   6.98019   7.00703
 Alpha virt. eigenvalues --    7.01730   7.02683   7.06195   7.09323   7.14683
 Alpha virt. eigenvalues --    7.16941   7.18461   7.21431   7.22205   7.23362
 Alpha virt. eigenvalues --    7.41514   7.42199   7.43191   7.43716   7.44967
 Alpha virt. eigenvalues --    7.45470   7.52966   7.55598   7.56225   7.58046
 Alpha virt. eigenvalues --    7.61270   7.62042  23.10428  23.17623  23.19807
 Alpha virt. eigenvalues --   23.26323  23.44381  23.46405  44.09634  44.17702
 Alpha virt. eigenvalues --   44.25291  44.27146  44.30855  44.34471
          Condensed to atoms (all electrons):
               1          2          3          4          5          6
     1  C    5.100627   0.200014   0.097560   0.055323  -0.044240   0.405491
     2  C    0.200014   5.032159   0.003042   0.105707   0.440055  -0.027262
     3  C    0.097560   0.003042   5.090205  -0.003660   0.006386  -0.022996
     4  C    0.055323   0.105707  -0.003660   5.156547  -0.059731  -0.012266
     5  H   -0.044240   0.440055   0.006386  -0.059731   0.599798   0.008073
     6  H    0.405491  -0.027262  -0.022996  -0.012266   0.008073   0.576687
     7  C    0.004605   0.011333   0.290558  -0.006792  -0.001156   0.008527
     8  H   -0.031663  -0.010220   0.434701   0.009319   0.000721  -0.004224
     9  C   -0.008035   0.037471   0.003176   0.170528   0.007214   0.000647
    10  H    0.009596  -0.053029  -0.001343   0.451394  -0.003339   0.000243
    11  H   -0.006883  -0.005263  -0.013423   0.002328   0.000475   0.000079
    12  H    0.004621   0.014168  -0.070042  -0.014642  -0.002948  -0.001122
    13  H    0.000739  -0.002777  -0.000357  -0.045169  -0.000276  -0.000065
    14  H    0.000256   0.008215  -0.000936  -0.031640  -0.000366  -0.000036
    15  O    0.011090  -0.001004  -0.047107   0.000477   0.000113  -0.000420
    16  H    0.000173  -0.000521   0.007233   0.000780  -0.000009  -0.000061
    17  O   -0.055571   0.006087   0.227645  -0.001210  -0.000162   0.001923
    18  H    0.008838  -0.000798  -0.041914  -0.000141   0.000008  -0.000591
    19  O    0.249103  -0.044939  -0.039432   0.005398   0.005271  -0.037060
    20  H   -0.047054   0.009568  -0.002209  -0.000767  -0.000256  -0.004941
    21  O   -0.043273   0.296930   0.011263  -0.062537  -0.034714   0.005761
    22  H    0.000507  -0.050827   0.001597   0.010267  -0.004761  -0.002492
    23  O   -0.009414  -0.049039  -0.004984   0.244473   0.004762   0.014640
    24  H   -0.009133   0.018478   0.001737  -0.049151   0.001030   0.002495
    25  O   -0.003885  -0.005643  -0.016108  -0.023087   0.000142   0.000384
    26  H    0.000754  -0.000762   0.001499  -0.016583  -0.000280  -0.000240
               7          8          9         10         11         12
     1  C    0.004605  -0.031663  -0.008035   0.009596  -0.006883   0.004621
     2  C    0.011333  -0.010220   0.037471  -0.053029  -0.005263   0.014168
     3  C    0.290558   0.434701   0.003176  -0.001343  -0.013423  -0.070042
     4  C   -0.006792   0.009319   0.170528   0.451394   0.002328  -0.014642
     5  H   -0.001156   0.000721   0.007214  -0.003339   0.000475  -0.002948
     6  H    0.008527  -0.004224   0.000647   0.000243   0.000079  -0.001122
     7  C    4.751866  -0.038959   0.000153   0.000218   0.386344   0.432933
     8  H   -0.038959   0.572786  -0.009726   0.000192   0.006450   0.002733
     9  C    0.000153  -0.009726   4.793701  -0.032446  -0.000704   0.006498
    10  H    0.000218   0.000192  -0.032446   0.575316  -0.000013  -0.000044
    11  H    0.386344   0.006450  -0.000704  -0.000013   0.553674  -0.021214
    12  H    0.432933   0.002733   0.006498  -0.000044  -0.021214   0.622107
    13  H   -0.001734  -0.000151   0.425872   0.001507  -0.000031  -0.002082
    14  H    0.000353   0.000488   0.428309  -0.005653   0.000008   0.000158
    15  O    0.237203  -0.001500  -0.000293   0.000001  -0.028447  -0.035477
    16  H   -0.048615   0.004865  -0.000645  -0.000009   0.009053  -0.011566
    17  O   -0.034336  -0.033703   0.000280   0.000009   0.001129   0.007434
    18  H   -0.009164  -0.002459   0.000062  -0.000002  -0.001974   0.001867
    19  O   -0.010955   0.004187  -0.000542  -0.000072   0.013686  -0.000011
    20  H   -0.001746   0.001500  -0.000011   0.000032   0.000718   0.000364
    21  O   -0.000637  -0.000137   0.004889   0.003232   0.000026   0.000026
    22  H   -0.000039  -0.000041  -0.001230   0.000116  -0.000006   0.000010
    23  O    0.000967   0.004347  -0.037055  -0.037383  -0.000029   0.000254
    24  H   -0.000149  -0.000134   0.010853  -0.011030  -0.000000   0.000024
    25  O    0.004999   0.016273   0.224979   0.004295   0.000445  -0.001263
    26  H   -0.001454   0.000147  -0.022893   0.000780  -0.000048   0.000272
              13         14         15         16         17         18
     1  C    0.000739   0.000256   0.011090   0.000173  -0.055571   0.008838
     2  C   -0.002777   0.008215  -0.001004  -0.000521   0.006087  -0.000798
     3  C   -0.000357  -0.000936  -0.047107   0.007233   0.227645  -0.041914
     4  C   -0.045169  -0.031640   0.000477   0.000780  -0.001210  -0.000141
     5  H   -0.000276  -0.000366   0.000113  -0.000009  -0.000162   0.000008
     6  H   -0.000065  -0.000036  -0.000420  -0.000061   0.001923  -0.000591
     7  C   -0.001734   0.000353   0.237203  -0.048615  -0.034336  -0.009164
     8  H   -0.000151   0.000488  -0.001500   0.004865  -0.033703  -0.002459
     9  C    0.425872   0.428309  -0.000293  -0.000645   0.000280   0.000062
    10  H    0.001507  -0.005653   0.000001  -0.000009   0.000009  -0.000002
    11  H   -0.000031   0.000008  -0.028447   0.009053   0.001129  -0.001974
    12  H   -0.002082   0.000158  -0.035477  -0.011566   0.007434   0.001867
    13  H    0.598952  -0.029618   0.000216  -0.000158  -0.000021  -0.000006
    14  H   -0.029618   0.573828  -0.000022   0.000015   0.000004   0.000001
    15  O    0.000216  -0.000022   7.913486   0.317412  -0.008580   0.024609
    16  H   -0.000158   0.000015   0.317412   0.518766  -0.000237  -0.001458
    17  O   -0.000021   0.000004  -0.008580  -0.000237   7.941323   0.328099
    18  H   -0.000006   0.000001   0.024609  -0.001458   0.328099   0.491366
    19  O    0.000033   0.000001  -0.000041  -0.000000  -0.014904   0.000120
    20  H    0.000003  -0.000002  -0.000078  -0.000000   0.031775  -0.001529
    21  O    0.000083  -0.000178   0.000001  -0.000000  -0.000102   0.000019
    22  H    0.000016   0.000031   0.000001  -0.000001  -0.000001   0.000007
    23  O    0.002674   0.000560   0.000003  -0.000024   0.000095   0.000009
    24  H   -0.000428  -0.000219   0.000001   0.000002  -0.000010   0.000002
    25  O   -0.035074  -0.034553  -0.001709   0.007088   0.000500   0.000029
    26  H    0.009345  -0.009985   0.000118  -0.000592  -0.000114  -0.000016
              19         20         21         22         23         24
     1  C    0.249103  -0.047054  -0.043273   0.000507  -0.009414  -0.009133
     2  C   -0.044939   0.009568   0.296930  -0.050827  -0.049039   0.018478
     3  C   -0.039432  -0.002209   0.011263   0.001597  -0.004984   0.001737
     4  C    0.005398  -0.000767  -0.062537   0.010267   0.244473  -0.049151
     5  H    0.005271  -0.000256  -0.034714  -0.004761   0.004762   0.001030
     6  H   -0.037060  -0.004941   0.005761  -0.002492   0.014640   0.002495
     7  C   -0.010955  -0.001746  -0.000637  -0.000039   0.000967  -0.000149
     8  H    0.004187   0.001500  -0.000137  -0.000041   0.004347  -0.000134
     9  C   -0.000542  -0.000011   0.004889  -0.001230  -0.037055   0.010853
    10  H   -0.000072   0.000032   0.003232   0.000116  -0.037383  -0.011030
    11  H    0.013686   0.000718   0.000026  -0.000006  -0.000029  -0.000000
    12  H   -0.000011   0.000364   0.000026   0.000010   0.000254   0.000024
    13  H    0.000033   0.000003   0.000083   0.000016   0.002674  -0.000428
    14  H    0.000001  -0.000002  -0.000178   0.000031   0.000560  -0.000219
    15  O   -0.000041  -0.000078   0.000001   0.000001   0.000003   0.000001
    16  H   -0.000000  -0.000000  -0.000000  -0.000001  -0.000024   0.000002
    17  O   -0.014904   0.031775  -0.000102  -0.000001   0.000095  -0.000010
    18  H    0.000120  -0.001529   0.000019   0.000007   0.000009   0.000002
    19  O    7.939561   0.330534  -0.016566   0.024456   0.000264  -0.000100
    20  H    0.330534   0.475047   0.000001  -0.001277   0.000080  -0.000005
    21  O   -0.016566   0.000001   7.877082   0.331973  -0.002025   0.009142
    22  H    0.024456  -0.001277   0.331973   0.480449  -0.000483  -0.000577
    23  O    0.000264   0.000080  -0.002025  -0.000483   7.909521   0.333524
    24  H   -0.000100  -0.000005   0.009142  -0.000577   0.333524   0.493879
    25  O   -0.000035  -0.000023  -0.000089   0.000033  -0.010704  -0.000054
    26  H    0.000016   0.000006   0.000013   0.000009   0.017521  -0.001119
              25         26
     1  C   -0.003885   0.000754
     2  C   -0.005643  -0.000762
     3  C   -0.016108   0.001499
     4  C   -0.023087  -0.016583
     5  H    0.000142  -0.000280
     6  H    0.000384  -0.000240
     7  C    0.004999  -0.001454
     8  H    0.016273   0.000147
     9  C    0.224979  -0.022893
    10  H    0.004295   0.000780
    11  H    0.000445  -0.000048
    12  H   -0.001263   0.000272
    13  H   -0.035074   0.009345
    14  H   -0.034553  -0.009985
    15  O   -0.001709   0.000118
    16  H    0.007088  -0.000592
    17  O    0.000500  -0.000114
    18  H    0.000029  -0.000016
    19  O   -0.000035   0.000016
    20  H   -0.000023   0.000006
    21  O   -0.000089   0.000013
    22  H    0.000033   0.000009
    23  O   -0.010704   0.017521
    24  H   -0.000054  -0.001119
    25  O    7.941926   0.309471
    26  H    0.309471   0.509464
 Mulliken charges:
               1
     1  C    0.109853
     2  C    0.068856
     3  C    0.087909
     4  C    0.114835
     5  H    0.078190
     6  H    0.088829
     7  C    0.025675
     8  H    0.074206
     9  C   -0.001054
    10  H    0.097431
    11  H    0.103619
    12  H    0.066942
    13  H    0.078505
    14  H    0.100982
    15  O   -0.380055
    16  H    0.198510
    17  O   -0.397353
    18  H    0.205016
    19  O   -0.407973
    20  H    0.210272
    21  O   -0.380182
    22  H    0.212263
    23  O   -0.382554
    24  H    0.200944
    25  O   -0.378337
    26  H    0.204671
 Sum of Mulliken charges =  -0.00000
 Mulliken charges with hydrogens summed into heavy atoms:
               1
     1  C    0.198682
     2  C    0.147046
     3  C    0.162114
     4  C    0.212266
     7  C    0.196235
     9  C    0.178433
    15  O   -0.181546
    17  O   -0.192337
    19  O   -0.197701
    21  O   -0.167919
    23  O   -0.181610
    25  O   -0.173665
 Electronic spatial extent (au):  <R**2>=           2198.7063
 Charge=             -0.0000 electrons
 Dipole moment (field-independent basis, Debye):
    X=             -1.2898    Y=             -1.2281    Z=              0.0558  Tot=              1.7818
 Quadrupole moment (field-independent basis, Debye-Ang):
   XX=            -75.3521   YY=            -73.3427   ZZ=            -71.3423
   XY=              3.5217   XZ=              0.9114   YZ=              0.8449
 Traceless Quadrupole moment (field-independent basis, Debye-Ang):
   XX=             -2.0064   YY=              0.0030   ZZ=              2.0034
   XY=              3.5217   XZ=              0.9114   YZ=              0.8449
 Octapole moment (field-independent basis, Debye-Ang**2):
  XXX=             -6.7263  YYY=              2.7129  ZZZ=              2.9901  XYY=              2.7811
  XXY=              1.0788  XXZ=             13.3097  XZZ=             -3.6235  YZZ=             -3.6369
  YYZ=              8.1930  XYZ=            -13.0210
 Hexadecapole moment (field-independent basis, Debye-Ang**3):
 XXXX=          -1388.7349 YYYY=           -916.3720 ZZZZ=           -317.7598 XXXY=             52.3322
 XXXZ=             18.9827 YYYX=             -6.0820 YYYZ=            -12.1402 ZZZX=            -11.8994
 ZZZY=             -6.8067 XXYY=           -387.3472 XXZZ=           -285.1412 YYZZ=           -200.7025
 XXYZ=             -0.1439 YYXZ=              3.4514 ZZXY=            -10.7838
 N-N= 8.444750189479D+02 E-N=-3.306132275021D+03  KE= 6.850375783832D+02
   1 Symmetry operations used in ECPInt.
 ECPInt:  NShTT=   23436 NPrTT=   62434 LenC2=   22270 LenP2D=   46574.
 LDataN:  DoStor=T MaxTD1= 7 Len=  274
 Calling FoFJK, ICntrl=      2127 FMM=F ISym2X=0 I1Cent= 0 IOpClX= 0 NMat=1 NMatS=1 NMatT=0.
 ***** Axes restored to original set *****
 -------------------------------------------------------------------
 Center     Atomic                   Forces (Hartrees/Bohr)
 Number     Number              X              Y              Z
 -------------------------------------------------------------------
      1        6          -0.013260398    0.008671725   -0.010124202
      2        6           0.003126753   -0.016924133   -0.017542071
      3        6          -0.012115156    0.004734979   -0.003736610
      4        6          -0.004515956   -0.000593352   -0.005034300
      5        1          -0.002407114    0.005646707    0.007186370
      6        1           0.006605227   -0.000995782    0.008702130
      7        6          -0.001649387   -0.002517287    0.013427708
      8        1           0.009484995    0.003530243   -0.001650980
      9        6          -0.008762589   -0.011928045    0.007080906
     10        1          -0.001719736    0.008256832   -0.003378819
     11        1           0.000462703   -0.004728209    0.001543256
     12        1           0.000808856   -0.003283211   -0.004210192
     13        1          -0.004094163   -0.002403266   -0.001154446
     14        1           0.003814607    0.000659466   -0.005748632
     15        8           0.009252965   -0.008285379    0.006785700
     16        1          -0.009071667    0.008936719   -0.012696429
     17        8           0.004290532    0.008234530    0.009846632
     18        1           0.007031068   -0.010204352   -0.014445736
     19        8          -0.010130823   -0.001185625    0.013700461
     20        1           0.019374147   -0.000081739   -0.003452512
     21        8          -0.014874762    0.012139665    0.001237255
     22        1           0.012154221   -0.011376358    0.010130637
     23        8           0.005261442    0.001838066   -0.015010143
     24        1          -0.001736336    0.006941286    0.018548352
     25        8          -0.000152440   -0.015296588   -0.000534831
     26        1           0.002823012    0.020213107    0.000530496
 -------------------------------------------------------------------
 Cartesian Forces:  Max     0.020213107 RMS     0.008748209

 GradGradGradGradGradGradGradGradGradGradGradGradGradGradGradGradGradGrad
 Berny optimization.
 FormGI is forming the generalized inverse of G from B-inverse, IUseBI=4.
 Internal  Forces:  Max     0.020126969 RMS     0.005989986
 Search for a local minimum.
 Step number   1 out of a maximum of  140
 All quantities printed in internal units (Hartrees-Bohrs-Radians)
 Mixed Optimization -- RFO/linear search
 Second derivative matrix not updated -- first step.
 ITU=  0
     Eigenvalues ---    0.00230   0.00230   0.00358   0.00360   0.00375
     Eigenvalues ---    0.00998   0.01030   0.01048   0.01238   0.01276
     Eigenvalues ---    0.01387   0.03373   0.03431   0.03787   0.03810
     Eigenvalues ---    0.04665   0.04673   0.04875   0.04902   0.04941
     Eigenvalues ---    0.05152   0.05516   0.05699   0.07674   0.07954
     Eigenvalues ---    0.08386   0.08387   0.11469   0.11665   0.13663
     Eigenvalues ---    0.13908   0.16000   0.16000   0.16000   0.16000
     Eigenvalues ---    0.16000   0.16000   0.16892   0.17270   0.17656
     Eigenvalues ---    0.17769   0.18944   0.19282   0.19451   0.20177
     Eigenvalues ---    0.21976   0.22024   0.27512   0.28358   0.29345
     Eigenvalues ---    0.29362   0.29467   0.33913   0.33991   0.34173
     Eigenvalues ---    0.34290   0.34379   0.34607   0.34706   0.35132
     Eigenvalues ---    0.37929   0.38237   0.38422   0.40377   0.40781
     Eigenvalues ---    0.42007   0.50940   0.50964   0.51191   0.51421
     Eigenvalues ---    0.51685   0.51935
 RFO step:  Lambda=-1.82006481D-02 EMin= 2.30000000D-03
 Linear search not attempted -- first point.
 Iteration  1 RMS(Cart)=  0.06793045 RMS(Int)=  0.00206780
 Iteration  2 RMS(Cart)=  0.00253329 RMS(Int)=  0.00042395
 Iteration  3 RMS(Cart)=  0.00000321 RMS(Int)=  0.00042394
 Iteration  4 RMS(Cart)=  0.00000000 RMS(Int)=  0.00042394
 Variable       Old X    -DE/DX   Delta X   Delta X   Delta X     New X
                                 (Linear)    (Quad)   (Total)
    R1        2.91363  -0.01106   0.00000  -0.03663  -0.03663   2.87699
    R2        2.89039  -0.00947   0.00000  -0.03028  -0.03028   2.86012
    R3        2.07346  -0.00291   0.00000  -0.00813  -0.00813   2.06532
    R4        2.74468  -0.01148   0.00000  -0.02887  -0.02887   2.71581
    R5        2.93217  -0.01181   0.00000  -0.04027  -0.04027   2.89190
    R6        2.05462   0.00443   0.00000   0.01198   0.01198   2.06660
    R7        2.74022  -0.01109   0.00000  -0.02767  -0.02767   2.71254
    R8        2.89289  -0.00791   0.00000  -0.02539  -0.02539   2.86750
    R9        2.06155  -0.00300   0.00000  -0.00821  -0.00821   2.05334
   R10        2.73756  -0.01004   0.00000  -0.02494  -0.02494   2.71262
   R11        2.89254  -0.00478   0.00000  -0.01534  -0.01534   2.87721
   R12        2.07477  -0.00230   0.00000  -0.00645  -0.00645   2.06832
   R13        2.71044  -0.00871   0.00000  -0.02064  -0.02064   2.68980
   R14        2.06844  -0.00435   0.00000  -0.01206  -0.01206   2.05638
   R15        2.06319  -0.00012   0.00000  -0.00032  -0.00032   2.06286
   R16        2.70506  -0.00493   0.00000  -0.01156  -0.01156   2.69349
   R17        2.06695  -0.00351   0.00000  -0.00971  -0.00971   2.05724
   R18        2.07040  -0.00067   0.00000  -0.00187  -0.00187   2.06853
   R19        2.68914  -0.00212   0.00000  -0.00484  -0.00484   2.68430
   R20        1.84662  -0.01795   0.00000  -0.03340  -0.03340   1.81322
   R21        1.85158  -0.01901   0.00000  -0.03570  -0.03570   1.81588
   R22        1.85629  -0.01955   0.00000  -0.03706  -0.03706   1.81923
   R23        1.85604  -0.01919   0.00000  -0.03636  -0.03636   1.81969
   R24        1.84902  -0.01964   0.00000  -0.03671  -0.03671   1.81231
   R25        1.85382  -0.02013   0.00000  -0.03797  -0.03797   1.81585
    A1        2.07118   0.00276   0.00000  -0.00293  -0.00312   2.06806
    A2        1.91975  -0.00163   0.00000  -0.02363  -0.02339   1.89635
    A3        1.84748  -0.00718   0.00000  -0.04124  -0.04102   1.80645
    A4        1.90366  -0.00226   0.00000  -0.01097  -0.01195   1.89171
    A5        1.88659   0.00312   0.00000   0.01501   0.01450   1.90109
    A6        1.81736   0.00576   0.00000   0.07608   0.07589   1.89325
    A7        2.05867   0.00493   0.00000   0.01556   0.01549   2.07415
    A8        1.94689  -0.00441   0.00000  -0.03386  -0.03418   1.91271
    A9        1.83668   0.00212   0.00000   0.01712   0.01726   1.85394
   A10        1.92355  -0.00114   0.00000  -0.01760  -0.01767   1.90588
   A11        1.83818  -0.00562   0.00000  -0.02383  -0.02388   1.81430
   A12        1.84133   0.00435   0.00000   0.05155   0.05177   1.89310
   A13        1.99972   0.00377   0.00000   0.00735   0.00729   2.00700
   A14        1.93356  -0.00034   0.00000  -0.01896  -0.01915   1.91441
   A15        1.87138  -0.00830   0.00000  -0.03901  -0.03893   1.83244
   A16        1.94377  -0.00510   0.00000  -0.03785  -0.03871   1.90506
   A17        1.87233   0.00531   0.00000   0.03572   0.03581   1.90814
   A18        1.83268   0.00486   0.00000   0.06011   0.06032   1.89300
   A19        2.01285   0.00845   0.00000   0.03356   0.03369   2.04654
   A20        1.88339  -0.00785   0.00000  -0.06082  -0.06067   1.82272
   A21        1.93707   0.00364   0.00000   0.02626   0.02654   1.96360
   A22        1.86283   0.00023   0.00000  -0.00696  -0.00649   1.85634
   A23        1.90101  -0.00968   0.00000  -0.03833  -0.03875   1.86226
   A24        1.85904   0.00503   0.00000   0.04689   0.04724   1.90628
   A25        1.93760  -0.00267   0.00000  -0.02621  -0.02656   1.91104
   A26        1.97969  -0.00489   0.00000  -0.02818  -0.02887   1.95083
   A27        1.89043   0.00398   0.00000   0.02093   0.02102   1.91145
   A28        1.89755   0.00182   0.00000   0.00089   0.00004   1.89758
   A29        1.86584  -0.00128   0.00000  -0.00643  -0.00622   1.85962
   A30        1.88872   0.00338   0.00000   0.04204   0.04224   1.93096
   A31        1.95054  -0.00408   0.00000  -0.03424  -0.03432   1.91622
   A32        1.91461  -0.00633   0.00000  -0.02731  -0.02899   1.88562
   A33        1.94505   0.01144   0.00000   0.05193   0.05175   1.99680
   A34        1.88339   0.00231   0.00000  -0.00109  -0.00180   1.88160
   A35        1.90733  -0.00571   0.00000  -0.03594  -0.03516   1.87216
   A36        1.85971   0.00241   0.00000   0.04895   0.04875   1.90847
   A37        1.85173   0.00140   0.00000   0.00783   0.00783   1.85956
   A38        1.83145   0.00176   0.00000   0.00990   0.00990   1.84136
   A39        1.81388   0.00394   0.00000   0.02209   0.02209   1.83597
   A40        1.81435   0.00593   0.00000   0.03330   0.03330   1.84766
   A41        1.83573   0.00559   0.00000   0.03137   0.03137   1.86710
   A42        1.81702   0.00615   0.00000   0.03454   0.03454   1.85156
    D1        1.13549  -0.00057   0.00000  -0.02786  -0.02792   1.10757
    D2       -1.11693   0.00090   0.00000   0.01741   0.01711  -1.09982
    D3       -3.10507  -0.00331   0.00000  -0.03659  -0.03647  -3.14154
    D4       -1.07287   0.00184   0.00000   0.01276   0.01283  -1.06004
    D5        2.95789   0.00330   0.00000   0.05803   0.05786   3.01575
    D6        0.96975  -0.00090   0.00000   0.00403   0.00428   0.97403
    D7       -3.02625  -0.00045   0.00000  -0.04364  -0.04358  -3.06983
    D8        1.00452   0.00102   0.00000   0.00163   0.00145   1.00596
    D9       -0.98362  -0.00319   0.00000  -0.05236  -0.05213  -1.03576
   D10        0.91624  -0.00384   0.00000  -0.04506  -0.04518   0.87106
   D11       -1.30074   0.00036   0.00000   0.01714   0.01716  -1.28358
   D12        2.99186  -0.00064   0.00000  -0.02280  -0.02308   2.96877
   D13        3.13225  -0.00596   0.00000  -0.09141  -0.09129   3.04096
   D14        0.91527  -0.00176   0.00000  -0.02922  -0.02895   0.88632
   D15       -1.07532  -0.00275   0.00000  -0.06916  -0.06920  -1.14452
   D16       -1.18531   0.00125   0.00000  -0.00024  -0.00023  -1.18554
   D17        2.88089   0.00544   0.00000   0.06195   0.06212   2.94301
   D18        0.89030   0.00445   0.00000   0.02201   0.02187   0.91217
   D19       -3.00869  -0.00059   0.00000   0.01823   0.01771  -2.99099
   D20       -0.77239   0.00013   0.00000  -0.00239  -0.00312  -0.77551
   D21        1.25034   0.00172   0.00000   0.02861   0.02986   1.28020
   D22       -1.52501   0.00237   0.00000   0.00030  -0.00002  -1.52503
   D23        2.67792   0.00238   0.00000   0.03183   0.03166   2.70958
   D24        0.64713  -0.00107   0.00000  -0.00332  -0.00290   0.64423
   D25        0.73826  -0.00066   0.00000  -0.05228  -0.05266   0.68560
   D26       -1.34199  -0.00065   0.00000  -0.02075  -0.02098  -1.36298
   D27        2.91041  -0.00410   0.00000  -0.05591  -0.05554   2.85486
   D28        2.71635   0.00096   0.00000  -0.01293  -0.01312   2.70323
   D29        0.63610   0.00097   0.00000   0.01860   0.01856   0.65465
   D30       -1.39469  -0.00248   0.00000  -0.01656  -0.01600  -1.41069
   D31        0.78287  -0.00265   0.00000  -0.03099  -0.03055   0.75233
   D32        2.97034   0.00124   0.00000  -0.01641  -0.01624   2.95410
   D33       -1.27786  -0.00062   0.00000  -0.02400  -0.02461  -1.30247
   D34        1.18570  -0.00224   0.00000  -0.02081  -0.02064   1.16506
   D35       -0.95697   0.00100   0.00000   0.01873   0.01826  -0.93871
   D36       -3.05400  -0.00291   0.00000  -0.03093  -0.03098  -3.08498
   D37       -2.88575  -0.00397   0.00000  -0.07348  -0.07278  -2.95853
   D38        1.25477  -0.00074   0.00000  -0.03394  -0.03387   1.22089
   D39       -0.84227  -0.00465   0.00000  -0.08360  -0.08312  -0.92538
   D40       -0.88938   0.00221   0.00000  -0.00105  -0.00106  -0.89044
   D41       -3.03205   0.00545   0.00000   0.03849   0.03784  -2.99421
   D42        1.15410   0.00154   0.00000  -0.01117  -0.01140   1.14270
   D43       -2.94259  -0.00134   0.00000   0.00169   0.00141  -2.94117
   D44       -0.78656   0.00144   0.00000   0.00856   0.00749  -0.77908
   D45        1.28310   0.00053   0.00000   0.01206   0.01340   1.29651
   D46       -0.77702   0.00221   0.00000   0.03728   0.03757  -0.73945
   D47       -2.86519   0.00613   0.00000   0.07863   0.07806  -2.78713
   D48        1.36271   0.00015   0.00000   0.00365   0.00348   1.36620
   D49        1.31456  -0.00234   0.00000  -0.02405  -0.02373   1.29083
   D50       -0.77361   0.00157   0.00000   0.01730   0.01677  -0.75684
   D51       -2.82889  -0.00440   0.00000  -0.05768  -0.05781  -2.88671
   D52       -2.96787  -0.00109   0.00000   0.00825   0.00895  -2.95893
   D53        1.22715   0.00282   0.00000   0.04960   0.04944   1.27659
   D54       -0.82814  -0.00315   0.00000  -0.02538  -0.02514  -0.85328
   D55        1.05464  -0.00397   0.00000  -0.03329  -0.03275   1.02189
   D56       -2.99430   0.00237   0.00000   0.00066   0.00077  -2.99353
   D57       -0.99109   0.00054   0.00000  -0.00190  -0.00255  -0.99363
   D58        1.30609  -0.00034   0.00000  -0.00457  -0.00417   1.30193
   D59       -2.88798  -0.00206   0.00000  -0.02787  -0.02788  -2.91586
   D60       -0.84686   0.00112   0.00000  -0.00882  -0.00922  -0.85608
   D61        0.94305   0.00005   0.00000   0.00427   0.00546   0.94852
   D62        3.10741  -0.00135   0.00000  -0.02922  -0.02899   3.07842
   D63       -1.14506  -0.00023   0.00000  -0.02234  -0.02376  -1.16882
         Item               Value     Threshold  Converged?
 Maximum Force            0.020127     0.000450     NO 
 RMS     Force            0.005990     0.000300     NO 
 Maximum Displacement     0.243233     0.001800     NO 
 RMS     Displacement     0.067851     0.001200     NO 
 Predicted change in Energy=-1.036013D-02
 GradGradGradGradGradGradGradGradGradGradGradGradGradGradGradGradGradGrad

                          Input orientation:                          
 ---------------------------------------------------------------------
 Center     Atomic      Atomic             Coordinates (Angstroms)
 Number     Number       Type             X           Y           Z
 ---------------------------------------------------------------------
      1          6           0       -0.022983    0.007471   -0.009877
      2          6           0        1.499424   -0.000505   -0.015687
      3          6           0       -0.737423    0.566329    1.201719
      4          6           0        2.237180   -0.844254    1.026285
      5          1           0        1.871644    1.027006    0.024626
      6          1           0       -0.378536   -1.011902   -0.179992
      7          6           0       -0.255887    1.931432    1.656871
      8          1           0       -0.657828   -0.133783    2.028862
      9          6           0        2.527864   -0.193398    2.371668
     10          1           0        3.209142   -1.054075    0.568885
     11          1           0       -0.503612    2.674388    0.901353
     12          1           0        0.823073    1.945887    1.822015
     13          1           0        2.866581    0.830109    2.220494
     14          1           0        3.342193   -0.748609    2.847905
     15          8           0       -0.950627    2.310607    2.842258
     16          1           0       -0.579474    1.787283    3.555734
     17          8           0       -2.116122    0.654515    0.811908
     18          1           0       -2.544320    1.173429    1.498020
     19          8           0       -0.358743    0.804420   -1.157708
     20          1           0       -1.309872    0.941592   -1.100137
     21          8           0        1.892643   -0.577662   -1.269756
     22          1           0        1.316358   -0.183702   -1.933033
     23          8           0        1.573603   -2.073100    1.301258
     24          1           0        1.508552   -2.548173    0.470705
     25          8           0        1.414434   -0.143317    3.252291
     26          1           0        1.094136   -1.046090    3.328133
 ---------------------------------------------------------------------
                    Distance matrix (angstroms):
                    1          2          3          4          5
     1  C    0.000000
     2  C    1.522440   0.000000
     3  C    1.513509   2.608997   0.000000
     4  C    2.628194   1.530328   3.296784   0.000000
     5  H    2.151803   1.093596   2.899138   2.153729   0.000000
     6  H    1.092921   2.139311   2.128083   2.885339   3.043406
     7  C    2.556154   3.100153   1.517414   3.783841   2.829947
     8  H    2.139962   2.975178   1.086581   3.144997   3.429668
     9  C    3.495558   2.606600   3.550784   1.522552   2.725549
    10  H    3.450867   2.091619   4.312953   1.094508   2.532986
    11  H    2.858984   3.465281   2.142149   4.461882   3.020655
    12  H    2.798052   2.760986   2.173268   3.227657   2.274742
    13  H    3.741773   2.749462   3.754507   2.150761   2.418781
    14  H    4.479172   3.486490   4.591541   2.132721   3.645027
    15  O    3.781486   4.417221   2.404024   4.838700   4.189498
    16  H    4.023803   4.502561   2.656513   4.610492   4.365172
    17  O    2.339921   3.766450   1.435459   4.609068   4.081770
    18  H    3.160752   4.474517   1.929052   5.211173   4.657582
    19  O    1.437142   2.324844   2.401454   3.771839   2.534183
    20  H    1.928038   3.155269   2.401471   4.504719   3.375564
    21  O    2.366284   1.435416   3.786047   2.337002   2.061753
    22  H    2.351364   1.934758   3.821941   3.168881   2.367823
    23  O    2.932054   2.456725   3.509606   1.423379   3.365899
    24  H    3.017926   2.593699   3.908824   1.934660   3.621150
    25  O    3.568003   3.272202   3.055966   2.474536   3.463599
    26  H    3.674270   3.526846   3.236687   2.577943   3.976858
                    6          7          8          9         10
     6  H    0.000000
     7  C    3.471646   0.000000
     8  H    2.393352   2.136597   0.000000
     9  C    3.953236   3.574228   3.204638   0.000000
    10  H    3.665246   4.701424   4.234611   2.110670   0.000000
    11  H    3.843655   1.088191   3.029997   4.424463   5.272240
    12  H    3.768343   1.091621   2.561421   2.790156   4.032795
    13  H    4.436904   3.358628   3.658861   1.088646   2.528895
    14  H    4.804300   4.641913   4.129044   1.094619   2.303246
    15  O    4.527731   1.425335   2.592756   4.311774   5.813174
    16  H    4.672415   1.931623   2.455192   3.870486   5.598946
    17  O    2.603847   2.409347   2.056456   4.971762   5.597927
    18  H    3.504571   2.415932   2.355727   5.325273   6.239182
    19  O    2.062848   3.033577   3.335252   4.667401   4.377777
    20  H    2.351636   3.113159   3.372274   5.298099   5.214385
    21  O    2.556248   4.413262   4.193187   3.716333   2.311004
    22  H    2.575215   4.453443   4.426796   4.471945   3.255730
    23  O    2.670410   4.416987   3.044609   2.364249   2.061497
    24  H    2.518856   4.958538   3.598658   3.193372   2.265828
    25  O    3.968595   3.104822   2.406478   1.420469   3.354270
    26  H    3.804849   3.671691   2.364273   1.922885   3.476602
                   11         12         13         14         15
    11  H    0.000000
    12  H    1.771560   0.000000
    13  H    4.061981   2.362132   0.000000
    14  H    5.504197   3.828670   1.764144   0.000000
    15  O    2.024666   2.078444   4.141200   5.271350   0.000000
    16  H    2.799723   2.235637   3.817635   4.723477   0.959515
    17  O    2.586132   3.365535   5.180953   5.992265   2.867637
    18  H    2.602572   3.470014   5.469706   6.337779   2.374870
    19  O    2.785228   3.402702   4.670719   5.670428   4.314934
    20  H    2.767417   3.754602   5.336832   6.331312   4.188763
    21  O    4.586020   4.131746   3.887443   4.368701   5.773642
    22  H    4.417546   4.344982   4.547833   5.223073   5.845015
    23  O    5.197441   4.121497   3.308385   2.697092   5.288034
    24  H    5.613324   4.742625   4.039653   3.500250   5.939661
    25  O    4.140685   2.600032   2.029999   2.060621   3.432693
    26  H    4.720595   3.360624   2.808656   2.317946   3.960372
                   16         17         18         19         20
    16  H    0.000000
    17  O    3.342608   0.000000
    18  H    2.910605   0.960924   0.000000
    19  O    4.819883   2.643907   3.459163   0.000000
    20  H    4.788090   2.094844   2.885833   0.962693   0.000000
    21  O    5.915207   4.682071   5.514848   2.644134   3.548663
    22  H    6.132334   4.474286   5.340296   2.093675   2.976086
    23  O    4.961951   4.614480   5.247472   4.249776   4.813470
    24  H    5.716068   4.848907   5.597452   4.168741   4.752843
    25  O    2.791946   4.365413   4.525817   4.846695   5.248095
    26  H    3.298602   4.419186   4.638312   5.065374   5.416614
                   21         22         23         24         25
    21  O    0.000000
    22  H    0.962936   0.000000
    23  O    2.991360   3.754550   0.000000
    24  H    2.656999   3.377221   0.959033   0.000000
    25  O    4.567959   5.186409   2.748805   3.678235   0.000000
    26  H    4.690162   5.336007   2.322253   3.254672   0.960907
                   26
    26  H    0.000000
 Stoichiometry    C6H14O6
 Framework group  C1[X(C6H14O6)]
 Deg. of freedom    72
 Full point group                 C1      NOp   1
 Largest Abelian subgroup         C1      NOp   1
 Largest concise Abelian subgroup C1      NOp   1
                         Standard orientation:                         
 ---------------------------------------------------------------------
 Center     Atomic      Atomic             Coordinates (Angstroms)
 Number     Number       Type             X           Y           Z
 ---------------------------------------------------------------------
      1          6           0        0.139790    1.145784    0.286683
      2          6           0       -1.058853    0.761176   -0.569561
      3          6           0        1.250134    0.133840    0.470579
      4          6           0       -1.950997   -0.395577   -0.113596
      5          1           0       -0.732202    0.579880   -1.597365
      6          1           0       -0.218459    1.447749    1.274079
      7          6           0        1.766607   -0.491411   -0.811943
      8          1           0        0.920405   -0.653205    1.143258
      9          6           0       -1.549394   -1.798751   -0.547163
     10          1           0       -2.919717   -0.193767   -0.581361
     11          1           0        2.266450    0.267663   -1.410376
     12          1           0        0.959548   -0.928322   -1.403045
     13          1           0       -1.233360   -1.786397   -1.588854
     14          1           0       -2.431841   -2.442124   -0.472670
     15          8           0        2.749942   -1.474907   -0.499905
     16          1           0        2.276427   -2.235078   -0.155530
     17          8           0        2.312622    0.859872    1.106613
     18          1           0        3.080289    0.283644    1.061625
     19          8           0        0.670061    2.303739   -0.379147
     20          1           0        1.507242    2.485915    0.059848
     21          8           0       -1.936043    1.897370   -0.564984
     22          1           0       -1.369688    2.667607   -0.679981
     23          8           0       -2.112305   -0.434740    1.300071
     24          1           0       -2.493439    0.405484    1.561805
     25          8           0       -0.488596   -2.365581    0.208579
     26          1           0       -0.760831   -2.315439    1.128751
 ---------------------------------------------------------------------
 Rotational constants (GHZ):           1.0504888           0.7913837           0.5446231
 Standard basis: def2TZVPP (5D, 7F)
 There are   642 symmetry adapted cartesian basis functions of A   symmetry.
 There are   568 symmetry adapted basis functions of A   symmetry.
   568 basis functions,   850 primitive gaussians,   642 cartesian basis functions
    49 alpha electrons       49 beta electrons
       nuclear repulsion energy       849.9285718368 Hartrees.
 NAtoms=   26 NActive=   26 NUniq=   26 SFac= 1.00D+00 NAtFMM=   60 NAOKFM=F Big=F
 Integral buffers will be    131072 words long.
 Raffenetti 2 integral format.
 Two-electron integral symmetry is turned on.
 Nuclear repulsion after empirical dispersion term =      849.9080729826 Hartrees.
 One-electron integrals computed using PRISM.
   1 Symmetry operations used in ECPInt.
 ECPInt:  NShTT=   23436 NPrTT=   62434 LenC2=   22296 LenP2D=   46707.
 LDataN:  DoStor=T MaxTD1= 6 Len=  172
 NBasis=   568 RedAO= T EigKep=  5.27D-05  NBF=   568
[...]
   A10        1.88509   0.00286   0.00000   0.00873   0.00869   1.89377
   A11        1.79649   0.00427   0.00000   0.01302   0.01313   1.80962
   A12        1.91366  -0.00202   0.00000  -0.00615  -0.00628   1.90738
   A13        2.00737  -0.00134   0.00000  -0.00409  -0.00409   2.00328
   A14        1.89867   0.00003   0.00000   0.00008   0.00008   1.89875
   A15        1.83526   0.00072   0.00000   0.00220   0.00220   1.83746
   A16        1.89307   0.00029   0.00000   0.00089   0.00089   1.89396
   A17        1.90940   0.00066   0.00000   0.00200   0.00200   1.91141
   A18        1.91884  -0.00035   0.00000  -0.00107  -0.00107   1.91777
   A19        2.09542  -0.00977   0.00000  -0.02981  -0.02977   2.06566
   A20        1.79749   0.00289   0.00000   0.00882   0.00887   1.80636
   A21        1.95075   0.00217   0.00000   0.00663   0.00665   1.95740
   A22        1.83871   0.00273   0.00000   0.00834   0.00837   1.84708
   A23        1.85453   0.00392   0.00000   0.01196   0.01194   1.86647
   A24        1.91952  -0.00182   0.00000  -0.00556  -0.00565   1.91387
   A25        1.92368  -0.00009   0.00000  -0.00027  -0.00027   1.92342
   A26        1.93122  -0.00066   0.00000  -0.00202  -0.00202   1.92921
   A27        1.91938   0.00052   0.00000   0.00158   0.00158   1.92095
   A28        1.89473   0.00023   0.00000   0.00069   0.00069   1.89542
   A29        1.85835  -0.00020   0.00000  -0.00061  -0.00061   1.85774
   A30        1.93504   0.00022   0.00000   0.00068   0.00068   1.93571
   A31        1.91644   0.00158   0.00000   0.00483   0.00482   1.92126
   A32        1.87310   0.00079   0.00000   0.00241   0.00244   1.87554
   A33        2.00721  -0.00602   0.00000  -0.01837  -0.01836   1.98884
   A34        1.87721  -0.00046   0.00000  -0.00141  -0.00144   1.87577
   A35        1.87459   0.00101   0.00000   0.00308   0.00307   1.87766
   A36        1.91160   0.00339   0.00000   0.01035   0.01035   1.92194
   A37        1.88863   0.00035   0.00000   0.00108   0.00108   1.88972
   A38        1.86202  -0.00008   0.00000  -0.00023  -0.00023   1.86179
   A39        1.85322   0.00017   0.00000   0.00053   0.00053   1.85375
   A40        1.86376   0.00022   0.00000   0.00067   0.00067   1.86443
   A41        1.87486   0.00149   0.00000   0.00456   0.00456   1.87942
   A42        1.86165   0.00013   0.00000   0.00039   0.00039   1.86204
    D1        1.21045  -0.00328   0.00000  -0.01000  -0.00998   1.20047
    D2       -0.97666  -0.00061   0.00000  -0.00185  -0.00183  -0.97850
    D3       -3.03823  -0.00180   0.00000  -0.00550  -0.00554  -3.04377
    D4       -0.92571  -0.00118   0.00000  -0.00359  -0.00355  -0.92926
    D5       -3.11282   0.00150   0.00000   0.00457   0.00460  -3.10823
    D6        1.10880   0.00030   0.00000   0.00092   0.00089   1.10969
    D7       -2.95332  -0.00160   0.00000  -0.00487  -0.00486  -2.95818
    D8        1.14275   0.00108   0.00000   0.00328   0.00328   1.14603
    D9       -0.91881  -0.00012   0.00000  -0.00037  -0.00042  -0.91924
   D10        0.85605   0.00036   0.00000   0.00109   0.00106   0.85711
   D11       -1.27085   0.00088   0.00000   0.00269   0.00265  -1.26820
   D12        2.95752   0.00090   0.00000   0.00273   0.00270   2.96022
   D13        2.99685  -0.00116   0.00000  -0.00355  -0.00355   2.99329
   D14        0.86995  -0.00064   0.00000  -0.00196  -0.00196   0.86799
   D15       -1.18487  -0.00063   0.00000  -0.00191  -0.00191  -1.18678
   D16       -1.22089  -0.00013   0.00000  -0.00039  -0.00035  -1.22125
   D17        2.93539   0.00040   0.00000   0.00121   0.00124   2.93663
   D18        0.88058   0.00041   0.00000   0.00125   0.00129   0.88186
   D19       -2.97191   0.00332   0.00000   0.01014   0.01011  -2.96180
   D20       -0.73610  -0.00339   0.00000  -0.01036  -0.01032  -0.74642
   D21        1.30458  -0.00019   0.00000  -0.00057  -0.00056   1.30402
   D22       -1.35341   0.00242   0.00000   0.00737   0.00732  -1.34609
   D23        2.89516   0.00206   0.00000   0.00630   0.00628   2.90144
   D24        0.83538   0.00152   0.00000   0.00462   0.00459   0.83997
   D25        0.83908  -0.00016   0.00000  -0.00048  -0.00051   0.83857
   D26       -1.19554  -0.00051   0.00000  -0.00155  -0.00155  -1.19709
   D27        3.02787  -0.00106   0.00000  -0.00322  -0.00324   3.02464
   D28        2.86252   0.00077   0.00000   0.00234   0.00238   2.86490
   D29        0.82790   0.00042   0.00000   0.00127   0.00134   0.82924
   D30       -1.23187  -0.00013   0.00000  -0.00040  -0.00035  -1.23222
   D31        0.68693   0.00456   0.00000   0.01392   0.01387   0.70080
   D32        2.91690  -0.00449   0.00000  -0.01370  -0.01364   2.90326
   D33       -1.36342   0.00006   0.00000   0.00020   0.00019  -1.36323
   D34        0.95256   0.00029   0.00000   0.00089   0.00089   0.95345
   D35       -1.14334   0.00049   0.00000   0.00150   0.00150  -1.14184
   D36        2.99620   0.00031   0.00000   0.00093   0.00093   2.99713
   D37        3.08249  -0.00037   0.00000  -0.00112  -0.00112   3.08136
   D38        0.98659  -0.00017   0.00000  -0.00051  -0.00051   0.98608
   D39       -1.15706  -0.00035   0.00000  -0.00108  -0.00108  -1.15814
   D40       -1.10768  -0.00023   0.00000  -0.00071  -0.00071  -1.10839
   D41        3.07961  -0.00003   0.00000  -0.00010  -0.00010   3.07951
   D42        0.93596  -0.00022   0.00000  -0.00067  -0.00067   0.93530
   D43       -2.81086   0.00036   0.00000   0.00109   0.00109  -2.80977
   D44       -0.64591  -0.00044   0.00000  -0.00135  -0.00135  -0.64726
   D45        1.43122   0.00010   0.00000   0.00032   0.00032   1.43154
   D46       -0.74085  -0.00023   0.00000  -0.00071  -0.00071  -0.74157
   D47       -2.77632  -0.00097   0.00000  -0.00294  -0.00295  -2.77927
   D48        1.37537  -0.00194   0.00000  -0.00591  -0.00592   1.36945
   D49        1.27240  -0.00004   0.00000  -0.00012  -0.00014   1.27225
   D50       -0.76307  -0.00077   0.00000  -0.00235  -0.00238  -0.76545
   D51       -2.89457  -0.00174   0.00000  -0.00532  -0.00535  -2.89992
   D52       -2.97418   0.00094   0.00000   0.00287   0.00290  -2.97128
   D53        1.27354   0.00021   0.00000   0.00063   0.00067   1.27421
   D54       -0.85796  -0.00077   0.00000  -0.00234  -0.00231  -0.86026
   D55        0.88041   0.00393   0.00000   0.01198   0.01198   0.89239
   D56       -3.08657  -0.00413   0.00000  -0.01260  -0.01260  -3.09917
   D57       -1.10488   0.00024   0.00000   0.00073   0.00073  -1.10415
   D58        1.27782  -0.00009   0.00000  -0.00027  -0.00027   1.27755
   D59       -2.92139  -0.00003   0.00000  -0.00009  -0.00009  -2.92148
   D60       -0.86358   0.00024   0.00000   0.00074   0.00074  -0.86284
   D61        0.87051  -0.00003   0.00000  -0.00010  -0.00013   0.87038
   D62        3.00936  -0.00126   0.00000  -0.00384  -0.00384   3.00552
   D63       -1.24008   0.00054   0.00000   0.00165   0.00169  -1.23839
         Item               Value     Threshold  Converged?
 Maximum Force            0.016388     0.000450     NO 
 RMS     Force            0.002893     0.000300     NO 
 Maximum Displacement     0.262087     0.001800     NO 
 RMS     Displacement     0.066840     0.001200     NO 
 Predicted change in Energy=-3.432415D-04
 GradGradGradGradGradGradGradGradGradGradGradGradGradGradGradGradGradGrad

                          Input orientation:                          
 ---------------------------------------------------------------------
 Center     Atomic      Atomic             Coordinates (Angstroms)
 Number     Number       Type             X           Y           Z
 ---------------------------------------------------------------------
      1          6           0       -0.034335   -0.028107    0.075581
      2          6           0        1.491185    0.006001   -0.001452
      3          6           0       -0.697175    0.622726    1.284816
      4          6           0        2.290427   -0.825383    0.999415
      5          1           0        1.832132    1.047736    0.060009
      6          1           0       -0.355615   -1.075441    0.047539
      7          6           0       -0.207654    2.026757    1.600909
      8          1           0       -0.528999   -0.009286    2.161387
      9          6           0        2.433307   -0.303867    2.419563
     10          1           0        3.303757   -0.828557    0.578326
     11          1           0       -0.306235    2.666010    0.723961
     12          1           0        0.842874    2.007791    1.902185
     13          1           0        2.634559    0.768449    2.406387
     14          1           0        3.304302   -0.796444    2.864398
     15          8           0       -1.014286    2.606931    2.613393
     16          1           0       -0.797940    2.188604    3.445492
     17          8           0       -2.083284    0.661676    0.976118
     18          1           0       -2.477360    1.318458    1.558261
     19          8           0       -0.464856    0.624169   -1.111266
     20          1           0       -1.412068    0.763672   -1.012751
     21          8           0        1.862655   -0.535480   -1.260312
     22          1           0        1.231887   -0.199019   -1.905525
     23          8           0        1.810247   -2.152798    1.094077
     24          1           0        1.751811   -2.509915    0.193969
     25          8           0        1.295080   -0.513441    3.223107
     26          1           0        1.056983   -1.435344    3.127213
 ---------------------------------------------------------------------
                    Distance matrix (angstroms):
                    1          2          3          4          5
     1  C    0.000000
     2  C    1.527845   0.000000
     3  C    1.524858   2.612233   0.000000
     4  C    2.625574   1.526998   3.332303   0.000000
     5  H    2.154386   1.097832   2.842214   2.145017   0.000000
     6  H    1.095863   2.140698   2.128683   2.823143   3.048651
     7  C    2.564982   3.088215   1.520148   3.838868   2.737441
     8  H    2.143743   2.959603   1.093663   3.156795   3.332870
     9  C    3.414609   2.616281   3.456320   1.519610   2.784913
    10  H    3.469342   2.077991   4.314257   1.097344   2.440248
    11  H    2.784348   3.291291   2.154624   4.359858   2.762653
    12  H    2.872431   2.837482   2.161319   3.307156   2.300858
    13  H    3.631826   2.772422   3.518468   2.153671   2.495473
    14  H    4.417504   3.484883   4.530005   2.122955   3.665090
    15  O    3.787377   4.458659   2.408888   5.030590   4.129522
    16  H    4.105265   4.678170   2.670327   4.960385   4.436254
    17  O    2.341999   3.763294   1.420601   4.619658   4.039651
    18  H    3.159106   4.461457   1.930770   5.257391   4.570532
    19  O    1.421062   2.332363   2.407319   3.761351   2.612939
    20  H    1.926013   3.166334   2.410343   4.503596   3.428751
    21  O    2.374996   1.419830   3.791022   2.318060   2.061736
    22  H    2.357394   1.932553   3.817699   3.154602   2.403750
    23  O    2.992345   2.441802   3.745275   1.414766   3.363510
    24  H    3.060017   2.536917   4.123217   1.943321   3.561078
    25  O    3.451060   3.272012   3.002820   2.456182   3.568037
    26  H    3.533235   3.471966   3.272178   2.533961   4.021726
                    6          7          8          9         10
     6  H    0.000000
     7  C    3.472533   0.000000
     8  H    2.373837   2.136088   0.000000
     9  C    3.741646   3.616169   2.988091   0.000000
    10  H    3.705899   4.639882   4.226973   2.103126   0.000000
    11  H    3.802426   1.089679   3.045165   4.381818   5.026455
    12  H    3.792414   1.093040   2.453124   2.853230   3.981635
    13  H    4.231459   3.210967   3.266955   1.091118   2.517949
    14  H    4.626827   4.679819   3.975932   1.095053   2.286298
    15  O    4.536223   1.418584   2.698964   4.516216   5.881290
    16  H    4.732412   1.943480   2.559682   4.207837   5.843613
    17  O    2.620053   2.402456   2.066604   4.838946   5.603503
    18  H    3.537631   2.378039   2.433675   5.242941   6.244298
    19  O    2.059960   3.064197   3.334012   4.661261   4.378079
    20  H    2.371212   3.142804   3.384144   5.263775   5.225488
    21  O    2.631112   4.363236   4.207720   3.731055   2.354412
    22  H    2.665096   4.395616   4.435819   4.490077   3.295220
    23  O    2.635697   4.668778   3.347516   2.358742   2.061597
    24  H    2.553508   5.138130   3.914840   3.206922   2.320178
    25  O    3.622827   3.367840   2.169951   1.408958   3.336007
    26  H    3.407250   3.989367   2.341324   1.917101   3.451522
                   11         12         13         14         15
    11  H    0.000000
    12  H    1.772545   0.000000
    13  H    3.883242   2.236140   0.000000
    14  H    5.441143   3.853338   1.762731   0.000000
    15  O    2.018609   2.076976   4.091080   5.504195   0.000000
    16  H    2.806496   2.259814   3.857282   5.106521   0.956134
    17  O    2.690510   3.351421   4.931036   5.892180   2.758159
    18  H    2.688074   3.408433   5.210907   6.293363   2.216766
    19  O    2.749970   3.564471   4.690531   5.659558   4.255150
    20  H    2.803199   3.889659   5.297709   6.301618   4.087145
    21  O    4.346373   4.184443   3.967462   4.377177   5.758222
    22  H    4.181914   4.418144   4.636386   5.234881   5.774017
    23  O    5.276115   4.347338   3.306862   2.684387   5.739453
    24  H    5.595234   4.914654   4.052371   3.532336   6.299763
    25  O    4.349581   2.882002   2.025951   2.060518   3.929586
    26  H    4.945208   3.660835   2.804468   2.351107   4.571012
                   16         17         18         19         20
    16  H    0.000000
    17  O    3.175126   0.000000
    18  H    2.671937   0.962054   0.000000
    19  O    4.829332   2.641569   3.414467   0.000000
    20  H    4.720542   2.101556   2.837735   0.962484   0.000000
    21  O    6.053427   4.690974   5.497014   2.604670   3.531698
    22  H    6.201155   4.476050   5.297081   2.046320   2.952002
    23  O    5.583866   4.805701   5.536123   4.213215   4.829890
    24  H    6.256972   5.037728   5.865460   4.054594   4.709849
    25  O    3.425089   4.224121   4.512081   4.814387   5.186729
    26  H    4.083508   4.345800   4.747274   4.951999   5.298224
                   21         22         23         24         25
    21  O    0.000000
    22  H    0.963002   0.000000
    23  O    2.856853   3.626205   0.000000
    24  H    2.454712   3.165191   0.970124   0.000000
    25  O    4.519256   5.138649   2.735993   3.656526   0.000000
    26  H    4.550740   5.185319   2.283810   3.200220   0.956970
                   26
    26  H    0.000000
 Stoichiometry    C6H14O6
 Framework group  C1[X(C6H14O6)]
 Deg. of freedom    72
 Full point group                 C1      NOp   1
 Largest Abelian subgroup         C1      NOp   1
 Largest concise Abelian subgroup C1      NOp   1
                         Standard orientation:                         
 ---------------------------------------------------------------------
 Center     Atomic      Atomic             Coordinates (Angstroms)
 Number     Number       Type             X           Y           Z
 ---------------------------------------------------------------------
      1          6           0        0.135446    1.052381    0.345403
      2          6           0       -1.009511    0.743698   -0.617976
      3          6           0        1.258369    0.027432    0.462506
      4          6           0       -1.963407   -0.398173   -0.274557
      5          1           0       -0.599088    0.565304   -1.620455
      6          1           0       -0.287537    1.193692    1.346418
      7          6           0        1.829599   -0.446214   -0.864222
      8          1           0        0.885548   -0.842514    1.010501
      9          6           0       -1.494229   -1.824858   -0.506190
     10          1           0       -2.804864   -0.244455   -0.961932
     11          1           0        2.154322    0.406431   -1.460001
     12          1           0        1.076243   -1.000256   -1.430108
     13          1           0       -0.971962   -1.897027   -1.461474
     14          1           0       -2.385682   -2.457595   -0.570196
     15          8           0        2.982246   -1.242498   -0.641248
     16          1           0        2.700093   -2.088355   -0.296128
     17          8           0        2.276679    0.672071    1.214566
     18          1           0        3.090678    0.186374    1.050089
     19          8           0        0.665142    2.287607   -0.116179
     20          1           0        1.486308    2.425059    0.366697
     21          8           0       -1.851872    1.886128   -0.652616
     22          1           0       -1.275506    2.657598   -0.649485
     23          8           0       -2.421599   -0.326772    1.062053
     24          1           0       -2.760018    0.570287    1.210028
     25          8           0       -0.625819   -2.310501    0.491396
     26          1           0       -1.044372   -2.128409    1.332494
 ---------------------------------------------------------------------
 Rotational constants (GHZ):           1.1027696           0.7411492           0.5360783
 Standard basis: def2TZVPP (5D, 7F)
 There are   642 symmetry adapted cartesian basis functions of A   symmetry.
 There are   568 symmetry adapted basis functions of A   symmetry.
   568 basis functions,   850 primitive gaussians,   642 cartesian basis functions
    49 alpha electrons       49 beta electrons
       nuclear repulsion energy       848.7558706762 Hartrees.
 NAtoms=   26 NActive=   26 NUniq=   26 SFac= 1.00D+00 NAtFMM=   60 NAOKFM=F Big=F
 Integral buffers will be    131072 words long.
 Raffenetti 2 integral format.
 Two-electron integral symmetry is turned on.
 Nuclear repulsion after empirical dispersion term =      848.7355940907 Hartrees.
 One-electron integrals computed using PRISM.
   1 Symmetry operations used in ECPInt.
 ECPInt:  NShTT=   23436 NPrTT=   62434 LenC2=   22273 LenP2D=   46598.
 LDataN:  DoStor=T MaxTD1= 6 Len=  172
 NBasis=   568 RedAO= T EigKep=  5.80D-05  NBF=   568
 NBsUse=   568 1.00D-06 EigRej= -1.00D+00 NBFU=   568
 Initial guess from the checkpoint file:  "MannitolConformerOpt_26.chk"
 B after Tr=     0.000000    0.000000    0.000000
         Rot=    0.999484   -0.001113   -0.001208   -0.032078 Ang=  -3.68 deg.
 ExpMin= 9.52D-02 ExpMax= 2.70D+04 ExpMxC= 9.22D+02 IAcc=3 IRadAn=         5 AccDes= 0.00D+00
 Harris functional with IExCor= 4639 and IRadAn=       5 diagonalized for initial guess.
 HarFok:  IExCor= 4639 AccDes= 0.00D+00 IRadAn=         5 IDoV= 1 UseB2=F ITyADJ=14
 ICtDFT=  3500011 ScaDFX=  1.000000  1.000000  1.000000  1.000000
 FoFCou: FMM=F IPFlag=           0 FMFlag=      100000 FMFlg1=           0
         NFxFlg=           0 DoJE=T BraDBF=F KetDBF=T FulRan=T
         wScrn=  0.000000 ICntrl=       500 IOpCl=  0 I1Cent=   200000004 NGrid=           0
         NMat0=    1 NMatS0=      1 NMatT0=    0 NMatD0=    1 NMtDS0=    0 NMtDT0=    0
 Petite list used in FoFCou.
 Requested convergence on RMS density matrix=1.00D-08 within 128 cycles.
 Requested convergence on MAX density matrix=1.00D-06.
 Requested convergence on             energy=1.00D-06.
 No special actions if energy rises.
 Integral accuracy reduced to 1.0D-05 until final iterations.
 Initial convergence to 1.0D-05 achieved.  Increase integral accuracy.
 SCF Done:  E(RwB97XD) =  -688.477596986     A.U. after   11 cycles
            NFock= 11  Conv=0.75D-08     -V/T= 2.0043
ntrbks
ntrbks: Resource temporarily unavailable
