 Entering Gaussian System, Link 0=/opt/software/gaussian/g16.c01/g16
 Initial command:
 /opt/software/gaussian/g16.c01/l1.exe "/scratch/arhender/13209917/Gau-200632.inp" -scrdir="/scratch/arhender/13209917/"
 Entering Link 1 = /opt/software/gaussian/g16.c01/l1.exe PID=    200633.
  
 Copyright (c) 1988-2019, Gaussian, Inc.  All Rights Reserved.
  
 This is part of the Gaussian(R) 16 program.  It is based on
 the Gaussian(R) 09 system (copyright 2009, Gaussian, Inc.),
 the Gaussian(R) 03 system (copyright 2003, Gaussian, Inc.),
 the Gaussian(R) 98 system (copyright 1998, Gaussian, Inc.),
 the Gaussian(R) 94 system (copyright 1995, Gaussian, Inc.),
 the Gaussian 92(TM) system (copyright 1992, Gaussian, Inc.),
 the Gaussian 90(TM) system (copyright 1990, Gaussian, Inc.),
 the Gaussian 88(TM) system (copyright 1988, Gaussian, Inc.),
 the Gaussian 86(TM) system (copyright 1986, Carnegie Mellon
 University), and the Gaussian 82(TM) system (copyright 1983,
 Carnegie Mellon University). Gaussian is a federally registered
 trademark of Gaussian, Inc.
  
 This software contains proprietary and confidential information,
 including trade secrets, belonging to Gaussian, Inc.
  
 This software is provided under written license and may be
 used, copied, transmitted, or stored only in accord with that
 written license.
  
 The following legend is applicable only to US Government
 contracts under FAR:
  
                    RESTRICTED RIGHTS LEGEND
  
 Use, reproduction and disclosure by the US Government is
 subject to restrictions as set forth in subparagraphs (a)
 and (c) of the Commercial Computer Software - Restricted
 Rights clause in FAR 52.227-19.
  
 Gaussian, Inc.
 340 Quinnipiac St., Bldg. 40, Wallingford CT 06492
  
  
 ---------------------------------------------------------------
 Warning -- This program may not be used in any manner that
 competes with the business of Gaussian, Inc. or will provide
 assistance to any competitor of Gaussian, Inc.  The licensee
 of this program is prohibited from giving any competitor of
 Gaussian, Inc. access to this program.  By using this program,
 the user acknowledges that Gaussian, Inc. is engaged in the
 business of creating and licensing software in the field of
 computational chemistry and represents and warrants to the
 licensee that it is not a competitor of Gaussian, Inc. and that
 it will not use this program in any manner prohibited above.
 ---------------------------------------------------------------
  

 Cite this work as:
 Gaussian 16, Revision C.01,
 M. J. Frisch, G. W. Trucks, H. B. Schlegel, G. E. Scuseria, 
 M. A. Robb, J. R. Cheeseman, G. Scalmani, V. Barone, 
 G. A. Petersson, H. Nakatsuji, X. Li, M. Caricato, A. V. Marenich, 
 J. Bloino, B. G. Janesko, R. Gomperts, B. Mennucci, H. P. Hratchian, 
 J. V. Ortiz, A. F. Izmaylov, J. L. Sonnenberg, D. Williams-Young, 
 F. Ding, F. Lipparini, F. Egidi, J. Goings, B. Peng, A. Petrone, 
 T. Henderson, D. Ranasinghe, V. G. Zakrzewski, J. Gao, N. Rega, 
 G. Zheng, W. Liang, M. Hada, M. Ehara, K. Toyota, R. Fukuda, 
 J. Hasegawa, M. Ishida, T. Nakajima, Y. Honda, O. Kitao, H. Nakai, 
 T. Vreven, K. Throssell, J. A. Montgomery, Jr., J. E. Peralta, 
 F. Ogliaro, M. J. Bearpark, J. J. Heyd, E. N. Brothers, K. N. Kudin, 
 V. N. Staroverov, T. A. Keith, R. Kobayashi, J. Normand, 
 K. Raghavachari, A. P. Rendell, J. C. Burant, S. S. Iyengar, 
 J. Tomasi, M. Cossi, J. M. Millam, M. Klene, C. Adamo, R. Cammi, 
 J. W. Ochterski, R. L. Martin, K. Morokuma, O. Farkas, 
 J. B. Foresman, and D. J. Fox, Gaussian, Inc., Wallingford CT, 2019.
 
 ******************************************
 Gaussian 16:  ES64L-G16RevC.01  3-Jul-2019
                27-Sep-2023 
 ******************************************
 %chk=MannitolConformerOpt_13.chk
 %mem=8GB
 %nprocs=16
 Will use up to   16 processors via shared memory.
 ---------------------------------------------
 # opt freq wb97xd/def2tzvpp geom=connectivity
 ---------------------------------------------
 1/18=20,19=15,26=3,38=1,57=2/1,3;
 2/9=110,12=2,17=6,18=5,40=1/2;
 3/5=44,7=202,11=2,25=1,30=1,71=1,74=-58/1,2,3;
 4//1;
 5/5=2,38=5/2;
 6/7=2,8=2,9=2,10=2,28=1/1;
 7//1,2,3,16;
 1/18=20,19=15,26=3/3(2);
 2/9=110/2;
 99//99;
 2/9=110/2;
 3/5=44,7=202,11=2,25=1,30=1,71=1,74=-58/1,2,3;
 4/5=5,16=3,69=1/1;
 5/5=2,38=5/2;
 7//1,2,3,16;
 1/18=20,19=15,26=3/3(-5);
 2/9=110/2;
 6/7=2,8=2,9=2,10=2,19=2,28=1/1;
 99/9=1/99;
 --------------------------------
 Mannitol Conformer Optimziations
 --------------------------------
 Symbolic Z-matrix:
 Charge =  0 Multiplicity = 1
 C                     0.        0.        0. 
 C                     1.5374    0.        0. 
 C                    -0.6273    0.935    -1.0498 
 C                     2.1557   -0.7097    1.2293 
 H                     1.8917    1.038     0. 
 H                    -0.3579    0.316     0.9879 
 C                    -0.2554    0.6425   -2.5067 
 H                    -0.3941    1.9799   -0.8149 
 C                     1.8986   -2.2207    1.3297 
 H                     1.8148   -0.2245    2.1501 
 H                    -0.4498   -0.4018   -2.7692 
 H                     0.7847    0.8986   -2.7209 
 H                     0.8486   -2.4387    1.5404 
 H                     2.5106   -2.6511    2.1295 
 O                    -1.093     1.4554   -3.3432 
 H                    -0.8074    1.2842   -4.2591 
 O                    -2.0626    0.7963   -0.9324 
 H                    -2.4075    1.2429   -1.7357 
 O                    -0.5176   -1.3253   -0.1995 
 H                    -1.475    -1.1888   -0.3642 
 O                     2.0507   -0.5869   -1.2077 
 H                     1.9357   -1.5584   -1.0929 
 O                     3.5822   -0.5196    1.1625 
 H                     3.8413   -0.888     0.2931 
 O                     2.273    -2.8752    0.1123 
 H                     2.0787   -3.8214    0.2435 
 

 GradGradGradGradGradGradGradGradGradGradGradGradGradGradGradGradGradGrad
 Berny optimization.
 Initialization pass.
                           ----------------------------
                           !    Initial Parameters    !
                           ! (Angstroms and Degrees)  !
 --------------------------                            --------------------------
 ! Name  Definition              Value          Derivative Info.                !
 --------------------------------------------------------------------------------
 ! R1    R(1,2)                  1.5374         estimate D2E/DX2                !
 ! R2    R(1,3)                  1.5394         estimate D2E/DX2                !
 ! R3    R(1,6)                  1.0972         estimate D2E/DX2                !
 ! R4    R(1,19)                 1.4367         estimate D2E/DX2                !
 ! R5    R(2,4)                  1.5483         estimate D2E/DX2                !
 ! R6    R(2,5)                  1.0968         estimate D2E/DX2                !
 ! R7    R(2,21)                 1.4375         estimate D2E/DX2                !
 ! R8    R(3,7)                  1.5318         estimate D2E/DX2                !
 ! R9    R(3,8)                  1.0961         estimate D2E/DX2                !
 ! R10   R(3,17)                 1.4468         estimate D2E/DX2                !
 ! R11   R(4,9)                  1.536          estimate D2E/DX2                !
 ! R12   R(4,10)                 1.0952         estimate D2E/DX2                !
 ! R13   R(4,23)                 1.4407         estimate D2E/DX2                !
 ! R14   R(7,11)                 1.0942         estimate D2E/DX2                !
 ! R15   R(7,12)                 1.0924         estimate D2E/DX2                !
 ! R16   R(7,15)                 1.436          estimate D2E/DX2                !
 ! R17   R(9,13)                 1.0929         estimate D2E/DX2                !
 ! R18   R(9,14)                 1.0952         estimate D2E/DX2                !
 ! R19   R(9,25)                 1.432          estimate D2E/DX2                !
 ! R20   R(15,16)                0.9746         estimate D2E/DX2                !
 ! R21   R(17,18)                0.9817         estimate D2E/DX2                !
 ! R22   R(19,20)                0.981          estimate D2E/DX2                !
 ! R23   R(21,22)                0.985          estimate D2E/DX2                !
 ! R24   R(23,24)                0.9791         estimate D2E/DX2                !
 ! R25   R(25,26)                0.9748         estimate D2E/DX2                !
 ! A1    A(2,1,3)              114.0473         estimate D2E/DX2                !
 ! A2    A(2,1,6)              109.0375         estimate D2E/DX2                !
 ! A3    A(2,1,19)             111.1167         estimate D2E/DX2                !
 ! A4    A(3,1,6)              107.8279         estimate D2E/DX2                !
 ! A5    A(3,1,19)             108.5888         estimate D2E/DX2                !
 ! A6    A(6,1,19)             105.8534         estimate D2E/DX2                !
 ! A7    A(1,2,4)              113.5374         estimate D2E/DX2                !
 ! A8    A(1,2,5)              108.8463         estimate D2E/DX2                !
 ! A9    A(1,2,21)             110.9205         estimate D2E/DX2                !
 ! A10   A(4,2,5)              107.7465         estimate D2E/DX2                !
 ! A11   A(4,2,21)             109.7127         estimate D2E/DX2                !
 ! A12   A(5,2,21)             105.7261         estimate D2E/DX2                !
 ! A13   A(1,3,7)              115.7018         estimate D2E/DX2                !
 ! A14   A(1,3,8)              110.2532         estimate D2E/DX2                !
 ! A15   A(1,3,17)             106.8998         estimate D2E/DX2                !
 ! A16   A(7,3,8)              109.5246         estimate D2E/DX2                !
 ! A17   A(7,3,17)             107.4417         estimate D2E/DX2                !
 ! A18   A(8,3,17)             106.5635         estimate D2E/DX2                !
 ! A19   A(2,4,9)              115.8473         estimate D2E/DX2                !
 ! A20   A(2,4,10)             109.8868         estimate D2E/DX2                !
 ! A21   A(2,4,23)             107.3449         estimate D2E/DX2                !
 ! A22   A(9,4,10)             109.193          estimate D2E/DX2                !
 ! A23   A(9,4,23)             107.372          estimate D2E/DX2                !
 ! A24   A(10,4,23)            106.7818         estimate D2E/DX2                !
 ! A25   A(3,7,11)             111.548          estimate D2E/DX2                !
 ! A26   A(3,7,12)             111.8945         estimate D2E/DX2                !
 ! A27   A(3,7,15)             107.7176         estimate D2E/DX2                !
 ! A28   A(11,7,12)            110.2352         estimate D2E/DX2                !
 ! A29   A(11,7,15)            107.2712         estimate D2E/DX2                !
 ! A30   A(12,7,15)            107.9649         estimate D2E/DX2                !
 ! A31   A(4,9,13)             111.6933         estimate D2E/DX2                !
 ! A32   A(4,9,14)             109.925          estimate D2E/DX2                !
 ! A33   A(4,9,25)             110.5046         estimate D2E/DX2                !
 ! A34   A(13,9,14)            108.5232         estimate D2E/DX2                !
 ! A35   A(13,9,25)            108.9003         estimate D2E/DX2                !
 ! A36   A(14,9,25)            107.1649         estimate D2E/DX2                !
 ! A37   A(7,15,16)            106.086          estimate D2E/DX2                !
 ! A38   A(3,17,18)            103.8002         estimate D2E/DX2                !
 ! A39   A(1,19,20)            104.274          estimate D2E/DX2                !
 ! A40   A(2,21,22)            105.2525         estimate D2E/DX2                !
 ! A41   A(4,23,24)            104.6873         estimate D2E/DX2                !
 ! A42   A(9,25,26)            106.0875         estimate D2E/DX2                !
 ! D1    D(3,1,2,4)            168.309          estimate D2E/DX2                !
 ! D2    D(3,1,2,5)             48.3103         estimate D2E/DX2                !
 ! D3    D(3,1,2,21)           -67.6079         estimate D2E/DX2                !
 ! D4    D(6,1,2,4)             47.7367         estimate D2E/DX2                !
 ! D5    D(6,1,2,5)            -72.2621         estimate D2E/DX2                !
 ! D6    D(6,1,2,21)           171.8198         estimate D2E/DX2                !
 ! D7    D(19,1,2,4)           -68.5619         estimate D2E/DX2                !
 ! D8    D(19,1,2,5)           171.4394         estimate D2E/DX2                !
 ! D9    D(19,1,2,21)           55.5213         estimate D2E/DX2                !
 ! D10   D(2,1,3,7)             59.3482         estimate D2E/DX2                !
 ! D11   D(2,1,3,8)            -65.6077         estimate D2E/DX2                !
 ! D12   D(2,1,3,17)           178.9448         estimate D2E/DX2                !
 ! D13   D(6,1,3,7)           -179.406          estimate D2E/DX2                !
 ! D14   D(6,1,3,8)             55.638          estimate D2E/DX2                !
 ! D15   D(6,1,3,17)           -59.8095         estimate D2E/DX2                !
 ! D16   D(19,1,3,7)           -65.144          estimate D2E/DX2                !
 ! D17   D(19,1,3,8)           169.9001         estimate D2E/DX2                !
 ! D18   D(19,1,3,17)           54.4526         estimate D2E/DX2                !
 ! D19   D(2,1,19,20)         -168.8908         estimate D2E/DX2                !
 ! D20   D(3,1,19,20)          -42.6802         estimate D2E/DX2                !
 ! D21   D(6,1,19,20)           72.8691         estimate D2E/DX2                !
 ! D22   D(1,2,4,9)             65.5509         estimate D2E/DX2                !
 ! D23   D(1,2,4,10)           -58.7611         estimate D2E/DX2                !
 ! D24   D(1,2,4,23)          -174.5238         estimate D2E/DX2                !
 ! D25   D(5,2,4,9)           -173.8283         estimate D2E/DX2                !
 ! D26   D(5,2,4,10)            61.8597         estimate D2E/DX2                !
 ! D27   D(5,2,4,23)           -53.903          estimate D2E/DX2                !
 ! D28   D(21,2,4,9)           -59.1851         estimate D2E/DX2                !
 ! D29   D(21,2,4,10)          176.5029         estimate D2E/DX2                !
 ! D30   D(21,2,4,23)           60.7402         estimate D2E/DX2                !
 ! D31   D(1,2,21,22)          -76.4795         estimate D2E/DX2                !
 ! D32   D(4,2,21,22)           49.7568         estimate D2E/DX2                !
 ! D33   D(5,2,21,22)          165.6861         estimate D2E/DX2                !
 ! D34   D(1,3,7,11)            53.1206         estimate D2E/DX2                !
 ! D35   D(1,3,7,12)           -70.8985         estimate D2E/DX2                !
 ! D36   D(1,3,7,15)           170.5886         estimate D2E/DX2                !
 ! D37   D(8,3,7,11)           178.4509         estimate D2E/DX2                !
 ! D38   D(8,3,7,12)            54.4319         estimate D2E/DX2                !
 ! D39   D(8,3,7,15)           -64.081          estimate D2E/DX2                !
 ! D40   D(17,3,7,11)          -66.1794         estimate D2E/DX2                !
 ! D41   D(17,3,7,12)          169.8016         estimate D2E/DX2                !
 ! D42   D(17,3,7,15)           51.2886         estimate D2E/DX2                !
 ! D43   D(1,3,17,18)         -167.7876         estimate D2E/DX2                !
 ! D44   D(7,3,17,18)          -42.9984         estimate D2E/DX2                !
 ! D45   D(8,3,17,18)           74.3196         estimate D2E/DX2                !
 ! D46   D(2,4,9,13)           -68.9525         estimate D2E/DX2                !
 ! D47   D(2,4,9,14)           170.525          estimate D2E/DX2                !
 ! D48   D(2,4,9,25)            52.4446         estimate D2E/DX2                !
 ! D49   D(10,4,9,13)           55.7179         estimate D2E/DX2                !
 ! D50   D(10,4,9,14)          -64.8046         estimate D2E/DX2                !
 ! D51   D(10,4,9,25)          177.1151         estimate D2E/DX2                !
 ! D52   D(23,4,9,13)          171.1369         estimate D2E/DX2                !
 ! D53   D(23,4,9,14)           50.6143         estimate D2E/DX2                !
 ! D54   D(23,4,9,25)          -67.466          estimate D2E/DX2                !
 ! D55   D(2,4,23,24)          -57.0328         estimate D2E/DX2                !
 ! D56   D(9,4,23,24)           68.1567         estimate D2E/DX2                !
 ! D57   D(10,4,23,24)        -174.8343         estimate D2E/DX2                !
 ! D58   D(3,7,15,16)          177.2702         estimate D2E/DX2                !
 ! D59   D(11,7,15,16)         -62.5241         estimate D2E/DX2                !
 ! D60   D(12,7,15,16)          56.2647         estimate D2E/DX2                !
 ! D61   D(4,9,25,26)         -179.6053         estimate D2E/DX2                !
 ! D62   D(13,9,25,26)         -56.5687         estimate D2E/DX2                !
 ! D63   D(14,9,25,26)          60.6381         estimate D2E/DX2                !
 --------------------------------------------------------------------------------
 Trust Radius=3.00D-01 FncErr=1.00D-07 GrdErr=1.00D-06 EigMax=2.50D+02 EigMin=1.00D-04
 Number of steps in this run=    140 maximum allowed number of steps=    156.
 GradGradGradGradGradGradGradGradGradGradGradGradGradGradGradGradGradGrad

                          Input orientation:                          
 ---------------------------------------------------------------------
 Center     Atomic      Atomic             Coordinates (Angstroms)
 Number     Number       Type             X           Y           Z
 ---------------------------------------------------------------------
      1          6           0        0.000000    0.000000    0.000000
      2          6           0        1.537400    0.000000    0.000000
      3          6           0       -0.627300    0.935000   -1.049800
      4          6           0        2.155700   -0.709700    1.229300
      5          1           0        1.891700    1.038000    0.000000
      6          1           0       -0.357900    0.316000    0.987900
      7          6           0       -0.255400    0.642500   -2.506700
      8          1           0       -0.394100    1.979900   -0.814900
      9          6           0        1.898600   -2.220700    1.329700
     10          1           0        1.814800   -0.224500    2.150100
     11          1           0       -0.449800   -0.401800   -2.769200
     12          1           0        0.784700    0.898600   -2.720900
     13          1           0        0.848600   -2.438700    1.540400
     14          1           0        2.510600   -2.651100    2.129500
     15          8           0       -1.093000    1.455400   -3.343200
     16          1           0       -0.807400    1.284200   -4.259100
     17          8           0       -2.062600    0.796300   -0.932400
     18          1           0       -2.407500    1.242900   -1.735700
     19          8           0       -0.517600   -1.325300   -0.199500
     20          1           0       -1.475000   -1.188800   -0.364200
     21          8           0        2.050700   -0.586900   -1.207700
     22          1           0        1.935700   -1.558400   -1.092900
     23          8           0        3.582200   -0.519600    1.162500
     24          1           0        3.841300   -0.888000    0.293100
     25          8           0        2.273000   -2.875200    0.112300
     26          1           0        2.078700   -3.821400    0.243500
 ---------------------------------------------------------------------
                    Distance matrix (angstroms):
                    1          2          3          4          5
     1  C    0.000000
     2  C    1.537400   0.000000
     3  C    1.539419   2.581130   0.000000
     4  C    2.581065   1.548272   3.955303   0.000000
     5  H    2.157770   1.096801   2.730943   2.152982   0.000000
     6  H    1.097221   2.160547   2.146616   2.725531   2.560846
     7  C    2.600304   3.148092   1.531804   4.647531   3.324155
     8  H    2.177012   2.883532   1.096073   4.232515   2.603098
     9  C    3.210030   2.613441   4.690483   1.536002   3.519556
    10  H    2.822557   2.179514   4.188992   1.095219   2.494544
    11  H    2.834119   3.432037   2.185149   4.782409   3.901809
    12  H    2.970948   2.962657   2.188069   4.479994   2.940778
    13  H    3.006694   2.965558   4.502140   2.189688   3.943137
    14  H    4.226844   3.536979   5.728392   2.169181   4.304331
    15  O    3.806550   4.496018   2.397369   6.012443   4.501071
    16  H    4.521172   5.028637   3.233262   6.548140   5.048335
    17  O    2.399538   3.803086   1.446757   4.973433   4.069923
    18  H    3.217687   4.485498   1.932453   5.781580   4.640879
    19  O    1.436708   2.453415   2.417437   3.093051   3.380786
    20  H    1.929122   3.258902   2.387293   3.993840   4.052894
    21  O    2.451196   1.437521   3.084282   2.442350   2.030793
    22  H    2.714770   1.944655   3.576013   2.482198   2.817385
    23  O    3.801782   2.408858   4.972929   1.440660   2.575910
    24  H    3.953484   2.486445   5.009501   1.936365   2.756143
    25  O    3.666867   2.969932   4.927458   2.439434   3.933336
    26  H    4.356993   3.867221   5.623024   3.265028   4.869089
                    6          7          8          9         10
     6  H    0.000000
     7  C    3.511316   0.000000
     8  H    2.453561   2.161033   0.000000
     9  C    3.412252   5.249342   5.244123   0.000000
    10  H    2.522593   5.169449   4.304630   2.159836   0.000000
    11  H    3.826158   1.094194   3.081377   5.062051   5.418428
    12  H    3.924303   1.092372   2.488296   5.232415   5.103832
    13  H    3.057658   5.204962   5.159047   1.092895   2.491577
    14  H    4.281965   6.323995   6.209101   1.095202   2.524470
    15  O    4.538395   1.436006   2.675044   6.655778   6.438456
    16  H    5.354481   1.946121   3.537984   7.130319   7.087309
    17  O    2.612325   2.401676   2.049050   5.469048   5.057477
    18  H    3.532421   2.363568   2.333414   6.319470   5.922881
    19  O    2.032065   3.043708   3.364271   2.996367   3.488907
    20  H    2.310954   3.071057   3.378185   3.913476   4.251395
    21  O    3.381899   2.918377   3.566483   3.021727   3.385529
    22  H    3.619904   3.412288   4.245565   2.511774   3.508697
    23  O    4.031513   5.435134   5.095937   2.399209   2.046006
    24  H    4.423307   5.192712   5.233653   2.573852   2.827611
    25  O    4.227537   5.062231   5.616504   1.431995   3.374728
    26  H    4.858933   5.739166   6.394531   1.942809   4.079517
                   11         12         13         14         15
    11  H    0.000000
    12  H    1.793701   0.000000
    13  H    4.940390   5.412978   0.000000
    14  H    6.149844   6.253438   1.776062   0.000000
    15  O    2.047529   2.055004   6.540900   7.733028   0.000000
    16  H    2.278218   2.247116   7.087773   8.204262   0.974551
    17  O    2.722205   3.363973   5.005502   6.494148   2.680764
    18  H    2.757852   3.358467   5.906708   7.368223   2.087372
    19  O    2.731448   3.605437   2.476573   4.043758   4.236299
    20  H    2.730280   3.875244   3.254054   4.923603   4.001520
    21  O    2.953819   2.469664   3.525090   3.950865   4.314418
    22  H    3.136609   3.164180   2.981775   3.450850   4.829065
    23  O    5.632865   4.991803   3.361298   2.574239   6.786711
    24  H    5.294111   4.649617   3.593978   2.872568   6.562128
    25  O    4.672728   4.948093   2.063714   2.043470   6.482633
    26  H    5.211846   5.721932   2.259857   2.261224   7.125217
                   16         17         18         19         20
    16  H    0.000000
    17  O    3.588942   0.000000
    18  H    2.988239   0.981681   0.000000
    19  O    4.834649   2.724950   3.539390   0.000000
    20  H    4.661723   2.146799   2.943422   0.981006   0.000000
    21  O    4.580480   4.348364   4.847938   2.856198   3.674825
    22  H    5.062588   4.642927   5.208057   2.621294   3.507204
    23  O    7.205278   6.163113   6.883493   4.394605   5.324839
    24  H    6.859402   6.260571   6.906827   4.408389   5.365219
    25  O    6.774851   5.776568   6.502379   3.207313   4.137451
    26  H    7.393925   6.313181   7.049139   3.628710   4.464153
                   21         22         23         24         25
    21  O    0.000000
    22  H    0.984996   0.000000
    23  O    2.822742   2.979412   0.000000
    24  H    2.355697   2.449846   0.979136   0.000000
    25  O    2.651063   1.816656   2.892365   2.537955   0.000000
    26  H    3.545244   2.632030   3.742587   3.422580   0.974813
                   26
    26  H    0.000000
 Stoichiometry    C6H14O6
 Framework group  C1[X(C6H14O6)]
 Deg. of freedom    72
 Full point group                 C1      NOp   1
 Largest Abelian subgroup         C1      NOp   1
 Largest concise Abelian subgroup C1      NOp   1
                         Standard orientation:                         
 ---------------------------------------------------------------------
 Center     Atomic      Atomic             Coordinates (Angstroms)
 Number     Number       Type             X           Y           Z
 ---------------------------------------------------------------------
      1          6           0       -0.418093    0.625738   -0.605851
      2          6           0        0.625906   -0.502589   -0.629133
      3          6           0       -1.875889    0.132333   -0.640423
      4          6           0        2.069653   -0.003982   -0.882375
      5          1           0        0.369663   -1.205891   -1.430806
      6          1           0       -0.262556    1.275269   -1.476375
      7          6           0       -2.294195   -0.785234    0.512623
      8          1           0       -2.086933   -0.360963   -1.596192
      9          6           0        2.674182    0.883007    0.216305
     10          1           0        2.118402    0.525375   -1.839930
     11          1           0       -2.072450   -0.335248    1.485044
     12          1           0       -1.829694   -1.771090    0.437766
     13          1           0        2.182773    1.858009    0.264328
     14          1           0        3.740921    1.040103    0.024323
     15          8           0       -3.717640   -0.959488    0.438120
     16          1           0       -3.951509   -1.579762    1.152483
     17          8           0       -2.718826    1.306969   -0.587569
     18          1           0       -3.613888    0.945077   -0.409815
     19          8           0       -0.246260    1.466203    0.546634
     20          1           0       -1.053401    2.023570    0.562036
     21          8           0        0.583230   -1.266583    0.587814
     22          1           0        1.034038   -0.706670    1.261228
     23          8           0        2.910175   -1.167382   -1.006977
     24          1           0        2.778580   -1.659433   -0.170749
     25          8           0        2.564141    0.244699    1.493436
     26          1           0        2.958116    0.860671    2.138124
 ---------------------------------------------------------------------
 Rotational constants (GHZ):           1.7365466           0.4868740           0.4629506
 Standard basis: def2TZVPP (5D, 7F)
 There are   642 symmetry adapted cartesian basis functions of A   symmetry.
 There are   568 symmetry adapted basis functions of A   symmetry.
   568 basis functions,   850 primitive gaussians,   642 cartesian basis functions
    49 alpha electrons       49 beta electrons
       nuclear repulsion energy       831.7246730537 Hartrees.
 NAtoms=   26 NActive=   26 NUniq=   26 SFac= 1.00D+00 NAtFMM=   60 NAOKFM=F Big=F
 Integral buffers will be    131072 words long.
 Raffenetti 2 integral format.
 Two-electron integral symmetry is turned on.
 Nuclear repulsion after empirical dispersion term =      831.7063942178 Hartrees.
 One-electron integrals computed using PRISM.
   1 Symmetry operations used in ECPInt.
 ECPInt:  NShTT=   23436 NPrTT=   62434 LenC2=   21836 LenP2D=   45349.
 LDataN:  DoStor=T MaxTD1= 6 Len=  172
 NBasis=   568 RedAO= T EigKep=  4.18D-05  NBF=   568
 NBsUse=   568 1.00D-06 EigRej= -1.00D+00 NBFU=   568
 ExpMin= 9.52D-02 ExpMax= 2.70D+04 ExpMxC= 9.22D+02 IAcc=3 IRadAn=         5 AccDes= 0.00D+00
 Harris functional with IExCor= 4639 and IRadAn=       5 diagonalized for initial guess.
 HarFok:  IExCor= 4639 AccDes= 0.00D+00 IRadAn=         5 IDoV= 1 UseB2=F ITyADJ=14
 ICtDFT=  3500011 ScaDFX=  1.000000  1.000000  1.000000  1.000000
 FoFCou: FMM=F IPFlag=           0 FMFlag=      100000 FMFlg1=           0
         NFxFlg=           0 DoJE=T BraDBF=F KetDBF=T FulRan=T
         wScrn=  0.000000 ICntrl=       500 IOpCl=  0 I1Cent=   200000004 NGrid=           0
         NMat0=    1 NMatS0=      1 NMatT0=    0 NMatD0=    1 NMtDS0=    0 NMtDT0=    0
 Petite list used in FoFCou.
 Requested convergence on RMS density matrix=1.00D-08 within 128 cycles.
 Requested convergence on MAX density matrix=1.00D-06.
 Requested convergence on             energy=1.00D-06.
 No special actions if energy rises.
 Integral accuracy reduced to 1.0D-05 until final iterations.
 Initial convergence to 1.0D-05 achieved.  Increase integral accuracy.
 SCF Done:  E(RwB97XD) =  -688.467626280     A.U. after   13 cycles
            NFock= 13  Conv=0.90D-08     -V/T= 2.0050

 **********************************************************************

            Population analysis using the SCF Density.

 **********************************************************************

 Orbital symmetries:
       Occupied  (A) (A) (A) (A) (A) (A) (A) (A) (A) (A) (A) (A)
                 (A) (A) (A) (A) (A) (A) (A) (A) (A) (A) (A) (A)
                 (A) (A) (A) (A) (A) (A) (A) (A) (A) (A) (A) (A)
                 (A) (A) (A) (A) (A) (A) (A) (A) (A) (A) (A) (A)
                 (A)
       Virtual   (A) (A) (A) (A) (A) (A) (A) (A) (A) (A) (A) (A)
                 (A) (A) (A) (A) (A) (A) (A) (A) (A) (A) (A) (A)
                 (A) (A) (A) (A) (A) (A) (A) (A) (A) (A) (A) (A)
                 (A) (A) (A) (A) (A) (A) (A) (A) (A) (A) (A) (A)
                 (A) (A) (A) (A) (A) (A) (A) (A) (A) (A) (A) (A)
                 (A) (A) (A) (A) (A) (A) (A) (A) (A) (A) (A) (A)
                 (A) (A) (A) (A) (A) (A) (A) (A) (A) (A) (A) (A)
                 (A) (A) (A) (A) (A) (A) (A) (A) (A) (A) (A) (A)
                 (A) (A) (A) (A) (A) (A) (A) (A) (A) (A) (A) (A)
                 (A) (A) (A) (A) (A) (A) (A) (A) (A) (A) (A) (A)
                 (A) (A) (A) (A) (A) (A) (A) (A) (A) (A) (A) (A)
                 (A) (A) (A) (A) (A) (A) (A) (A) (A) (A) (A) (A)
                 (A) (A) (A) (A) (A) (A) (A) (A) (A) (A) (A) (A)
                 (A) (A) (A) (A) (A) (A) (A) (A) (A) (A) (A) (A)
                 (A) (A) (A) (A) (A) (A) (A) (A) (A) (A) (A) (A)
                 (A) (A) (A) (A) (A) (A) (A) (A) (A) (A) (A) (A)
                 (A) (A) (A) (A) (A) (A) (A) (A) (A) (A) (A) (A)
                 (A) (A) (A) (A) (A) (A) (A) (A) (A) (A) (A) (A)
                 (A) (A) (A) (A) (A) (A) (A) (A) (A) (A) (A) (A)
                 (A) (A) (A) (A) (A) (A) (A) (A) (A) (A) (A) (A)
                 (A) (A) (A) (A) (A) (A) (A) (A) (A) (A) (A) (A)
                 (A) (A) (A) (A) (A) (A) (A) (A) (A) (A) (A) (A)
                 (A) (A) (A) (A) (A) (A) (A) (A) (A) (A) (A) (A)
                 (A) (A) (A) (A) (A) (A) (A) (A) (A) (A) (A) (A)
                 (A) (A) (A) (A) (A) (A) (A) (A) (A) (A) (A) (A)
                 (A) (A) (A) (A) (A) (A) (A) (A) (A) (A) (A) (A)
                 (A) (A) (A) (A) (A) (A) (A) (A) (A) (A) (A) (A)
                 (A) (A) (A) (A) (A) (A) (A) (A) (A) (A) (A) (A)
                 (A) (A) (A) (A) (A) (A) (A) (A) (A) (A) (A) (A)
                 (A) (A) (A) (A) (A) (A) (A) (A) (A) (A) (A) (A)
                 (A) (A) (A) (A) (A) (A) (A) (A) (A) (A) (A) (A)
                 (A) (A) (A) (A) (A) (A) (A) (A) (A) (A) (A) (A)
                 (A) (A) (A) (A) (A) (A) (A) (A) (A) (A) (A) (A)
                 (A) (A) (A) (A) (A) (A) (A) (A) (A) (A) (A) (A)
                 (A) (A) (A) (A) (A) (A) (A) (A) (A) (A) (A) (A)
                 (A) (A) (A) (A) (A) (A) (A) (A) (A) (A) (A) (A)
                 (A) (A) (A) (A) (A) (A) (A) (A) (A) (A) (A) (A)
                 (A) (A) (A) (A) (A) (A) (A) (A) (A) (A) (A) (A)
                 (A) (A) (A) (A) (A) (A) (A) (A) (A) (A) (A) (A)
                 (A) (A) (A) (A) (A) (A) (A) (A) (A) (A) (A) (A)
                 (A) (A) (A) (A) (A) (A) (A) (A) (A) (A) (A) (A)
                 (A) (A) (A) (A) (A) (A) (A) (A) (A) (A) (A) (A)
                 (A) (A) (A) (A) (A) (A) (A) (A) (A) (A) (A) (A)
                 (A) (A) (A)
 The electronic state is 1-A.
 Alpha  occ. eigenvalues --  -19.27246 -19.26001 -19.25366 -19.24988 -19.24210
 Alpha  occ. eigenvalues --  -19.24044 -10.34564 -10.34437 -10.34389 -10.34328
 Alpha  occ. eigenvalues --  -10.33720 -10.32922  -1.15225  -1.14450  -1.12721
 Alpha  occ. eigenvalues --   -1.11744  -1.10523  -1.09685  -0.88088  -0.84905
 Alpha  occ. eigenvalues --   -0.80191  -0.74826  -0.69883  -0.67610  -0.64140
 Alpha  occ. eigenvalues --   -0.62698  -0.59909  -0.59413  -0.59120  -0.56472
 Alpha  occ. eigenvalues --   -0.55490  -0.53567  -0.53222  -0.52179  -0.51808
 Alpha  occ. eigenvalues --   -0.49639  -0.48622  -0.47378  -0.45648  -0.43945
 Alpha  occ. eigenvalues --   -0.43251  -0.41726  -0.41345  -0.38194  -0.37618
 Alpha  occ. eigenvalues --   -0.36924  -0.36706  -0.35709  -0.34815
 Alpha virt. eigenvalues --    0.09071   0.09842   0.11655   0.13554   0.14371
 Alpha virt. eigenvalues --    0.14793   0.15985   0.16831   0.18510   0.18800
 Alpha virt. eigenvalues --    0.19354   0.20106   0.21239   0.21534   0.22023
 Alpha virt. eigenvalues --    0.22935   0.24054   0.24273   0.24944   0.26419
 Alpha virt. eigenvalues --    0.27575   0.30091   0.30753   0.31820   0.33989
 Alpha virt. eigenvalues --    0.35530   0.36661   0.37041   0.38017   0.38958
 Alpha virt. eigenvalues --    0.39455   0.39859   0.40830   0.41315   0.41574
 Alpha virt. eigenvalues --    0.41838   0.42942   0.43737   0.44703   0.45598
 Alpha virt. eigenvalues --    0.46218   0.46601   0.47100   0.47405   0.48817
 Alpha virt. eigenvalues --    0.49093   0.49601   0.50103   0.50545   0.51792
 Alpha virt. eigenvalues --    0.52089   0.52667   0.53456   0.54212   0.55281
 Alpha virt. eigenvalues --    0.56270   0.57648   0.57772   0.58154   0.59495
 Alpha virt. eigenvalues --    0.59902   0.60675   0.62268   0.63926   0.64897
 Alpha virt. eigenvalues --    0.65343   0.66230   0.67090   0.67285   0.69173
 Alpha virt. eigenvalues --    0.70499   0.70842   0.71697   0.72977   0.73417
 Alpha virt. eigenvalues --    0.74904   0.76727   0.77780   0.78262   0.80218
 Alpha virt. eigenvalues --    0.81236   0.83607   0.84387   0.85315   0.86855
 Alpha virt. eigenvalues --    0.87230   0.88504   0.89632   0.90406   0.90507
 Alpha virt. eigenvalues --    0.91992   0.93523   0.94587   0.95988   0.96265
 Alpha virt. eigenvalues --    0.97778   0.98685   1.00155   1.00976   1.02398
 Alpha virt. eigenvalues --    1.03003   1.03590   1.05970   1.06514   1.07829
 Alpha virt. eigenvalues --    1.09692   1.09901   1.10341   1.11187   1.12348
 Alpha virt. eigenvalues --    1.13144   1.14733   1.16669   1.17260   1.18509
 Alpha virt. eigenvalues --    1.20168   1.21813   1.22336   1.23901   1.25575
 Alpha virt. eigenvalues --    1.26111   1.27226   1.28815   1.29895   1.31367
 Alpha virt. eigenvalues --    1.31735   1.32626   1.33965   1.34380   1.35902
 Alpha virt. eigenvalues --    1.36668   1.37331   1.37434   1.40022   1.41016
 Alpha virt. eigenvalues --    1.43557   1.43805   1.44853   1.45763   1.46821
 Alpha virt. eigenvalues --    1.48833   1.49089   1.50074   1.50514   1.51808
 Alpha virt. eigenvalues --    1.52382   1.53549   1.54047   1.56828   1.57349
 Alpha virt. eigenvalues --    1.58854   1.60653   1.61584   1.62996   1.64781
 Alpha virt. eigenvalues --    1.65982   1.67419   1.68943   1.72018   1.74418
 Alpha virt. eigenvalues --    1.76038   1.76838   1.77297   1.79438   1.83126
 Alpha virt. eigenvalues --    1.86256   1.90484   1.90582   1.91452   1.91839
 Alpha virt. eigenvalues --    1.95151   1.97056   1.97664   1.99484   2.00145
 Alpha virt. eigenvalues --    2.02201   2.03243   2.04451   2.05293   2.06160
 Alpha virt. eigenvalues --    2.06873   2.08156   2.08306   2.09070   2.11580
 Alpha virt. eigenvalues --    2.12462   2.14815   2.16382   2.17353   2.19414
 Alpha virt. eigenvalues --    2.20632   2.22176   2.23755   2.24442   2.26362
 Alpha virt. eigenvalues --    2.27610   2.29913   2.31714   2.33076   2.34181
 Alpha virt. eigenvalues --    2.34356   2.36991   2.38203   2.40675   2.43110
 Alpha virt. eigenvalues --    2.43695   2.45815   2.48123   2.49589   2.50892
 Alpha virt. eigenvalues --    2.52371   2.59284   2.61665   2.63337   2.64441
 Alpha virt. eigenvalues --    2.65884   2.67500   2.68979   2.69827   2.71122
 Alpha virt. eigenvalues --    2.73357   2.74265   2.75271   2.76012   2.78259
 Alpha virt. eigenvalues --    2.79378   2.80293   2.80870   2.82382   2.83460
 Alpha virt. eigenvalues --    2.85420   2.86065   2.87319   2.89546   2.89769
 Alpha virt. eigenvalues --    2.90836   2.95142   2.96205   2.98820   2.99592
 Alpha virt. eigenvalues --    3.00662   3.01557   3.02591   3.03996   3.05464
 Alpha virt. eigenvalues --    3.06564   3.07982   3.08594   3.10388   3.10969
 Alpha virt. eigenvalues --    3.11365   3.14381   3.15041   3.16017   3.16852
 Alpha virt. eigenvalues --    3.17764   3.19536   3.20081   3.21926   3.22276
 Alpha virt. eigenvalues --    3.22554   3.23679   3.24948   3.25421   3.26326
 Alpha virt. eigenvalues --    3.27531   3.29852   3.30777   3.31983   3.32906
 Alpha virt. eigenvalues --    3.34475   3.35625   3.36198   3.37617   3.37937
 Alpha virt. eigenvalues --    3.39476   3.40295   3.40726   3.42164   3.42484
 Alpha virt. eigenvalues --    3.43271   3.45067   3.45878   3.46701   3.48520
 Alpha virt. eigenvalues --    3.49828   3.51162   3.51656   3.52904   3.54004
 Alpha virt. eigenvalues --    3.55219   3.55901   3.58301   3.59657   3.60021
 Alpha virt. eigenvalues --    3.60620   3.63456   3.63960   3.65253   3.65967
 Alpha virt. eigenvalues --    3.66716   3.68671   3.69198   3.71202   3.71596
 Alpha virt. eigenvalues --    3.72204   3.72606   3.75589   3.76333   3.77850
 Alpha virt. eigenvalues --    3.78619   3.79773   3.81801   3.82309   3.84177
 Alpha virt. eigenvalues --    3.85765   3.86357   3.88337   3.89266   3.89517
 Alpha virt. eigenvalues --    3.90538   3.91781   3.95010   3.95545   3.96097
 Alpha virt. eigenvalues --    3.99403   3.99670   4.00151   4.01499   4.01727
 Alpha virt. eigenvalues --    4.02981   4.03325   4.03815   4.06330   4.07513
 Alpha virt. eigenvalues --    4.07813   4.09068   4.09774   4.10059   4.11897
 Alpha virt. eigenvalues --    4.12807   4.13866   4.14459   4.16567   4.17983
 Alpha virt. eigenvalues --    4.19163   4.19500   4.20269   4.21671   4.22535
 Alpha virt. eigenvalues --    4.23537   4.23668   4.25079   4.28054   4.28473
 Alpha virt. eigenvalues --    4.30007   4.31034   4.32041   4.33642   4.34405
 Alpha virt. eigenvalues --    4.35867   4.36856   4.37255   4.38752   4.40982
 Alpha virt. eigenvalues --    4.42524   4.42580   4.44556   4.46732   4.47173
 Alpha virt. eigenvalues --    4.48780   4.50592   4.52166   4.53938   4.55266
 Alpha virt. eigenvalues --    4.56132   4.56682   4.58356   4.59456   4.61599
 Alpha virt. eigenvalues --    4.62686   4.64922   4.66847   4.68362   4.70280
 Alpha virt. eigenvalues --    4.70637   4.73496   4.76610   4.77388   4.81018
 Alpha virt. eigenvalues --    4.81319   4.84215   4.85195   4.86828   4.88985
 Alpha virt. eigenvalues --    4.91878   4.94132   4.95664   4.95851   4.97259
 Alpha virt. eigenvalues --    5.00182   5.01357   5.01548   5.02555   5.04390
 Alpha virt. eigenvalues --    5.05774   5.07735   5.08603   5.12066   5.13619
 Alpha virt. eigenvalues --    5.14096   5.15897   5.17919   5.18781   5.20451
 Alpha virt. eigenvalues --    5.21733   5.22507   5.25666   5.26277   5.27919
 Alpha virt. eigenvalues --    5.31647   5.33541   5.36787   5.40118   5.42605
 Alpha virt. eigenvalues --    5.45391   5.49525   5.54020   5.56217   5.59803
 Alpha virt. eigenvalues --    5.60030   5.61681   5.62768   5.63255   5.64928
 Alpha virt. eigenvalues --    5.68161   5.69386   5.71964   5.72874   5.73809
 Alpha virt. eigenvalues --    5.74915   5.78025   5.82179   5.83441   5.85792
 Alpha virt. eigenvalues --    5.87700   5.88669   5.92061   5.92378   5.97414
 Alpha virt. eigenvalues --    6.01492   6.02542   6.03669   6.08846   6.13483
 Alpha virt. eigenvalues --    6.14358   6.15915   6.18564   6.22053   6.52529
 Alpha virt. eigenvalues --    6.53414   6.54492   6.55709   6.57327   6.61755
 Alpha virt. eigenvalues --    6.72171   6.74209   6.75409   6.76104   6.76361
 Alpha virt. eigenvalues --    6.76744   6.78604   6.79999   6.80731   6.81238
 Alpha virt. eigenvalues --    6.82487   6.83394   6.86056   6.87420   6.88466
 Alpha virt. eigenvalues --    6.92454   6.92964   6.95811   6.96542   7.02678
 Alpha virt. eigenvalues --    7.03930   7.05169   7.05975   7.06863   7.16951
 Alpha virt. eigenvalues --    7.18359   7.21163   7.23589   7.23726   7.28010
 Alpha virt. eigenvalues --    7.41437   7.42766   7.44117   7.46175   7.47086
 Alpha virt. eigenvalues --    7.49900   7.50104   7.53070   7.58096   7.60177
 Alpha virt. eigenvalues --    7.64998   7.78539  23.11778  23.15546  23.18634
 Alpha virt. eigenvalues --   23.22601  23.44384  23.48499  44.14191  44.15492
 Alpha virt. eigenvalues --   44.23797  44.27287  44.34083  44.39149
          Condensed to atoms (all electrons):
               1          2          3          4          5          6
     1  C    5.174163   0.138217   0.155920  -0.011492  -0.030208   0.430827
     2  C    0.138217   4.907888   0.033465   0.370127   0.395076  -0.044686
     3  C    0.155920   0.033465   4.918274  -0.012647   0.003085  -0.025327
     4  C   -0.011492   0.370127  -0.012647   4.663757  -0.023553  -0.009158
     5  H   -0.030208   0.395076   0.003085  -0.023553   0.572031   0.003884
     6  H    0.430827  -0.044686  -0.025327  -0.009158   0.003884   0.599270
     7  C   -0.017620   0.014508   0.294312   0.001799  -0.001673   0.008183
     8  H   -0.026424  -0.015416   0.428029   0.000233   0.002916  -0.005332
     9  C    0.011777  -0.031642   0.002982   0.335206   0.006589   0.001630
    10  H   -0.014359  -0.005346  -0.000254   0.398889  -0.003600   0.003479
    11  H    0.017617  -0.013244  -0.037947   0.000165   0.000498   0.000896
    12  H   -0.019625   0.004196  -0.014188  -0.000355  -0.000569  -0.000732
    13  H   -0.011741  -0.000910   0.000138  -0.033733  -0.000575  -0.001193
    14  H    0.000302   0.004662  -0.000013  -0.012229  -0.000417  -0.000072
    15  O    0.007667  -0.000595  -0.074684  -0.000001  -0.000053  -0.000068
    16  H   -0.001727   0.000080   0.011630  -0.000006   0.000001   0.000040
    17  O   -0.065580   0.004515   0.269898  -0.000144   0.000114   0.001281
    18  H    0.008097  -0.000964  -0.040531   0.000019  -0.000017  -0.000310
    19  O    0.243202  -0.037163  -0.006096  -0.008474   0.002657  -0.041024
    20  H   -0.042334   0.005473  -0.000865   0.001883  -0.000314  -0.006938
    21  O   -0.023423   0.253839  -0.016737  -0.045581  -0.027752   0.004261
    22  H    0.003481  -0.056136  -0.002500   0.011748   0.005870   0.000780
    23  O    0.006671  -0.037282  -0.000224   0.275973   0.008780   0.000089
    24  H   -0.000677  -0.004024  -0.000063  -0.059420  -0.003393  -0.000084
    25  O    0.003422  -0.017664  -0.000302  -0.032157  -0.001074   0.000140
    26  H    0.000501   0.001662   0.000019   0.001255   0.000088  -0.000008
               7          8          9         10         11         12
     1  C   -0.017620  -0.026424   0.011777  -0.014359   0.017617  -0.019625
     2  C    0.014508  -0.015416  -0.031642  -0.005346  -0.013244   0.004196
     3  C    0.294312   0.428029   0.002982  -0.000254  -0.037947  -0.014188
     4  C    0.001799   0.000233   0.335206   0.398889   0.000165  -0.000355
     5  H   -0.001673   0.002916   0.006589  -0.003600   0.000498  -0.000569
     6  H    0.008183  -0.005332   0.001630   0.003479   0.000896  -0.000732
     7  C    4.755902  -0.045334  -0.000403   0.000029   0.403624   0.427758
     8  H   -0.045334   0.617854   0.000043   0.000040   0.009613  -0.005075
     9  C   -0.000403   0.000043   4.815271  -0.032548   0.000248   0.000071
    10  H    0.000029   0.000040  -0.032548   0.588882  -0.000001  -0.000015
    11  H    0.403624   0.009613   0.000248  -0.000001   0.595545  -0.029737
    12  H    0.427758  -0.005075   0.000071  -0.000015  -0.029737   0.583038
    13  H    0.000149  -0.000044   0.429603   0.000712  -0.000079  -0.000008
    14  H    0.000004  -0.000002   0.405460  -0.002319  -0.000001   0.000002
    15  O    0.269146   0.005819   0.000001  -0.000000  -0.049888  -0.044527
    16  H   -0.033241  -0.000092   0.000000   0.000000  -0.004247  -0.005808
    17  O   -0.031354  -0.039167  -0.000023  -0.000009  -0.000521   0.004855
    18  H   -0.007752  -0.003614   0.000002  -0.000000  -0.001636   0.001747
    19  O   -0.022555   0.004196  -0.010247   0.000107   0.017288   0.001353
    20  H   -0.002467   0.002025  -0.001877  -0.000046   0.000264   0.000167
    21  O    0.005435   0.000315  -0.006974   0.003837   0.002258   0.003284
    22  H    0.000554   0.000014  -0.012872   0.000158   0.000544  -0.000951
    23  O    0.000014  -0.000015  -0.036070  -0.022431  -0.000003  -0.000025
    24  H   -0.000014   0.000002  -0.004878   0.008541  -0.000016   0.000047
    25  O   -0.000156  -0.000002   0.216773   0.003152  -0.000006   0.000040
    26  H   -0.000001  -0.000001  -0.013443  -0.000501  -0.000000  -0.000002
              13         14         15         16         17         18
     1  C   -0.011741   0.000302   0.007667  -0.001727  -0.065580   0.008097
     2  C   -0.000910   0.004662  -0.000595   0.000080   0.004515  -0.000964
     3  C    0.000138  -0.000013  -0.074684   0.011630   0.269898  -0.040531
     4  C   -0.033733  -0.012229  -0.000001  -0.000006  -0.000144   0.000019
     5  H   -0.000575  -0.000417  -0.000053   0.000001   0.000114  -0.000017
     6  H   -0.001193  -0.000072  -0.000068   0.000040   0.001281  -0.000310
     7  C    0.000149   0.000004   0.269146  -0.033241  -0.031354  -0.007752
     8  H   -0.000044  -0.000002   0.005819  -0.000092  -0.039167  -0.003614
     9  C    0.429603   0.405460   0.000001   0.000000  -0.000023   0.000002
    10  H    0.000712  -0.002319  -0.000000   0.000000  -0.000009  -0.000000
    11  H   -0.000079  -0.000001  -0.049888  -0.004247  -0.000521  -0.001636
    12  H   -0.000008   0.000002  -0.044527  -0.005808   0.004855   0.001747
    13  H    0.582760  -0.028016   0.000000  -0.000000  -0.000006   0.000003
    14  H   -0.028016   0.557152  -0.000000  -0.000000  -0.000001   0.000000
    15  O    0.000000  -0.000000   7.909229   0.327640  -0.013045   0.027736
    16  H   -0.000000  -0.000000   0.327640   0.524204   0.000163  -0.001703
    17  O   -0.000006  -0.000001  -0.013045   0.000163   7.923678   0.331671
    18  H    0.000003   0.000000   0.027736  -0.001703   0.331671   0.475423
    19  O    0.014321   0.000878   0.000172   0.000080  -0.014644   0.000204
    20  H   -0.000081  -0.000047  -0.000076  -0.000009   0.030090  -0.001530
    21  O    0.000732  -0.000763   0.000534   0.000042   0.000071   0.000047
    22  H   -0.000819   0.001307   0.000018  -0.000000   0.000024   0.000004
    23  O    0.005185   0.002854  -0.000000   0.000000   0.000001  -0.000000
    24  H    0.000719  -0.002282  -0.000000  -0.000000   0.000000  -0.000000
    25  O   -0.048467  -0.032335   0.000000  -0.000000  -0.000000  -0.000000
    26  H   -0.007184  -0.007282   0.000000   0.000000   0.000000   0.000000
              19         20         21         22         23         24
     1  C    0.243202  -0.042334  -0.023423   0.003481   0.006671  -0.000677
     2  C   -0.037163   0.005473   0.253839  -0.056136  -0.037282  -0.004024
     3  C   -0.006096  -0.000865  -0.016737  -0.002500  -0.000224  -0.000063
     4  C   -0.008474   0.001883  -0.045581   0.011748   0.275973  -0.059420
     5  H    0.002657  -0.000314  -0.027752   0.005870   0.008780  -0.003393
     6  H   -0.041024  -0.006938   0.004261   0.000780   0.000089  -0.000084
     7  C   -0.022555  -0.002467   0.005435   0.000554   0.000014  -0.000014
     8  H    0.004196   0.002025   0.000315   0.000014  -0.000015   0.000002
     9  C   -0.010247  -0.001877  -0.006974  -0.012872  -0.036070  -0.004878
    10  H    0.000107  -0.000046   0.003837   0.000158  -0.022431   0.008541
    11  H    0.017288   0.000264   0.002258   0.000544  -0.000003  -0.000016
    12  H    0.001353   0.000167   0.003284  -0.000951  -0.000025   0.000047
    13  H    0.014321  -0.000081   0.000732  -0.000819   0.005185   0.000719
    14  H    0.000878  -0.000047  -0.000763   0.001307   0.002854  -0.002282
    15  O    0.000172  -0.000076   0.000534   0.000018  -0.000000  -0.000000
    16  H    0.000080  -0.000009   0.000042  -0.000000   0.000000  -0.000000
    17  O   -0.014644   0.030090   0.000071   0.000024   0.000001   0.000000
    18  H    0.000204  -0.001530   0.000047   0.000004  -0.000000  -0.000000
    19  O    7.908805   0.325043  -0.001835   0.006211  -0.000040   0.000001
    20  H    0.325043   0.497763  -0.000196  -0.000346   0.000014   0.000005
    21  O   -0.001835  -0.000196   7.951506   0.334358  -0.007313   0.022296
    22  H    0.006211  -0.000346   0.334358   0.448657  -0.000204  -0.001814
    23  O   -0.000040   0.000014  -0.007313  -0.000204   7.853857   0.328461
    24  H    0.000001   0.000005   0.022296  -0.001814   0.328461   0.510512
    25  O   -0.000786   0.000085  -0.025176   0.046412  -0.003378   0.010182
    26  H    0.000436  -0.000006   0.001349  -0.002695  -0.000296  -0.000319
              25         26
     1  C    0.003422   0.000501
     2  C   -0.017664   0.001662
     3  C   -0.000302   0.000019
     4  C   -0.032157   0.001255
     5  H   -0.001074   0.000088
     6  H    0.000140  -0.000008
     7  C   -0.000156  -0.000001
     8  H   -0.000002  -0.000001
     9  C    0.216773  -0.013443
    10  H    0.003152  -0.000501
    11  H   -0.000006  -0.000000
    12  H    0.000040  -0.000002
    13  H   -0.048467  -0.007184
    14  H   -0.032335  -0.007282
    15  O    0.000000   0.000000
    16  H   -0.000000   0.000000
    17  O   -0.000000   0.000000
    18  H   -0.000000   0.000000
    19  O   -0.000786   0.000436
    20  H    0.000085  -0.000006
    21  O   -0.025176   0.001349
    22  H    0.046412  -0.002695
    23  O   -0.003378  -0.000296
    24  H    0.010182  -0.000319
    25  O    7.911655   0.314632
    26  H    0.314632   0.533619
 Mulliken charges:
               1
     1  C    0.063346
     2  C    0.131364
     3  C    0.114629
     4  C    0.187897
     5  H    0.091607
     6  H    0.080169
     7  C   -0.018846
     8  H    0.069417
     9  C   -0.074677
    10  H    0.073603
    11  H    0.088768
    12  H    0.095060
    13  H    0.098536
    14  H    0.113159
    15  O   -0.365025
    16  H    0.182953
    17  O   -0.401865
    18  H    0.213107
    19  O   -0.382090
    20  H    0.194319
    21  O   -0.428416
    22  H    0.218199
    23  O   -0.374617
    24  H    0.196217
    25  O   -0.344990
    26  H    0.178176
 Sum of Mulliken charges =  -0.00000
 Mulliken charges with hydrogens summed into heavy atoms:
               1
     1  C    0.143515
     2  C    0.222971
     3  C    0.184046
     4  C    0.261500
     7  C    0.164982
     9  C    0.137017
    15  O   -0.182072
    17  O   -0.188758
    19  O   -0.187770
    21  O   -0.210217
    23  O   -0.178400
    25  O   -0.166815
 Electronic spatial extent (au):  <R**2>=           2541.1256
 Charge=              0.0000 electrons
 Dipole moment (field-independent basis, Debye):
    X=             -0.1919    Y=              1.1142    Z=              1.6678  Tot=              2.0149
 Quadrupole moment (field-independent basis, Debye-Ang):
   XX=            -70.3622   YY=            -72.0440   ZZ=            -67.5279
   XY=             11.4409   XZ=              1.6765   YZ=             -0.9948
 Traceless Quadrupole moment (field-independent basis, Debye-Ang):
   XX=             -0.3842   YY=             -2.0660   ZZ=              2.4501
   XY=             11.4409   XZ=              1.6765   YZ=             -0.9948
 Octapole moment (field-independent basis, Debye-Ang**2):
  XXX=            -11.9517  YYY=             -2.7889  ZZZ=             20.9018  XYY=             -3.6092
  XXY=             10.2222  XXZ=             49.0355  XZZ=             -1.7520  YZZ=              3.7973
  YYZ=             14.0113  XYZ=              5.2247
 Hexadecapole moment (field-independent basis, Debye-Ang**3):
 XXXX=          -2177.5274 YYYY=           -459.2689 ZZZZ=           -324.0816 XXXY=            100.0110
 XXXZ=             30.1033 YYYX=             11.4188 YYYZ=              2.7445 ZZZX=             29.5962
 ZZZY=              5.3187 XXYY=           -406.8656 XXZZ=           -384.0150 YYZZ=           -132.9258
 XXYZ=            -32.2137 YYXZ=             -8.6476 ZZXY=             45.7035
 N-N= 8.317063942178D+02 E-N=-3.281200918173D+03  KE= 6.850424217085D+02
   1 Symmetry operations used in ECPInt.
 ECPInt:  NShTT=   23436 NPrTT=   62434 LenC2=   21836 LenP2D=   45349.
 LDataN:  DoStor=T MaxTD1= 7 Len=  274
 Calling FoFJK, ICntrl=      2127 FMM=F ISym2X=0 I1Cent= 0 IOpClX= 0 NMat=1 NMatS=1 NMatT=0.
 ***** Axes restored to original set *****
 -------------------------------------------------------------------
 Center     Atomic                   Forces (Hartrees/Bohr)
 Number     Number              X              Y              Z
 -------------------------------------------------------------------
      1        6          -0.011599263   -0.008652548   -0.004423649
      2        6          -0.005184332   -0.015543939   -0.011785971
      3        6          -0.013429713    0.001125930   -0.005287975
      4        6           0.022054984   -0.004575801   -0.008823843
      5        1          -0.002260638   -0.003403399    0.002407868
      6        1           0.002912209    0.007032314   -0.001009061
      7        6           0.001595014    0.003980793   -0.006644913
      8        1           0.005645337   -0.001685453   -0.000028636
      9        6          -0.006541742   -0.002809644    0.002745831
     10        1           0.000953745   -0.002360943   -0.002562408
     11        1           0.004683276   -0.000777380    0.007051992
     12        1          -0.000100281   -0.004534830    0.005793696
     13        1          -0.000491498    0.004271711   -0.000289213
     14        1          -0.000351440    0.007656239    0.002283757
     15        8           0.006024825   -0.002268543   -0.011243591
     16        1          -0.008802693    0.005211695    0.017280227
     17        8           0.008337634    0.007998767   -0.013838040
     18        1           0.003630368   -0.011162298    0.015968398
     19        8          -0.009345002    0.011818697   -0.003004099
     20        1           0.018210700   -0.003414426    0.002049173
     21        8          -0.004762037   -0.008526359    0.015868080
     22        1           0.001615651    0.016997984   -0.005155204
     23        8          -0.009914832   -0.005757734   -0.012302999
     24        1          -0.003095275    0.008556067    0.015463052
     25        8          -0.004217267   -0.017498283    0.006484216
     26        1           0.004432270    0.018321386   -0.006996688
 -------------------------------------------------------------------
 Cartesian Forces:  Max     0.022054984 RMS     0.008625241

 GradGradGradGradGradGradGradGradGradGradGradGradGradGradGradGradGradGrad
 Berny optimization.
 FormGI is forming the generalized inverse of G from B-inverse, IUseBI=4.
 Internal  Forces:  Max     0.019734600 RMS     0.005878075
 Search for a local minimum.
 Step number   1 out of a maximum of  140
 All quantities printed in internal units (Hartrees-Bohrs-Radians)
 Mixed Optimization -- RFO/linear search
 Second derivative matrix not updated -- first step.
 ITU=  0
     Eigenvalues ---    0.00230   0.00245   0.00271   0.00290   0.00345
     Eigenvalues ---    0.01073   0.01154   0.01195   0.01206   0.01215
     Eigenvalues ---    0.01269   0.03765   0.03776   0.03903   0.03915
     Eigenvalues ---    0.04634   0.04646   0.04772   0.04825   0.04954
     Eigenvalues ---    0.05344   0.05500   0.05635   0.07503   0.07593
     Eigenvalues ---    0.07899   0.07914   0.11347   0.11532   0.13579
     Eigenvalues ---    0.13813   0.16000   0.16000   0.16000   0.16000
     Eigenvalues ---    0.16000   0.16000   0.17137   0.17203   0.17273
     Eigenvalues ---    0.17280   0.19356   0.19432   0.20030   0.20113
     Eigenvalues ---    0.22030   0.22034   0.27799   0.28570   0.28750
     Eigenvalues ---    0.28876   0.29257   0.33991   0.34038   0.34120
     Eigenvalues ---    0.34216   0.34218   0.34332   0.34480   0.34540
     Eigenvalues ---    0.38673   0.39495   0.39927   0.40040   0.40138
     Eigenvalues ---    0.40704   0.50427   0.51060   0.51190   0.51553
     Eigenvalues ---    0.52406   0.52458
 RFO step:  Lambda=-1.83097664D-02 EMin= 2.30000000D-03
 Linear search not attempted -- first point.
 Iteration  1 RMS(Cart)=  0.08946313 RMS(Int)=  0.00312198
 Iteration  2 RMS(Cart)=  0.00479199 RMS(Int)=  0.00058954
 Iteration  3 RMS(Cart)=  0.00000888 RMS(Int)=  0.00058949
 Iteration  4 RMS(Cart)=  0.00000000 RMS(Int)=  0.00058949
 Variable       Old X    -DE/DX   Delta X   Delta X   Delta X     New X
                                 (Linear)    (Quad)   (Total)
    R1        2.90526  -0.00777   0.00000  -0.02540  -0.02540   2.87987
    R2        2.90908  -0.01054   0.00000  -0.03468  -0.03468   2.87440
    R3        2.07345   0.00017   0.00000   0.00047   0.00047   2.07391
    R4        2.71498  -0.01081   0.00000  -0.02583  -0.02583   2.68916
    R5        2.92581  -0.00470   0.00000  -0.01587  -0.01587   2.90994
    R6        2.07265  -0.00395   0.00000  -0.01102  -0.01102   2.06164
    R7        2.71652  -0.01358   0.00000  -0.03253  -0.03253   2.68400
    R8        2.89469  -0.01112   0.00000  -0.03576  -0.03576   2.85893
    R9        2.07128  -0.00041   0.00000  -0.00115  -0.00115   2.07013
   R10        2.73397  -0.01140   0.00000  -0.02814  -0.02814   2.70583
   R11        2.90262  -0.00830   0.00000  -0.02704  -0.02704   2.87558
   R12        2.06966  -0.00350   0.00000  -0.00970  -0.00970   2.05996
   R13        2.72245  -0.01266   0.00000  -0.03063  -0.03063   2.69182
   R14        2.06773  -0.00178   0.00000  -0.00493  -0.00493   2.06280
   R15        2.06428  -0.00229   0.00000  -0.00631  -0.00631   2.05798
   R16        2.71366  -0.00023   0.00000  -0.00055  -0.00055   2.71311
   R17        2.06527  -0.00044   0.00000  -0.00120  -0.00120   2.06407
   R18        2.06963  -0.00154   0.00000  -0.00426  -0.00426   2.06537
   R19        2.70608   0.00011   0.00000   0.00027   0.00027   2.70634
   R20        1.84163  -0.01973   0.00000  -0.03635  -0.03635   1.80528
   R21        1.85511  -0.01942   0.00000  -0.03672  -0.03672   1.81839
   R22        1.85383  -0.01859   0.00000  -0.03506  -0.03506   1.81877
   R23        1.86137  -0.01755   0.00000  -0.03359  -0.03359   1.82778
   R24        1.85030  -0.01777   0.00000  -0.03328  -0.03328   1.81702
   R25        1.84213  -0.01961   0.00000  -0.03615  -0.03615   1.80598
    A1        1.99050   0.00225   0.00000   0.00105   0.00098   1.99148
    A2        1.90306  -0.00027   0.00000  -0.01369  -0.01381   1.88925
    A3        1.93935  -0.00573   0.00000  -0.02726  -0.02714   1.91221
    A4        1.88195  -0.00362   0.00000  -0.02934  -0.02982   1.85213
    A5        1.89523   0.00340   0.00000   0.02090   0.02087   1.91610
    A6        1.84749   0.00418   0.00000   0.05221   0.05238   1.89987
    A7        1.98160  -0.00241   0.00000  -0.00289  -0.00410   1.97750
    A8        1.89973   0.00002   0.00000  -0.01986  -0.02026   1.87946
    A9        1.93593   0.00169   0.00000   0.02741   0.02680   1.96273
   A10        1.88053  -0.00190   0.00000  -0.03500  -0.03519   1.84535
   A11        1.91485   0.00385   0.00000   0.03729   0.03686   1.95171
   A12        1.84527  -0.00137   0.00000  -0.01029  -0.00959   1.83567
   A13        2.01938   0.00111   0.00000  -0.00415  -0.00407   2.01531
   A14        1.92428   0.00032   0.00000  -0.00933  -0.00918   1.91510
   A15        1.86575  -0.00723   0.00000  -0.04153  -0.04133   1.82442
   A16        1.91157  -0.00232   0.00000  -0.01020  -0.01077   1.90079
   A17        1.87521   0.00514   0.00000   0.02728   0.02694   1.90215
   A18        1.85988   0.00326   0.00000   0.04296   0.04272   1.90260
   A19        2.02192   0.00008   0.00000   0.01240   0.01023   2.03214
   A20        1.91789  -0.00049   0.00000  -0.02987  -0.03014   1.88774
   A21        1.87352   0.00002   0.00000   0.02804   0.02616   1.89968
   A22        1.90578  -0.00326   0.00000  -0.04563  -0.04549   1.86028
   A23        1.87399   0.00563   0.00000   0.05736   0.05624   1.93023
   A24        1.86369  -0.00191   0.00000  -0.02117  -0.01996   1.84374
   A25        1.94688  -0.00255   0.00000  -0.03314  -0.03284   1.91404
   A26        1.95293  -0.00047   0.00000  -0.01897  -0.01866   1.93426
   A27        1.88003  -0.01428   0.00000  -0.05478  -0.05443   1.82560
   A28        1.92397  -0.00097   0.00000  -0.01013  -0.01269   1.91128
   A29        1.87224   0.00988   0.00000   0.06406   0.06271   1.93495
   A30        1.88434   0.00897   0.00000   0.05910   0.05809   1.94243
   A31        1.94942  -0.00258   0.00000  -0.02486  -0.02506   1.92436
   A32        1.91855  -0.00583   0.00000  -0.04473  -0.04488   1.87367
   A33        1.92867  -0.00340   0.00000  -0.01404  -0.01392   1.91475
   A34        1.89409   0.00277   0.00000   0.01798   0.01645   1.91054
   A35        1.90067   0.00365   0.00000   0.02634   0.02595   1.92662
   A36        1.87038   0.00592   0.00000   0.04322   0.04276   1.91314
   A37        1.85155   0.00668   0.00000   0.03747   0.03747   1.88903
   A38        1.81166   0.00649   0.00000   0.03638   0.03638   1.84804
   A39        1.81992   0.00170   0.00000   0.00952   0.00952   1.82945
   A40        1.83700   0.00499   0.00000   0.02798   0.02798   1.86498
   A41        1.82714   0.00354   0.00000   0.01987   0.01987   1.84700
   A42        1.85158   0.00799   0.00000   0.04479   0.04479   1.89636
    D1        2.93755  -0.00478   0.00000  -0.07224  -0.07221   2.86534
    D2        0.84317  -0.00084   0.00000  -0.01211  -0.01223   0.83094
    D3       -1.17998  -0.00015   0.00000  -0.00342  -0.00339  -1.18337
    D4        0.83316  -0.00144   0.00000  -0.02547  -0.02537   0.80779
    D5       -1.26121   0.00250   0.00000   0.03465   0.03460  -1.22661
    D6        2.99882   0.00319   0.00000   0.04335   0.04345   3.04227
    D7       -1.19663  -0.00306   0.00000  -0.06507  -0.06505  -1.26168
    D8        2.99218   0.00088   0.00000  -0.00495  -0.00508   2.98710
    D9        0.96903   0.00156   0.00000   0.00375   0.00377   0.97280
   D10        1.03582  -0.00198   0.00000  -0.00554  -0.00575   1.03007
   D11       -1.14507   0.00003   0.00000   0.01949   0.01947  -1.12560
   D12        3.12318   0.00000   0.00000  -0.00356  -0.00365   3.11953
   D13       -3.13123  -0.00346   0.00000  -0.04331  -0.04319   3.10877
   D14        0.97107  -0.00146   0.00000  -0.01828  -0.01797   0.95310
   D15       -1.04387  -0.00148   0.00000  -0.04133  -0.04109  -1.08496
   D16       -1.13698   0.00127   0.00000   0.01321   0.01299  -1.12399
   D17        2.96532   0.00328   0.00000   0.03824   0.03821   3.00353
   D18        0.95038   0.00326   0.00000   0.01519   0.01509   0.96547
   D19       -2.94770  -0.00014   0.00000   0.02057   0.02040  -2.92730
   D20       -0.74491   0.00120   0.00000   0.01800   0.01750  -0.72741
   D21        1.27181   0.00074   0.00000   0.02053   0.02120   1.29301
   D22        1.14408  -0.00248   0.00000  -0.04864  -0.04870   1.09538
   D23       -1.02557   0.00228   0.00000   0.02837   0.02822  -0.99736
   D24       -3.04601   0.00479   0.00000   0.05353   0.05354  -2.99248
   D25       -3.03388  -0.00529   0.00000  -0.09982  -0.09955  -3.13342
   D26        1.07966  -0.00052   0.00000  -0.02281  -0.02263   1.05702
   D27       -0.94078   0.00199   0.00000   0.00235   0.00269  -0.93810
   D28       -1.03298  -0.00593   0.00000  -0.11164  -0.11183  -1.14480
   D29        3.08056  -0.00117   0.00000  -0.03463  -0.03491   3.04565
   D30        1.06012   0.00134   0.00000  -0.00947  -0.00959   1.05053
   D31       -1.33482   0.00072   0.00000   0.01327   0.01266  -1.32216
   D32        0.86842   0.00167   0.00000   0.05686   0.05742   0.92584
   D33        2.89177   0.00060   0.00000   0.02862   0.02867   2.92044
   D34        0.92713  -0.00327   0.00000  -0.03448  -0.03461   0.89252
   D35       -1.23741   0.00027   0.00000   0.01790   0.01771  -1.21970
   D36        2.97733  -0.00144   0.00000  -0.00889  -0.00889   2.96845
   D37        3.11456  -0.00392   0.00000  -0.05891  -0.05886   3.05570
   D38        0.95002  -0.00039   0.00000  -0.00654  -0.00654   0.94348
   D39       -1.11842  -0.00209   0.00000  -0.03332  -0.03313  -1.15156
   D40       -1.15505   0.00151   0.00000   0.00128   0.00127  -1.15378
   D41        2.96360   0.00505   0.00000   0.05365   0.05359   3.01719
   D42        0.89516   0.00335   0.00000   0.02687   0.02700   0.92215
   D43       -2.92845   0.00055   0.00000   0.03925   0.03906  -2.88939
   D44       -0.75046   0.00062   0.00000   0.02565   0.02501  -0.72545
   D45        1.29712   0.00214   0.00000   0.04917   0.05000   1.34712
   D46       -1.20345   0.00233   0.00000   0.07459   0.07499  -1.12846
   D47        2.97622   0.00447   0.00000   0.09843   0.09850   3.07472
   D48        0.91533   0.00286   0.00000   0.08146   0.08164   0.99697
   D49        0.97246  -0.00099   0.00000   0.00594   0.00650   0.97896
   D50       -1.13105   0.00115   0.00000   0.02979   0.03001  -1.10104
   D51        3.09124  -0.00046   0.00000   0.01282   0.01315   3.10439
   D52        2.98690  -0.00190   0.00000  -0.01167  -0.01207   2.97483
   D53        0.88339   0.00024   0.00000   0.01217   0.01144   0.89483
   D54       -1.17750  -0.00137   0.00000  -0.00480  -0.00541  -1.18292
   D55       -0.99541  -0.00074   0.00000  -0.00096  -0.00189  -0.99731
   D56        1.18956   0.00276   0.00000   0.06552   0.06641   1.25597
   D57       -3.05143   0.00081   0.00000   0.03046   0.03050  -3.02093
   D58        3.09395   0.00104   0.00000   0.01943   0.01957   3.11351
   D59       -1.09125  -0.00433   0.00000  -0.01441  -0.01669  -1.10794
   D60        0.98200   0.00465   0.00000   0.03980   0.04195   1.02395
   D61       -3.13470  -0.00022   0.00000   0.01427   0.01417  -3.12053
   D62       -0.98731  -0.00322   0.00000  -0.00835  -0.00914  -0.99645
   D63        1.05833   0.00517   0.00000   0.05014   0.05103   1.10937
         Item               Value     Threshold  Converged?
 Maximum Force            0.019735     0.000450     NO 
 RMS     Force            0.005878     0.000300     NO 
 Maximum Displacement     0.294329     0.001800     NO 
 RMS     Displacement     0.088928     0.001200     NO 
 Predicted change in Energy=-1.071628D-02
 GradGradGradGradGradGradGradGradGradGradGradGradGradGradGradGradGradGrad

                          Input orientation:                          
 ---------------------------------------------------------------------
 Center     Atomic      Atomic             Coordinates (Angstroms)
 Number     Number       Type             X           Y           Z
 ---------------------------------------------------------------------
      1          6           0        0.020429   -0.047428   -0.059370
      2          6           0        1.544286   -0.056986   -0.074360
      3          6           0       -0.604579    0.914985   -1.057751
      4          6           0        2.161561   -0.721064    1.170301
      5          1           0        1.882430    0.980073   -0.054674
      6          1           0       -0.311372    0.284615    0.932643
      7          6           0       -0.244227    0.673659   -2.507134
      8          1           0       -0.341163    1.944878   -0.793213
      9          6           0        1.849478   -2.196119    1.376128
     10          1           0        1.791788   -0.198681    2.052724
     11          1           0       -0.420222   -0.373553   -2.759984
     12          1           0        0.799620    0.922226   -2.693127
     13          1           0        0.780857   -2.335326    1.554186
     14          1           0        2.411157   -2.528943    2.252641
     15          8           0       -1.124656    1.533244   -3.246888
     16          1           0       -0.922577    1.439952   -4.175912
     17          8           0       -2.015790    0.737437   -0.892820
     18          1           0       -2.424808    1.153758   -1.657875
     19          8           0       -0.466601   -1.364455   -0.290206
     20          1           0       -1.406765   -1.252485   -0.463024
     21          8           0        2.071622   -0.597248   -1.277403
     22          1           0        1.962716   -1.556903   -1.225284
     23          8           0        3.569290   -0.503840    1.157260
     24          1           0        3.883086   -0.867913    0.324488
     25          8           0        2.265167   -2.942643    0.226815
     26          1           0        2.045373   -3.862542    0.363937
 ---------------------------------------------------------------------
                    Distance matrix (angstroms):
                    1          2          3          4          5
     1  C    0.000000
     2  C    1.523961   0.000000
     3  C    1.521065   2.555271   0.000000
     4  C    2.559360   1.539873   3.910551   0.000000
     5  H    2.126695   1.090972   2.682465   2.114792   0.000000
     6  H    1.097468   2.138741   2.108318   2.680162   2.504241
     7  C    2.565455   3.106608   1.512879   4.610488   3.260540
     8  H    2.153731   2.842381   1.095467   4.150453   2.533902
     9  C    3.165904   2.602489   4.650283   1.521693   3.483745
    10  H    2.760713   2.146118   4.081408   1.090085   2.416362
    11  H    2.755693   3.342467   2.142875   4.715242   3.801738
    12  H    2.912738   2.893324   2.155523   4.413770   2.852588
    13  H    2.901084   2.902726   4.393878   2.158600   3.846266
    14  H    4.149565   3.503850   5.649248   2.121835   4.232782
    15  O    3.737648   4.440385   2.333462   5.949175   4.420271
    16  H    4.477441   5.014875   3.177993   6.539411   5.006412
    17  O    2.335987   3.738332   1.431866   4.882003   3.994682
    18  H    3.158679   4.441524   1.931423   5.705114   4.599209
    19  O    1.423040   2.408264   2.409151   3.074780   3.327197
    20  H    1.911016   3.207645   2.386447   3.960191   3.996232
    21  O    2.448121   1.420309   3.081745   2.452483   2.004694
    22  H    2.722195   1.936353   3.567815   2.544994   2.795178
    23  O    3.779275   2.411888   4.933612   1.424450   2.552700
    24  H    3.967451   2.507323   5.022793   1.923698   2.749807
    25  O    3.674645   2.989547   4.976630   2.415846   3.951382
    26  H    4.339894   3.863347   5.645193   3.245398   4.863405
                    6          7          8          9         10
     6  H    0.000000
     7  C    3.462359   0.000000
     8  H    2.394983   2.136099   0.000000
     9  C    3.319638   5.262980   5.162636   0.000000
    10  H    2.431345   5.069383   4.152552   2.109709   0.000000
    11  H    3.752403   1.091587   3.041309   5.057737   5.299597
    12  H    3.845394   1.089034   2.440671   5.233079   4.976337
    13  H    2.905747   5.157432   5.008927   1.092261   2.415734
    14  H    4.131666   6.321644   6.071867   1.092946   2.419443
    15  O    4.437227   1.435715   2.608414   6.642733   6.292146
    16  H    5.273113   1.957596   3.469243   7.192389   6.989192
    17  O    2.538189   2.397605   2.066932   5.356694   4.904100
    18  H    3.454390   2.388864   2.390625   6.220641   5.777311
    19  O    2.058856   3.019624   3.349692   2.971962   3.456685
    20  H    2.347435   3.039723   3.386394   3.856948   4.203598
    21  O    3.367587   2.913864   3.538132   3.105956   3.365547
    22  H    3.635837   3.389564   4.213907   2.681187   3.552368
    23  O    3.966314   5.418229   5.009212   2.422699   2.013576
    24  H    4.392226   5.237294   5.196665   2.646817   2.794315
    25  O    4.189503   5.181619   5.632164   1.432136   3.329768
    26  H    4.803809   5.836304   6.384409   1.959559   4.042299
                   11         12         13         14         15
    11  H    0.000000
    12  H    1.780879   0.000000
    13  H    4.889090   5.352724   0.000000
    14  H    6.147261   6.242454   1.784154   0.000000
    15  O    2.090258   2.093521   6.453458   7.697282   0.000000
    16  H    2.354998   2.330806   7.070250   8.257857   0.955315
    17  O    2.695632   3.346906   4.821923   6.337272   2.639898
    18  H    2.750580   3.394450   5.724275   7.227792   2.087910
    19  O    2.661548   3.550529   2.429099   4.012929   4.191857
    20  H    2.649870   3.817180   3.166602   4.855998   3.948388
    21  O    2.908157   2.435378   3.564390   4.038308   4.316719
    22  H    3.071484   3.106998   3.119004   3.638945   4.813290
    23  O    5.592672   4.952799   3.359650   2.577242   6.751249
    24  H    5.317596   4.671013   3.645447   2.939961   6.602860
    25  O    4.767861   5.060741   2.081807   2.072783   6.602354
    26  H    5.292550   5.813050   2.312592   2.340830   7.225071
                   16         17         18         19         20
    16  H    0.000000
    17  O    3.530912   0.000000
    18  H    2.946035   0.962252   0.000000
    19  O    4.813661   2.679753   3.470805   0.000000
    20  H    4.611854   2.124953   2.872992   0.962451   0.000000
    21  O    4.638617   4.316969   4.840317   2.829442   3.632042
    22  H    5.100222   4.604675   5.175441   2.610170   3.468013
    23  O    7.238641   6.077558   6.826553   4.373127   5.286484
    24  H    6.976693   6.233436   6.914221   4.420881   5.361959
    25  O    6.982325   5.755272   6.506030   3.196959   4.100683
    26  H    7.585209   6.263568   7.016659   3.602548   4.406078
                   21         22         23         24         25
    21  O    0.000000
    22  H    0.967220   0.000000
    23  O    2.859950   3.060480   0.000000
    24  H    2.433252   2.562094   0.961523   0.000000
    25  O    2.793028   2.029863   2.917914   2.632813   0.000000
    26  H    3.654700   2.801505   3.772608   3.513766   0.955682
                   26
    26  H    0.000000
 Stoichiometry    C6H14O6
 Framework group  C1[X(C6H14O6)]
 Deg. of freedom    72
 Full point group                 C1      NOp   1
 Largest Abelian subgroup         C1      NOp   1
 Largest concise Abelian subgroup C1      NOp   1
                         Standard orientation:                         
 ---------------------------------------------------------------------
 Center     Atomic      Atomic             Coordinates (Angstroms)
 Number     Number       Type             X           Y           Z
 ---------------------------------------------------------------------
      1          6           0       -0.421765    0.553051   -0.589180
      2          6           0        0.601091   -0.573261   -0.501730
      3          6           0       -1.866535    0.078708   -0.624905
      4          6           0        2.032105   -0.125093   -0.851806
      5          1           0        0.334426   -1.321898   -1.249160
      6          1           0       -0.255900    1.095676   -1.528585
      7          6           0       -2.311504   -0.741828    0.565694
      8          1           0       -2.043999   -0.497598   -1.539469
      9          6           0        2.655074    0.923740    0.057814
     10          1           0        2.018740    0.301351   -1.854928
     11          1           0       -2.060214   -0.216089    1.488740
     12          1           0       -1.832807   -1.720006    0.562432
     13          1           0        2.101986    1.862901   -0.013623
     14          1           0        3.682653    1.079589   -0.280302
     15          8           0       -3.734522   -0.857266    0.414141
     16          1           0       -4.069124   -1.391990    1.131594
     17          8           0       -2.639013    1.283270   -0.675365
     18          1           0       -3.542515    1.025642   -0.467424
     19          8           0       -0.236280    1.450699    0.499336
     20          1           0       -1.020198    2.009053    0.494294
     21          8           0        0.551162   -1.256043    0.742695
     22          1           0        0.974425   -0.681097    1.395230
     23          8           0        2.867296   -1.276006   -0.934934
     24          1           0        2.793392   -1.715705   -0.083037
     25          8           0        2.660308    0.449368    1.409094
     26          1           0        3.036729    1.126091    1.969166
 ---------------------------------------------------------------------
 Rotational constants (GHZ):           1.7625281           0.4918710           0.4644805
 Standard basis: def2TZVPP (5D, 7F)
 There are   642 symmetry adapted cartesian basis functions of A   symmetry.
 There are   568 symmetry adapted basis functions of A   symmetry.
   568 basis functions,   850 primitive gaussians,   642 cartesian basis functions
    49 alpha electrons       49 beta electrons
       nuclear repulsion energy       835.9771551722 Hartrees.
 NAtoms=   26 NActive=   26 NUniq=   26 SFac= 1.00D+00 NAtFMM=   60 NAOKFM=F Big=F
 Integral buffers will be    131072 words long.
 Raffenetti 2 integral format.
 Two-electron integral symmetry is turned on.
 Nuclear repulsion after empirical dispersion term =      835.9585516251 Hartrees.
 One-electron integrals computed using PRISM.
   1 Symmetry operations used in ECPInt.
 ECPInt:  NShTT=   23436 NPrTT=   62434 LenC2=   21857 LenP2D=   45445.
 LDataN:  DoStor=T MaxTD1= 6 Len=  172
[...]
 00007073,-0.00012845,0.00007024,-0.00076338,0.00996092,-0.00286835,0.0
 0109646,0.00186005,0.00144257,0.61911272,-0.00209588,-0.20513447,-0.02
 807909,-0.00613051,-0.01065311,-0.00289004,-0.01195845,-0.05076353,-0.
 00650959,0.00030398,-0.00098369,0.00112308,-0.00032047,0.00123901,-0.0
 0037083,-0.00913514,-0.02844982,-0.01253005,0.00023473,-0.00004663,-0.
 00389434,0.00427264,-0.00360658,0.00546439,-0.00074667,-0.00336677,-0.
 00306856,0.00016934,0.00043748,0.00056307,-0.00002118,0.00008356,0.001
 63656,0.00022939,-0.00026869,0.00007979,0.00011560,-0.00011491,-0.0003
 0259,0.00037170,0.00072730,0.00032060,0.00072134,0.00037445,0.00213085
 ,0.00001619,-0.00004008,0.00005741,0.00007367,0.00017405,0.00082624,-0
 .00118415,-0.00012152,-0.00096168,0.00533392,0.34516486,-0.01537439,-0
 .04157624,-0.07778476,0.00070160,-0.00612920,-0.00150091,0.00351551,0.
 01777849,0.00786400,0.00127379,0.00000186,-0.00030831,-0.00056035,0.00
 024862,0.00036120,-0.01266820,-0.03558836,-0.00178738,0.00229969,-0.00
 245468,-0.00019233,-0.00216937,0.00371320,-0.00172552,0.00036717,0.000
 31243,-0.00191082,0.00004109,0.00014274,0.00047554,-0.00013557,0.00199
 124,0.00107225,0.00011550,0.00100161,-0.00010496,-0.00198065,0.0000982
 8,-0.00006411,-0.00060268,0.00013762,0.00044459,-0.00067486,0.00183023
 ,0.00010492,0.00003395,-0.00048411,0.00040150,-0.00094323,0.00374126,0
 .00219037,0.00046760,0.00005845,0.00031673,0.13657850,0.04348239,0.100
 12607,-0.01586122,-0.00623341,-0.00314818,-0.00009027,-0.00204411,-0.0
 0094625,0.00370851,0.00190279,-0.00008153,-0.00029421,-0.00003988,0.00
 007201,-0.00030948,0.00033305,-0.00004074,0.00059227,0.00158396,0.0006
 7711,-0.00015771,-0.00079494,0.00077839,-0.00147412,0.00015727,-0.0003
 2312,-0.00003567,-0.00007705,0.00007480,0.00001762,0.00000412,-0.00001
 398,-0.00007207,-0.00002754,0.00057633,-0.00008482,0.00016149,0.000212
 48,0.00004376,0.00008861,-0.00018999,0.00017808,-0.00002301,-0.0000336
 1,-0.00078629,0.00045215,-0.00048968,-0.00006463,-0.00000504,0.0000002
 2,-0.00189522,-0.00066334,0.00079535,-0.00037782,-0.00042652,-0.000731
 60,-0.48848063,0.01653569,-0.10595016,0.50500272,-0.04480516,-0.002688
 56,-0.01012212,-0.00017715,-0.00801522,-0.00178910,-0.00676038,-0.0044
 8226,0.00097443,0.00022214,-0.00019970,0.00028349,-0.00205269,-0.00011
 827,-0.00003771,-0.00018663,-0.00048342,-0.00095976,0.00013686,0.00013
 203,0.00073816,0.00056205,0.00086321,-0.00027619,-0.00008422,-0.000397
 81,-0.00077611,0.00000645,0.00003616,0.00001152,-0.00015132,-0.0000296
 3,0.00008268,0.00018044,0.00017775,-0.00046401,0.00005936,0.00011173,0
 .00007721,0.00002086,0.00004355,0.00004760,0.00038883,0.00009411,-0.00
 066397,0.00017035,0.00001715,0.00010518,-0.00039892,0.00303805,-0.0019
 9409,0.00104790,0.00159039,0.00128361,0.06148072,-0.04832833,0.0072987
 4,-0.01161315,0.05676104,-0.01041895,-0.00370889,-0.00152873,0.0012123
 8,-0.00048140,-0.00080644,0.00210932,0.00236809,0.00217573,-0.00002796
 ,-0.00002181,0.00000108,0.00009519,0.00028387,0.00020949,-0.00089759,-
 0.00022661,-0.00030773,-0.00025608,0.00136176,-0.00000911,-0.00029484,
 -0.00047126,-0.00018414,-0.00022888,0.00006751,0.00010531,-0.00006215,
 -0.00004028,-0.00002765,0.00049578,-0.00027976,-0.00078833,-0.00009035
 ,-0.00052047,0.00005615,-0.00020228,0.00002804,-0.00018235,0.00000954,
 0.00005751,0.00003185,0.00000624,-0.00067758,0.00009975,0.00005723,0.0
 0019634,-0.00014354,-0.00027153,-0.00254609,-0.00285885,0.00002217,0.0
 0088017,-0.00039415,-0.10023857,-0.00215873,-0.02948333,0.10907286,0.0
 0497417,0.03417694,-0.01816520,0.01703418,0.04042884,-0.09264603,0.009
 41360,0.05907902,0.00334404,-0.00162031,0.00132460,-0.00473011,-0.0017
 9918,-0.00271633,0.00301958,0.00279957,-0.00083113,-0.00875838,-0.0004
 2646,-0.00023267,-0.00086024,0.00034917,-0.00133847,-0.00020572,0.0001
 2840,0.00009141,0.00018879,0.00013974,0.00084542,0.00014271,0.00035844
 ,-0.00184285,0.00029898,0.00072849,0.00020163,-0.00204954,0.00089161,-
 0.00107801,0.00037942,0.00033644,-0.00039693,0.00013553,-0.00031432,0.
 00029939,-0.00116304,0.00134079,-0.00100115,-0.00004443,-0.00011000,0.
 00030813,-0.00109720,0.00022901,-0.00085180,0.00022150,-0.00012660,-0.
 00000845,0.00254538,0.00029637,0.00111023,0.00111771,0.00082292,0.0004
 1334,0.12550282,0.00098903,-0.00304197,-0.00708075,0.03097401,-0.11822
 633,-0.06030744,-0.00191064,-0.00030124,-0.00087046,-0.00265418,0.0076
 4367,0.00195906,0.02095949,-0.01640470,-0.03862962,0.00087220,0.000929
 36,0.00034863,-0.00101713,-0.00270987,0.00069768,0.00003936,0.00062835
 ,0.00007684,-0.00276554,-0.00491165,-0.00691430,0.00080932,0.00049733,
 0.00191897,0.00029547,0.00043984,0.00041761,0.00274529,-0.00072867,0.0
 0062745,-0.00010435,0.00060918,0.00090055,0.00024656,0.00108532,0.0001
 5109,0.00161868,0.00028587,0.00072681,-0.00004900,-0.00014880,-0.00016
 544,0.00124830,0.00065252,0.00040040,-0.00006999,0.00003385,-0.0000568
 2,-0.00038947,0.00414364,0.00271635,0.00003389,0.00045458,0.00066928,-
 0.01312663,0.63208102,0.01262011,-0.00816539,-0.01377211,0.05405288,-0
 .02153271,-0.18001447,-0.00014977,0.00137645,-0.00196085,0.01715889,-0
 .01945009,-0.04703067,0.00485626,-0.00845376,-0.00703629,0.00192436,-0
 .00002175,0.00133087,0.00132664,-0.00000064,-0.00146354,-0.00020620,0.
 00037289,0.00030076,-0.00156751,-0.00439732,0.00025609,-0.00418140,0.0
 0431879,-0.00620118,0.00105198,0.00091310,0.00047310,-0.00230404,-0.00
 044621,-0.00091529,-0.00000903,0.00003840,0.00025037,-0.00008031,0.000
 50673,0.00032057,-0.00232814,0.00132217,0.00059376,0.00028862,-0.00027
 555,0.00040370,0.00063343,-0.00029574,0.00203900,0.00052572,-0.0000316
 7,-0.00053121,-0.00179674,0.00056050,0.00338978,-0.00030711,0.00016665
 ,-0.00005827,-0.10517666,0.02345061,0.29417059,0.00014459,0.00463864,0
 .00181023,-0.00055473,0.02036267,0.00085645,-0.00003643,0.00022197,0.0
 0005835,0.00288525,-0.00131389,-0.00028176,-0.00059624,0.00022367,0.00
 156656,-0.00002401,-0.00064710,-0.00032112,0.00016562,0.00102581,-0.00
 013593,0.00000837,-0.00023821,0.00000322,0.00041698,0.00112011,0.00104
 423,-0.00025845,0.00000939,0.00022187,-0.00024275,-0.00011582,-0.00036
 929,-0.00027455,-0.00007395,0.00002115,-0.00011888,-0.00011262,0.00017
 955,-0.00008460,-0.00022112,-0.00032150,-0.00005298,-0.00049811,0.0002
 0014,0.00002359,0.00008706,-0.00007404,0.00006288,-0.00041682,0.000002
 71,-0.00009812,0.00001833,-0.00003705,0.00080005,-0.00107977,-0.001002
 54,-0.00019310,-0.00015726,-0.00056328,-0.01887443,-0.03788302,0.01842
 023,0.02520318,0.00062607,0.00131116,0.00143377,0.00102784,-0.02037853
 ,-0.00474845,0.00064715,-0.00047703,0.00006262,-0.00036228,0.00229807,
 -0.00017872,0.00108407,0.00169084,-0.00150885,-0.00102217,-0.00015397,
 0.00014683,0.00041819,-0.00030400,0.00025041,-0.00000666,-0.00004250,0
 .00006444,0.00184536,0.00602687,0.00442608,0.00032336,-0.00078262,0.00
 093470,0.00018579,0.00013009,0.00009532,0.00002467,-0.00031396,0.00011
 707,0.00011033,-0.00090025,-0.00123393,-0.00011802,-0.00057191,-0.0005
 6056,-0.00060873,0.00037918,-0.00035506,0.00005438,-0.00000130,0.00011
 546,-0.00067585,-0.00006219,-0.00008546,0.00007438,-0.00001555,-0.0000
 1098,0.00004215,-0.00149091,0.00043221,0.00010118,0.00000181,0.0000398
 7,-0.01655044,-0.49621475,0.02161285,0.01971480,0.51614436,-0.00004475
 ,-0.00077269,-0.00005480,-0.00013126,-0.04260350,-0.00173445,-0.000268
 25,-0.00017596,0.00004000,-0.00054523,-0.00193634,-0.00062923,0.003347
 57,-0.00286439,-0.00555279,0.00022480,0.00003234,-0.00008959,0.0002148
 4,0.00107489,-0.00005469,0.00001481,0.00007893,-0.00010798,0.00010792,
 -0.00145307,-0.00685398,0.00024189,0.00067991,0.00051884,-0.00042285,-
 0.00019775,-0.00014094,-0.00007315,-0.00007098,0.00014273,-0.00030865,
 0.00026481,0.00059354,0.00015969,0.00014175,0.00034084,-0.00009183,-0.
 00039265,-0.00012047,-0.00003577,0.00012086,-0.00003367,0.00010833,0.0
 0016357,-0.00017475,-0.00005996,0.00004923,0.00007743,0.00013199,0.000
 96223,-0.00095482,-0.00009308,0.00027606,0.00026583,0.01861160,0.06459
 871,-0.04234249,-0.02119466,-0.01509847,0.05119365,0.00127469,0.004556
 30,-0.00690924,-0.04669960,-0.00094031,-0.00111013,-0.00077546,-0.0021
 2597,0.00127549,-0.23150681,-0.02352310,-0.00952178,0.00125908,-0.0000
 1219,0.00152125,0.00105854,-0.00019123,0.00003304,-0.00022528,-0.00013
 675,0.00079706,0.00001369,0.00013308,-0.00002681,-0.03236401,-0.006632
 13,0.00836167,-0.02560491,-0.00011721,0.00553173,-0.00005861,-0.000051
 54,-0.00000642,-0.00000244,0.00007313,0.00001989,-0.00070803,-0.004941
 72,0.00069426,0.00184303,0.00087577,-0.00006411,-0.00011753,0.00038295
 ,-0.00090166,-0.00005569,-0.00002720,0.00008385,-0.00156745,0.00079190
 ,-0.00127446,-0.00018531,-0.00006821,0.00031231,-0.00097267,-0.0008461
 4,-0.00099191,0.00029353,-0.00011968,0.00021297,0.00412803,-0.00000650
 ,0.00160449,-0.00138485,-0.00057833,-0.00012648,0.39642932,-0.00005405
 ,-0.00148031,0.00346342,0.01510825,0.00213722,-0.00265611,0.00011544,0
 .00043845,-0.00032775,-0.01331528,-0.06948829,-0.00684279,-0.00041331,
 0.00221425,-0.00212833,-0.00024982,-0.00001969,0.00015571,-0.00011339,
 -0.00003609,-0.00022056,-0.00004257,0.00011810,0.00000561,-0.03976619,
 -0.00107339,0.00863034,0.01420572,0.00603579,0.00086921,0.00004458,0.0
 0004339,0.00005345,0.00001108,0.00000714,-0.00006211,-0.00351765,-0.00
 653516,0.00100354,-0.00020477,0.00388971,-0.00212043,0.00013465,0.0000
 0588,0.00018182,-0.00002953,-0.00003724,-0.00002713,0.00065594,0.00002
 641,0.00028554,0.00005408,-0.00000386,-0.00005187,0.00094073,0.0016755
 6,-0.00011352,0.00009377,0.00017303,0.00010534,-0.00125509,0.00342992,
 -0.00021102,0.00100958,-0.00104891,0.00131059,0.01554033,0.08133059,-0
 .00018757,0.00305338,-0.00522062,-0.02738136,-0.00286307,-0.00202308,-
 0.00053770,-0.00098115,0.00084842,0.03748946,-0.00532229,-0.09760538,0
 .00041681,-0.00114129,0.00133720,-0.00063434,0.00017051,0.00050765,0.0
 0040175,-0.00017099,0.00028652,-0.00000225,0.00007830,-0.00000554,0.01
 048449,0.00163183,-0.00005595,0.03541128,0.00394711,-0.00013279,0.0000
 7223,0.00004494,0.00003457,-0.00007871,-0.00016014,0.00006013,0.000842
 02,0.00229622,0.00086229,0.00055390,-0.00151865,0.00080776,-0.00039752
 ,0.00026037,-0.00025742,0.00004790,-0.00002097,0.00008046,-0.00098376,
 0.00032250,-0.00042639,-0.00007945,-0.00003218,0.00004412,-0.00044405,
 -0.00059980,0.00062188,0.00001946,-0.00004486,-0.00002767,-0.01040723,
 0.00000134,-0.00084224,0.00055221,0.00177533,-0.00046952,-0.12297097,0
 .09414110,0.57571322,-0.00037120,-0.00046779,0.00068670,-0.00332907,0.
 00290527,0.00348866,-0.00019597,0.00033583,-0.00025713,-0.01950174,0.0
 1024929,0.04522053,-0.00010660,0.00001722,-0.00040079,0.00036925,-0.00
 005466,-0.00022675,-0.00028490,0.00018651,-0.00020583,0.00001671,-0.00
 001686,-0.00000011,-0.00115149,-0.00027001,0.00174724,-0.00685055,-0.0
 0115971,-0.00001007,-0.00007366,-0.00004927,-0.00005992,0.00005620,0.0
 0015087,-0.00008244,0.00013467,-0.00035519,-0.00026265,-0.00006822,-0.
 00002467,-0.00019217,0.00035299,-0.00029959,0.00031143,-0.00001395,0.0
 0003383,-0.00008571,0.00051573,-0.00015048,0.00018038,-0.00003003,0.00
 003133,-0.00003674,0.00049097,0.00017558,-0.00010977,-0.00009775,0.000
 00746,-0.00005464,0.00530125,-0.00113768,0.00174665,-0.00184730,-0.001
 85472,-0.00140501,-0.06700022,0.00965777,0.07796402,0.09343154,0.00055
 257,0.00030138,-0.00072016,0.00061548,0.00157793,-0.00104450,0.0000285
 5,-0.00008175,0.00013287,-0.00079210,-0.00045794,0.00415908,0.00056503
 ,-0.00071214,0.00015811,-0.00005987,0.00003181,0.00010185,0.00015458,0
 .00001131,0.00008361,0.00002245,-0.00006174,-0.00001171,-0.00274458,0.
 00027869,0.00230360,0.00230874,0.00017072,-0.00070036,-0.00003394,-0.0
 0002032,-0.00001174,-0.00000656,-0.00001675,0.00005373,-0.00001261,-0.
 00066128,-0.00021558,-0.00011468,-0.00006335,0.00008133,-0.00011368,0.
 00000005,-0.00007067,0.00002687,0.00002133,0.00002240,-0.00026601,-0.0
 0003495,-0.00006695,0.00000011,0.00000211,0.00000869,-0.00025991,-0.00
 054255,0.00008529,-0.00001706,-0.00005397,-0.00000778,-0.00026953,-0.0
 0288404,-0.00005847,-0.00234766,0.00051227,-0.00140728,0.01988143,-0.0
 2347316,-0.09784499,-0.01793267,0.02604035,0.00039309,-0.00031257,-0.0
 0138637,-0.00496271,0.00189508,0.00345136,-0.00035874,-0.00001423,0.00
 009279,0.00405389,-0.00181816,-0.00364452,0.00016979,-0.00025481,-0.00
 006531,0.00057385,-0.00000310,-0.00003870,-0.00031647,0.00012966,-0.00
 000253,0.00001946,-0.00000396,-0.00002479,-0.00031756,0.00065830,0.000
 45510,-0.00086632,0.00155030,0.00112332,-0.00008231,-0.00007396,-0.000
 03967,0.00002354,0.00017222,-0.00004331,-0.00040158,-0.00049892,0.0001
 7804,0.00019175,0.00022900,-0.00023661,0.00030126,-0.00017663,0.000051
 07,-0.00004628,0.00002287,-0.00005160,0.00013148,0.00003620,-0.0001327
 9,-0.00007104,0.00001756,0.00005521,-0.00010628,0.00007044,-0.00028945
 ,-0.00004147,-0.00004247,0.00003143,0.00360390,-0.00000305,-0.00081589
 ,-0.00178444,-0.00205470,0.00006557,0.12689583,-0.09503413,-0.47797757
 ,-0.12675140,0.09570988,0.48049898,-0.00279829,-0.00340529,-0.00121464
 ,-0.00177446,0.00060301,0.00078210,-0.00001399,0.00053832,0.00022225,0
 .00338191,-0.00334886,-0.00987548,0.00035615,-0.00017578,0.00001156,0.
 00018134,0.00058253,0.00015476,-0.00021645,-0.00018163,0.00018676,-0.0
 0012313,0.00034146,-0.00019107,-0.09357589,-0.00670314,-0.02263550,0.0
 0066709,-0.00220801,0.00009261,-0.00006572,-0.00000193,0.00011349,0.00
 005647,0.00018310,-0.00008510,0.00667179,0.01814137,0.02437270,0.00324
 537,-0.01835981,-0.02370167,0.00014853,0.00014983,-0.00024434,-0.00003
 755,-0.00004135,0.00001652,0.00019152,0.00068873,-0.00015765,0.0001023
 9,0.00000842,0.00012845,-0.00791034,0.00774718,-0.00214450,0.00077028,
 0.00195816,0.00019955,0.00301082,-0.00244284,0.00240475,-0.00356062,-0
 .00047875,-0.00149336,0.00278214,0.00087984,0.00032041,0.00036065,0.00
 101466,-0.00025219,0.53843479,-0.00103570,-0.00072139,-0.00019283,-0.0
 0155497,0.00649845,0.00021575,-0.00047601,0.00056325,-0.00007999,0.005
 37197,-0.02391674,-0.04160048,-0.00001619,0.00031316,-0.00060537,-0.00
 006954,0.00023970,0.00008707,-0.00034892,-0.00006805,-0.00036589,-0.00
 003640,0.00011174,-0.00002769,0.01909455,-0.11762249,-0.07161199,-0.00
 285949,-0.00796829,0.00126235,-0.00001384,0.00000393,-0.00000530,0.000
 06017,0.00020336,-0.00012094,0.00174642,-0.00368628,-0.00985014,-0.003
 60611,0.00573500,-0.00067224,0.00047386,-0.00020069,0.00049538,-0.0000
 5631,-0.00004461,-0.00009603,0.00083174,-0.00016022,0.00036381,-0.0000
 7238,-0.00003799,-0.00009953,0.00756916,0.00103604,0.00164837,-0.00002
 802,-0.00139739,-0.00020467,-0.00066621,-0.00784873,0.00818620,0.00041
 332,-0.00460367,-0.00489712,-0.00255938,0.00210963,0.00219129,0.000291
 20,-0.00020990,0.00012191,-0.04519372,0.17533861,-0.00121258,-0.003089
 45,-0.00060418,0.00104666,-0.00390400,-0.00810425,0.00023387,0.0003472
 0,0.00012227,0.00265018,-0.00935113,-0.00482469,0.00010933,0.00008699,
 0.00145781,-0.00066933,0.00093486,0.00058571,0.00050396,-0.00051837,0.
 00004040,-0.00010700,0.00024540,-0.00005240,0.01867120,-0.08057893,-0.
 17577090,-0.00026250,-0.00039729,0.00129847,0.00015574,0.00010254,0.00
 019335,-0.00004755,-0.00017687,0.00005871,0.00120044,-0.02015396,-0.02
 785622,-0.00129680,-0.02107965,-0.02702541,-0.00045891,0.00046332,-0.0
 0012384,0.00005146,-0.00011816,0.00010193,-0.00018424,0.00043288,0.000
 24730,0.00017854,-0.00003983,-0.00005932,-0.00438990,0.00394326,0.0011
 5789,0.00034889,0.00102841,0.00012179,0.00053204,0.01466437,0.00084093
 ,-0.00245955,-0.00796604,0.00565150,-0.00383376,-0.00139953,0.00431959
 ,-0.00133283,-0.00028909,-0.00167066,0.16748477,0.12705060,0.31832922,
 0.00440468,0.00415008,0.00211321,0.00208900,-0.00184118,-0.00107282,-0
 .00014281,-0.00103439,-0.00056451,-0.00104362,-0.00034993,0.00165742,-
 0.00044203,0.00024869,0.00003403,-0.00021591,-0.00096077,-0.00041066,0
 .00021823,0.00021220,-0.00026796,0.00021226,-0.00048404,0.00031945,-0.
 00019915,0.00016283,-0.00046470,0.00025273,0.00072890,0.00018520,0.000
 10868,-0.00000547,-0.00013159,-0.00006073,-0.00022383,0.00009050,0.001
 44477,0.00193247,0.00339478,0.00151632,0.00039952,0.00245752,-0.000141
 76,-0.00018410,0.00031775,0.00004173,0.00004274,-0.00002716,-0.0001941
 9,-0.00063977,0.00013135,-0.00012431,0.00001903,-0.00014444,-0.0062293
 0,-0.00307895,-0.00119646,-0.00144944,-0.00055794,-0.00029947,-0.00074
 225,0.00272537,-0.00050808,-0.00150847,-0.00402376,0.00313082,0.000146
 82,0.00050990,-0.00047103,-0.00010731,-0.00019959,0.00000096,-0.450284
 79,0.02274081,-0.17691216,0.45245084,-0.00082117,-0.00499373,-0.000849
 22,-0.00096877,-0.00173986,-0.00071539,0.00027800,0.00012486,0.0003140
 8,-0.00137349,-0.00047175,-0.00323093,0.00028064,0.00019827,0.00005518
 ,-0.00002042,0.00063503,0.00035875,0.00008808,-0.00023259,0.00038981,-
 0.00011333,0.00027557,-0.00016810,-0.02431902,-0.00111436,-0.01190219,
 0.00025729,-0.00058115,0.00020790,-0.00001842,0.00002312,0.00016008,0.
 00000839,0.00003320,0.00000171,0.00111387,0.00091080,-0.00084082,0.000
 71993,-0.00144080,-0.00114595,-0.00022791,0.00032420,-0.00052156,0.000
 01891,-0.00001349,0.00008498,-0.00050867,0.00074421,-0.00034241,0.0001
 6304,0.00004848,0.00016179,-0.00254767,-0.00114437,-0.00037328,0.00054
 508,0.00269997,0.00031339,0.00139607,0.00050629,0.00051498,-0.00374001
 ,-0.00113262,0.00211633,0.00064273,-0.00043898,0.00078616,-0.00026884,
 0.00032590,-0.00032274,0.04970453,-0.02366642,-0.00023754,-0.02028883,
 0.03012019,0.00112031,0.00061396,0.00012245,-0.00004754,0.00033822,0.0
 0154368,-0.00008025,-0.00007404,-0.00009481,0.00015020,-0.00082307,0.0
 0042333,-0.00001788,-0.00004949,-0.00022614,0.00004234,-0.00068319,-0.
 00020304,-0.00008967,0.00039866,0.00000921,0.00004483,-0.00008547,0.00
 001902,-0.03650773,-0.00281594,-0.02430266,0.00011406,0.00024431,-0.00
 003009,-0.00006721,-0.00003551,-0.00011159,-0.00000480,-0.00001487,-0.
 00001547,-0.00036333,0.00113508,0.00138148,0.00039136,-0.00435049,-0.0
 0522705,0.00011873,-0.00025221,0.00006506,-0.00000552,0.00006771,-0.00
 004502,0.00008225,-0.00013915,-0.00008261,-0.00007095,0.00003118,0.000
 02638,-0.00187726,0.00014449,-0.00242003,-0.00023742,-0.00017751,-0.00
 047509,-0.00096787,-0.00029787,-0.00138504,0.00360823,0.00229427,0.000
 42424,0.00039389,0.00098961,-0.00047964,0.00012834,-0.00045115,0.00041
 690,-0.13449519,-0.01119253,-0.08843499,0.16863806,0.01518499,0.119101
 52\\-0.00000350,-0.00001882,-0.00000553,-0.00001816,-0.00001012,0.0000
 0836,-0.00000059,-0.00000069,-0.00000708,0.00002658,-0.00001574,-0.000
 00504,0.00000078,0.00000381,-0.00000062,0.00000336,0.00000353,0.000004
 16,-0.00000655,0.00000493,0.00000081,0.00000033,0.00000292,-0.00000185
 ,0.00001595,0.00002790,0.00002844,-0.00000493,0.00000204,0.00000026,0.
 00000005,0.00000046,-0.00000171,0.00000017,0.00000019,-0.00000229,-0.0
 0000401,-0.00000229,0.00000338,0.00000128,-0.00000162,0.00000031,-0.00
 000178,-0.00000185,0.00000868,0.00000159,0.00000183,-0.00000094,0.0000
 0699,0.00000155,-0.00000394,0.00000107,0.00000405,0.00000635,0.0000041
 1,0.00002302,0.00000413,-0.00000134,-0.00000098,-0.00000217,-0.0000078
 7,0.00000633,-0.00000927,0.00000884,-0.00000303,0.00000771,-0.00001664
 ,-0.00001697,-0.00000533,0.00000373,0.00000708,-0.00000061,0.00002033,
 -0.00001505,-0.00001440,-0.00002979,-0.00000249,-0.00001181\\\@
 The archive entry for this job was punched.


 SCIENCE IS LONG AND LIFE IS SHORT.

                     DON MOSER IN THE FEBRUARY 1979 SMITHSONIAN
 Job cpu time:       0 days  9 hours 59 minutes 56.0 seconds.
 Elapsed time:       0 days  0 hours 37 minutes 43.0 seconds.
 File lengths (MBytes):  RWF=    704 Int=      0 D2E=      0 Chk=     27 Scr=      1
 Normal termination of Gaussian 16 at Wed Sep 27 13:31:36 2023.
