 Entering Gaussian System, Link 0=/opt/software/gaussian/g16.c01/g16
 Initial command:
 /opt/software/gaussian/g16.c01/l1.exe "/scratch/arhender/13209924/Gau-180088.inp" -scrdir="/scratch/arhender/13209924/"
 Entering Link 1 = /opt/software/gaussian/g16.c01/l1.exe PID=    180089.
  
 Copyright (c) 1988-2019, Gaussian, Inc.  All Rights Reserved.
  
 This is part of the Gaussian(R) 16 program.  It is based on
 the Gaussian(R) 09 system (copyright 2009, Gaussian, Inc.),
 the Gaussian(R) 03 system (copyright 2003, Gaussian, Inc.),
 the Gaussian(R) 98 system (copyright 1998, Gaussian, Inc.),
 the Gaussian(R) 94 system (copyright 1995, Gaussian, Inc.),
 the Gaussian 92(TM) system (copyright 1992, Gaussian, Inc.),
 the Gaussian 90(TM) system (copyright 1990, Gaussian, Inc.),
 the Gaussian 88(TM) system (copyright 1988, Gaussian, Inc.),
 the Gaussian 86(TM) system (copyright 1986, Carnegie Mellon
 University), and the Gaussian 82(TM) system (copyright 1983,
 Carnegie Mellon University). Gaussian is a federally registered
 trademark of Gaussian, Inc.
  
 This software contains proprietary and confidential information,
 including trade secrets, belonging to Gaussian, Inc.
  
 This software is provided under written license and may be
 used, copied, transmitted, or stored only in accord with that
 written license.
  
 The following legend is applicable only to US Government
 contracts under FAR:
  
                    RESTRICTED RIGHTS LEGEND
  
 Use, reproduction and disclosure by the US Government is
 subject to restrictions as set forth in subparagraphs (a)
 and (c) of the Commercial Computer Software - Restricted
 Rights clause in FAR 52.227-19.
  
 Gaussian, Inc.
 340 Quinnipiac St., Bldg. 40, Wallingford CT 06492
  
  
 ---------------------------------------------------------------
 Warning -- This program may not be used in any manner that
 competes with the business of Gaussian, Inc. or will provide
 assistance to any competitor of Gaussian, Inc.  The licensee
 of this program is prohibited from giving any competitor of
 Gaussian, Inc. access to this program.  By using this program,
 the user acknowledges that Gaussian, Inc. is engaged in the
 business of creating and licensing software in the field of
 computational chemistry and represents and warrants to the
 licensee that it is not a competitor of Gaussian, Inc. and that
 it will not use this program in any manner prohibited above.
 ---------------------------------------------------------------
  

 Cite this work as:
 Gaussian 16, Revision C.01,
 M. J. Frisch, G. W. Trucks, H. B. Schlegel, G. E. Scuseria, 
 M. A. Robb, J. R. Cheeseman, G. Scalmani, V. Barone, 
 G. A. Petersson, H. Nakatsuji, X. Li, M. Caricato, A. V. Marenich, 
 J. Bloino, B. G. Janesko, R. Gomperts, B. Mennucci, H. P. Hratchian, 
 J. V. Ortiz, A. F. Izmaylov, J. L. Sonnenberg, D. Williams-Young, 
 F. Ding, F. Lipparini, F. Egidi, J. Goings, B. Peng, A. Petrone, 
 T. Henderson, D. Ranasinghe, V. G. Zakrzewski, J. Gao, N. Rega, 
 G. Zheng, W. Liang, M. Hada, M. Ehara, K. Toyota, R. Fukuda, 
 J. Hasegawa, M. Ishida, T. Nakajima, Y. Honda, O. Kitao, H. Nakai, 
 T. Vreven, K. Throssell, J. A. Montgomery, Jr., J. E. Peralta, 
 F. Ogliaro, M. J. Bearpark, J. J. Heyd, E. N. Brothers, K. N. Kudin, 
 V. N. Staroverov, T. A. Keith, R. Kobayashi, J. Normand, 
 K. Raghavachari, A. P. Rendell, J. C. Burant, S. S. Iyengar, 
 J. Tomasi, M. Cossi, J. M. Millam, M. Klene, C. Adamo, R. Cammi, 
 J. W. Ochterski, R. L. Martin, K. Morokuma, O. Farkas, 
 J. B. Foresman, and D. J. Fox, Gaussian, Inc., Wallingford CT, 2019.
 
 ******************************************
 Gaussian 16:  ES64L-G16RevC.01  3-Jul-2019
                27-Sep-2023 
 ******************************************
 %chk=MannitolConformerOpt_16.chk
 %mem=8GB
 %nprocs=16
 Will use up to   16 processors via shared memory.
 ---------------------------------------------
 # opt freq wb97xd/def2tzvpp geom=connectivity
 ---------------------------------------------
 1/18=20,19=15,26=3,38=1,57=2/1,3;
 2/9=110,12=2,17=6,18=5,40=1/2;
 3/5=44,7=202,11=2,25=1,30=1,71=1,74=-58/1,2,3;
 4//1;
 5/5=2,38=5/2;
 6/7=2,8=2,9=2,10=2,28=1/1;
 7//1,2,3,16;
 1/18=20,19=15,26=3/3(2);
 2/9=110/2;
 99//99;
 2/9=110/2;
 3/5=44,7=202,11=2,25=1,30=1,71=1,74=-58/1,2,3;
 4/5=5,16=3,69=1/1;
 5/5=2,38=5/2;
 7//1,2,3,16;
 1/18=20,19=15,26=3/3(-5);
 2/9=110/2;
 6/7=2,8=2,9=2,10=2,19=2,28=1/1;
 99/9=1/99;
 --------------------------------
 Mannitol Conformer Optimziations
 --------------------------------
 Symbolic Z-matrix:
 Charge =  0 Multiplicity = 1
 C                     0.        0.        0. 
 C                     1.5406    0.        0. 
 C                    -0.6629    0.7515   -1.1674 
 C                     2.1456   -0.7823    1.1908 
 H                     1.9054    1.0328    0. 
 H                    -0.3635    0.4587    0.9269 
 C                    -0.3109    0.2661   -2.5765 
 H                    -0.4597    1.8257   -1.0896 
 C                     1.6878   -0.2997    2.5686 
 H                     3.2367   -0.692     1.1273 
 H                    -0.4547   -0.8139   -2.677 
 H                     0.7073    0.5413   -2.8605 
 H                     2.2964   -0.7761    3.3456 
 H                     0.6484   -0.5834    2.7648 
 O                    -1.211     0.9039   -3.4967 
 H                    -0.9339    0.6197   -4.3867 
 O                    -2.0925    0.5871   -1.0034 
 H                    -2.4628    0.9051   -1.8554 
 O                    -0.4905   -1.3593    0.03 
 H                    -1.4511   -1.2629   -0.1556 
 O                     2.0276   -0.6265   -1.2019 
 H                     2.0308   -1.5873   -1.0085 
 O                     1.8523   -2.1838    1.0453 
 H                     0.8904   -2.2434    0.8443 
 O                     1.8134    1.1106    2.6838 
 H                     1.614     1.3371    3.61 
 

 GradGradGradGradGradGradGradGradGradGradGradGradGradGradGradGradGradGrad
 Berny optimization.
 Initialization pass.
                           ----------------------------
                           !    Initial Parameters    !
                           ! (Angstroms and Degrees)  !
 --------------------------                            --------------------------
 ! Name  Definition              Value          Derivative Info.                !
 --------------------------------------------------------------------------------
 ! R1    R(1,2)                  1.5406         estimate D2E/DX2                !
 ! R2    R(1,3)                  1.5385         estimate D2E/DX2                !
 ! R3    R(1,6)                  1.0962         estimate D2E/DX2                !
 ! R4    R(1,19)                 1.4454         estimate D2E/DX2                !
 ! R5    R(2,4)                  1.5479         estimate D2E/DX2                !
 ! R6    R(2,5)                  1.0953         estimate D2E/DX2                !
 ! R7    R(2,21)                 1.4402         estimate D2E/DX2                !
 ! R8    R(3,7)                  1.5314         estimate D2E/DX2                !
 ! R9    R(3,8)                  1.096          estimate D2E/DX2                !
 ! R10   R(3,17)                 1.4483         estimate D2E/DX2                !
 ! R11   R(4,9)                  1.53           estimate D2E/DX2                !
 ! R12   R(4,10)                 1.0967         estimate D2E/DX2                !
 ! R13   R(4,23)                 1.4392         estimate D2E/DX2                !
 ! R14   R(7,11)                 1.0942         estimate D2E/DX2                !
 ! R15   R(7,12)                 1.0923         estimate D2E/DX2                !
 ! R16   R(7,15)                 1.4366         estimate D2E/DX2                !
 ! R17   R(9,13)                 1.0959         estimate D2E/DX2                !
 ! R18   R(9,14)                 1.0951         estimate D2E/DX2                !
 ! R19   R(9,25)                 1.4206         estimate D2E/DX2                !
 ! R20   R(15,16)                0.9745         estimate D2E/DX2                !
 ! R21   R(17,18)                0.9819         estimate D2E/DX2                !
 ! R22   R(19,20)                0.9831         estimate D2E/DX2                !
 ! R23   R(21,22)                0.9801         estimate D2E/DX2                !
 ! R24   R(23,24)                0.9845         estimate D2E/DX2                !
 ! R25   R(25,26)                0.9741         estimate D2E/DX2                !
 ! A1    A(2,1,3)              115.5229         estimate D2E/DX2                !
 ! A2    A(2,1,6)              109.3657         estimate D2E/DX2                !
 ! A3    A(2,1,19)             109.8374         estimate D2E/DX2                !
 ! A4    A(3,1,6)              107.117          estimate D2E/DX2                !
 ! A5    A(3,1,19)             109.2017         estimate D2E/DX2                !
 ! A6    A(6,1,19)             105.2741         estimate D2E/DX2                !
 ! A7    A(1,2,4)              113.0074         estimate D2E/DX2                !
 ! A8    A(1,2,5)              109.454          estimate D2E/DX2                !
 ! A9    A(1,2,21)             109.7638         estimate D2E/DX2                !
 ! A10   A(4,2,5)              110.2652         estimate D2E/DX2                !
 ! A11   A(4,2,21)             106.8572         estimate D2E/DX2                !
 ! A12   A(5,2,21)             107.3105         estimate D2E/DX2                !
 ! A13   A(1,3,7)              116.3809         estimate D2E/DX2                !
 ! A14   A(1,3,8)              110.1813         estimate D2E/DX2                !
 ! A15   A(1,3,17)             106.4951         estimate D2E/DX2                !
 ! A16   A(7,3,8)              109.4731         estimate D2E/DX2                !
 ! A17   A(7,3,17)             107.1635         estimate D2E/DX2                !
 ! A18   A(8,3,17)             106.6314         estimate D2E/DX2                !
 ! A19   A(2,4,9)              114.6084         estimate D2E/DX2                !
 ! A20   A(2,4,10)             107.6202         estimate D2E/DX2                !
 ! A21   A(2,4,23)             109.5554         estimate D2E/DX2                !
 ! A22   A(9,4,10)             108.8973         estimate D2E/DX2                !
 ! A23   A(9,4,23)             109.7078         estimate D2E/DX2                !
 ! A24   A(10,4,23)            106.0861         estimate D2E/DX2                !
 ! A25   A(3,7,11)             111.5418         estimate D2E/DX2                !
 ! A26   A(3,7,12)             111.9409         estimate D2E/DX2                !
 ! A27   A(3,7,15)             107.7378         estimate D2E/DX2                !
 ! A28   A(11,7,12)            110.3231         estimate D2E/DX2                !
 ! A29   A(11,7,15)            107.2804         estimate D2E/DX2                !
 ! A30   A(12,7,15)            107.7975         estimate D2E/DX2                !
 ! A31   A(4,9,13)             109.5838         estimate D2E/DX2                !
 ! A32   A(4,9,14)             111.3223         estimate D2E/DX2                !
 ! A33   A(4,9,25)             111.0833         estimate D2E/DX2                !
 ! A34   A(13,9,14)            106.7042         estimate D2E/DX2                !
 ! A35   A(13,9,25)            108.9633         estimate D2E/DX2                !
 ! A36   A(14,9,25)            109.0607         estimate D2E/DX2                !
 ! A37   A(7,15,16)            106.1031         estimate D2E/DX2                !
 ! A38   A(3,17,18)            103.7231         estimate D2E/DX2                !
 ! A39   A(1,19,20)            103.6182         estimate D2E/DX2                !
 ! A40   A(2,21,22)            105.2406         estimate D2E/DX2                !
 ! A41   A(4,23,24)            106.183          estimate D2E/DX2                !
 ! A42   A(9,25,26)            106.8487         estimate D2E/DX2                !
 ! D1    D(3,1,2,4)           -179.4679         estimate D2E/DX2                !
 ! D2    D(3,1,2,5)             57.2291         estimate D2E/DX2                !
 ! D3    D(3,1,2,21)           -60.3021         estimate D2E/DX2                !
 ! D4    D(6,1,2,4)             59.6327         estimate D2E/DX2                !
 ! D5    D(6,1,2,5)            -63.6703         estimate D2E/DX2                !
 ! D6    D(6,1,2,21)           178.7985         estimate D2E/DX2                !
 ! D7    D(19,1,2,4)           -55.4326         estimate D2E/DX2                !
 ! D8    D(19,1,2,5)          -178.7357         estimate D2E/DX2                !
 ! D9    D(19,1,2,21)           63.7332         estimate D2E/DX2                !
 ! D10   D(2,1,3,7)             58.591          estimate D2E/DX2                !
 ! D11   D(2,1,3,8)            -66.7725         estimate D2E/DX2                !
 ! D12   D(2,1,3,17)           177.9588         estimate D2E/DX2                !
 ! D13   D(6,1,3,7)           -179.3003         estimate D2E/DX2                !
 ! D14   D(6,1,3,8)             55.3362         estimate D2E/DX2                !
 ! D15   D(6,1,3,17)           -59.9325         estimate D2E/DX2                !
 ! D16   D(19,1,3,7)           -65.7759         estimate D2E/DX2                !
 ! D17   D(19,1,3,8)           168.8606         estimate D2E/DX2                !
 ! D18   D(19,1,3,17)           53.5919         estimate D2E/DX2                !
 ! D19   D(2,1,19,20)         -168.9318         estimate D2E/DX2                !
 ! D20   D(3,1,19,20)          -41.2932         estimate D2E/DX2                !
 ! D21   D(6,1,19,20)           73.4266         estimate D2E/DX2                !
 ! D22   D(1,2,4,9)            -56.493          estimate D2E/DX2                !
 ! D23   D(1,2,4,10)          -177.7736         estimate D2E/DX2                !
 ! D24   D(1,2,4,23)            67.3076         estimate D2E/DX2                !
 ! D25   D(5,2,4,9)             66.3602         estimate D2E/DX2                !
 ! D26   D(5,2,4,10)           -54.9204         estimate D2E/DX2                !
 ! D27   D(5,2,4,23)          -169.8392         estimate D2E/DX2                !
 ! D28   D(21,2,4,9)          -177.3251         estimate D2E/DX2                !
 ! D29   D(21,2,4,10)           61.3943         estimate D2E/DX2                !
 ! D30   D(21,2,4,23)          -53.5244         estimate D2E/DX2                !
 ! D31   D(1,2,21,22)          -84.589          estimate D2E/DX2                !
 ! D32   D(4,2,21,22)           38.2877         estimate D2E/DX2                !
 ! D33   D(5,2,21,22)          156.5511         estimate D2E/DX2                !
 ! D34   D(1,3,7,11)            51.4793         estimate D2E/DX2                !
 ! D35   D(1,3,7,12)           -72.6851         estimate D2E/DX2                !
 ! D36   D(1,3,7,15)           168.9673         estimate D2E/DX2                !
 ! D37   D(8,3,7,11)           177.2002         estimate D2E/DX2                !
 ! D38   D(8,3,7,12)            53.0358         estimate D2E/DX2                !
 ! D39   D(8,3,7,15)           -65.3118         estimate D2E/DX2                !
 ! D40   D(17,3,7,11)          -67.5266         estimate D2E/DX2                !
 ! D41   D(17,3,7,12)          168.309          estimate D2E/DX2                !
 ! D42   D(17,3,7,15)           49.9614         estimate D2E/DX2                !
 ! D43   D(1,3,17,18)         -168.1797         estimate D2E/DX2                !
 ! D44   D(7,3,17,18)          -42.9775         estimate D2E/DX2                !
 ! D45   D(8,3,17,18)           74.1771         estimate D2E/DX2                !
 ! D46   D(2,4,9,13)          -169.6266         estimate D2E/DX2                !
 ! D47   D(2,4,9,14)            72.5749         estimate D2E/DX2                !
 ! D48   D(2,4,9,25)           -49.1744         estimate D2E/DX2                !
 ! D49   D(10,4,9,13)          -49.0491         estimate D2E/DX2                !
 ! D50   D(10,4,9,14)         -166.8476         estimate D2E/DX2                !
 ! D51   D(10,4,9,25)           71.4031         estimate D2E/DX2                !
 ! D52   D(23,4,9,13)           66.6541         estimate D2E/DX2                !
 ! D53   D(23,4,9,14)          -51.1444         estimate D2E/DX2                !
 ! D54   D(23,4,9,25)         -172.8936         estimate D2E/DX2                !
 ! D55   D(2,4,23,24)          -48.332          estimate D2E/DX2                !
 ! D56   D(9,4,23,24)           78.2973         estimate D2E/DX2                !
 ! D57   D(10,4,23,24)        -164.2292         estimate D2E/DX2                !
 ! D58   D(3,7,15,16)          176.8052         estimate D2E/DX2                !
 ! D59   D(11,7,15,16)         -62.9804         estimate D2E/DX2                !
 ! D60   D(12,7,15,16)          55.8278         estimate D2E/DX2                !
 ! D61   D(4,9,25,26)         -173.1159         estimate D2E/DX2                !
 ! D62   D(13,9,25,26)         -52.2973         estimate D2E/DX2                !
 ! D63   D(14,9,25,26)          63.8244         estimate D2E/DX2                !
 --------------------------------------------------------------------------------
 Trust Radius=3.00D-01 FncErr=1.00D-07 GrdErr=1.00D-06 EigMax=2.50D+02 EigMin=1.00D-04
 Number of steps in this run=    140 maximum allowed number of steps=    156.
 GradGradGradGradGradGradGradGradGradGradGradGradGradGradGradGradGradGrad

                          Input orientation:                          
 ---------------------------------------------------------------------
 Center     Atomic      Atomic             Coordinates (Angstroms)
 Number     Number       Type             X           Y           Z
 ---------------------------------------------------------------------
      1          6           0        0.000000    0.000000    0.000000
      2          6           0        1.540600    0.000000    0.000000
      3          6           0       -0.662900    0.751500   -1.167400
      4          6           0        2.145600   -0.782300    1.190800
      5          1           0        1.905400    1.032800    0.000000
      6          1           0       -0.363500    0.458700    0.926900
      7          6           0       -0.310900    0.266100   -2.576500
      8          1           0       -0.459700    1.825700   -1.089600
      9          6           0        1.687800   -0.299700    2.568600
     10          1           0        3.236700   -0.692000    1.127300
     11          1           0       -0.454700   -0.813900   -2.677000
     12          1           0        0.707300    0.541300   -2.860500
     13          1           0        2.296400   -0.776100    3.345600
     14          1           0        0.648400   -0.583400    2.764800
     15          8           0       -1.211000    0.903900   -3.496700
     16          1           0       -0.933900    0.619700   -4.386700
     17          8           0       -2.092500    0.587100   -1.003400
     18          1           0       -2.462800    0.905100   -1.855400
     19          8           0       -0.490500   -1.359300    0.030000
     20          1           0       -1.451100   -1.262900   -0.155600
     21          8           0        2.027600   -0.626500   -1.201900
     22          1           0        2.030800   -1.587300   -1.008500
     23          8           0        1.852300   -2.183800    1.045300
     24          1           0        0.890400   -2.243400    0.844300
     25          8           0        1.813400    1.110600    2.683800
     26          1           0        1.614000    1.337100    3.610000
 ---------------------------------------------------------------------
                    Distance matrix (angstroms):
                    1          2          3          4          5
     1  C    0.000000
     2  C    1.540600   0.000000
     3  C    1.538509   2.604417   0.000000
     4  C    2.575577   1.547909   3.975088   0.000000
     5  H    2.167308   1.095333   2.835157   2.184099   0.000000
     6  H    1.096212   2.166829   2.135759   2.811638   2.517269
     7  C    2.608797   3.183899   1.531365   4.618017   3.483987
     8  H    2.175255   2.919179   1.096015   4.334683   2.722061
     9  C    3.088073   2.590211   4.537456   1.529973   2.901829
    10  H    3.496555   2.150912   4.749339   1.096670   2.453182
    11  H    2.834698   3.436566   2.184655   4.660733   4.018296
    12  H    2.995954   3.028177   2.188200   4.498184   3.139980
    13  H    4.131443   3.516618   5.608760   2.160079   3.823354
    14  H    2.899120   2.963190   4.354729   2.181432   3.440388
    15  O    3.809261   4.540402   2.397765   6.006887   4.685667
    16  H    4.527619   5.074477   3.233374   6.523606   5.241699
    17  O    2.393753   3.814566   1.448337   4.965004   4.145921
    18  H    3.213580   4.504323   1.933023   5.776158   4.747630
    19  O    1.445402   2.444169   2.432892   2.937586   3.385761
    20  H    1.929979   3.251061   2.388055   3.870403   4.069465
    21  O    2.438899   1.440220   3.023055   2.400669   2.052504
    22  H    2.767805   1.943422   3.570890   2.344808   2.810288
    23  O    3.048385   2.441064   4.454016   1.439235   3.382601
    24  H    2.557049   2.483636   3.927990   1.957141   3.532217
    25  O    3.424125   2.917299   4.592685   2.433614   2.686503
    26  H    4.174318   3.850367   5.324542   3.259905   3.634503
                    6          7          8          9         10
     6  H    0.000000
     7  C    3.509084   0.000000
     8  H    2.438076   2.159946   0.000000
     9  C    2.734626   5.548602   4.744629   0.000000
    10  H    3.784932   5.217428   4.991676   2.151822   0.000000
    11  H    3.823078   1.094157   3.080155   5.689554   5.302263
    12  H    3.936729   1.092301   2.479447   5.580662   4.880721
    13  H    3.801304   6.554042   5.834077   1.095938   2.410828
    14  H    2.342603   5.492849   4.678466   1.095140   3.064718
    15  O    4.526002   1.436571   2.684827   6.829316   6.611377
    16  H    5.346552   1.946789   3.542622   7.489647   7.036949
    17  O    2.594607   2.398288   2.051243   5.276009   5.880166
    18  H    3.513905   2.357749   2.333745   6.184723   6.628086
    19  O    2.031178   3.077015   3.376193   3.508879   3.942255
    20  H    2.306206   3.081989   3.375601   4.266347   4.893591
    21  O    3.380356   2.855668   3.494647   3.799860   2.625145
    22  H    3.696561   3.373022   4.225842   3.817225   2.611015
    23  O    3.450593   4.878410   5.096983   2.428443   2.036849
    24  H    2.980005   4.409375   4.703224   2.717909   2.827022
    25  O    2.872380   5.735555   4.462835   1.420561   2.774498
    26  H    3.446900   6.566968   5.159961   1.941410   3.593633
                   11         12         13         14         15
    11  H    0.000000
    12  H    1.794571   0.000000
    13  H    6.621306   6.540371   0.000000
    14  H    5.557261   5.736935   1.757944   0.000000
    15  O    2.048105   2.053315   7.870281   6.698941   0.000000
    16  H    2.282086   2.242537   8.495385   7.422606   0.974502
    17  O    2.728759   3.360029   6.327287   4.804366   2.663447
    18  H    2.768114   3.345461   7.247539   5.765540   2.064188
    19  O    2.761628   3.660874   4.370370   3.062392   4.251918
    20  H    2.748067   3.902603   5.151614   3.660377   3.989438
    21  O    2.893588   2.420310   4.557893   4.199852   4.254029
    22  H    3.091885   3.116487   4.436978   4.142057   4.786072
    23  O    4.588507   4.898211   2.733171   2.639571   6.288677
    24  H    4.031416   4.638278   3.222779   2.549997   5.758963
    25  O    6.130755   5.682149   2.056916   2.057528   6.883916
    26  H    6.959360   6.582004   2.236334   2.309776   7.659861
                   16         17         18         19         20
    16  H    0.000000
    17  O    3.576330   0.000000
    18  H    2.970937   0.981911   0.000000
    19  O    4.860070   2.724480   3.545731   0.000000
    20  H    4.659816   2.133696   2.934805   0.983104   0.000000
    21  O    4.523986   4.299704   4.789212   2.897482   3.687967
    22  H    5.007248   4.661507   5.207854   2.736315   3.599486
    23  O    6.717823   5.237987   6.047764   2.683160   3.633548
    24  H    6.236086   4.508150   5.333421   1.830738   2.728333
    25  O    7.601356   5.396809   6.239588   4.295465   4.934841
    26  H    8.423400   5.965241   6.832095   4.951353   5.507684
                   21         22         23         24         25
    21  O    0.000000
    22  H    0.980077   0.000000
    23  O    2.739675   2.146106   0.000000
    24  H    2.845088   2.272410   0.984482   0.000000
    25  O    4.261697   4.578101   3.679574   3.935099   0.000000
    26  H    5.213557   5.482370   4.362477   4.581776   0.974120
                   26
    26  H    0.000000
 Stoichiometry    C6H14O6
 Framework group  C1[X(C6H14O6)]
 Deg. of freedom    72
 Full point group                 C1      NOp   1
 Largest Abelian subgroup         C1      NOp   1
 Largest concise Abelian subgroup C1      NOp   1
                         Standard orientation:                         
 ---------------------------------------------------------------------
 Center     Atomic      Atomic             Coordinates (Angstroms)
 Number     Number       Type             X           Y           Z
 ---------------------------------------------------------------------
      1          6           0        0.162558   -0.470144    0.225862
      2          6           0       -0.691670    0.425511   -0.691495
      3          6           0        1.614579   -0.693500   -0.231041
      4          6           0       -2.136178    0.621618   -0.170955
      5          1           0       -0.706621    0.003561   -1.702183
      6          1           0       -0.305515   -1.458018    0.307679
      7          6           0        2.475825    0.561568   -0.398789
      8          1           0        1.633552   -1.276359   -1.159030
      9          6           0       -2.913847   -0.676526    0.054589
     10          1           0       -2.673216    1.234422   -0.904949
     11          1           0        2.441300    1.194642    0.492954
     12          1           0        2.191832    1.136224   -1.283232
     13          1           0       -3.968783   -0.445153    0.240752
     14          1           0       -2.548331   -1.211405    0.937558
     15          8           0        3.837971    0.138110   -0.569019
     16          1           0        4.355630    0.948925   -0.724781
     17          8           0        2.244243   -1.511272    0.785055
     18          1           0        3.199231   -1.466815    0.561068
     19          8           0        0.163622    0.063146    1.569286
     20          1           0        0.864481   -0.455387    2.023612
     21          8           0       -0.099157    1.735042   -0.782546
     22          1           0       -0.432274    2.223462   -0.000862
     23          8           0       -2.109572    1.389175    1.046233
     24          1           0       -1.423778    0.973877    1.617565
     25          8           0       -2.821262   -1.530800   -1.076621
     26          1           0       -3.421871   -2.280351   -0.914291
 ---------------------------------------------------------------------
 Rotational constants (GHZ):           1.5407401           0.5069303           0.4710459
 Standard basis: def2TZVPP (5D, 7F)
 There are   642 symmetry adapted cartesian basis functions of A   symmetry.
 There are   568 symmetry adapted basis functions of A   symmetry.
   568 basis functions,   850 primitive gaussians,   642 cartesian basis functions
    49 alpha electrons       49 beta electrons
       nuclear repulsion energy       829.9011110780 Hartrees.
 NAtoms=   26 NActive=   26 NUniq=   26 SFac= 1.00D+00 NAtFMM=   60 NAOKFM=F Big=F
 Integral buffers will be    131072 words long.
 Raffenetti 2 integral format.
 Two-electron integral symmetry is turned on.
 Nuclear repulsion after empirical dispersion term =      829.8827296921 Hartrees.
 One-electron integrals computed using PRISM.
   1 Symmetry operations used in ECPInt.
 ECPInt:  NShTT=   23436 NPrTT=   62434 LenC2=   21806 LenP2D=   45311.
 LDataN:  DoStor=T MaxTD1= 6 Len=  172
 NBasis=   568 RedAO= T EigKep=  4.78D-05  NBF=   568
 NBsUse=   568 1.00D-06 EigRej= -1.00D+00 NBFU=   568
 ExpMin= 9.52D-02 ExpMax= 2.70D+04 ExpMxC= 9.22D+02 IAcc=3 IRadAn=         5 AccDes= 0.00D+00
 Harris functional with IExCor= 4639 and IRadAn=       5 diagonalized for initial guess.
 HarFok:  IExCor= 4639 AccDes= 0.00D+00 IRadAn=         5 IDoV= 1 UseB2=F ITyADJ=14
 ICtDFT=  3500011 ScaDFX=  1.000000  1.000000  1.000000  1.000000
 FoFCou: FMM=F IPFlag=           0 FMFlag=      100000 FMFlg1=           0
         NFxFlg=           0 DoJE=T BraDBF=F KetDBF=T FulRan=T
         wScrn=  0.000000 ICntrl=       500 IOpCl=  0 I1Cent=   200000004 NGrid=           0
         NMat0=    1 NMatS0=      1 NMatT0=    0 NMatD0=    1 NMtDS0=    0 NMtDT0=    0
 Petite list used in FoFCou.
 Requested convergence on RMS density matrix=1.00D-08 within 128 cycles.
 Requested convergence on MAX density matrix=1.00D-06.
 Requested convergence on             energy=1.00D-06.
 No special actions if energy rises.
 Integral accuracy reduced to 1.0D-05 until final iterations.
 Initial convergence to 1.0D-05 achieved.  Increase integral accuracy.
 SCF Done:  E(RwB97XD) =  -688.469836628     A.U. after   13 cycles
            NFock= 13  Conv=0.97D-08     -V/T= 2.0050

 **********************************************************************

            Population analysis using the SCF Density.

 **********************************************************************

 Orbital symmetries:
       Occupied  (A) (A) (A) (A) (A) (A) (A) (A) (A) (A) (A) (A)
                 (A) (A) (A) (A) (A) (A) (A) (A) (A) (A) (A) (A)
                 (A) (A) (A) (A) (A) (A) (A) (A) (A) (A) (A) (A)
                 (A) (A) (A) (A) (A) (A) (A) (A) (A) (A) (A) (A)
                 (A)
       Virtual   (A) (A) (A) (A) (A) (A) (A) (A) (A) (A) (A) (A)
                 (A) (A) (A) (A) (A) (A) (A) (A) (A) (A) (A) (A)
                 (A) (A) (A) (A) (A) (A) (A) (A) (A) (A) (A) (A)
                 (A) (A) (A) (A) (A) (A) (A) (A) (A) (A) (A) (A)
                 (A) (A) (A) (A) (A) (A) (A) (A) (A) (A) (A) (A)
                 (A) (A) (A) (A) (A) (A) (A) (A) (A) (A) (A) (A)
                 (A) (A) (A) (A) (A) (A) (A) (A) (A) (A) (A) (A)
                 (A) (A) (A) (A) (A) (A) (A) (A) (A) (A) (A) (A)
                 (A) (A) (A) (A) (A) (A) (A) (A) (A) (A) (A) (A)
                 (A) (A) (A) (A) (A) (A) (A) (A) (A) (A) (A) (A)
                 (A) (A) (A) (A) (A) (A) (A) (A) (A) (A) (A) (A)
                 (A) (A) (A) (A) (A) (A) (A) (A) (A) (A) (A) (A)
                 (A) (A) (A) (A) (A) (A) (A) (A) (A) (A) (A) (A)
                 (A) (A) (A) (A) (A) (A) (A) (A) (A) (A) (A) (A)
                 (A) (A) (A) (A) (A) (A) (A) (A) (A) (A) (A) (A)
                 (A) (A) (A) (A) (A) (A) (A) (A) (A) (A) (A) (A)
                 (A) (A) (A) (A) (A) (A) (A) (A) (A) (A) (A) (A)
                 (A) (A) (A) (A) (A) (A) (A) (A) (A) (A) (A) (A)
                 (A) (A) (A) (A) (A) (A) (A) (A) (A) (A) (A) (A)
                 (A) (A) (A) (A) (A) (A) (A) (A) (A) (A) (A) (A)
                 (A) (A) (A) (A) (A) (A) (A) (A) (A) (A) (A) (A)
                 (A) (A) (A) (A) (A) (A) (A) (A) (A) (A) (A) (A)
                 (A) (A) (A) (A) (A) (A) (A) (A) (A) (A) (A) (A)
                 (A) (A) (A) (A) (A) (A) (A) (A) (A) (A) (A) (A)
                 (A) (A) (A) (A) (A) (A) (A) (A) (A) (A) (A) (A)
                 (A) (A) (A) (A) (A) (A) (A) (A) (A) (A) (A) (A)
                 (A) (A) (A) (A) (A) (A) (A) (A) (A) (A) (A) (A)
                 (A) (A) (A) (A) (A) (A) (A) (A) (A) (A) (A) (A)
                 (A) (A) (A) (A) (A) (A) (A) (A) (A) (A) (A) (A)
                 (A) (A) (A) (A) (A) (A) (A) (A) (A) (A) (A) (A)
                 (A) (A) (A) (A) (A) (A) (A) (A) (A) (A) (A) (A)
                 (A) (A) (A) (A) (A) (A) (A) (A) (A) (A) (A) (A)
                 (A) (A) (A) (A) (A) (A) (A) (A) (A) (A) (A) (A)
                 (A) (A) (A) (A) (A) (A) (A) (A) (A) (A) (A) (A)
                 (A) (A) (A) (A) (A) (A) (A) (A) (A) (A) (A) (A)
                 (A) (A) (A) (A) (A) (A) (A) (A) (A) (A) (A) (A)
                 (A) (A) (A) (A) (A) (A) (A) (A) (A) (A) (A) (A)
                 (A) (A) (A) (A) (A) (A) (A) (A) (A) (A) (A) (A)
                 (A) (A) (A) (A) (A) (A) (A) (A) (A) (A) (A) (A)
                 (A) (A) (A) (A) (A) (A) (A) (A) (A) (A) (A) (A)
                 (A) (A) (A) (A) (A) (A) (A) (A) (A) (A) (A) (A)
                 (A) (A) (A) (A) (A) (A) (A) (A) (A) (A) (A) (A)
                 (A) (A) (A) (A) (A) (A) (A) (A) (A) (A) (A) (A)
                 (A) (A) (A)
 The electronic state is 1-A.
 Alpha  occ. eigenvalues --  -19.26679 -19.26244 -19.26057 -19.25764 -19.24768
 Alpha  occ. eigenvalues --  -19.24614 -10.34920 -10.34788 -10.34574 -10.34327
 Alpha  occ. eigenvalues --  -10.33521 -10.33197  -1.15554  -1.14110  -1.13286
 Alpha  occ. eigenvalues --   -1.12325  -1.10837  -1.10215  -0.88338  -0.84993
 Alpha  occ. eigenvalues --   -0.80170  -0.75069  -0.70998  -0.67411  -0.63749
 Alpha  occ. eigenvalues --   -0.62275  -0.60492  -0.59931  -0.59447  -0.56935
 Alpha  occ. eigenvalues --   -0.55717  -0.55116  -0.53475  -0.52536  -0.51306
 Alpha  occ. eigenvalues --   -0.49795  -0.47962  -0.47053  -0.45766  -0.45275
 Alpha  occ. eigenvalues --   -0.43947  -0.41912  -0.40898  -0.38360  -0.37534
 Alpha  occ. eigenvalues --   -0.37412  -0.36867  -0.36484  -0.35498
 Alpha virt. eigenvalues --    0.09283   0.09506   0.11209   0.13648   0.13882
 Alpha virt. eigenvalues --    0.14990   0.16165   0.17105   0.18038   0.18922
 Alpha virt. eigenvalues --    0.20027   0.20760   0.21021   0.21753   0.22670
 Alpha virt. eigenvalues --    0.23300   0.23831   0.24609   0.25928   0.26768
 Alpha virt. eigenvalues --    0.27577   0.28491   0.29963   0.31316   0.32870
 Alpha virt. eigenvalues --    0.34828   0.34996   0.37333   0.37799   0.38541
 Alpha virt. eigenvalues --    0.39139   0.39632   0.40669   0.41066   0.41745
 Alpha virt. eigenvalues --    0.42439   0.43320   0.43535   0.44115   0.44929
 Alpha virt. eigenvalues --    0.45650   0.46170   0.47603   0.47858   0.49084
 Alpha virt. eigenvalues --    0.49462   0.49564   0.50219   0.51234   0.51610
 Alpha virt. eigenvalues --    0.52064   0.52818   0.53585   0.54570   0.54643
 Alpha virt. eigenvalues --    0.55876   0.56190   0.57959   0.58414   0.58592
 Alpha virt. eigenvalues --    0.59815   0.61424   0.61981   0.63748   0.64268
 Alpha virt. eigenvalues --    0.65364   0.65904   0.67218   0.67611   0.68297
 Alpha virt. eigenvalues --    0.68742   0.71063   0.72323   0.73603   0.74461
 Alpha virt. eigenvalues --    0.75287   0.76611   0.76893   0.78138   0.81167
 Alpha virt. eigenvalues --    0.82159   0.83859   0.85429   0.86251   0.86509
 Alpha virt. eigenvalues --    0.87124   0.88122   0.88638   0.89333   0.90719
 Alpha virt. eigenvalues --    0.92141   0.93514   0.94121   0.94755   0.96045
 Alpha virt. eigenvalues --    0.96763   0.98248   0.98925   0.99503   1.01707
 Alpha virt. eigenvalues --    1.03597   1.05376   1.05978   1.07203   1.08095
 Alpha virt. eigenvalues --    1.08586   1.08915   1.09851   1.10730   1.13371
 Alpha virt. eigenvalues --    1.13616   1.15013   1.16126   1.17551   1.18238
 Alpha virt. eigenvalues --    1.18981   1.20784   1.22758   1.24135   1.25628
 Alpha virt. eigenvalues --    1.27074   1.27806   1.29163   1.30099   1.31193
 Alpha virt. eigenvalues --    1.32294   1.32767   1.33777   1.35032   1.36783
 Alpha virt. eigenvalues --    1.37467   1.38022   1.38651   1.39321   1.40034
 Alpha virt. eigenvalues --    1.42217   1.42632   1.44948   1.46019   1.47081
 Alpha virt. eigenvalues --    1.48270   1.49191   1.50062   1.50340   1.51533
 Alpha virt. eigenvalues --    1.53117   1.53816   1.55131   1.56892   1.58180
 Alpha virt. eigenvalues --    1.59261   1.60984   1.62566   1.63801   1.64304
 Alpha virt. eigenvalues --    1.64527   1.67272   1.68988   1.70781   1.72902
 Alpha virt. eigenvalues --    1.73717   1.76875   1.81058   1.81550   1.83606
 Alpha virt. eigenvalues --    1.85886   1.88916   1.90594   1.93091   1.93430
 Alpha virt. eigenvalues --    1.94122   1.94589   1.96627   1.97483   2.00734
 Alpha virt. eigenvalues --    2.01070   2.02687   2.03983   2.05005   2.05521
 Alpha virt. eigenvalues --    2.06908   2.07255   2.08004   2.09155   2.10395
 Alpha virt. eigenvalues --    2.11006   2.13382   2.14175   2.15375   2.17350
 Alpha virt. eigenvalues --    2.19863   2.20667   2.21219   2.23259   2.26004
 Alpha virt. eigenvalues --    2.26455   2.28327   2.30943   2.32494   2.33587
 Alpha virt. eigenvalues --    2.34525   2.35900   2.38108   2.40138   2.41699
 Alpha virt. eigenvalues --    2.43828   2.46095   2.48031   2.49430   2.51401
 Alpha virt. eigenvalues --    2.56371   2.57291   2.58897   2.62687   2.64973
 Alpha virt. eigenvalues --    2.67742   2.69453   2.70028   2.71337   2.72054
 Alpha virt. eigenvalues --    2.73136   2.74569   2.75756   2.77198   2.78364
 Alpha virt. eigenvalues --    2.79064   2.79969   2.80378   2.82278   2.84044
 Alpha virt. eigenvalues --    2.84684   2.86127   2.87546   2.88705   2.89813
 Alpha virt. eigenvalues --    2.92832   2.93557   2.94397   2.97641   2.99017
 Alpha virt. eigenvalues --    2.99484   3.01724   3.02549   3.04477   3.05287
 Alpha virt. eigenvalues --    3.06704   3.07500   3.08153   3.09134   3.11283
 Alpha virt. eigenvalues --    3.11975   3.13930   3.14836   3.15252   3.17462
 Alpha virt. eigenvalues --    3.17901   3.18084   3.19200   3.20960   3.22247
 Alpha virt. eigenvalues --    3.23017   3.24123   3.24672   3.25820   3.28153
 Alpha virt. eigenvalues --    3.28531   3.29850   3.30987   3.31979   3.33000
 Alpha virt. eigenvalues --    3.34250   3.34823   3.36186   3.36796   3.38133
 Alpha virt. eigenvalues --    3.39106   3.39986   3.41335   3.41693   3.41861
 Alpha virt. eigenvalues --    3.43573   3.45162   3.45655   3.47447   3.48280
 Alpha virt. eigenvalues --    3.50262   3.50902   3.51921   3.52209   3.53704
 Alpha virt. eigenvalues --    3.54847   3.55518   3.57485   3.58428   3.58878
 Alpha virt. eigenvalues --    3.61435   3.62160   3.63393   3.64656   3.65315
 Alpha virt. eigenvalues --    3.66099   3.69440   3.70256   3.71461   3.71524
 Alpha virt. eigenvalues --    3.71896   3.73395   3.76156   3.76890   3.78509
 Alpha virt. eigenvalues --    3.79410   3.79714   3.81669   3.82147   3.82752
 Alpha virt. eigenvalues --    3.84221   3.86321   3.87758   3.89706   3.90357
 Alpha virt. eigenvalues --    3.91225   3.92234   3.93004   3.94127   3.95003
 Alpha virt. eigenvalues --    3.97659   3.97809   3.98765   3.99736   4.01232
 Alpha virt. eigenvalues --    4.01451   4.02475   4.04325   4.05575   4.07195
 Alpha virt. eigenvalues --    4.07778   4.08712   4.08995   4.11119   4.12826
 Alpha virt. eigenvalues --    4.13394   4.13778   4.16166   4.16259   4.17122
 Alpha virt. eigenvalues --    4.18211   4.19374   4.20087   4.20909   4.22474
 Alpha virt. eigenvalues --    4.23154   4.25435   4.26708   4.27643   4.28830
 Alpha virt. eigenvalues --    4.30775   4.31356   4.32899   4.34990   4.35933
 Alpha virt. eigenvalues --    4.36369   4.37555   4.38806   4.40460   4.40810
 Alpha virt. eigenvalues --    4.41304   4.42880   4.45314   4.46039   4.47566
 Alpha virt. eigenvalues --    4.49224   4.49991   4.52509   4.54046   4.55166
 Alpha virt. eigenvalues --    4.55652   4.58467   4.58887   4.60078   4.61547
 Alpha virt. eigenvalues --    4.63280   4.65508   4.66421   4.68088   4.70761
 Alpha virt. eigenvalues --    4.73074   4.74631   4.76820   4.80069   4.81205
 Alpha virt. eigenvalues --    4.82860   4.84547   4.84766   4.87132   4.88327
 Alpha virt. eigenvalues --    4.89704   4.93715   4.95051   4.95807   4.96761
 Alpha virt. eigenvalues --    4.99392   5.00776   5.01771   5.02802   5.03529
 Alpha virt. eigenvalues --    5.04251   5.06169   5.08741   5.10377   5.12813
 Alpha virt. eigenvalues --    5.15036   5.15995   5.16847   5.19284   5.21084
 Alpha virt. eigenvalues --    5.21378   5.22716   5.24156   5.26898   5.30663
 Alpha virt. eigenvalues --    5.31136   5.34679   5.36231   5.41337   5.42467
 Alpha virt. eigenvalues --    5.46585   5.49305   5.54157   5.55622   5.57740
 Alpha virt. eigenvalues --    5.59490   5.60960   5.63916   5.64170   5.66078
 Alpha virt. eigenvalues --    5.68166   5.70496   5.70930   5.73252   5.74942
 Alpha virt. eigenvalues --    5.75509   5.77092   5.82171   5.83106   5.85773
 Alpha virt. eigenvalues --    5.86661   5.87804   5.91546   5.95041   5.95942
 Alpha virt. eigenvalues --    5.99972   6.02068   6.03203   6.10442   6.12977
 Alpha virt. eigenvalues --    6.14334   6.16176   6.18510   6.20412   6.52773
 Alpha virt. eigenvalues --    6.53425   6.55493   6.56516   6.57437   6.57572
 Alpha virt. eigenvalues --    6.70190   6.72734   6.74955   6.75802   6.76026
 Alpha virt. eigenvalues --    6.76545   6.77430   6.78847   6.79595   6.80576
 Alpha virt. eigenvalues --    6.82828   6.82927   6.83821   6.85243   6.87572
 Alpha virt. eigenvalues --    6.88561   6.91777   6.96367   6.98155   7.00149
 Alpha virt. eigenvalues --    7.02795   7.04463   7.06239   7.07265   7.14803
 Alpha virt. eigenvalues --    7.16650   7.20368   7.20795   7.23294   7.27319
 Alpha virt. eigenvalues --    7.41042   7.41903   7.43622   7.44773   7.48848
 Alpha virt. eigenvalues --    7.50099   7.51232   7.51554   7.57642   7.59401
 Alpha virt. eigenvalues --    7.65064   7.76634  23.09384  23.15801  23.19379
 Alpha virt. eigenvalues --   23.21460  23.44452  23.47614  44.12161  44.14686
 Alpha virt. eigenvalues --   44.24147  44.30475  44.33360  44.42282
          Condensed to atoms (all electrons):
               1          2          3          4          5          6
     1  C    5.241661   0.139626   0.148267   0.037605  -0.047889   0.404379
     2  C    0.139626   4.894017   0.029756   0.299924   0.417804  -0.009206
     3  C    0.148267   0.029756   4.934180  -0.010991   0.003067  -0.011464
     4  C    0.037605   0.299924  -0.010991   4.827004  -0.016488  -0.024333
     5  H   -0.047889   0.417804   0.003067  -0.016488   0.550065   0.004537
     6  H    0.404379  -0.009206  -0.011464  -0.024333   0.004537   0.564776
     7  C   -0.005348   0.002031   0.293595   0.001449  -0.000613   0.007381
     8  H   -0.024613  -0.008742   0.419286  -0.000096   0.002083  -0.005873
     9  C    0.019804  -0.054934   0.002697   0.307960  -0.007238   0.001180
    10  H    0.007283  -0.051782  -0.000165   0.405942  -0.002809  -0.001347
    11  H    0.016061  -0.008803  -0.044466  -0.000064   0.000251   0.000667
    12  H   -0.017867   0.002140  -0.010727  -0.000225   0.000376  -0.000764
    13  H   -0.002484   0.013567  -0.000161  -0.034904   0.000252   0.001405
    14  H    0.008854  -0.021606   0.000214  -0.035272   0.000537  -0.016970
    15  O    0.007725  -0.000097  -0.075516  -0.000019  -0.000024  -0.000074
    16  H   -0.001817   0.000060   0.011712  -0.000007   0.000003   0.000038
    17  O   -0.071331   0.004360   0.272927  -0.000205   0.000109   0.003025
    18  H    0.007722  -0.000890  -0.039899   0.000001   0.000003  -0.000246
    19  O    0.201638  -0.024746  -0.011723  -0.008614   0.002616  -0.036731
    20  H   -0.043131   0.005298   0.000164   0.000054  -0.000261  -0.005027
    21  O   -0.052146   0.272983  -0.015621  -0.031768  -0.021626   0.003522
    22  H    0.002274  -0.049990  -0.000453  -0.012152   0.006437   0.000332
    23  O   -0.008325  -0.030458   0.002044   0.242763   0.003456   0.001069
    24  H   -0.006825  -0.002912   0.000091  -0.035803   0.000055   0.000818
    25  O   -0.014281   0.014625  -0.002442  -0.075918   0.007974   0.011658
    26  H    0.001423  -0.002293   0.000092   0.013185  -0.000603  -0.000375
               7          8          9         10         11         12
     1  C   -0.005348  -0.024613   0.019804   0.007283   0.016061  -0.017867
     2  C    0.002031  -0.008742  -0.054934  -0.051782  -0.008803   0.002140
     3  C    0.293595   0.419286   0.002697  -0.000165  -0.044466  -0.010727
     4  C    0.001449  -0.000096   0.307960   0.405942  -0.000064  -0.000225
     5  H   -0.000613   0.002083  -0.007238  -0.002809   0.000251   0.000376
     6  H    0.007381  -0.005873   0.001180  -0.001347   0.000667  -0.000764
     7  C    4.746384  -0.042728  -0.000237  -0.000078   0.408619   0.429107
     8  H   -0.042728   0.609049  -0.000025   0.000020   0.009451  -0.005656
     9  C   -0.000237  -0.000025   4.759803  -0.022579  -0.000026   0.000037
    10  H   -0.000078   0.000020  -0.022579   0.601864   0.000005   0.000002
    11  H    0.408619   0.009451  -0.000026   0.000005   0.597436  -0.030207
    12  H    0.429107  -0.005656   0.000037   0.000002  -0.030207   0.579814
    13  H    0.000010   0.000006   0.425515  -0.014336   0.000000   0.000001
    14  H    0.000028  -0.000091   0.419487   0.009639  -0.000014  -0.000005
    15  O    0.268769   0.005973  -0.000001  -0.000000  -0.049897  -0.045209
    16  H   -0.032514  -0.000138   0.000000  -0.000000  -0.004077  -0.006006
    17  O   -0.035513  -0.037198  -0.000060   0.000002   0.000584   0.004718
    18  H   -0.006838  -0.003974   0.000001  -0.000001  -0.001586   0.001692
    19  O   -0.019457   0.003502  -0.006151  -0.000666   0.015040   0.001154
    20  H   -0.002828   0.002040   0.000260   0.000072   0.000366   0.000211
    21  O    0.010667   0.000150   0.006931   0.004309   0.002561   0.002425
    22  H    0.000333  -0.000075   0.001537  -0.003141  -0.000029  -0.000872
    23  O   -0.000662   0.000016  -0.025613  -0.032512   0.000026   0.000006
    24  H    0.000235  -0.000047  -0.003396   0.007228   0.000032  -0.000015
    25  O    0.000032   0.000193   0.282977   0.008191  -0.000001   0.000004
    26  H   -0.000004  -0.000003  -0.027114  -0.000600  -0.000000  -0.000000
              13         14         15         16         17         18
     1  C   -0.002484   0.008854   0.007725  -0.001817  -0.071331   0.007722
     2  C    0.013567  -0.021606  -0.000097   0.000060   0.004360  -0.000890
     3  C   -0.000161   0.000214  -0.075516   0.011712   0.272927  -0.039899
     4  C   -0.034904  -0.035272  -0.000019  -0.000007  -0.000205   0.000001
     5  H    0.000252   0.000537  -0.000024   0.000003   0.000109   0.000003
     6  H    0.001405  -0.016970  -0.000074   0.000038   0.003025  -0.000246
     7  C    0.000010   0.000028   0.268769  -0.032514  -0.035513  -0.006838
     8  H    0.000006  -0.000091   0.005973  -0.000138  -0.037198  -0.003974
     9  C    0.425515   0.419487  -0.000001   0.000000  -0.000060   0.000001
    10  H   -0.014336   0.009639  -0.000000  -0.000000   0.000002  -0.000001
    11  H    0.000000  -0.000014  -0.049897  -0.004077   0.000584  -0.001586
    12  H    0.000001  -0.000005  -0.045209  -0.006006   0.004718   0.001692
    13  H    0.588401  -0.037429   0.000000   0.000000   0.000000   0.000000
    14  H   -0.037429   0.636857   0.000000  -0.000000  -0.000019  -0.000001
    15  O    0.000000   0.000000   7.909340   0.327713  -0.013907   0.028531
    16  H    0.000000  -0.000000   0.327713   0.523128   0.000221  -0.001719
    17  O    0.000000  -0.000019  -0.013907   0.000221   7.922408   0.332729
    18  H    0.000000  -0.000001   0.028531  -0.001719   0.332729   0.471726
    19  O    0.000212   0.005473   0.000106   0.000063  -0.013706   0.000285
    20  H   -0.000002   0.000079  -0.000060  -0.000011   0.032871  -0.001697
    21  O   -0.000255   0.000068   0.000716   0.000075   0.000123   0.000049
    22  H   -0.000150  -0.000060  -0.000016  -0.000003   0.000032   0.000001
    23  O    0.005258   0.001723  -0.000000   0.000000  -0.000005  -0.000000
    24  H    0.000294   0.004120   0.000003   0.000000  -0.000026   0.000007
    25  O   -0.038500  -0.052339   0.000000   0.000000   0.000009   0.000000
    26  H   -0.007802  -0.007109  -0.000000  -0.000000  -0.000000   0.000000
              19         20         21         22         23         24
     1  C    0.201638  -0.043131  -0.052146   0.002274  -0.008325  -0.006825
     2  C   -0.024746   0.005298   0.272983  -0.049990  -0.030458  -0.002912
     3  C   -0.011723   0.000164  -0.015621  -0.000453   0.002044   0.000091
     4  C   -0.008614   0.000054  -0.031768  -0.012152   0.242763  -0.035803
     5  H    0.002616  -0.000261  -0.021626   0.006437   0.003456   0.000055
     6  H   -0.036731  -0.005027   0.003522   0.000332   0.001069   0.000818
     7  C   -0.019457  -0.002828   0.010667   0.000333  -0.000662   0.000235
     8  H    0.003502   0.002040   0.000150  -0.000075   0.000016  -0.000047
     9  C   -0.006151   0.000260   0.006931   0.001537  -0.025613  -0.003396
    10  H   -0.000666   0.000072   0.004309  -0.003141  -0.032512   0.007228
    11  H    0.015040   0.000366   0.002561  -0.000029   0.000026   0.000032
    12  H    0.001154   0.000211   0.002425  -0.000872   0.000006  -0.000015
    13  H    0.000212  -0.000002  -0.000255  -0.000150   0.005258   0.000294
    14  H    0.005473   0.000079   0.000068  -0.000060   0.001723   0.004120
    15  O    0.000106  -0.000060   0.000716  -0.000016  -0.000000   0.000003
    16  H    0.000063  -0.000011   0.000075  -0.000003   0.000000   0.000000
    17  O   -0.013706   0.032871   0.000123   0.000032  -0.000005  -0.000026
    18  H    0.000285  -0.001697   0.000049   0.000001  -0.000000   0.000007
    19  O    7.947492   0.319283  -0.000551   0.002973  -0.021526   0.038574
    20  H    0.319283   0.493120  -0.000501  -0.000173   0.000962  -0.001878
    21  O   -0.000551  -0.000501   7.894507   0.329075  -0.016089   0.001146
    22  H    0.002973  -0.000173   0.329075   0.490984   0.036139  -0.002910
    23  O   -0.021526   0.000962  -0.016089   0.036139   7.921446   0.331092
    24  H    0.038574  -0.001878   0.001146  -0.002910   0.331092   0.453063
    25  O    0.000510   0.000031  -0.000085  -0.000120   0.002348   0.000066
    26  H   -0.000014  -0.000003   0.000005   0.000010  -0.000324  -0.000045
              25         26
     1  C   -0.014281   0.001423
     2  C    0.014625  -0.002293
     3  C   -0.002442   0.000092
     4  C   -0.075918   0.013185
     5  H    0.007974  -0.000603
     6  H    0.011658  -0.000375
     7  C    0.000032  -0.000004
     8  H    0.000193  -0.000003
     9  C    0.282977  -0.027114
    10  H    0.008191  -0.000600
    11  H   -0.000001  -0.000000
    12  H    0.000004  -0.000000
    13  H   -0.038500  -0.007802
    14  H   -0.052339  -0.007109
    15  O    0.000000  -0.000000
    16  H    0.000000  -0.000000
    17  O    0.000009  -0.000000
    18  H    0.000000   0.000000
    19  O    0.000510  -0.000014
    20  H    0.000031  -0.000003
    21  O   -0.000085   0.000005
    22  H   -0.000120   0.000010
    23  O    0.002348  -0.000324
    24  H    0.000066  -0.000045
    25  O    7.880012   0.318188
    26  H    0.318188   0.533950
 Mulliken charges:
               1
     1  C    0.051736
     2  C    0.170268
     3  C    0.105537
     4  C    0.150972
     5  H    0.097925
     6  H    0.107624
     7  C   -0.021818
     8  H    0.077493
     9  C   -0.080816
    10  H    0.085458
    11  H    0.088069
    12  H    0.095867
    13  H    0.101100
    14  H    0.083833
    15  O   -0.364054
    16  H    0.183279
    17  O   -0.402149
    18  H    0.214105
    19  O   -0.395035
    20  H    0.200760
    21  O   -0.390671
    22  H    0.200016
    23  O   -0.412834
    24  H    0.217030
    25  O   -0.343134
    26  H    0.179437
 Sum of Mulliken charges =  -0.00000
 Mulliken charges with hydrogens summed into heavy atoms:
               1
     1  C    0.159359
     2  C    0.268193
     3  C    0.183031
     4  C    0.236431
     7  C    0.162118
     9  C    0.104118
    15  O   -0.180775
    17  O   -0.188044
    19  O   -0.194275
    21  O   -0.190655
    23  O   -0.195804
    25  O   -0.163697
 Electronic spatial extent (au):  <R**2>=           2522.0954
 Charge=              0.0000 electrons
 Dipole moment (field-independent basis, Debye):
    X=              0.4423    Y=             -1.0519    Z=             -0.0027  Tot=              1.1411
 Quadrupole moment (field-independent basis, Debye-Ang):
   XX=            -61.8070   YY=            -71.8972   ZZ=            -74.4378
   XY=             12.9965   XZ=              0.0644   YZ=             -0.7641
 Traceless Quadrupole moment (field-independent basis, Debye-Ang):
   XX=              7.5737   YY=             -2.5165   ZZ=             -5.0572
   XY=             12.9965   XZ=              0.0644   YZ=             -0.7641
 Octapole moment (field-independent basis, Debye-Ang**2):
  XXX=             10.5711  YYY=             -7.4923  ZZZ=             11.2263  XYY=             -1.6798
  XXY=             -3.9556  XXZ=             -7.3281  XZZ=             11.0455  YZZ=             -1.4972
  YYZ=             -0.8905  XYZ=              2.8236
 Hexadecapole moment (field-independent basis, Debye-Ang**3):
 XXXX=          -1836.1210 YYYY=           -509.5774 ZZZZ=           -344.6506 XXXY=            205.0991
 XXXZ=             12.8728 YYYX=             71.7386 YYYZ=             21.8882 ZZZX=              3.3906
 ZZZY=             -1.7030 XXYY=           -354.1022 XXZZ=           -437.1553 YYZZ=           -159.0056
 XXYZ=            -34.2907 YYXZ=              8.9171 ZZXY=              5.4576
 N-N= 8.298827296921D+02 E-N=-3.277291170385D+03  KE= 6.850333914487D+02
   1 Symmetry operations used in ECPInt.
 ECPInt:  NShTT=   23436 NPrTT=   62434 LenC2=   21806 LenP2D=   45311.
 LDataN:  DoStor=T MaxTD1= 7 Len=  274
 Calling FoFJK, ICntrl=      2127 FMM=F ISym2X=0 I1Cent= 0 IOpClX= 0 NMat=1 NMatS=1 NMatT=0.
 ***** Axes restored to original set *****
 -------------------------------------------------------------------
 Center     Atomic                   Forces (Hartrees/Bohr)
 Number     Number              X              Y              Z
 -------------------------------------------------------------------
      1        6          -0.007174190   -0.005381446    0.001994451
      2        6          -0.000308506   -0.015791555   -0.013334319
      3        6          -0.013584285   -0.001157734   -0.006100009
      4        6          -0.006834522   -0.005142526    0.001109930
      5        1          -0.002601436   -0.003752361    0.001084583
      6        1           0.003798505    0.006263430   -0.002588970
      7        6           0.001806914    0.003038102   -0.008327083
      8        1           0.005843615   -0.002014131    0.000806533
      9        6          -0.000760916    0.001920221    0.007783125
     10        1          -0.004431738   -0.000007856   -0.001072706
     11        1           0.004766746    0.000349053    0.006533517
     12        1          -0.000207559   -0.003954841    0.006649833
     13        1           0.000376725   -0.003995315   -0.004275814
     14        1          -0.000987712   -0.004034247   -0.004981494
     15        8           0.005811514   -0.003653760   -0.010539978
     16        1          -0.008696805    0.007197784    0.016610205
     17        8           0.008417393    0.005928439   -0.014058400
     18        1           0.004103436   -0.008955524    0.017250413
     19        8          -0.015143137    0.013976698   -0.008695010
     20        1           0.018448113   -0.005417535    0.003606956
     21        8          -0.001572113   -0.007610434    0.015902283
     22        1           0.000481651    0.017046090   -0.003466280
     23        8          -0.009486193    0.013955348   -0.001327031
     24        1           0.015562719    0.000048005    0.005493053
     25        8          -0.001892283    0.003020053    0.012361051
     26        1           0.004264065   -0.001873958   -0.018418840
 -------------------------------------------------------------------
 Cartesian Forces:  Max     0.018448113 RMS     0.008120823

 GradGradGradGradGradGradGradGradGradGradGradGradGradGradGradGradGradGrad
 Berny optimization.
 FormGI is forming the generalized inverse of G from B-inverse, IUseBI=4.
 Internal  Forces:  Max     0.019741514 RMS     0.005992807
 Search for a local minimum.
 Step number   1 out of a maximum of  140
 All quantities printed in internal units (Hartrees-Bohrs-Radians)
 Mixed Optimization -- RFO/linear search
 Second derivative matrix not updated -- first step.
 ITU=  0
     Eigenvalues ---    0.00230   0.00230   0.00257   0.00351   0.00369
     Eigenvalues ---    0.01052   0.01091   0.01160   0.01173   0.01208
     Eigenvalues ---    0.01420   0.03718   0.03718   0.03890   0.04038
     Eigenvalues ---    0.04586   0.04672   0.04800   0.04834   0.04913
     Eigenvalues ---    0.05348   0.05495   0.05763   0.07500   0.07642
     Eigenvalues ---    0.07762   0.08002   0.11353   0.11576   0.13579
     Eigenvalues ---    0.13894   0.16000   0.16000   0.16000   0.16000
     Eigenvalues ---    0.16000   0.16000   0.16679   0.17233   0.17403
     Eigenvalues ---    0.17593   0.19301   0.19547   0.19994   0.20002
     Eigenvalues ---    0.21977   0.22037   0.27830   0.28466   0.28651
     Eigenvalues ---    0.29298   0.29426   0.34053   0.34104   0.34127
     Eigenvalues ---    0.34135   0.34204   0.34225   0.34337   0.34548
     Eigenvalues ---    0.38464   0.38854   0.39555   0.39691   0.40059
     Eigenvalues ---    0.42376   0.50524   0.50787   0.51015   0.51370
     Eigenvalues ---    0.52468   0.52544
 RFO step:  Lambda=-1.75476331D-02 EMin= 2.30000000D-03
 Linear search not attempted -- first point.
 Iteration  1 RMS(Cart)=  0.09670762 RMS(Int)=  0.00289469
 Iteration  2 RMS(Cart)=  0.00448042 RMS(Int)=  0.00055698
 Iteration  3 RMS(Cart)=  0.00000692 RMS(Int)=  0.00055695
 Iteration  4 RMS(Cart)=  0.00000000 RMS(Int)=  0.00055695
 Variable       Old X    -DE/DX   Delta X   Delta X   Delta X     New X
                                 (Linear)    (Quad)   (Total)
    R1        2.91131  -0.00819   0.00000  -0.02710  -0.02710   2.88421
    R2        2.90736  -0.01183   0.00000  -0.03891  -0.03891   2.86845
    R3        2.07154  -0.00083   0.00000  -0.00231  -0.00231   2.06923
    R4        2.73141  -0.00928   0.00000  -0.02284  -0.02284   2.70857
    R5        2.92512  -0.00617   0.00000  -0.02084  -0.02084   2.90428
    R6        2.06988  -0.00440   0.00000  -0.01225  -0.01225   2.05763
    R7        2.72162  -0.01485   0.00000  -0.03595  -0.03595   2.68567
    R8        2.89386  -0.01020   0.00000  -0.03283  -0.03283   2.86103
    R9        2.07117  -0.00083   0.00000  -0.00232  -0.00232   2.06884
   R10        2.73696  -0.01165   0.00000  -0.02897  -0.02897   2.70799
   R11        2.89123  -0.00865   0.00000  -0.02773  -0.02773   2.86350
   R12        2.07241  -0.00435   0.00000  -0.01214  -0.01214   2.06026
   R13        2.71976  -0.01530   0.00000  -0.03691  -0.03691   2.68285
   R14        2.06766  -0.00157   0.00000  -0.00435  -0.00435   2.06330
   R15        2.06415  -0.00292   0.00000  -0.00804  -0.00804   2.05611
   R16        2.71473  -0.00051   0.00000  -0.00121  -0.00121   2.71351
   R17        2.07102  -0.00109   0.00000  -0.00303  -0.00303   2.06800
   R18        2.06952   0.00109   0.00000   0.00303   0.00303   2.07255
   R19        2.68447   0.00086   0.00000   0.00194   0.00194   2.68641
   R20        1.84154  -0.01974   0.00000  -0.03641  -0.03641   1.80513
   R21        1.85554  -0.01942   0.00000  -0.03679  -0.03679   1.81875
   R22        1.85780  -0.01924   0.00000  -0.03662  -0.03662   1.82118
   R23        1.85208  -0.01739   0.00000  -0.03274  -0.03274   1.81933
   R24        1.86040  -0.01633   0.00000  -0.03124  -0.03124   1.82916
   R25        1.84082  -0.01882   0.00000  -0.03466  -0.03466   1.80616
    A1        2.01625   0.00320   0.00000   0.00503   0.00489   2.02114
    A2        1.90879  -0.00204   0.00000  -0.02259  -0.02284   1.88595
    A3        1.91702  -0.00199   0.00000  -0.00629  -0.00624   1.91079
    A4        1.86954  -0.00247   0.00000  -0.02519  -0.02546   1.84409
    A5        1.90593  -0.00096   0.00000  -0.00137  -0.00133   1.90460
    A6        1.83738   0.00444   0.00000   0.05514   0.05531   1.89269
    A7        1.97235  -0.00103   0.00000   0.00337   0.00189   1.97424
    A8        1.91033  -0.00248   0.00000  -0.03699  -0.03716   1.87317
    A9        1.91574   0.00518   0.00000   0.04984   0.04935   1.96509
   A10        1.92449  -0.00047   0.00000  -0.02737  -0.02779   1.89670
   A11        1.86501   0.00023   0.00000   0.02283   0.02182   1.88683
   A12        1.87292  -0.00131   0.00000  -0.01012  -0.00929   1.86363
   A13        2.03123   0.00262   0.00000   0.00265   0.00282   2.03405
   A14        1.92303  -0.00027   0.00000  -0.01338  -0.01309   1.90993
   A15        1.85869  -0.00878   0.00000  -0.05162  -0.05145   1.80724
   A16        1.91067  -0.00244   0.00000  -0.00627  -0.00686   1.90380
   A17        1.87036   0.00535   0.00000   0.02790   0.02756   1.89792
   A18        1.86107   0.00376   0.00000   0.04564   0.04515   1.90621
   A19        2.00029  -0.00360   0.00000  -0.01308  -0.01318   1.98711
   A20        1.87833  -0.00146   0.00000  -0.01649  -0.01642   1.86191
   A21        1.91210   0.00591   0.00000   0.03502   0.03512   1.94722
   A22        1.90062   0.00276   0.00000   0.01020   0.01003   1.91064
   A23        1.91476  -0.00185   0.00000  -0.00411  -0.00410   1.91066
   A24        1.85155  -0.00166   0.00000  -0.01209  -0.01194   1.83961
   A25        1.94677  -0.00200   0.00000  -0.03025  -0.02991   1.91686
   A26        1.95374  -0.00044   0.00000  -0.01892  -0.01853   1.93521
   A27        1.88038  -0.01503   0.00000  -0.05817  -0.05782   1.82256
   A28        1.92550  -0.00114   0.00000  -0.01063  -0.01312   1.91238
   A29        1.87240   0.00982   0.00000   0.06268   0.06130   1.93369
   A30        1.88142   0.00936   0.00000   0.06139   0.06033   1.94176
   A31        1.91260  -0.00163   0.00000  -0.02064  -0.02030   1.89230
   A32        1.94294  -0.00316   0.00000  -0.03471  -0.03463   1.90831
   A33        1.93877  -0.01122   0.00000  -0.04896  -0.04906   1.88971
   A34        1.86234   0.00155   0.00000   0.01791   0.01636   1.87870
   A35        1.90177   0.00746   0.00000   0.04795   0.04703   1.94880
   A36        1.90347   0.00782   0.00000   0.04322   0.04170   1.94517
   A37        1.85185   0.00667   0.00000   0.03757   0.03757   1.88942
   A38        1.81031   0.00673   0.00000   0.03793   0.03793   1.84824
   A39        1.80848   0.00658   0.00000   0.03703   0.03703   1.84551
   A40        1.83679   0.00041   0.00000   0.00230   0.00230   1.83909
   A41        1.85324   0.00151   0.00000   0.00848   0.00848   1.86173
   A42        1.86486   0.00477   0.00000   0.02685   0.02685   1.89171
    D1       -3.13231  -0.00326   0.00000  -0.07877  -0.07878   3.07210
    D2        0.99884  -0.00009   0.00000  -0.01836  -0.01861   0.98022
    D3       -1.05247  -0.00007   0.00000  -0.01347  -0.01307  -1.06554
    D4        1.04079  -0.00068   0.00000  -0.03199  -0.03212   1.00867
    D5       -1.11126   0.00249   0.00000   0.02841   0.02805  -1.08320
    D6        3.12062   0.00251   0.00000   0.03331   0.03360  -3.12897
    D7       -0.96748  -0.00375   0.00000  -0.08195  -0.08199  -1.04947
    D8       -3.11953  -0.00058   0.00000  -0.02155  -0.02182  -3.14135
    D9        1.11235  -0.00056   0.00000  -0.01665  -0.01628   1.09608
   D10        1.02261  -0.00071   0.00000   0.00726   0.00711   1.02972
   D11       -1.16540   0.00078   0.00000   0.02538   0.02549  -1.13991
   D12        3.10597   0.00128   0.00000   0.00654   0.00642   3.11239
   D13       -3.12938  -0.00310   0.00000  -0.03765  -0.03766   3.11614
   D14        0.96580  -0.00161   0.00000  -0.01953  -0.01928   0.94652
   D15       -1.04602  -0.00111   0.00000  -0.03837  -0.03835  -1.08437
   D16       -1.14801   0.00033   0.00000   0.01302   0.01289  -1.13511
   D17        2.94717   0.00183   0.00000   0.03114   0.03127   2.97845
   D18        0.93536   0.00233   0.00000   0.01230   0.01220   0.94755
   D19       -2.94842  -0.00081   0.00000   0.00560   0.00563  -2.94279
   D20       -0.72070   0.00117   0.00000   0.00654   0.00647  -0.71424
   D21        1.28154   0.00013   0.00000   0.00489   0.00493   1.28647
   D22       -0.98599   0.00401   0.00000   0.06180   0.06179  -0.92419
   D23       -3.10273   0.00388   0.00000   0.06929   0.06911  -3.03363
   D24        1.17474   0.00358   0.00000   0.07440   0.07436   1.24910
   D25        1.15820  -0.00030   0.00000  -0.00423  -0.00406   1.15415
   D26       -0.95854  -0.00043   0.00000   0.00325   0.00326  -0.95529
   D27       -2.96425  -0.00072   0.00000   0.00837   0.00851  -2.95574
   D28       -3.09491  -0.00197   0.00000  -0.01767  -0.01763  -3.11254
   D29        1.07153  -0.00210   0.00000  -0.01018  -0.01032   1.06122
   D30       -0.93418  -0.00240   0.00000  -0.00507  -0.00506  -0.93924
   D31       -1.47636  -0.00124   0.00000  -0.03359  -0.03416  -1.51052
   D32        0.66825   0.00073   0.00000   0.01431   0.01498   0.68323
   D33        2.73233  -0.00037   0.00000  -0.01098  -0.01107   2.72126
   D34        0.89848  -0.00347   0.00000  -0.03591  -0.03605   0.86243
   D35       -1.26859  -0.00013   0.00000   0.01508   0.01495  -1.25364
   D36        2.94904  -0.00187   0.00000  -0.01244  -0.01243   2.93661
   D37        3.09273  -0.00388   0.00000  -0.05755  -0.05754   3.03518
   D38        0.92565  -0.00054   0.00000  -0.00655  -0.00654   0.91911
   D39       -1.13991  -0.00228   0.00000  -0.03408  -0.03392  -1.17383
   D40       -1.17856   0.00217   0.00000   0.00794   0.00791  -1.17065
   D41        2.93755   0.00552   0.00000   0.05893   0.05891   2.99646
   D42        0.87199   0.00378   0.00000   0.03140   0.03153   0.90352
   D43       -2.93529  -0.00002   0.00000   0.04277   0.04248  -2.89281
   D44       -0.75010   0.00107   0.00000   0.03184   0.03112  -0.71898
   D45        1.29464   0.00277   0.00000   0.06121   0.06222   1.35686
   D46       -2.96054   0.00104   0.00000  -0.00179  -0.00187  -2.96241
   D47        1.26667   0.00208   0.00000   0.01020   0.01047   1.27714
   D48       -0.85825   0.00211   0.00000   0.01320   0.01305  -0.84521
   D49       -0.85607  -0.00121   0.00000  -0.02426  -0.02438  -0.88045
   D50       -2.91204  -0.00017   0.00000  -0.01227  -0.01204  -2.92408
   D51        1.24622  -0.00015   0.00000  -0.00927  -0.00947   1.23675
   D52        1.16333  -0.00266   0.00000  -0.03527  -0.03534   1.12799
   D53       -0.89264  -0.00163   0.00000  -0.02328  -0.02300  -0.91564
   D54       -3.01756  -0.00160   0.00000  -0.02028  -0.02043  -3.03799
   D55       -0.84355  -0.00066   0.00000  -0.05027  -0.05036  -0.89391
   D56        1.36655  -0.00237   0.00000  -0.04501  -0.04493   1.32161
   D57       -2.86634  -0.00098   0.00000  -0.04178  -0.04177  -2.90811
   D58        3.08583   0.00088   0.00000   0.01775   0.01783   3.10367
   D59       -1.09921  -0.00429   0.00000  -0.01528  -0.01760  -1.11681
   D60        0.97438   0.00462   0.00000   0.03853   0.04076   1.01514
   D61       -3.02144  -0.00061   0.00000  -0.00695  -0.00698  -3.02842
   D62       -0.91276  -0.00483   0.00000  -0.03211  -0.03374  -0.94650
   D63        1.11395   0.00546   0.00000   0.03966   0.04132   1.15526
         Item               Value     Threshold  Converged?
 Maximum Force            0.019742     0.000450     NO 
 RMS     Force            0.005993     0.000300     NO 
 Maximum Displacement     0.424973     0.001800     NO 
 RMS     Displacement     0.096715     0.001200     NO 
 Predicted change in Energy=-9.960704D-03
 GradGradGradGradGradGradGradGradGradGradGradGradGradGradGradGradGradGrad

                          Input orientation:                          
 ---------------------------------------------------------------------
 Center     Atomic      Atomic             Coordinates (Angstroms)
 Number     Number       Type             X           Y           Z
 ---------------------------------------------------------------------
      1          6           0        0.021232   -0.034915   -0.023085
      2          6           0        1.546893   -0.077557   -0.023004
      3          6           0       -0.617743    0.749914   -1.154382
      4          6           0        2.130126   -0.803959    1.199363
      5          1           0        1.900053    0.952419   -0.017751
      6          1           0       -0.304597    0.457477    0.899081
      7          6           0       -0.296767    0.291787   -2.561244
      8          1           0       -0.358361    1.808867   -1.054917
      9          6           0        1.617131   -0.280527    2.525632
     10          1           0        3.211889   -0.676641    1.152311
     11          1           0       -0.448605   -0.786334   -2.643365
     12          1           0        0.730443    0.536232   -2.823795
     13          1           0        2.216192   -0.723413    3.327225
     14          1           0        0.579430   -0.605897    2.667612
     15          8           0       -1.229175    1.002483   -3.390350
     16          1           0       -1.051094    0.777725   -4.301528
     17          8           0       -2.022726    0.584920   -0.925687
     18          1           0       -2.456932    0.869534   -1.736090
     19          8           0       -0.494311   -1.372288   -0.029585
     20          1           0       -1.436772   -1.288278   -0.212556
     21          8           0        2.076099   -0.686748   -1.192886
     22          1           0        2.096144   -1.630280   -1.002536
     23          8           0        1.911856   -2.204923    1.127125
     24          1           0        0.968138   -2.330235    0.952132
     25          8           0        1.720619    1.137252    2.515366
     26          1           0        1.494038    1.462383    3.385114
 ---------------------------------------------------------------------
                    Distance matrix (angstroms):
                    1          2          3          4          5
     1  C    0.000000
     2  C    1.526257   0.000000
     3  C    1.517919   2.578832   0.000000
     4  C    2.556021   1.536880   3.937692   0.000000
     5  H    2.122457   1.088852   2.769880   2.149224   0.000000
     6  H    1.094991   2.136473   2.097686   2.758490   2.438448
     7  C    2.578780   3.158822   1.513990   4.607887   3.425172
     8  H    2.146695   2.872879   1.094785   4.254551   2.628621
     9  C    3.017148   2.557671   4.427073   1.515301   2.840599
    10  H    3.460298   2.124259   4.692757   1.090245   2.396622
    11  H    2.766088   3.369075   2.146098   4.627820   3.928524
    12  H    2.945024   2.981234   2.156433   4.465537   3.068400
    13  H    4.064045   3.476942   5.503334   2.131125   3.754627
    14  H    2.806680   2.907670   4.228366   2.144678   3.373954
    15  O    3.738741   4.495783   2.331779   5.967713   4.600978
    16  H    4.485013   5.078072   3.176964   6.548411   5.204856
    17  O    2.318760   3.741109   1.433004   4.867340   4.043216
    18  H    3.145427   4.456709   1.932694   5.697241   4.684322
    19  O    1.433315   2.417206   2.405024   2.953130   3.337271
    20  H    1.931992   3.225529   2.389993   3.866632   4.024061
    21  O    2.452713   1.421195   3.053239   2.395728   2.024549
    22  H    2.794597   1.916275   3.612972   2.352088   2.771026
    23  O    3.099416   2.445748   4.509457   1.419704   3.358524
    24  H    2.667616   2.521985   4.054595   1.934130   3.547528
    25  O    3.271946   2.819444   4.368640   2.380727   2.546182
    26  H    4.003359   3.740251   5.057099   3.212230   3.464737
                    6          7          8          9         10
     6  H    0.000000
     7  C    3.464298   0.000000
     8  H    2.376395   2.138772   0.000000
     9  C    2.623616   5.465058   4.592218   0.000000
    10  H    3.703515   5.199905   4.878144   2.141534   0.000000
    11  H    3.757223   1.091853   3.044073   5.589422   5.274316
    12  H    3.864882   1.088047   2.435984   5.483583   4.841287
    13  H    3.693882   6.482257   5.678374   1.094337   2.392457
    14  H    2.244987   5.377219   4.535169   1.096744   3.038253
    15  O    4.421662   1.435929   2.619698   6.689277   6.571018
    16  H    5.263663   1.957993   3.476149   7.406041   7.073370
    17  O    2.509579   2.395810   2.069990   5.090104   5.771551
    18  H    3.427311   2.383481   2.397987   6.006905   6.547446
    19  O    2.060692   3.036028   3.345076   3.489880   3.951799
    20  H    2.359071   3.051647   3.385978   4.223691   4.883340
    21  O    3.369464   2.908681   3.489086   3.768693   2.605776
    22  H    3.706539   3.442373   4.225526   3.807789   2.607236
    23  O    3.471749   4.971483   5.101539   2.397079   2.006580
    24  H    3.064965   4.562762   4.787485   2.664282   2.794434
    25  O    2.678801   5.527805   4.185707   1.421588   2.715145
    26  H    3.228821   6.319529   4.823413   1.947202   3.537208
                   11         12         13         14         15
    11  H    0.000000
    12  H    1.780980   0.000000
    13  H    6.538582   6.452070   0.000000
    14  H    5.412567   5.610954   1.768585   0.000000
    15  O    2.089771   2.092481   7.744359   6.523560   0.000000
    16  H    2.357706   2.327206   8.433650   7.289851   0.955235
    17  O    2.703445   3.344416   6.145520   4.593588   2.622718
    18  H    2.756524   3.384309   7.071968   5.548781   2.064374
    19  O    2.679044   3.598622   4.363031   3.002523   4.180228
    20  H    2.671565   3.852821   5.117936   3.581352   3.922889
    21  O    2.913406   2.442608   4.522430   4.141255   4.313605
    22  H    3.143296   3.142595   4.425342   4.101191   4.867324
    23  O    4.669129   4.951710   2.669819   2.589468   6.368761
    24  H    4.161537   4.746658   3.127393   2.463191   5.898504
    25  O    5.917620   5.463361   2.089685   2.089033   6.602797
    26  H    6.721097   6.323874   2.302729   2.372572   7.316715
                   16         17         18         19         20
    16  H    0.000000
    17  O    3.518174   0.000000
    18  H    2.926821   0.962441   0.000000
    19  O    4.814775   2.640021   3.433629   0.000000
    20  H    4.597479   2.088245   2.831613   0.963727   0.000000
    21  O    4.646254   4.299872   4.823428   2.903488   3.696370
    22  H    5.156253   4.677404   5.245729   2.779145   3.636280
    23  O    6.866261   5.241965   6.061072   2.796587   3.721330
    24  H    6.429437   4.579258   5.403348   2.005041   2.868060
    25  O    7.367612   5.114543   5.966446   4.204817   4.826373
    26  H    8.125941   5.632102   6.495257   4.863030   5.394350
                   21         22         23         24         25
    21  O    0.000000
    22  H    0.962751   0.000000
    23  O    2.777460   2.213511   0.000000
    24  H    2.920570   2.362850   0.967951   0.000000
    25  O    4.147828   4.491758   3.624075   3.877293   0.000000
    26  H    5.090741   5.401719   4.326918   4.536511   0.955778
                   26
    26  H    0.000000
 Stoichiometry    C6H14O6
 Framework group  C1[X(C6H14O6)]
 Deg. of freedom    72
 Full point group                 C1      NOp   1
 Largest Abelian subgroup         C1      NOp   1
 Largest concise Abelian subgroup C1      NOp   1
                         Standard orientation:                         
 ---------------------------------------------------------------------
 Center     Atomic      Atomic             Coordinates (Angstroms)
 Number     Number       Type             X           Y           Z
 ---------------------------------------------------------------------
      1          6           0        0.174511   -0.415705    0.250887
      2          6           0       -0.690637    0.446508   -0.664301
      3          6           0        1.602264   -0.643402   -0.211447
      4          6           0       -2.147972    0.556864   -0.188912
      5          1           0       -0.679615   -0.015135   -1.650386
      6          1           0       -0.279520   -1.410434    0.308975
      7          6           0        2.454505    0.592194   -0.409319
      8          1           0        1.596429   -1.226284   -1.138145
      9          6           0       -2.814336   -0.781106    0.059952
     10          1           0       -2.691004    1.094237   -0.966717
     11          1           0        2.382114    1.236600    0.469114
     12          1           0        2.139042    1.143461   -1.292740
     13          1           0       -3.884639   -0.611348    0.212294
     14          1           0       -2.413139   -1.220906    0.981073
     15          8           0        3.789435    0.085432   -0.561130
     16          1           0        4.373042    0.823812   -0.724448
     17          8           0        2.173338   -1.433268    0.839023
     18          1           0        3.125381   -1.407744    0.700257
     19          8           0        0.191923    0.152345    1.566717
     20          1           0        0.884883   -0.316700    2.044811
     21          8           0       -0.176456    1.762077   -0.821441
     22          1           0       -0.535754    2.266279   -0.084166
     23          8           0       -2.257901    1.363895    0.973919
     24          1           0       -1.614004    1.022328    1.610832
     25          8           0       -2.570394   -1.616478   -1.064129
     26          1           0       -3.072784   -2.422291   -0.955584
 ---------------------------------------------------------------------
 Rotational constants (GHZ):           1.5362600           0.5248352           0.4855038
 Standard basis: def2TZVPP (5D, 7F)
 There are   642 symmetry adapted cartesian basis functions of A   symmetry.
 There are   568 symmetry adapted basis functions of A   symmetry.
   568 basis functions,   850 primitive gaussians,   642 cartesian basis functions
    49 alpha electrons       49 beta electrons
       nuclear repulsion energy       837.6332946443 Hartrees.
 NAtoms=   26 NActive=   26 NUniq=   26 SFac= 1.00D+00 NAtFMM=   60 NAOKFM=F Big=F
 Integral buffers will be    131072 words long.
 Raffenetti 2 integral format.
 Two-electron integral symmetry is turned on.
 Nuclear repulsion after empirical dispersion term =      837.6146056673 Hartrees.
 One-electron integrals computed using PRISM.
   1 Symmetry operations used in ECPInt.
 ECPInt:  NShTT=   23436 NPrTT=   62434 LenC2=   21888 LenP2D=   45562.
 LDataN:  DoStor=T MaxTD1= 6 Len=  172
[...]
 125,0.00088611,0.00029292,0.00018898,0.00006376,-0.00014220,0.00013495
 ,0.00061690,0.00798895,-0.00402484,0.00118596,0.00168024,0.00071766,0.
 63990404,-0.01054252,-0.20662880,0.00239869,-0.00612527,-0.00975900,-0
 .00126194,-0.01384783,-0.04285219,0.00637231,0.00020453,-0.00445387,0.
 00143621,0.00011446,0.00145117,0.00014152,-0.01441991,-0.03664576,-0.0
 0154375,0.00041940,-0.00164085,-0.00358849,0.00375471,-0.00176807,0.00
 529833,-0.00018727,-0.00171741,0.00015382,-0.00004042,0.00073534,-0.00
 029102,0.00014254,0.00105742,0.00163326,0.00023492,-0.00002222,0.00008
 644,-0.00005846,0.00013981,-0.00033573,0.00042510,-0.00038523,0.000031
 44,0.00066277,0.00127079,0.00168865,0.00002995,-0.00011184,0.00017915,
 -0.00002980,0.00125508,0.00105477,-0.00106988,-0.00030089,-0.00082400,
 0.02336101,0.34051993,-0.01168483,-0.00516788,-0.06825647,0.00150795,-
 0.00244796,0.00010081,0.00900406,0.03042242,0.00144946,0.00107466,0.00
 141274,-0.00070850,-0.00052465,0.00012341,0.00065228,-0.01166761,-0.02
 524958,0.00840210,0.00218603,-0.00235473,0.00127592,-0.00322704,0.0038
 9049,-0.00396757,0.00197070,0.00031013,-0.00041775,-0.00005388,-0.0003
 1476,0.00022020,0.00004943,0.00210260,0.00014160,0.00002975,0.00101541
 ,-0.00037552,-0.00048170,0.00000198,0.00010660,-0.00079136,-0.00019804
 ,0.00040669,-0.00087350,0.00164726,-0.00077932,0.00002625,-0.00036327,
 0.00049605,-0.00017631,0.00291829,0.00149533,0.00070495,-0.00005940,0.
 00035623,0.09022823,-0.02244713,0.07796803,-0.01906677,-0.00476086,-0.
 00064805,0.00013032,-0.00334686,-0.00063427,0.00283421,0.00131318,-0.0
 0039890,-0.00014610,-0.00008359,0.00001973,-0.00053333,0.00042357,-0.0
 0006743,0.00075980,0.00154854,0.00000872,-0.00005978,-0.00037863,0.000
 90080,-0.00128153,0.00024708,-0.00029343,-0.00022165,-0.00011743,-0.00
 003446,0.00008425,0.00000187,0.00002433,-0.00002590,0.00005738,0.00051
 337,-0.00003434,0.00018476,0.00010647,0.00011001,0.00001589,0.00003269
 ,0.00004518,-0.00001572,-0.00023335,-0.00069897,0.00029392,-0.00050259
 ,-0.00004499,0.00001086,0.00000652,-0.00185809,0.00016157,0.00042479,-
 0.00023542,-0.00023292,-0.00045384,-0.50429444,0.01683931,-0.07090790,
 0.52391185,-0.04518316,-0.00181309,-0.00555692,-0.00107928,-0.00830305
 ,-0.00031528,-0.00577748,-0.00222359,0.00237501,0.00021231,-0.00095952
 ,0.00010742,-0.00205037,0.00014272,0.00002899,-0.00042119,-0.00053089,
 -0.00095569,0.00015817,0.00058206,0.00049218,0.00057284,0.00050762,-0.
 00049556,0.00000335,0.00006140,-0.00001921,0.00006299,0.00009230,0.000
 04798,-0.00003881,-0.00012721,-0.00010634,0.00008687,-0.00008004,-0.00
 041643,0.00004718,-0.00000736,-0.00002086,0.00001218,0.00004759,-0.000
 02983,0.00032439,-0.00026353,-0.00057072,0.00018904,0.00006180,0.00003
 033,0.00006190,0.00163530,-0.00282782,0.00110959,0.00167003,0.00063053
 ,0.06355382,-0.04863493,0.01335781,-0.01321020,0.05610514,0.00096174,-
 0.00206472,0.00134798,0.00079634,0.00106088,-0.00043040,0.00358198,0.0
 0278210,0.00087091,0.00031390,0.00048847,0.00013238,0.00038359,0.00015
 423,0.00027678,-0.00090129,0.00004199,-0.00001449,-0.00027312,0.001247
 32,-0.00049861,-0.00034094,-0.00056810,0.00010587,-0.00043862,-0.00025
 766,0.00007091,0.00002821,-0.00006157,-0.00005627,0.00043948,-0.000497
 51,-0.00073120,-0.00009282,-0.00049203,0.00028586,0.00009373,0.0000203
 8,-0.00001420,0.00003156,0.00003169,-0.00008498,-0.00004089,-0.0005945
 7,0.00042335,0.00001493,0.00013865,-0.00019941,-0.00056270,-0.00321490
 ,-0.00138062,-0.00019622,0.00038322,-0.00061655,-0.07544762,0.00740723
 ,-0.01860713,0.07252410,-0.00570781,0.01928790,-0.01508472,0.02093964,
 0.03938184,-0.08893804,0.01721607,0.05613019,0.00369523,-0.00140417,0.
 00093440,0.00382918,-0.00333902,-0.00364187,0.00473242,0.00226734,-0.0
 0223016,-0.00869331,0.00003666,-0.00004631,-0.00073360,0.00072223,-0.0
 0215614,-0.00020867,0.00033786,0.00006659,0.00035584,0.00170459,-0.001
 14786,0.00251568,-0.00111966,0.00109050,0.00024806,0.00066269,-0.00008
 837,-0.00351483,0.00085786,-0.00152695,0.00025687,0.00003290,-0.000082
 87,0.00048138,-0.00003600,-0.00084299,-0.00170996,0.00106098,-0.001269
 12,-0.00004282,-0.00001541,0.00034834,-0.00076162,0.00005241,-0.000434
 82,0.00029270,-0.00015140,-0.00007331,0.00249122,-0.00014861,0.0004079
 9,0.00098776,0.00057315,-0.00000807,0.10896536,0.00499363,-0.00587428,
 -0.01095958,0.03104050,-0.12189845,-0.07065996,-0.00202209,0.00013835,
 -0.00097338,-0.00231701,-0.00131211,0.00492616,0.01801243,-0.01464589,
 -0.03684052,0.00221550,0.00115920,0.00028709,-0.00041976,-0.00218303,0
 .00172873,-0.00010780,0.00032527,0.00002832,0.00088188,-0.00176023,0.0
 0119982,-0.00067933,0.00020793,0.00004624,0.00073273,0.00075486,0.0001
 5355,0.00266655,-0.00080545,0.00045192,-0.00023927,0.00017746,-0.00001
 413,-0.00000245,0.00004822,-0.00001015,0.00124019,0.00068112,0.0006256
 1,0.00003873,-0.00019297,-0.00001408,0.00085614,0.00038652,0.00046176,
 -0.00001315,-0.00002502,-0.00011685,0.00078333,0.00442489,0.00204101,0
 .00011085,0.00058614,0.00019867,-0.06862313,0.63441986,0.01258306,-0.0
 1014323,-0.01277081,0.04797908,-0.02320679,-0.18566455,-0.00032117,0.0
 0113010,-0.00214351,0.01848129,-0.01886716,-0.05182336,0.00322726,-0.0
 0708890,-0.00697313,0.00193534,0.00010407,0.00110173,0.00186051,0.0006
 0392,-0.00244192,-0.00009692,0.00025482,0.00019897,-0.00533918,0.00830
 603,-0.00368770,0.00071866,-0.00127123,0.00218104,0.00085412,0.0007036
 7,0.00001284,-0.00368614,-0.00055752,-0.00067626,0.00106448,-0.0011653
 7,-0.00302430,0.00043138,-0.00004543,-0.00011634,-0.00310689,0.0013954
 8,0.00043532,0.00036870,-0.00010267,0.00048135,0.00053096,0.00004295,0
 .00223596,0.00052181,-0.00021579,-0.00061327,-0.00048161,0.00105977,0.
 00286855,-0.00030783,0.00023156,-0.00018410,-0.09188440,-0.01394075,0.
 31525239,-0.00046142,0.00444931,0.00204997,-0.00206840,0.01752892,-0.0
 0018078,0.00001188,0.00009355,0.00016363,0.00250354,0.00021002,0.00010
 459,-0.00011656,-0.00088770,-0.00013120,-0.00050829,-0.00056034,-0.000
 03966,0.00013701,0.00113587,-0.00049535,0.00003473,-0.00016464,-0.0000
 0417,-0.00012889,-0.00039627,0.00005849,-0.00056074,-0.00033485,-0.000
 54546,-0.00039476,-0.00028002,-0.00027218,-0.00034914,0.00003053,0.000
 00313,-0.00003504,0.00002432,0.00004712,-0.00012661,0.00007751,0.00021
 398,0.00000411,-0.00054229,0.00030237,0.00000959,0.00008041,-0.0001188
 2,0.00012368,-0.00028649,-0.00001515,-0.00009702,0.00003725,-0.0000119
 4,0.00052846,-0.00117086,-0.00087850,-0.00014839,-0.00016733,-0.000285
 87,-0.01147741,0.01132151,0.01386911,0.01653553,0.00017316,0.00051201,
 0.00068665,0.00182223,-0.02288641,-0.00382929,0.00042122,-0.00041000,0
 .00008761,0.00002207,0.00337117,0.00266731,0.00227920,0.00024230,-0.00
 195165,-0.00068579,0.00003795,0.00018829,0.00026858,-0.00013892,0.0002
 4644,0.00000582,0.00002493,0.00001692,0.00007037,-0.00161386,0.0006143
 4,-0.00035614,-0.00015524,-0.00046223,0.00004505,0.00010476,0.00002015
 ,0.00010485,-0.00018629,0.00017512,-0.00012502,0.00029502,0.00052053,-
 0.00013761,0.00005041,0.00011393,-0.00045190,0.00018072,-0.00032116,0.
 00002855,0.00003337,0.00006703,-0.00042511,0.00003580,-0.00006028,0.00
 004233,-0.00000693,0.00000695,-0.00017860,-0.00062550,0.00034820,0.000
 07900,0.00006461,0.00009678,0.02727246,-0.49873197,0.06450518,-0.02917
 672,0.52133095,0.00028795,-0.00124020,-0.00067928,0.00279691,-0.042113
 65,0.00131742,-0.00016221,-0.00004689,0.00010536,-0.00081236,-0.007523
 90,-0.00378355,0.00256793,-0.00262677,-0.00568233,0.00049764,0.0001186
 1,-0.00002284,0.00016296,0.00089216,-0.00042546,0.00002182,-0.00001892
 ,-0.00012957,0.00037398,-0.00078524,-0.00017971,-0.00013384,0.00031898
 ,-0.00026035,-0.00050144,-0.00028530,0.00001489,-0.00010175,0.00018803
 ,0.00026907,-0.00006938,0.00002055,0.00000654,-0.00003108,0.00004141,0
 .00010100,-0.00011827,-0.00040860,-0.00008066,-0.00006358,0.00010625,-
 0.00005435,0.00005683,0.00007519,-0.00026620,-0.00006020,0.00006513,0.
 00008848,-0.00012623,0.00077165,-0.00095632,-0.00003036,0.00027591,0.0
 0014570,0.00894755,0.11108475,-0.05474930,-0.01482456,-0.06160473,0.05
 838819,-0.00212344,-0.00515961,0.00207599,0.00552517,0.01169415,0.0043
 7892,0.00035451,0.00043735,-0.00020565,-0.10250917,-0.03830180,-0.0093
 6355,0.00001302,0.00144311,-0.00231013,0.00008711,0.00057065,-0.000045
 99,-0.00013792,-0.00019866,0.00019872,-0.00012203,0.00022161,-0.000213
 92,0.00212908,0.00922842,0.00037372,-0.00272961,-0.04280888,-0.0057559
 3,-0.00003008,0.00006879,0.00014734,0.00004575,0.00013754,-0.00010584,
 -0.00013861,-0.00036005,0.00063046,0.00265665,0.00053221,-0.00198883,0
 .00007794,0.00013790,-0.00028723,-0.00002889,-0.00004275,0.00004368,0.
 00026491,0.00058242,-0.00019938,0.00016265,0.00003938,0.00010015,-0.00
 987710,0.00532144,-0.00417579,0.00133110,0.00198669,-0.00107334,0.0032
 4080,-0.00207727,0.00128207,-0.00310915,0.00027436,-0.00130882,0.59105
 170,-0.00492642,-0.00256619,-0.00029927,-0.00487475,-0.04603443,0.0003
 1158,-0.00021983,0.00055418,-0.00025529,0.00472389,-0.22469013,-0.0160
 6259,0.00296085,-0.00169195,0.00569813,-0.00004982,0.00036048,0.000185
 13,-0.00022626,-0.00030196,-0.00044215,-0.00014619,0.00046684,-0.00022
 763,-0.00589665,-0.03386683,-0.00120970,-0.00689900,-0.01885106,-0.002
 69479,0.00012135,0.00012553,0.00009975,0.00003606,0.00002292,-0.000171
 79,-0.00135430,0.00138192,-0.00034974,0.00132261,0.00136671,0.00158395
 ,0.00032367,0.00008413,0.00050356,-0.00004056,-0.00009453,-0.00003377,
 0.00110005,0.00026530,0.00048234,0.00003612,0.00000737,-0.00014134,0.0
 0497602,0.00485349,0.00073862,0.00022775,-0.00012232,0.00036168,0.0008
 8246,0.00257534,-0.00102161,-0.00054094,-0.00142304,0.00060398,0.08412
 808,0.37565354,0.00124715,-0.00209236,0.00063102,0.00638823,0.02519208
 ,-0.00424408,0.00058012,-0.00021838,-0.00002291,-0.00195231,-0.0218772
 2,-0.06789675,-0.00213556,0.00254270,-0.00421765,-0.00074599,0.0005812
 7,0.00016267,0.00064663,-0.00032654,0.00027245,-0.00001717,-0.00005400
 ,0.00000436,-0.00767662,-0.03239852,0.00381299,-0.00133237,-0.00303238
 ,0.00191618,0.00007635,0.00007030,0.00009259,-0.00008643,-0.00015178,0
 .00024998,-0.00061441,0.00026622,0.00296645,-0.00069143,0.00099011,0.0
 0183863,-0.00062561,0.00036992,-0.00040216,0.00007509,-0.00003086,0.00
 012992,-0.00065362,0.00031143,-0.00001724,0.00014144,-0.00004371,-0.00
 001298,-0.00606169,0.00122548,0.00093141,0.00008165,0.00109668,-0.0001
 4575,-0.00091717,0.01177229,0.00065990,-0.00186697,-0.00258932,0.00788
 665,0.07913251,0.03640297,0.08332216,0.00476003,0.00564512,0.00058750,
 0.00278664,0.00067555,0.00009736,-0.00033792,-0.00083280,-0.00018238,-
 0.00754182,-0.00506080,0.00045712,-0.00063792,0.00053986,-0.00065900,-
 0.00025783,-0.00084483,-0.00014794,0.00019649,0.00014752,-0.00027617,0
 .00022050,-0.00043481,0.00040412,0.00261386,0.00120804,-0.00176532,0.0
 0212019,-0.00020456,-0.00004080,0.00006673,-0.00007557,-0.00016897,-0.
 00004666,-0.00017654,0.00016637,-0.00024396,-0.00003264,-0.00012468,-0
 .00050442,-0.00014917,0.00007602,-0.00011940,-0.00012106,0.00034834,0.
 00003828,0.00003980,-0.00004207,-0.00025078,-0.00062530,0.00027492,-0.
 00013604,-0.00003815,-0.00012819,-0.00458690,-0.00300428,-0.00068471,-
 0.00173734,-0.00104390,0.00034922,-0.00127019,0.00164397,-0.00036164,-
 0.00023281,-0.00149585,0.00273030,-0.48810717,-0.07860854,-0.06622607,
 0.49396270,0.00101802,-0.00439807,0.00178140,-0.00123827,0.00022324,0.
 00145172,0.00013820,-0.00020575,0.00014150,-0.04848337,-0.01450825,-0.
 00675688,0.00034618,0.00040603,-0.00055065,0.00000902,0.00012701,0.000
 03691,0.00002953,0.00003426,0.00028377,-0.00002727,0.00010575,-0.00009
 863,-0.00171350,-0.00025291,-0.00011070,-0.00037364,-0.00713050,-0.001
 09650,-0.00003816,0.00002313,0.00007744,0.00001114,0.00002889,-0.00000
 867,0.00034673,0.00006875,0.00024616,0.00086626,-0.00016382,-0.0010146
 6,-0.00014711,0.00007722,-0.00041014,0.00001262,0.00002018,0.00004222,
 -0.00040921,0.00042995,-0.00038743,0.00008860,0.00006094,0.00011694,-0
 .00317281,-0.00202680,-0.00072638,0.00043251,0.00152156,-0.00107965,0.
 00052573,-0.00009312,-0.00003125,-0.00055978,0.00040308,0.00074218,-0.
 02967770,-0.05400449,-0.00832480,0.08120140,0.07878315,0.00110366,0.00
 314267,0.00035861,0.00178436,0.00144804,0.00209855,-0.00008911,-0.0001
 2763,-0.00023174,-0.00396518,-0.00178126,-0.00096723,-0.00029059,-0.00
 022731,-0.00006434,0.00013378,-0.00083603,-0.00013682,-0.00012214,0.00
 035824,-0.00026689,0.00008094,-0.00018338,0.00014163,-0.00331518,-0.00
 147821,-0.00003678,0.00072707,0.00085158,0.00050448,-0.00005079,-0.000
 07778,-0.00012866,-0.00001103,-0.00002106,-0.00000849,-0.00006990,-0.0
 0010787,-0.00022611,0.00113524,-0.00055674,-0.00026498,0.00018583,-0.0
 0026732,0.00031758,-0.00001409,0.00004591,-0.00007979,0.00029008,-0.00
 048396,0.00021441,-0.00010484,-0.00000711,-0.00004658,0.00004223,-0.00
 006967,-0.00251939,-0.00025802,-0.00164708,0.00005978,-0.00121583,-0.0
 0057286,-0.00147306,0.00300525,0.00100454,-0.00120285,-0.06388071,-0.0
 1525319,-0.01930004,0.06402417,0.01543038,0.02334811,-0.00122312,0.000
 74160,0.00166601,-0.00045242,-0.00024282,0.00031501,0.00032513,-0.0002
 0538,-0.00017726,0.00417875,0.01107281,-0.00216941,-0.00004005,0.00024
 402,0.00008103,0.00041888,-0.00050642,-0.00060360,-0.00018581,0.000077
 46,0.00016117,-0.00002115,-0.00000258,0.00004111,-0.07190395,-0.019185
 71,0.01262240,0.00114382,-0.00048119,-0.00175468,-0.00002267,-0.000016
 15,0.00000090,0.00001889,0.00003274,-0.00005056,0.00779275,0.01444422,
 0.00369293,0.00407580,-0.03744789,-0.00265491,0.00000416,0.00002606,-0
 .00032478,-0.00001937,-0.00000144,0.00002100,0.00001149,-0.00002750,-0
 .00018817,0.00006618,0.00000118,0.00008729,0.00013185,-0.00103595,-0.0
 0117963,0.00019317,0.00005009,0.00023734,0.00057275,-0.00009601,-0.000
 11574,-0.00013025,0.00015429,-0.00013511,0.00148676,0.00329387,0.00344
 558,-0.00091725,0.00071111,0.00075082,0.10103570,0.00023294,-0.0021346
 0,-0.00052822,0.00051706,-0.00079058,0.00047901,-0.00018913,-0.0006325
 0,0.00017656,-0.00501529,-0.02478266,-0.00147135,0.00006889,0.00035906
 ,-0.00093465,-0.00051583,-0.00035009,0.00057654,0.00017785,-0.00011980
 ,0.00019783,-0.00000210,0.00027329,-0.00018749,-0.03183064,-0.23943341
 ,0.01630421,0.00090128,0.00092887,0.00068017,0.00003752,0.00010485,0.0
 0011237,0.00001651,-0.00005445,0.00005212,-0.00318397,-0.03629105,-0.0
 0182789,-0.00895306,-0.02738644,-0.00306508,-0.00020338,0.00025872,-0.
 00026397,-0.00000087,-0.00004787,0.00005028,-0.00027024,0.00059100,-0.
 00017922,0.00000790,-0.00007847,-0.00000311,-0.00044653,0.00179503,-0.
 00118416,0.00024084,-0.00005967,0.00019856,-0.00034359,0.00125311,-0.0
 0109322,0.00008368,-0.00036832,0.00122163,0.00125831,-0.00208309,-0.00
 749646,0.00138462,0.00047857,0.00150630,0.00161311,0.41093542,-0.00011
 927,0.00011295,0.00049153,-0.00095085,0.00280531,-0.00018817,0.0004576
 7,-0.00025079,0.00012681,-0.00792977,-0.03645060,0.00450300,-0.0004985
 5,-0.00149637,-0.00154740,0.00013206,-0.00033205,-0.00062323,0.0000580
 7,-0.00003336,0.00027488,0.00001553,-0.00004433,0.00002754,0.00713907,
 -0.02553983,-0.09516178,-0.00009796,0.00067552,0.00130203,-0.00000601,
 0.00000077,0.00001435,-0.00000493,-0.00000452,0.00004379,0.00693682,0.
 02292582,0.00876666,-0.00138766,0.00124962,0.00348054,-0.00019736,0.00
 011988,-0.00036177,0.00001328,-0.00000622,0.00004719,-0.00046577,0.000
 11795,-0.00017320,0.00005517,-0.00002505,0.00005438,-0.00082594,-0.000
 71058,-0.00049732,0.00017818,0.00003541,-0.00000384,0.00032335,-0.0007
 3481,0.00065965,-0.00013381,-0.00048560,0.00025090,0.00240612,-0.00913
 058,-0.00885088,0.00122835,0.00031623,0.00004266,-0.15248442,0.1572661
 3,0.55020512,0.00007959,-0.00022541,-0.00029990,0.00031078,-0.00007779
 ,0.00002149,0.00000073,-0.00001283,0.00000662,-0.00053729,-0.00013750,
 0.00011495,-0.00006814,-0.00001636,-0.00011774,0.00002409,0.00001236,-
 0.00002853,0.00003983,-0.00000914,-0.00003994,0.00001005,0.00001170,-0
 .00001644,0.00006329,-0.00476542,-0.00619309,0.00017107,-0.00015590,-0
 .00019684,0.00000723,0.00000896,0.00000657,-0.00000649,-0.00000969,0.0
 0001716,0.00017218,-0.00030225,0.00077665,0.00030252,-0.00064543,-0.00
 107033,-0.00001418,-0.00000240,0.00008569,0.00000417,0.00000170,-0.000
 01054,-0.00005835,0.00005021,0.00009403,-0.00001539,-0.00000842,-0.000
 03994,-0.00008810,0.00017090,0.00011740,-0.00000060,-0.00003281,-0.000
 09460,-0.00023007,0.00005935,-0.00000630,0.00005637,-0.00003082,0.0000
 3535,0.00048599,-0.00034950,-0.00021134,0.00016300,0.00010376,0.000123
 99,-0.04654003,0.04441412,0.14615865,0.04566774,-0.00008988,-0.0000763
 1,-0.00010544,-0.00021083,-0.00007829,0.00017125,-0.00011639,0.0001915
 1,-0.00000824,-0.00269231,-0.00657544,0.00312214,0.00002233,0.00028785
 ,-0.00033706,-0.00015625,0.00008578,-0.00002380,-0.00002075,-0.0000081
 7,-0.00007762,-0.00001724,-0.00001506,0.00001235,0.01298066,-0.0179355
 9,-0.04331616,0.00013213,0.00015702,0.00026992,-0.00000092,-0.00001117
 ,-0.00001230,-0.00000163,0.00001091,-0.00001716,0.00123308,0.00093401,
 0.00044173,-0.00090149,0.00088455,-0.00023815,0.00006571,-0.00005287,0
 .00011544,-0.00000021,0.00000508,-0.00001209,0.00013036,-0.00009406,0.
 00005008,-0.00001212,0.00002537,-0.00000577,0.00010478,0.00007043,0.00
 018292,-0.00004268,0.00004694,-0.00007332,0.00003596,0.00038424,0.0004
 1336,-0.00000463,-0.00014061,0.00012779,0.00056430,-0.00198773,-0.0021
 8513,0.00026292,-0.00000800,-0.00008920,0.02678648,-0.08236495,-0.1103
 8092,-0.03805137,0.10626457,0.00019566,-0.00021627,-0.00023773,0.00012
 183,0.00068398,0.00000823,-0.00007708,0.00001688,0.00001961,-0.0006986
 0,-0.00063925,0.00082661,-0.00007664,-0.00039739,0.00009532,-0.0001425
 2,-0.00000650,-0.00010036,0.00002513,-0.00000106,-0.00005805,0.0000111
 4,0.00001303,-0.00001529,0.00079520,0.00618772,-0.00107602,-0.00005917
 ,0.00013813,0.00011509,0.00000518,0.00000597,0.00000409,-0.00000287,-0
 .00000527,0.00000558,0.00009377,0.00149363,0.00122347,0.00020823,0.001
 22606,0.00012996,0.00002598,-0.00001391,0.00010084,-0.00000268,-0.0000
 0042,-0.00001176,0.00005652,0.00001567,0.00006656,-0.00002558,-0.00000
 356,-0.00002627,-0.00001713,0.00013359,0.00021404,-0.00005094,-0.00004
 026,-0.00003989,-0.00006449,-0.00016886,0.00025395,-0.00001323,-0.0000
 6171,-0.00010143,0.00014544,0.00032178,0.00023310,0.00006415,-0.000070
 51,-0.00013207,0.13871569,-0.16058687,-0.46288345,-0.13923298,0.151975
 40,0.46138588\\-0.00000174,-0.00000014,0.00000248,-0.00000408,-0.00000
 095,-0.00000771,0.00000201,-0.00000710,0.00000037,-0.00000060,-0.00000
 284,0.00000289,0.00000292,-0.00000052,0.00000406,0.00000013,0.00000404
 ,0.00000036,0.00000510,0.00000516,0.00000712,0.00000079,0.00000204,-0.
 00000430,-0.00000178,-0.00000528,0.00000869,0.00000002,-0.00000102,0.0
 0000142,-0.00000123,0.00000109,-0.00000056,0.00000205,-0.00000154,-0.0
 0000203,0.00000005,-0.00000035,-0.00000241,0.00000094,0.00000088,-0.00
 000217,-0.00000105,0.00000310,-0.00000613,-0.00000075,0.00000181,-0.00
 000270,-0.00000224,0.,-0.00000276,0.00000471,0.00000571,0.00000538,0.0
 0000124,0.00000381,-0.00000026,0.00000338,-0.00000015,0.00000009,-0.00
 000996,-0.00000086,-0.00000257,0.00000539,-0.00000475,0.00000194,0.000
 00061,-0.00000311,-0.00000187,-0.00000743,-0.00000115,0.00000037,-0.00
 000264,0.00000358,-0.00000091,0.00000412,-0.00000146,0.00000118\\\@
 The archive entry for this job was punched.


 When cryptography is outlawed, bayl bhgynjf jvyy unir cevinpl.
 Job cpu time:       0 days 10 hours 34 minutes 38.4 seconds.
 Elapsed time:       0 days  0 hours 39 minutes 47.8 seconds.
 File lengths (MBytes):  RWF=    704 Int=      0 D2E=      0 Chk=     27 Scr=      1
 Normal termination of Gaussian 16 at Wed Sep 27 12:23:00 2023.
