 Entering Gaussian System, Link 0=/opt/software/gaussian/g16.c01/g16
 Initial command:
 /opt/software/gaussian/g16.c01/l1.exe "/scratch/arhender/14836890/Gau-168320.inp" -scrdir="/scratch/arhender/14836890/"
 Entering Link 1 = /opt/software/gaussian/g16.c01/l1.exe PID=    168323.
  
 Copyright (c) 1988-2019, Gaussian, Inc.  All Rights Reserved.
  
 This is part of the Gaussian(R) 16 program.  It is based on
 the Gaussian(R) 09 system (copyright 2009, Gaussian, Inc.),
 the Gaussian(R) 03 system (copyright 2003, Gaussian, Inc.),
 the Gaussian(R) 98 system (copyright 1998, Gaussian, Inc.),
 the Gaussian(R) 94 system (copyright 1995, Gaussian, Inc.),
 the Gaussian 92(TM) system (copyright 1992, Gaussian, Inc.),
 the Gaussian 90(TM) system (copyright 1990, Gaussian, Inc.),
 the Gaussian 88(TM) system (copyright 1988, Gaussian, Inc.),
 the Gaussian 86(TM) system (copyright 1986, Carnegie Mellon
 University), and the Gaussian 82(TM) system (copyright 1983,
 Carnegie Mellon University). Gaussian is a federally registered
 trademark of Gaussian, Inc.
  
 This software contains proprietary and confidential information,
 including trade secrets, belonging to Gaussian, Inc.
  
 This software is provided under written license and may be
 used, copied, transmitted, or stored only in accord with that
 written license.
  
 The following legend is applicable only to US Government
 contracts under FAR:
  
                    RESTRICTED RIGHTS LEGEND
  
 Use, reproduction and disclosure by the US Government is
 subject to restrictions as set forth in subparagraphs (a)
 and (c) of the Commercial Computer Software - Restricted
 Rights clause in FAR 52.227-19.
  
 Gaussian, Inc.
 340 Quinnipiac St., Bldg. 40, Wallingford CT 06492
  
  
 ---------------------------------------------------------------
 Warning -- This program may not be used in any manner that
 competes with the business of Gaussian, Inc. or will provide
 assistance to any competitor of Gaussian, Inc.  The licensee
 of this program is prohibited from giving any competitor of
 Gaussian, Inc. access to this program.  By using this program,
 the user acknowledges that Gaussian, Inc. is engaged in the
 business of creating and licensing software in the field of
 computational chemistry and represents and warrants to the
 licensee that it is not a competitor of Gaussian, Inc. and that
 it will not use this program in any manner prohibited above.
 ---------------------------------------------------------------
  

 Cite this work as:
 Gaussian 16, Revision C.01,
 M. J. Frisch, G. W. Trucks, H. B. Schlegel, G. E. Scuseria, 
 M. A. Robb, J. R. Cheeseman, G. Scalmani, V. Barone, 
 G. A. Petersson, H. Nakatsuji, X. Li, M. Caricato, A. V. Marenich, 
 J. Bloino, B. G. Janesko, R. Gomperts, B. Mennucci, H. P. Hratchian, 
 J. V. Ortiz, A. F. Izmaylov, J. L. Sonnenberg, D. Williams-Young, 
 F. Ding, F. Lipparini, F. Egidi, J. Goings, B. Peng, A. Petrone, 
 T. Henderson, D. Ranasinghe, V. G. Zakrzewski, J. Gao, N. Rega, 
 G. Zheng, W. Liang, M. Hada, M. Ehara, K. Toyota, R. Fukuda, 
 J. Hasegawa, M. Ishida, T. Nakajima, Y. Honda, O. Kitao, H. Nakai, 
 T. Vreven, K. Throssell, J. A. Montgomery, Jr., J. E. Peralta, 
 F. Ogliaro, M. J. Bearpark, J. J. Heyd, E. N. Brothers, K. N. Kudin, 
 V. N. Staroverov, T. A. Keith, R. Kobayashi, J. Normand, 
 K. Raghavachari, A. P. Rendell, J. C. Burant, S. S. Iyengar, 
 J. Tomasi, M. Cossi, J. M. Millam, M. Klene, C. Adamo, R. Cammi, 
 J. W. Ochterski, R. L. Martin, K. Morokuma, O. Farkas, 
 J. B. Foresman, and D. J. Fox, Gaussian, Inc., Wallingford CT, 2019.
 
 ******************************************
 Gaussian 16:  ES64L-G16RevC.01  3-Jul-2019
                11-Oct-2023 
 ******************************************
 %chk=MannitolConformerOpt_27.chk
 %mem=8GB
 %nprocs=16
 Will use up to   16 processors via shared memory.
 ---------------------------------------------
 # opt freq wb97xd/Def2TZVPP geom=connectivity
 ---------------------------------------------
 1/18=20,19=15,26=3,38=1,57=2/1,3;
 2/9=110,12=2,17=6,18=5,40=1/2;
 3/5=44,7=202,11=2,25=1,30=1,71=1,74=-58/1,2,3;
 4//1;
 5/5=2,38=5/2;
 6/7=2,8=2,9=2,10=2,28=1/1;
 7//1,2,3,16;
 1/18=20,19=15,26=3/3(2);
 2/9=110/2;
 99//99;
 2/9=110/2;
 3/5=44,7=202,11=2,25=1,30=1,71=1,74=-58/1,2,3;
 4/5=5,16=3,69=1/1;
 5/5=2,38=5/2;
 7//1,2,3,16;
 1/18=20,19=15,26=3/3(-5);
 2/9=110/2;
 6/7=2,8=2,9=2,10=2,19=2,28=1/1;
 99/9=1/99;
 -------------------
 Title Card Required
 -------------------
 Symbolic Z-matrix:
 Charge =  0 Multiplicity = 1
 C                     0.        0.        0. 
 C                     1.5385    0.        0. 
 C                    -0.6616    0.6095    1.2544 
 C                     2.1796   -0.7879    1.1605 
 H                     1.9171    1.0288    0. 
 H                    -0.3769   -1.0179   -0.1506 
 C                    -0.2505    2.0606    1.5476 
 H                    -0.4585   -0.0059    2.136 
 C                     2.033    -2.3128    1.0385 
 H                     1.7718   -0.4531    2.1182 
 H                     0.7812    2.1118    1.9073 
 H                    -0.9161    2.5001    2.2977 
 H                     0.9849   -2.6176    0.9732 
 H                     2.4812   -2.801     1.9097 
 O                    -0.3456    2.8518    0.359 
 H                    -0.2505    3.7822    0.6401 
 O                    -2.085     0.58      1.0599 
 H                    -2.2408    0.9258    0.158 
 O                    -0.4311    0.7189   -1.1819 
 H                    -0.367     1.6769   -0.9602 
 O                     1.9764   -0.5563   -1.262 
 H                     1.3975   -0.1352   -1.9344 
 O                     3.582    -0.4767    1.1889 
 H                     3.9767   -0.9906    0.4543 
 O                     2.7299   -2.8036   -0.1078 
 H                     2.4893   -2.215    -0.8575 
 

 GradGradGradGradGradGradGradGradGradGradGradGradGradGradGradGradGradGrad
 Berny optimization.
 Initialization pass.
                           ----------------------------
                           !    Initial Parameters    !
                           ! (Angstroms and Degrees)  !
 --------------------------                            --------------------------
 ! Name  Definition              Value          Derivative Info.                !
 --------------------------------------------------------------------------------
 ! R1    R(1,2)                  1.5385         estimate D2E/DX2                !
 ! R2    R(1,3)                  1.5436         estimate D2E/DX2                !
 ! R3    R(1,6)                  1.0958         estimate D2E/DX2                !
 ! R4    R(1,19)                 1.449          estimate D2E/DX2                !
 ! R5    R(2,4)                  1.5423         estimate D2E/DX2                !
 ! R6    R(2,5)                  1.0963         estimate D2E/DX2                !
 ! R7    R(2,21)                 1.447          estimate D2E/DX2                !
 ! R8    R(3,7)                  1.5364         estimate D2E/DX2                !
 ! R9    R(3,8)                  1.0942         estimate D2E/DX2                !
 ! R10   R(3,17)                 1.4369         estimate D2E/DX2                !
 ! R11   R(4,9)                  1.5368         estimate D2E/DX2                !
 ! R12   R(4,10)                 1.0934         estimate D2E/DX2                !
 ! R13   R(4,23)                 1.4368         estimate D2E/DX2                !
 ! R14   R(7,11)                 1.0938         estimate D2E/DX2                !
 ! R15   R(7,12)                 1.0949         estimate D2E/DX2                !
 ! R16   R(7,15)                 1.431          estimate D2E/DX2                !
 ! R17   R(9,13)                 1.0935         estimate D2E/DX2                !
 ! R18   R(9,14)                 1.0946         estimate D2E/DX2                !
 ! R19   R(9,25)                 1.4285         estimate D2E/DX2                !
 ! R20   R(15,16)                0.9766         estimate D2E/DX2                !
 ! R21   R(17,18)                0.9784         estimate D2E/DX2                !
 ! R22   R(19,20)                0.9854         estimate D2E/DX2                !
 ! R23   R(21,22)                0.9821         estimate D2E/DX2                !
 ! R24   R(23,24)                0.9796         estimate D2E/DX2                !
 ! R25   R(25,26)                0.9831         estimate D2E/DX2                !
 ! A1    A(2,1,3)              115.3791         estimate D2E/DX2                !
 ! A2    A(2,1,6)              110.117          estimate D2E/DX2                !
 ! A3    A(2,1,19)             107.3086         estimate D2E/DX2                !
 ! A4    A(3,1,6)              109.3319         estimate D2E/DX2                !
 ! A5    A(3,1,19)             109.8422         estimate D2E/DX2                !
 ! A6    A(6,1,19)             104.2663         estimate D2E/DX2                !
 ! A7    A(1,2,4)              114.5627         estimate D2E/DX2                !
 ! A8    A(1,2,5)              110.2037         estimate D2E/DX2                !
 ! A9    A(1,2,21)             107.6151         estimate D2E/DX2                !
 ! A10   A(4,2,5)              109.626          estimate D2E/DX2                !
 ! A11   A(4,2,21)             109.5151         estimate D2E/DX2                !
 ! A12   A(5,2,21)             104.8493         estimate D2E/DX2                !
 ! A13   A(1,3,7)              114.4134         estimate D2E/DX2                !
 ! A14   A(1,3,8)              110.6789         estimate D2E/DX2                !
 ! A15   A(1,3,17)             107.8464         estimate D2E/DX2                !
 ! A16   A(7,3,8)              109.1338         estimate D2E/DX2                !
 ! A17   A(7,3,17)             108.0753         estimate D2E/DX2                !
 ! A18   A(8,3,17)             106.3432         estimate D2E/DX2                !
 ! A19   A(2,4,9)              114.0501         estimate D2E/DX2                !
 ! A20   A(2,4,10)             110.3409         estimate D2E/DX2                !
 ! A21   A(2,4,23)             108.0568         estimate D2E/DX2                !
 ! A22   A(9,4,10)             109.7417         estimate D2E/DX2                !
 ! A23   A(9,4,23)             108.035          estimate D2E/DX2                !
 ! A24   A(10,4,23)            106.2838         estimate D2E/DX2                !
 ! A25   A(3,7,11)             111.0595         estimate D2E/DX2                !
 ! A26   A(3,7,12)             110.3152         estimate D2E/DX2                !
 ! A27   A(3,7,15)             110.2366         estimate D2E/DX2                !
 ! A28   A(11,7,12)            109.2268         estimate D2E/DX2                !
 ! A29   A(11,7,15)            108.056          estimate D2E/DX2                !
 ! A30   A(12,7,15)            107.86           estimate D2E/DX2                !
 ! A31   A(4,9,13)             111.8864         estimate D2E/DX2                !
 ! A32   A(4,9,14)             109.8955         estimate D2E/DX2                !
 ! A33   A(4,9,25)             110.983          estimate D2E/DX2                !
 ! A34   A(13,9,14)            108.4015         estimate D2E/DX2                !
 ! A35   A(13,9,25)            108.9004         estimate D2E/DX2                !
 ! A36   A(14,9,25)            106.5992         estimate D2E/DX2                !
 ! A37   A(7,15,16)            106.3317         estimate D2E/DX2                !
 ! A38   A(3,17,18)            105.9774         estimate D2E/DX2                !
 ! A39   A(1,19,20)            106.2289         estimate D2E/DX2                !
 ! A40   A(2,21,22)            104.7075         estimate D2E/DX2                !
 ! A41   A(4,23,24)            105.3574         estimate D2E/DX2                !
 ! A42   A(9,25,26)            106.6698         estimate D2E/DX2                !
 ! D1    D(3,1,2,4)             60.0885         estimate D2E/DX2                !
 ! D2    D(3,1,2,5)            -64.0854         estimate D2E/DX2                !
 ! D3    D(3,1,2,21)          -177.8736         estimate D2E/DX2                !
 ! D4    D(6,1,2,4)            -64.2421         estimate D2E/DX2                !
 ! D5    D(6,1,2,5)            171.584          estimate D2E/DX2                !
 ! D6    D(6,1,2,21)            57.7958         estimate D2E/DX2                !
 ! D7    D(19,1,2,4)          -177.1366         estimate D2E/DX2                !
 ! D8    D(19,1,2,5)            58.6896         estimate D2E/DX2                !
 ! D9    D(19,1,2,21)          -55.0987         estimate D2E/DX2                !
 ! D10   D(2,1,3,7)             57.2787         estimate D2E/DX2                !
 ! D11   D(2,1,3,8)            -66.5059         estimate D2E/DX2                !
 ! D12   D(2,1,3,17)           177.55           estimate D2E/DX2                !
 ! D13   D(6,1,3,7)           -177.9816         estimate D2E/DX2                !
 ! D14   D(6,1,3,8)             58.2338         estimate D2E/DX2                !
 ! D15   D(6,1,3,17)           -57.7103         estimate D2E/DX2                !
 ! D16   D(19,1,3,7)           -64.1386         estimate D2E/DX2                !
 ! D17   D(19,1,3,8)           172.0768         estimate D2E/DX2                !
 ! D18   D(19,1,3,17)           56.1327         estimate D2E/DX2                !
 ! D19   D(2,1,19,20)          -80.6961         estimate D2E/DX2                !
 ! D20   D(3,1,19,20)           45.4413         estimate D2E/DX2                !
 ! D21   D(6,1,19,20)          162.4989         estimate D2E/DX2                !
 ! D22   D(1,2,4,9)             71.408          estimate D2E/DX2                !
 ! D23   D(1,2,4,10)           -52.6434         estimate D2E/DX2                !
 ! D24   D(1,2,4,23)          -168.4539         estimate D2E/DX2                !
 ! D25   D(5,2,4,9)           -164.1117         estimate D2E/DX2                !
 ! D26   D(5,2,4,10)            71.837          estimate D2E/DX2                !
 ! D27   D(5,2,4,23)           -43.9736         estimate D2E/DX2                !
 ! D28   D(21,2,4,9)           -49.5892         estimate D2E/DX2                !
 ! D29   D(21,2,4,10)         -173.6406         estimate D2E/DX2                !
 ! D30   D(21,2,4,23)           70.5489         estimate D2E/DX2                !
 ! D31   D(1,2,21,22)           43.7201         estimate D2E/DX2                !
 ! D32   D(4,2,21,22)          168.8374         estimate D2E/DX2                !
 ! D33   D(5,2,21,22)          -73.6057         estimate D2E/DX2                !
 ! D34   D(1,3,7,11)           -71.6823         estimate D2E/DX2                !
 ! D35   D(1,3,7,12)           167.0635         estimate D2E/DX2                !
 ! D36   D(1,3,7,15)            48.049          estimate D2E/DX2                !
 ! D37   D(8,3,7,11)            52.9258         estimate D2E/DX2                !
 ! D38   D(8,3,7,12)           -68.3284         estimate D2E/DX2                !
 ! D39   D(8,3,7,15)           172.6571         estimate D2E/DX2                !
 ! D40   D(17,3,7,11)          168.1738         estimate D2E/DX2                !
 ! D41   D(17,3,7,12)           46.9196         estimate D2E/DX2                !
 ! D42   D(17,3,7,15)          -72.0949         estimate D2E/DX2                !
 ! D43   D(1,3,17,18)          -46.8674         estimate D2E/DX2                !
 ! D44   D(7,3,17,18)           77.3151         estimate D2E/DX2                !
 ! D45   D(8,3,17,18)         -165.6191         estimate D2E/DX2                !
 ! D46   D(2,4,9,13)           -57.6925         estimate D2E/DX2                !
 ! D47   D(2,4,9,14)          -178.1681         estimate D2E/DX2                !
 ! D48   D(2,4,9,25)            64.1744         estimate D2E/DX2                !
 ! D49   D(10,4,9,13)           66.6803         estimate D2E/DX2                !
 ! D50   D(10,4,9,14)          -53.7953         estimate D2E/DX2                !
 ! D51   D(10,4,9,25)         -171.4528         estimate D2E/DX2                !
 ! D52   D(23,4,9,13)         -177.8428         estimate D2E/DX2                !
 ! D53   D(23,4,9,14)           61.6816         estimate D2E/DX2                !
 ! D54   D(23,4,9,25)          -55.9759         estimate D2E/DX2                !
 ! D55   D(2,4,23,24)          -76.7022         estimate D2E/DX2                !
 ! D56   D(9,4,23,24)           47.1426         estimate D2E/DX2                !
 ! D57   D(10,4,23,24)         164.8652         estimate D2E/DX2                !
 ! D58   D(3,7,15,16)          168.8817         estimate D2E/DX2                !
 ! D59   D(11,7,15,16)         -69.5848         estimate D2E/DX2                !
 ! D60   D(12,7,15,16)          48.3811         estimate D2E/DX2                !
 ! D61   D(4,9,25,26)          -46.7421         estimate D2E/DX2                !
 ! D62   D(13,9,25,26)          76.8521         estimate D2E/DX2                !
 ! D63   D(14,9,25,26)        -166.3889         estimate D2E/DX2                !
 --------------------------------------------------------------------------------
 Trust Radius=3.00D-01 FncErr=1.00D-07 GrdErr=1.00D-06 EigMax=2.50D+02 EigMin=1.00D-04
 Number of steps in this run=    140 maximum allowed number of steps=    156.
 GradGradGradGradGradGradGradGradGradGradGradGradGradGradGradGradGradGrad

                          Input orientation:                          
 ---------------------------------------------------------------------
 Center     Atomic      Atomic             Coordinates (Angstroms)
 Number     Number       Type             X           Y           Z
 ---------------------------------------------------------------------
      1          6           0        0.000000    0.000000    0.000000
      2          6           0        1.538500    0.000000    0.000000
      3          6           0       -0.661600    0.609500    1.254400
      4          6           0        2.179600   -0.787900    1.160500
      5          1           0        1.917100    1.028800    0.000000
      6          1           0       -0.376900   -1.017900   -0.150600
      7          6           0       -0.250500    2.060600    1.547600
      8          1           0       -0.458500   -0.005900    2.136000
      9          6           0        2.033000   -2.312800    1.038500
     10          1           0        1.771800   -0.453100    2.118200
     11          1           0        0.781200    2.111800    1.907300
     12          1           0       -0.916100    2.500100    2.297700
     13          1           0        0.984900   -2.617600    0.973200
     14          1           0        2.481200   -2.801000    1.909700
     15          8           0       -0.345600    2.851800    0.359000
     16          1           0       -0.250500    3.782200    0.640100
     17          8           0       -2.085000    0.580000    1.059900
     18          1           0       -2.240800    0.925800    0.158000
     19          8           0       -0.431100    0.718900   -1.181900
     20          1           0       -0.367000    1.676900   -0.960200
     21          8           0        1.976400   -0.556300   -1.262000
     22          1           0        1.397500   -0.135200   -1.934400
     23          8           0        3.582000   -0.476700    1.188900
     24          1           0        3.976700   -0.990600    0.454300
     25          8           0        2.729900   -2.803600   -0.107800
     26          1           0        2.489300   -2.215000   -0.857500
 ---------------------------------------------------------------------
                    Distance matrix (angstroms):
                    1          2          3          4          5
     1  C    0.000000
     2  C    1.538500   0.000000
     3  C    1.543608   2.604890   0.000000
     4  C    2.591950   1.542257   3.167643   0.000000
     5  H    2.175707   1.096252   2.898107   2.171650   0.000000
     6  H    1.095835   2.174295   2.168758   2.882286   3.078002
     7  C    2.589187   3.137142   1.536444   3.764198   2.856250
     8  H    2.184663   2.924131   1.094160   2.919366   3.358061
     9  C    3.249710   2.583032   3.980869   1.536781   3.501172
    10  H    2.798454   2.178646   2.792258   1.093426   2.589191
    11  H    2.950892   2.944655   2.182855   3.304768   2.470010
    12  H    3.516982   4.189867   2.174308   4.656987   3.933341
    13  H    2.961246   2.847002   3.633760   2.193215   3.887460
    14  H    4.201060   3.518698   4.683815   2.169063   4.316542
    15  O    2.895010   3.436783   2.435058   4.501828   2.927801
    16  H    3.844153   4.232645   3.257667   5.202117   3.562223
    17  O    2.409774   3.819626   1.436930   4.479742   4.164326
    18  H    2.429661   3.894249   1.948336   4.845793   4.162176
    19  O    1.448983   2.406871   2.449624   3.817465   2.647068
    20  H    1.966893   2.713836   2.476002   4.130106   2.561080
    21  O    2.410035   1.447021   3.827584   2.442015   2.026993
    22  H    2.390228   1.944239   3.868193   3.258236   2.316632
    23  O    3.804136   2.411767   4.380897   1.436794   2.540060
    24  H    4.123326   2.670673   4.971349   1.941488   2.919986
    25  O    3.914607   3.048152   5.000711   2.444271   3.919127
    26  H    3.440661   2.558428   4.729280   2.490954   3.403668
                    6          7          8          9         10
     6  H    0.000000
     7  C    3.518099   0.000000
     8  H    2.501868   2.158680   0.000000
     9  C    2.983009   4.959857   3.568454   0.000000
    10  H    3.175431   3.276274   2.274762   2.166209   0.000000
    11  H    3.920608   1.093805   2.464511   4.679626   2.757622
    12  H    4.319865   1.094913   2.552564   5.783319   3.997301
    13  H    2.382533   4.872546   3.202575   1.093472   2.572022
    14  H    3.948799   5.588243   4.062712   1.094629   2.461576
    15  O    3.903236   1.431018   3.367035   5.726478   4.301224
    16  H    4.866430   1.946140   4.078073   6.520899   4.920594
    17  O    2.633667   2.407367   2.036363   5.032561   4.130642
    18  H    2.710595   2.679562   2.820841   5.434076   4.673832
    19  O    2.020641   3.046793   3.396255   4.493681   4.137271
    20  H    2.813805   2.539657   3.525144   5.066804   4.311370
    21  O    2.643162   4.438592   4.216406   2.894960   3.387959
    22  H    2.666383   4.434159   4.475445   3.739510   4.082245
    23  O    4.214267   4.610273   4.176636   2.406924   2.034940
    24  H    4.395507   5.326758   4.844455   2.422287   2.814081
    25  O    3.583680   5.939998   4.798714   1.428481   3.376075
    26  H    3.185570   5.618876   4.746650   1.952586   3.531839
                   11         12         13         14         15
    11  H    0.000000
    12  H    1.784381   0.000000
    13  H    4.825066   5.617736   0.000000
    14  H    5.198616   6.308237   1.774706   0.000000
    15  O    2.052927   2.051273   5.662315   6.507658   0.000000
    16  H    2.336758   2.198736   6.526455   7.239654   0.976578
    17  O    3.358512   2.566176   4.433559   5.744868   2.945819
    18  H    3.687700   2.968428   4.860594   6.265363   2.709550
    19  O    3.599027   3.938974   4.216841   5.516265   2.632669
    20  H    3.119304   3.404861   4.899837   6.033254   1.766674
    21  O    4.311812   5.511769   3.198148   3.918314   4.431080
    22  H    4.493049   5.496201   3.845346   4.801875   4.149729
    23  O    3.880839   5.506694   3.372671   2.670896   5.214757
    24  H    4.684796   6.286700   3.444888   2.762654   5.784064
    25  O    5.658553   6.870879   2.061112   2.032773   6.454468
    26  H    5.411370   6.616963   2.403491   2.828579   5.932031
                   16         17         18         19         20
    16  H    0.000000
    17  O    3.714257   0.000000
    18  H    3.514646   0.978404   0.000000
    19  O    3.568768   2.789327   2.261228   0.000000
    20  H    2.647040   2.869759   2.307737   0.985405   0.000000
    21  O    5.234468   4.814288   4.690181   2.725547   3.251121
    22  H    4.968901   4.648134   4.329098   2.153955   2.710393
    23  O    5.755647   5.766120   6.077398   4.811977   4.985100
    24  H    6.378351   6.291084   6.512886   5.002823   5.290000
    25  O    7.267386   5.999628   6.219882   4.853207   5.512917
    26  H    6.761340   5.693212   5.767990   4.152318   4.828652
                   21         22         23         24         25
    21  O    0.000000
    22  H    0.982126   0.000000
    23  O    2.931075   3.826704   0.000000
    24  H    2.671236   3.617992   0.979550   0.000000
    25  O    2.636342   3.497444   2.796778   2.270999   0.000000
    26  H    1.782687   2.584049   2.898868   2.330737   0.983051
                   26
    26  H    0.000000
 Stoichiometry    C6H14O6
 Framework group  C1[X(C6H14O6)]
 Deg. of freedom    72
 Full point group                 C1      NOp   1
 Largest Abelian subgroup         C1      NOp   1
 Largest concise Abelian subgroup C1      NOp   1
                         Standard orientation:                         
 ---------------------------------------------------------------------
 Center     Atomic      Atomic             Coordinates (Angstroms)
 Number     Number       Type             X           Y           Z
 ---------------------------------------------------------------------
      1          6           0       -0.585133   -0.707406    0.213121
      2          6           0        0.532396   -0.016961   -0.587752
      3          6           0       -1.554676    0.241626    0.949361
      4          6           0        1.471576    0.869416    0.255357
      5          1           0        0.102746    0.574590   -1.404596
      6          1           0       -0.153128   -1.413322    0.931390
      7          6           0       -2.266679    1.253674    0.038608
      8          1           0       -1.035899    0.780655    1.747800
      9          6           0        2.416494    0.081777    1.176471
     10          1           0        0.891451    1.584149    0.845436
     11          1           0       -1.572851    2.023308   -0.311644
     12          1           0       -3.093941    1.730763    0.574199
     13          1           0        1.867669   -0.565363    1.866168
     14          1           0        3.026775    0.774674    1.764402
     15          8           0       -2.809916    0.591368   -1.107714
     16          1           0       -3.394121    1.238590   -1.547616
     17          8           0       -2.557305   -0.563712    1.590401
     18          1           0       -2.855910   -1.208127    0.917468
     19          8           0       -1.323294   -1.544813   -0.710686
     20          1           0       -1.945534   -0.947362   -1.187020
     21          8           0        1.303444   -1.050616   -1.244190
     22          1           0        0.632852   -1.671798   -1.603373
     23          8           0        2.275476    1.648878   -0.644955
     24          1           0        2.956038    1.032032   -0.985329
     25          8           0        3.324214   -0.716921    0.415759
     26          1           0        2.789036   -1.179018   -0.267205
 ---------------------------------------------------------------------
 Rotational constants (GHZ):           1.5183759           0.5239012           0.5140291
 Standard basis: def2TZVPP (5D, 7F)
 There are   642 symmetry adapted cartesian basis functions of A   symmetry.
 There are   568 symmetry adapted basis functions of A   symmetry.
   568 basis functions,   850 primitive gaussians,   642 cartesian basis functions
    49 alpha electrons       49 beta electrons
       nuclear repulsion energy       838.1019541386 Hartrees.
 NAtoms=   26 NActive=   26 NUniq=   26 SFac= 1.00D+00 NAtFMM=   60 NAOKFM=F Big=F
 Integral buffers will be    131072 words long.
 Raffenetti 2 integral format.
 Two-electron integral symmetry is turned on.
 Nuclear repulsion after empirical dispersion term =      838.0823725882 Hartrees.
 One-electron integrals computed using PRISM.
   1 Symmetry operations used in ECPInt.
 ECPInt:  NShTT=   23436 NPrTT=   62434 LenC2=   22062 LenP2D=   46005.
 LDataN:  DoStor=T MaxTD1= 6 Len=  172
 NBasis=   568 RedAO= T EigKep=  5.26D-05  NBF=   568
 NBsUse=   568 1.00D-06 EigRej= -1.00D+00 NBFU=   568
 ExpMin= 9.52D-02 ExpMax= 2.70D+04 ExpMxC= 9.22D+02 IAcc=3 IRadAn=         5 AccDes= 0.00D+00
 Harris functional with IExCor= 4639 and IRadAn=       5 diagonalized for initial guess.
 HarFok:  IExCor= 4639 AccDes= 0.00D+00 IRadAn=         5 IDoV= 1 UseB2=F ITyADJ=14
 ICtDFT=  3500011 ScaDFX=  1.000000  1.000000  1.000000  1.000000
 FoFCou: FMM=F IPFlag=           0 FMFlag=      100000 FMFlg1=           0
         NFxFlg=           0 DoJE=T BraDBF=F KetDBF=T FulRan=T
         wScrn=  0.000000 ICntrl=       500 IOpCl=  0 I1Cent=   200000004 NGrid=           0
         NMat0=    1 NMatS0=      1 NMatT0=    0 NMatD0=    1 NMtDS0=    0 NMtDT0=    0
 Petite list used in FoFCou.
 Requested convergence on RMS density matrix=1.00D-08 within 128 cycles.
 Requested convergence on MAX density matrix=1.00D-06.
 Requested convergence on             energy=1.00D-06.
 No special actions if energy rises.
 Integral accuracy reduced to 1.0D-05 until final iterations.
 Initial convergence to 1.0D-05 achieved.  Increase integral accuracy.
 SCF Done:  E(RwB97XD) =  -688.470996717     A.U. after   14 cycles
            NFock= 14  Conv=0.20D-08     -V/T= 2.0050

 **********************************************************************

            Population analysis using the SCF Density.

 **********************************************************************

 Orbital symmetries:
       Occupied  (A) (A) (A) (A) (A) (A) (A) (A) (A) (A) (A) (A)
                 (A) (A) (A) (A) (A) (A) (A) (A) (A) (A) (A) (A)
                 (A) (A) (A) (A) (A) (A) (A) (A) (A) (A) (A) (A)
                 (A) (A) (A) (A) (A) (A) (A) (A) (A) (A) (A) (A)
                 (A)
       Virtual   (A) (A) (A) (A) (A) (A) (A) (A) (A) (A) (A) (A)
                 (A) (A) (A) (A) (A) (A) (A) (A) (A) (A) (A) (A)
                 (A) (A) (A) (A) (A) (A) (A) (A) (A) (A) (A) (A)
                 (A) (A) (A) (A) (A) (A) (A) (A) (A) (A) (A) (A)
                 (A) (A) (A) (A) (A) (A) (A) (A) (A) (A) (A) (A)
                 (A) (A) (A) (A) (A) (A) (A) (A) (A) (A) (A) (A)
                 (A) (A) (A) (A) (A) (A) (A) (A) (A) (A) (A) (A)
                 (A) (A) (A) (A) (A) (A) (A) (A) (A) (A) (A) (A)
                 (A) (A) (A) (A) (A) (A) (A) (A) (A) (A) (A) (A)
                 (A) (A) (A) (A) (A) (A) (A) (A) (A) (A) (A) (A)
                 (A) (A) (A) (A) (A) (A) (A) (A) (A) (A) (A) (A)
                 (A) (A) (A) (A) (A) (A) (A) (A) (A) (A) (A) (A)
                 (A) (A) (A) (A) (A) (A) (A) (A) (A) (A) (A) (A)
                 (A) (A) (A) (A) (A) (A) (A) (A) (A) (A) (A) (A)
                 (A) (A) (A) (A) (A) (A) (A) (A) (A) (A) (A) (A)
                 (A) (A) (A) (A) (A) (A) (A) (A) (A) (A) (A) (A)
                 (A) (A) (A) (A) (A) (A) (A) (A) (A) (A) (A) (A)
                 (A) (A) (A) (A) (A) (A) (A) (A) (A) (A) (A) (A)
                 (A) (A) (A) (A) (A) (A) (A) (A) (A) (A) (A) (A)
                 (A) (A) (A) (A) (A) (A) (A) (A) (A) (A) (A) (A)
                 (A) (A) (A) (A) (A) (A) (A) (A) (A) (A) (A) (A)
                 (A) (A) (A) (A) (A) (A) (A) (A) (A) (A) (A) (A)
                 (A) (A) (A) (A) (A) (A) (A) (A) (A) (A) (A) (A)
                 (A) (A) (A) (A) (A) (A) (A) (A) (A) (A) (A) (A)
                 (A) (A) (A) (A) (A) (A) (A) (A) (A) (A) (A) (A)
                 (A) (A) (A) (A) (A) (A) (A) (A) (A) (A) (A) (A)
                 (A) (A) (A) (A) (A) (A) (A) (A) (A) (A) (A) (A)
                 (A) (A) (A) (A) (A) (A) (A) (A) (A) (A) (A) (A)
                 (A) (A) (A) (A) (A) (A) (A) (A) (A) (A) (A) (A)
                 (A) (A) (A) (A) (A) (A) (A) (A) (A) (A) (A) (A)
                 (A) (A) (A) (A) (A) (A) (A) (A) (A) (A) (A) (A)
                 (A) (A) (A) (A) (A) (A) (A) (A) (A) (A) (A) (A)
                 (A) (A) (A) (A) (A) (A) (A) (A) (A) (A) (A) (A)
                 (A) (A) (A) (A) (A) (A) (A) (A) (A) (A) (A) (A)
                 (A) (A) (A) (A) (A) (A) (A) (A) (A) (A) (A) (A)
                 (A) (A) (A) (A) (A) (A) (A) (A) (A) (A) (A) (A)
                 (A) (A) (A) (A) (A) (A) (A) (A) (A) (A) (A) (A)
                 (A) (A) (A) (A) (A) (A) (A) (A) (A) (A) (A) (A)
                 (A) (A) (A) (A) (A) (A) (A) (A) (A) (A) (A) (A)
                 (A) (A) (A) (A) (A) (A) (A) (A) (A) (A) (A) (A)
                 (A) (A) (A) (A) (A) (A) (A) (A) (A) (A) (A) (A)
                 (A) (A) (A) (A) (A) (A) (A) (A) (A) (A) (A) (A)
                 (A) (A) (A) (A) (A) (A) (A) (A) (A) (A) (A) (A)
                 (A) (A) (A)
 The electronic state is 1-A.
 Alpha  occ. eigenvalues --  -19.29585 -19.26982 -19.26482 -19.25842 -19.24555
 Alpha  occ. eigenvalues --  -19.23434 -10.36391 -10.36045 -10.35743 -10.35229
 Alpha  occ. eigenvalues --  -10.34912 -10.33124  -1.17415  -1.15446  -1.13680
 Alpha  occ. eigenvalues --   -1.12258  -1.11144  -1.09738  -0.89952  -0.85444
 Alpha  occ. eigenvalues --   -0.80694  -0.76406  -0.72072  -0.68838  -0.66545
 Alpha  occ. eigenvalues --   -0.64441  -0.61527  -0.60013  -0.57669  -0.56725
 Alpha  occ. eigenvalues --   -0.56395  -0.55930  -0.54658  -0.53507  -0.51673
 Alpha  occ. eigenvalues --   -0.50993  -0.50320  -0.49139  -0.46613  -0.44904
 Alpha  occ. eigenvalues --   -0.43208  -0.42529  -0.41287  -0.40574  -0.40198
 Alpha  occ. eigenvalues --   -0.38103  -0.36723  -0.36273  -0.34955
 Alpha virt. eigenvalues --    0.07262   0.10636   0.11227   0.12640   0.13619
 Alpha virt. eigenvalues --    0.14155   0.14907   0.16021   0.17428   0.17750
 Alpha virt. eigenvalues --    0.18803   0.19386   0.19987   0.20717   0.21449
 Alpha virt. eigenvalues --    0.22409   0.23508   0.24549   0.25919   0.26883
 Alpha virt. eigenvalues --    0.28272   0.30229   0.31005   0.32305   0.33940
 Alpha virt. eigenvalues --    0.34063   0.35425   0.36012   0.36488   0.37522
 Alpha virt. eigenvalues --    0.38020   0.38991   0.39551   0.39859   0.40323
 Alpha virt. eigenvalues --    0.40528   0.41067   0.43140   0.43532   0.44015
 Alpha virt. eigenvalues --    0.45177   0.45387   0.46165   0.46392   0.46906
 Alpha virt. eigenvalues --    0.48182   0.48514   0.48870   0.49524   0.50753
 Alpha virt. eigenvalues --    0.51418   0.53264   0.53493   0.54303   0.54838
 Alpha virt. eigenvalues --    0.56338   0.56619   0.57842   0.58586   0.58832
 Alpha virt. eigenvalues --    0.59145   0.60034   0.60897   0.61837   0.63485
 Alpha virt. eigenvalues --    0.65434   0.66444   0.67763   0.68312   0.69655
 Alpha virt. eigenvalues --    0.70303   0.71334   0.72126   0.72904   0.74445
 Alpha virt. eigenvalues --    0.76155   0.76889   0.77161   0.78687   0.79375
 Alpha virt. eigenvalues --    0.80204   0.82406   0.83333   0.84159   0.86292
 Alpha virt. eigenvalues --    0.86621   0.87748   0.88224   0.89596   0.90735
 Alpha virt. eigenvalues --    0.91991   0.93492   0.93639   0.95727   0.96020
 Alpha virt. eigenvalues --    0.96689   0.99791   1.00935   1.01543   1.02103
 Alpha virt. eigenvalues --    1.02714   1.04545   1.05800   1.06788   1.08436
 Alpha virt. eigenvalues --    1.08884   1.09424   1.10963   1.11732   1.12707
 Alpha virt. eigenvalues --    1.12903   1.13884   1.15106   1.16180   1.16777
 Alpha virt. eigenvalues --    1.18091   1.20201   1.20313   1.21793   1.23445
 Alpha virt. eigenvalues --    1.24989   1.26120   1.27056   1.28934   1.30043
 Alpha virt. eigenvalues --    1.30144   1.31267   1.31892   1.34208   1.35660
 Alpha virt. eigenvalues --    1.36495   1.37088   1.37801   1.39011   1.41378
 Alpha virt. eigenvalues --    1.41880   1.42733   1.44108   1.45941   1.46544
 Alpha virt. eigenvalues --    1.46898   1.48382   1.49889   1.50571   1.51114
 Alpha virt. eigenvalues --    1.53370   1.55165   1.55688   1.56603   1.57538
 Alpha virt. eigenvalues --    1.59923   1.60202   1.62300   1.64265   1.65485
 Alpha virt. eigenvalues --    1.67188   1.68509   1.70473   1.71618   1.74531
 Alpha virt. eigenvalues --    1.77162   1.80195   1.80984   1.82503   1.84391
 Alpha virt. eigenvalues --    1.86544   1.87327   1.89138   1.90401   1.91864
 Alpha virt. eigenvalues --    1.92801   1.96542   1.96965   1.99663   2.00283
 Alpha virt. eigenvalues --    2.01191   2.01824   2.04171   2.05446   2.05799
 Alpha virt. eigenvalues --    2.06489   2.07142   2.07884   2.09887   2.11997
 Alpha virt. eigenvalues --    2.12993   2.14552   2.15065   2.17421   2.17573
 Alpha virt. eigenvalues --    2.19503   2.19697   2.23866   2.25191   2.26648
 Alpha virt. eigenvalues --    2.28092   2.29894   2.31042   2.31567   2.32377
 Alpha virt. eigenvalues --    2.34129   2.37655   2.38353   2.39326   2.40685
 Alpha virt. eigenvalues --    2.43147   2.44450   2.48837   2.50233   2.53787
 Alpha virt. eigenvalues --    2.56685   2.58813   2.59516   2.62132   2.63153
 Alpha virt. eigenvalues --    2.64196   2.66987   2.67741   2.68130   2.70372
 Alpha virt. eigenvalues --    2.70849   2.73489   2.75241   2.75746   2.77451
 Alpha virt. eigenvalues --    2.77685   2.80720   2.80936   2.82436   2.83997
 Alpha virt. eigenvalues --    2.85218   2.86396   2.88351   2.88918   2.91805
 Alpha virt. eigenvalues --    2.93331   2.94428   2.96580   2.98076   2.99444
 Alpha virt. eigenvalues --    3.00326   3.01078   3.02702   3.03439   3.03887
 Alpha virt. eigenvalues --    3.05439   3.06502   3.09003   3.09409   3.11043
 Alpha virt. eigenvalues --    3.12462   3.12823   3.14567   3.15203   3.16888
 Alpha virt. eigenvalues --    3.17791   3.18538   3.19718   3.20674   3.21407
 Alpha virt. eigenvalues --    3.22076   3.23524   3.24475   3.25861   3.26521
 Alpha virt. eigenvalues --    3.28176   3.29285   3.30889   3.31568   3.32511
 Alpha virt. eigenvalues --    3.32611   3.33235   3.33863   3.35126   3.36232
 Alpha virt. eigenvalues --    3.38260   3.38347   3.40045   3.41765   3.42303
 Alpha virt. eigenvalues --    3.42950   3.43697   3.44664   3.45838   3.47314
 Alpha virt. eigenvalues --    3.48144   3.48854   3.50524   3.52812   3.53314
 Alpha virt. eigenvalues --    3.56202   3.56958   3.58585   3.60370   3.61030
 Alpha virt. eigenvalues --    3.61755   3.63146   3.64262   3.64577   3.65757
 Alpha virt. eigenvalues --    3.67191   3.67956   3.68476   3.69116   3.71744
 Alpha virt. eigenvalues --    3.72300   3.73652   3.74790   3.75681   3.76345
 Alpha virt. eigenvalues --    3.77486   3.79151   3.80504   3.82107   3.83358
 Alpha virt. eigenvalues --    3.84107   3.85318   3.85936   3.86662   3.87797
 Alpha virt. eigenvalues --    3.89194   3.91673   3.91889   3.94564   3.96473
 Alpha virt. eigenvalues --    3.96852   3.97625   3.98440   3.99955   4.02042
 Alpha virt. eigenvalues --    4.02661   4.03035   4.03756   4.04681   4.05360
 Alpha virt. eigenvalues --    4.07472   4.07629   4.08939   4.10743   4.11859
 Alpha virt. eigenvalues --    4.12831   4.14234   4.14485   4.15404   4.17376
 Alpha virt. eigenvalues --    4.18479   4.19640   4.20277   4.21491   4.22548
 Alpha virt. eigenvalues --    4.24296   4.24741   4.25724   4.26810   4.28378
 Alpha virt. eigenvalues --    4.30022   4.30304   4.31512   4.31684   4.33245
 Alpha virt. eigenvalues --    4.35067   4.36187   4.37825   4.39671   4.40598
 Alpha virt. eigenvalues --    4.42051   4.43621   4.45079   4.45421   4.47837
 Alpha virt. eigenvalues --    4.49144   4.50346   4.53207   4.54456   4.54722
 Alpha virt. eigenvalues --    4.56037   4.57476   4.58261   4.60335   4.61199
 Alpha virt. eigenvalues --    4.62725   4.64101   4.66867   4.69169   4.70918
 Alpha virt. eigenvalues --    4.71880   4.73341   4.76360   4.78215   4.79251
 Alpha virt. eigenvalues --    4.81628   4.84220   4.85063   4.86950   4.88621
 Alpha virt. eigenvalues --    4.91601   4.92686   4.94196   4.95570   4.96814
 Alpha virt. eigenvalues --    4.98172   5.00379   5.02097   5.02858   5.04687
 Alpha virt. eigenvalues --    5.05115   5.06243   5.08973   5.10996   5.13036
 Alpha virt. eigenvalues --    5.14848   5.16065   5.17334   5.19095   5.21279
 Alpha virt. eigenvalues --    5.23114   5.24500   5.25863   5.27278   5.29063
 Alpha virt. eigenvalues --    5.31265   5.35613   5.37323   5.39446   5.41553
 Alpha virt. eigenvalues --    5.44451   5.47508   5.50477   5.55119   5.58130
 Alpha virt. eigenvalues --    5.60245   5.60473   5.63191   5.63970   5.64415
 Alpha virt. eigenvalues --    5.67687   5.68082   5.69520   5.70844   5.72014
 Alpha virt. eigenvalues --    5.73915   5.76611   5.77070   5.79577   5.80984
 Alpha virt. eigenvalues --    5.84818   5.87784   5.89253   5.91185   5.93857
 Alpha virt. eigenvalues --    5.98634   6.01010   6.04138   6.08152   6.12817
 Alpha virt. eigenvalues --    6.13686   6.17157   6.19020   6.19883   6.48961
 Alpha virt. eigenvalues --    6.52916   6.54859   6.55267   6.56946   6.58752
 Alpha virt. eigenvalues --    6.68360   6.71901   6.74380   6.74704   6.75329
 Alpha virt. eigenvalues --    6.77385   6.78965   6.79322   6.80811   6.82066
 Alpha virt. eigenvalues --    6.82700   6.86185   6.87264   6.87825   6.88036
 Alpha virt. eigenvalues --    6.92147   6.96027   6.96843   6.99936   7.02112
 Alpha virt. eigenvalues --    7.02517   7.03724   7.04937   7.08060   7.15758
 Alpha virt. eigenvalues --    7.18719   7.21387   7.22625   7.23324   7.28326
 Alpha virt. eigenvalues --    7.42735   7.43520   7.45430   7.46825   7.49974
 Alpha virt. eigenvalues --    7.51873   7.54724   7.55329   7.59829   7.63396
 Alpha virt. eigenvalues --    7.66769   7.76821  23.13375  23.13863  23.18876
 Alpha virt. eigenvalues --   23.22466  23.41632  23.44871  44.13210  44.15141
 Alpha virt. eigenvalues --   44.23148  44.28060  44.30950  44.39912
          Condensed to atoms (all electrons):
               1          2          3          4          5          6
     1  C    5.140907   0.071350   0.263877  -0.019803   0.023350   0.399203
     2  C    0.071350   5.233511  -0.028427   0.244626   0.365706  -0.011413
     3  C    0.263877  -0.028427   4.819993   0.020053  -0.020275  -0.030979
     4  C   -0.019803   0.244626   0.020053   4.875068  -0.033286  -0.014005
     5  H    0.023350   0.365706  -0.020275  -0.033286   0.560391   0.005187
     6  H    0.399203  -0.011413  -0.030979  -0.014005   0.005187   0.551206
     7  C   -0.027294   0.046577   0.289248  -0.016081  -0.001459   0.006001
     8  H   -0.005267  -0.019803   0.401380   0.003961   0.000920  -0.005617
     9  C    0.033604  -0.041519  -0.008130   0.326658   0.007374   0.001118
    10  H   -0.026184  -0.012973   0.012171   0.400825  -0.001833   0.002016
    11  H   -0.012408   0.005660  -0.029465  -0.003493  -0.011847  -0.000718
    12  H    0.007850  -0.002183  -0.017171   0.000612   0.000905  -0.000144
    13  H    0.003821  -0.004811  -0.004660  -0.044035  -0.000870  -0.007121
    14  H   -0.002553   0.008796   0.001044  -0.026203  -0.000220   0.000172
    15  O   -0.001712  -0.014691  -0.044908   0.002224   0.012730  -0.000491
    16  H   -0.001194   0.001596   0.003642  -0.000123  -0.000181   0.000079
    17  O   -0.031913   0.008795   0.274813  -0.000946   0.000100   0.009707
    18  H   -0.013634  -0.000578  -0.047537  -0.000148   0.000011  -0.003285
    19  O    0.186803  -0.006860  -0.031138   0.007560  -0.004068  -0.027042
    20  H   -0.060563   0.016071   0.002356   0.000938   0.000024   0.004975
    21  O   -0.002983   0.191892   0.009597  -0.058187  -0.021120   0.006868
    22  H   -0.030822  -0.012391   0.003947   0.006674  -0.005084  -0.001898
    23  O    0.012844  -0.038602  -0.001333   0.267745   0.013397   0.000216
    24  H   -0.001191   0.001694  -0.000029  -0.053995  -0.002807  -0.000041
    25  O   -0.009838   0.006001   0.000800  -0.037858  -0.000796   0.000833
    26  H   -0.000113  -0.001450   0.000154  -0.007874   0.001100   0.001291
               7          8          9         10         11         12
     1  C   -0.027294  -0.005267   0.033604  -0.026184  -0.012408   0.007850
     2  C    0.046577  -0.019803  -0.041519  -0.012973   0.005660  -0.002183
     3  C    0.289248   0.401380  -0.008130   0.012171  -0.029465  -0.017171
     4  C   -0.016081   0.003961   0.326658   0.400825  -0.003493   0.000612
     5  H   -0.001459   0.000920   0.007374  -0.001833  -0.011847   0.000905
     6  H    0.006001  -0.005617   0.001118   0.002016  -0.000718  -0.000144
     7  C    4.817259  -0.037617   0.000878  -0.000586   0.428509   0.416987
     8  H   -0.037617   0.600492   0.000583  -0.005873   0.001064  -0.002219
     9  C    0.000878   0.000583   4.691005  -0.030651   0.000450  -0.000036
    10  H   -0.000586  -0.005873  -0.030651   0.593299   0.001679   0.000012
    11  H    0.428509   0.001064   0.000450   0.001679   0.595297  -0.025644
    12  H    0.416987  -0.002219  -0.000036   0.000012  -0.025644   0.542507
    13  H    0.000454   0.000853   0.409668   0.005893  -0.000111   0.000002
    14  H   -0.000142  -0.000071   0.413176  -0.005152   0.000008  -0.000000
    15  O    0.230414   0.003034  -0.000087  -0.000184  -0.049583  -0.031627
    16  H   -0.014092  -0.000565   0.000004   0.000011  -0.004470  -0.009788
    17  O   -0.043931  -0.024349  -0.000059  -0.000051   0.005368   0.004098
    18  H   -0.003110   0.009406   0.000018  -0.000062   0.000458  -0.002012
    19  O   -0.006630   0.003859  -0.000355   0.000243   0.000622  -0.000658
    20  H   -0.007449   0.000110  -0.000042   0.000045   0.000617   0.000564
    21  O   -0.001077  -0.000048   0.010083   0.002358   0.000091   0.000015
    22  H   -0.000652  -0.000047   0.000476  -0.000356   0.000014   0.000006
    23  O   -0.000225   0.000027  -0.038757  -0.022068   0.000764  -0.000001
    24  H    0.000091  -0.000031  -0.018553   0.009370  -0.000049   0.000001
    25  O   -0.000041  -0.000053   0.266620   0.004812  -0.000002   0.000000
    26  H    0.000004  -0.000004  -0.029616  -0.000289  -0.000003   0.000000
              13         14         15         16         17         18
     1  C    0.003821  -0.002553  -0.001712  -0.001194  -0.031913  -0.013634
     2  C   -0.004811   0.008796  -0.014691   0.001596   0.008795  -0.000578
     3  C   -0.004660   0.001044  -0.044908   0.003642   0.274813  -0.047537
     4  C   -0.044035  -0.026203   0.002224  -0.000123  -0.000946  -0.000148
     5  H   -0.000870  -0.000220   0.012730  -0.000181   0.000100   0.000011
     6  H   -0.007121   0.000172  -0.000491   0.000079   0.009707  -0.003285
     7  C    0.000454  -0.000142   0.230414  -0.014092  -0.043931  -0.003110
     8  H    0.000853  -0.000071   0.003034  -0.000565  -0.024349   0.009406
     9  C    0.409668   0.413176  -0.000087   0.000004  -0.000059   0.000018
    10  H    0.005893  -0.005152  -0.000184   0.000011  -0.000051  -0.000062
    11  H   -0.000111   0.000008  -0.049583  -0.004470   0.005368   0.000458
    12  H    0.000002  -0.000000  -0.031627  -0.009788   0.004098  -0.002012
    13  H    0.653623  -0.036554   0.000004   0.000000   0.000084  -0.000011
    14  H   -0.036554   0.587940   0.000000  -0.000000  -0.000010  -0.000001
    15  O    0.000004   0.000000   7.899464   0.308225  -0.000339   0.007040
    16  H    0.000000  -0.000000   0.308225   0.543373  -0.000609  -0.000273
    17  O    0.000084  -0.000010  -0.000339  -0.000609   7.848884   0.326700
    18  H   -0.000011  -0.000001   0.007040  -0.000273   0.326700   0.506727
    19  O    0.000186   0.000015  -0.026570   0.001569  -0.009366   0.025668
    20  H    0.000003   0.000003   0.045200  -0.002550   0.000369  -0.000545
    21  O    0.000084  -0.000504  -0.000010  -0.000008  -0.000159  -0.000020
    22  H    0.000043   0.000093   0.000084  -0.000008  -0.000061  -0.000099
    23  O    0.005576   0.002285  -0.000003  -0.000000   0.000002   0.000002
    24  H    0.002783  -0.003119   0.000001   0.000000   0.000000  -0.000000
    25  O   -0.042255  -0.036147   0.000000  -0.000000   0.000000  -0.000000
    26  H   -0.007804   0.007315   0.000001  -0.000000   0.000002   0.000002
              19         20         21         22         23         24
     1  C    0.186803  -0.060563  -0.002983  -0.030822   0.012844  -0.001191
     2  C   -0.006860   0.016071   0.191892  -0.012391  -0.038602   0.001694
     3  C   -0.031138   0.002356   0.009597   0.003947  -0.001333  -0.000029
     4  C    0.007560   0.000938  -0.058187   0.006674   0.267745  -0.053995
     5  H   -0.004068   0.000024  -0.021120  -0.005084   0.013397  -0.002807
     6  H   -0.027042   0.004975   0.006868  -0.001898   0.000216  -0.000041
     7  C   -0.006630  -0.007449  -0.001077  -0.000652  -0.000225   0.000091
     8  H    0.003859   0.000110  -0.000048  -0.000047   0.000027  -0.000031
     9  C   -0.000355  -0.000042   0.010083   0.000476  -0.038757  -0.018553
    10  H    0.000243   0.000045   0.002358  -0.000356  -0.022068   0.009370
    11  H    0.000622   0.000617   0.000091   0.000014   0.000764  -0.000049
    12  H   -0.000658   0.000564   0.000015   0.000006  -0.000001   0.000001
    13  H    0.000186   0.000003   0.000084   0.000043   0.005576   0.002783
    14  H    0.000015   0.000003  -0.000504   0.000093   0.002285  -0.003119
    15  O   -0.026570   0.045200  -0.000010   0.000084  -0.000003   0.000001
    16  H    0.001569  -0.002550  -0.000008  -0.000008  -0.000000   0.000000
    17  O   -0.009366   0.000369  -0.000159  -0.000061   0.000002   0.000000
    18  H    0.025668  -0.000545  -0.000020  -0.000099   0.000002  -0.000000
    19  O    7.976025   0.335574  -0.021362   0.032139  -0.000156   0.000007
    20  H    0.335574   0.445373  -0.000203   0.000116  -0.000027  -0.000002
    21  O   -0.021362  -0.000203   7.941259   0.319875  -0.002177   0.004896
    22  H    0.032139   0.000116   0.319875   0.481888  -0.000493  -0.000114
    23  O   -0.000156  -0.000027  -0.002177  -0.000493   7.855547   0.332566
    24  H    0.000007  -0.000002   0.004896  -0.000114   0.332566   0.500402
    25  O   -0.000010   0.000006  -0.033751   0.001096  -0.011961   0.031778
    26  H   -0.000121  -0.000010   0.042339  -0.002030   0.000496  -0.002084
              25         26
     1  C   -0.009838  -0.000113
     2  C    0.006001  -0.001450
     3  C    0.000800   0.000154
     4  C   -0.037858  -0.007874
     5  H   -0.000796   0.001100
     6  H    0.000833   0.001291
     7  C   -0.000041   0.000004
     8  H   -0.000053  -0.000004
     9  C    0.266620  -0.029616
    10  H    0.004812  -0.000289
    11  H   -0.000002  -0.000003
    12  H    0.000000   0.000000
    13  H   -0.042255  -0.007804
    14  H   -0.036147   0.007315
    15  O    0.000000   0.000001
    16  H   -0.000000  -0.000000
    17  O    0.000000   0.000002
    18  H   -0.000000   0.000002
    19  O   -0.000010  -0.000121
    20  H    0.000006  -0.000010
    21  O   -0.033751   0.042339
    22  H    0.001096  -0.002030
    23  O   -0.011961   0.000496
    24  H    0.031778  -0.002084
    25  O    7.928497   0.332940
    26  H    0.332940   0.449574
 Mulliken charges:
               1
     1  C    0.103866
     2  C   -0.006573
     3  C    0.160976
     4  C    0.159092
     5  H    0.112649
     6  H    0.113883
     7  C   -0.076036
     8  H    0.075877
     9  C    0.006090
    10  H    0.073528
    11  H    0.097193
    12  H    0.117924
    13  H    0.065157
    14  H    0.089829
    15  O   -0.338216
    16  H    0.175363
    17  O   -0.367131
    18  H    0.195284
    19  O   -0.435935
    20  H    0.219049
    21  O   -0.387746
    22  H    0.207604
    23  O   -0.375662
    24  H    0.198426
    25  O   -0.400670
    26  H    0.216180
 Sum of Mulliken charges =  -0.00000
 Mulliken charges with hydrogens summed into heavy atoms:
               1
     1  C    0.217748
     2  C    0.106076
     3  C    0.236853
     4  C    0.232620
     7  C    0.139081
     9  C    0.161076
    15  O   -0.162854
    17  O   -0.171847
    19  O   -0.216886
    21  O   -0.180143
    23  O   -0.177236
    25  O   -0.184490
 Electronic spatial extent (au):  <R**2>=           2400.4826
 Charge=              0.0000 electrons
 Dipole moment (field-independent basis, Debye):
    X=             -4.1551    Y=              1.8761    Z=             -1.0692  Tot=              4.6827
 Quadrupole moment (field-independent basis, Debye-Ang):
   XX=            -78.5233   YY=            -73.2967   ZZ=            -71.9464
   XY=             -7.5029   XZ=              7.4810   YZ=              2.3422
 Traceless Quadrupole moment (field-independent basis, Debye-Ang):
   XX=             -3.9345   YY=              1.2921   ZZ=              2.6424
   XY=             -7.5029   XZ=              7.4810   YZ=              2.3422
 Octapole moment (field-independent basis, Debye-Ang**2):
  XXX=            -71.7314  YYY=            -10.0817  ZZZ=            -20.2549  XYY=            -22.1458
  XXY=             23.3190  XXZ=            -36.1216  XZZ=              5.8515  YZZ=              2.7554
  YYZ=             -2.4794  XYZ=             11.9422
 Hexadecapole moment (field-independent basis, Debye-Ang**3):
 XXXX=          -1981.0861 YYYY=           -505.8640 ZZZZ=           -450.9826 XXXY=            -12.3269
 XXXZ=             47.2860 YYYX=            -47.4662 YYYZ=              5.8106 ZZZX=             45.3337
 ZZZY=              9.7307 XXYY=           -386.3543 XXZZ=           -387.0581 YYZZ=           -143.2413
 XXYZ=             -8.6457 YYXZ=              7.7241 ZZXY=            -14.9313
 N-N= 8.380823725882D+02 E-N=-3.292962446450D+03  KE= 6.850655919940D+02
   1 Symmetry operations used in ECPInt.
 ECPInt:  NShTT=   23436 NPrTT=   62434 LenC2=   22062 LenP2D=   46005.
 LDataN:  DoStor=T MaxTD1= 7 Len=  274
 Calling FoFJK, ICntrl=      2127 FMM=F ISym2X=0 I1Cent= 0 IOpClX= 0 NMat=1 NMatS=1 NMatT=0.
 ***** Axes restored to original set *****
 -------------------------------------------------------------------
 Center     Atomic                   Forces (Hartrees/Bohr)
 Number     Number              X              Y              Z
 -------------------------------------------------------------------
      1        6           0.003751623    0.013201267   -0.009096361
      2        6          -0.004553409   -0.007852678   -0.007021671
      3        6          -0.020945128    0.009144472   -0.010571496
      4        6           0.022065948   -0.000358192   -0.010911147
      5        1          -0.002933158   -0.000574756    0.008617589
      6        1           0.002160920    0.002812254    0.003905723
      7        6           0.006415923   -0.001368544    0.000041481
      8        1          -0.000088872    0.002300385   -0.002526383
      9        6           0.002468705   -0.003020394   -0.013493598
     10        1           0.000102465    0.000751846   -0.002763915
     11        1           0.000559497   -0.002936720    0.002603758
     12        1           0.000916945   -0.007627229    0.001307311
     13        1          -0.003072885    0.002451688    0.003093393
     14        1          -0.001571966    0.003499817   -0.002091836
     15        8           0.001051403    0.020592652    0.011369628
     16        1          -0.002301154   -0.018426557   -0.011420972
     17        8           0.010227095    0.003140100   -0.011024139
     18        1           0.002129475   -0.007761086    0.015544552
     19        8           0.001767864    0.006452201    0.013858652
     20        1           0.001115517   -0.016844301   -0.006165823
     21        8          -0.016045636    0.013066035   -0.002479815
     22        1           0.010945930   -0.009194035    0.012487182
     23        8          -0.006578106   -0.009393137   -0.009921752
     24        1          -0.006186623    0.008068594    0.014477493
     25        8          -0.002853278    0.011342079   -0.000400813
     26        1           0.001450906   -0.011465762    0.012582958
 -------------------------------------------------------------------
 Cartesian Forces:  Max     0.022065948 RMS     0.008794701

 GradGradGradGradGradGradGradGradGradGradGradGradGradGradGradGradGradGrad
 Berny optimization.
 FormGI is forming the generalized inverse of G from B-inverse, IUseBI=4.
 Internal  Forces:  Max     0.021065983 RMS     0.005490169
 Search for a local minimum.
 Step number   1 out of a maximum of  140
 All quantities printed in internal units (Hartrees-Bohrs-Radians)
 Mixed Optimization -- RFO/linear search
 Second derivative matrix not updated -- first step.
 ITU=  0
     Eigenvalues ---    0.00230   0.00230   0.00257   0.00279   0.00284
     Eigenvalues ---    0.01044   0.01070   0.01203   0.01205   0.01281
     Eigenvalues ---    0.01315   0.03704   0.03802   0.03878   0.03904
     Eigenvalues ---    0.04615   0.04664   0.04779   0.04790   0.04887
     Eigenvalues ---    0.05039   0.05615   0.05620   0.07717   0.07755
     Eigenvalues ---    0.07796   0.07911   0.11497   0.11614   0.13779
     Eigenvalues ---    0.13857   0.16000   0.16000   0.16000   0.16000
     Eigenvalues ---    0.16000   0.16000   0.16904   0.16976   0.17114
     Eigenvalues ---    0.17306   0.19509   0.19510   0.19647   0.19697
     Eigenvalues ---    0.22032   0.22055   0.28202   0.28320   0.28652
     Eigenvalues ---    0.28806   0.28836   0.34100   0.34147   0.34251
     Eigenvalues ---    0.34283   0.34336   0.34377   0.34414   0.34420
     Eigenvalues ---    0.38378   0.38638   0.40010   0.40028   0.40843
     Eigenvalues ---    0.41208   0.50349   0.50797   0.50974   0.51472
     Eigenvalues ---    0.51696   0.52055
 RFO step:  Lambda=-1.82316191D-02 EMin= 2.30000000D-03
 Linear search not attempted -- first point.
 Iteration  1 RMS(Cart)=  0.11421595 RMS(Int)=  0.00524483
 Iteration  2 RMS(Cart)=  0.00793810 RMS(Int)=  0.00063436
 Iteration  3 RMS(Cart)=  0.00001442 RMS(Int)=  0.00063422
 Iteration  4 RMS(Cart)=  0.00000001 RMS(Int)=  0.00063422
 Variable       Old X    -DE/DX   Delta X   Delta X   Delta X     New X
                                 (Linear)    (Quad)   (Total)
    R1        2.90734  -0.00675   0.00000  -0.02216  -0.02216   2.88519
    R2        2.91700  -0.00408   0.00000  -0.01358  -0.01358   2.90341
    R3        2.07083  -0.00389   0.00000  -0.01082  -0.01082   2.06001
    R4        2.73818  -0.01229   0.00000  -0.03057  -0.03057   2.70761
    R5        2.91444  -0.00564   0.00000  -0.01873  -0.01873   2.89572
    R6        2.07162  -0.00155   0.00000  -0.00432  -0.00432   2.06730
    R7        2.73447  -0.01176   0.00000  -0.02907  -0.02907   2.70540
    R8        2.90346  -0.00671   0.00000  -0.02188  -0.02188   2.88158
    R9        2.06766  -0.00334   0.00000  -0.00925  -0.00925   2.05841
   R10        2.71540  -0.01276   0.00000  -0.03049  -0.03049   2.68491
   R11        2.90410  -0.00242   0.00000  -0.00791  -0.00791   2.89619
   R12        2.06628  -0.00223   0.00000  -0.00615  -0.00615   2.06012
   R13        2.71515  -0.01266   0.00000  -0.03024  -0.03024   2.68491
   R14        2.06699   0.00125   0.00000   0.00344   0.00344   2.07043
   R15        2.06908  -0.00272   0.00000  -0.00754  -0.00754   2.06154
   R16        2.70423   0.00132   0.00000   0.00308   0.00308   2.70731
   R17        2.06636   0.00208   0.00000   0.00573   0.00573   2.07209
   R18        2.06855  -0.00387   0.00000  -0.01072  -0.01072   2.05783
   R19        2.69944  -0.01041   0.00000  -0.02420  -0.02420   2.67524
   R20        1.84547  -0.02107   0.00000  -0.03910  -0.03910   1.80637
   R21        1.84892  -0.01741   0.00000  -0.03253  -0.03253   1.81638
   R22        1.86215  -0.01769   0.00000  -0.03390  -0.03390   1.82824
   R23        1.85595  -0.01894   0.00000  -0.03588  -0.03588   1.82007
   R24        1.85108  -0.01758   0.00000  -0.03299  -0.03299   1.81809
   R25        1.85770  -0.01681   0.00000  -0.03195  -0.03195   1.82575
    A1        2.01375  -0.00182   0.00000  -0.00240  -0.00330   2.01044
    A2        1.92190   0.00113   0.00000  -0.01037  -0.01080   1.91110
    A3        1.87289  -0.00066   0.00000   0.01371   0.01314   1.88603
    A4        1.90820  -0.00251   0.00000  -0.03444  -0.03451   1.87370
    A5        1.91711   0.00526   0.00000   0.04321   0.04309   1.96020
    A6        1.81979  -0.00124   0.00000  -0.00875  -0.00818   1.81161
    A7        1.99950   0.00309   0.00000   0.00871   0.00848   2.00797
    A8        1.92342  -0.00122   0.00000  -0.01879  -0.01915   1.90427
    A9        1.87824  -0.00203   0.00000  -0.00089  -0.00095   1.87728
   A10        1.91333  -0.00356   0.00000  -0.03652  -0.03678   1.87655
   A11        1.91140   0.00040   0.00000   0.01014   0.01017   1.92157
   A12        1.82997   0.00344   0.00000   0.04162   0.04189   1.87186
   A13        1.99689   0.00235   0.00000   0.02466   0.02227   2.01916
   A14        1.93171  -0.00150   0.00000  -0.03699  -0.03696   1.89475
   A15        1.88228  -0.00040   0.00000   0.02797   0.02541   1.90769
   A16        1.90474  -0.00404   0.00000  -0.05105  -0.05063   1.85412
   A17        1.88627   0.00494   0.00000   0.05647   0.05480   1.94107
   A18        1.85604  -0.00137   0.00000  -0.02045  -0.01912   1.83692
   A19        1.99055   0.00398   0.00000   0.03273   0.03065   2.02119
   A20        1.92581  -0.00466   0.00000  -0.05640  -0.05583   1.86998
   A21        1.88595   0.00269   0.00000   0.04208   0.03999   1.92593
   A22        1.91535  -0.00157   0.00000  -0.03052  -0.03012   1.88524
   A23        1.88557   0.00048   0.00000   0.03319   0.03079   1.91636
   A24        1.85500  -0.00105   0.00000  -0.02130  -0.02021   1.83480
   A25        1.93835  -0.00166   0.00000  -0.01457  -0.01500   1.92336
   A26        1.92536  -0.00621   0.00000  -0.04982  -0.05016   1.87520
   A27        1.92399  -0.00087   0.00000   0.00038   0.00053   1.92453
   A28        1.90637   0.00126   0.00000  -0.00154  -0.00308   1.90328
   A29        1.88593   0.00319   0.00000   0.03398   0.03388   1.91981
   A30        1.88251   0.00469   0.00000   0.03471   0.03455   1.91706
   A31        1.95279  -0.00402   0.00000  -0.01455  -0.01596   1.93683
   A32        1.91804  -0.00493   0.00000  -0.04172  -0.04185   1.87619
   A33        1.93702   0.00870   0.00000   0.04170   0.04144   1.97846
   A34        1.89196   0.00171   0.00000  -0.00545  -0.00618   1.88578
   A35        1.90067   0.00131   0.00000   0.03807   0.03763   1.93830
   A36        1.86051  -0.00281   0.00000  -0.01874  -0.01804   1.84246
   A37        1.85584   0.01033   0.00000   0.05794   0.05794   1.91378
   A38        1.84965   0.00142   0.00000   0.00797   0.00797   1.85762
   A39        1.85404   0.00249   0.00000   0.01396   0.01396   1.86801
   A40        1.82749   0.00147   0.00000   0.00823   0.00823   1.83572
   A41        1.83883   0.00125   0.00000   0.00703   0.00703   1.84587
   A42        1.86174  -0.00121   0.00000  -0.00680  -0.00680   1.85494
    D1        1.04874  -0.00413   0.00000  -0.04975  -0.04968   0.99906
    D2       -1.11850  -0.00073   0.00000   0.00746   0.00748  -1.11102
    D3       -3.10448  -0.00307   0.00000  -0.03165  -0.03159  -3.13607
    D4       -1.12124  -0.00029   0.00000   0.00704   0.00706  -1.11418
    D5        2.99471   0.00311   0.00000   0.06425   0.06422   3.05892
    D6        1.00873   0.00077   0.00000   0.02514   0.02515   1.03388
    D7       -3.09162   0.00096   0.00000   0.01516   0.01513  -3.07649
    D8        1.02433   0.00436   0.00000   0.07237   0.07229   1.09662
    D9       -0.96165   0.00202   0.00000   0.03326   0.03323  -0.92843
   D10        0.99970  -0.00371   0.00000  -0.07446  -0.07458   0.92513
   D11       -1.16075   0.00109   0.00000   0.00451   0.00441  -1.15633
   D12        3.09883   0.00377   0.00000   0.03294   0.03306   3.13190
   D13       -3.10636  -0.00563   0.00000  -0.11844  -0.11824   3.05858
   D14        1.01637  -0.00083   0.00000  -0.03946  -0.03925   0.97712
   D15       -1.00724   0.00185   0.00000  -0.01104  -0.01060  -1.01784
   D16       -1.11943  -0.00563   0.00000  -0.12435  -0.12469  -1.24412
   D17        3.00331  -0.00083   0.00000  -0.04537  -0.04570   2.95761
   D18        0.97970   0.00185   0.00000  -0.01695  -0.01705   0.96265
   D19       -1.40841   0.00161   0.00000   0.04495   0.04450  -1.36392
   D20        0.79310   0.00231   0.00000   0.07927   0.07963   0.87273
   D21        2.83614   0.00121   0.00000   0.05486   0.05496   2.89110
   D22        1.24631  -0.00268   0.00000  -0.06619  -0.06663   1.17967
   D23       -0.91880   0.00011   0.00000  -0.00571  -0.00595  -0.92475
   D24       -2.94008   0.00236   0.00000   0.02634   0.02685  -2.91323
   D25       -2.86429  -0.00484   0.00000  -0.11385  -0.11407  -2.97836
   D26        1.25379  -0.00206   0.00000  -0.05338  -0.05339   1.20040
   D27       -0.76748   0.00019   0.00000  -0.02132  -0.02059  -0.78807
   D28       -0.86549  -0.00247   0.00000  -0.07860  -0.07909  -0.94458
   D29       -3.03060   0.00032   0.00000  -0.01812  -0.01841  -3.04901
   D30        1.23131   0.00256   0.00000   0.01394   0.01439   1.24570
   D31        0.76306  -0.00166   0.00000  -0.02446  -0.02443   0.73863
   D32        2.94677   0.00109   0.00000  -0.00780  -0.00793   2.93884
   D33       -1.28466  -0.00102   0.00000  -0.02308  -0.02297  -1.30763
   D34       -1.25109   0.00120   0.00000   0.05495   0.05570  -1.19539
   D35        2.91581   0.00491   0.00000   0.10025   0.10038   3.01618
   D36        0.83861   0.00355   0.00000   0.08831   0.08868   0.92729
   D37        0.92373  -0.00224   0.00000  -0.01618  -0.01551   0.90822
   D38       -1.19256   0.00147   0.00000   0.02912   0.02916  -1.16339
   D39        3.01343   0.00011   0.00000   0.01717   0.01747   3.03090
   D40        2.93519  -0.00332   0.00000  -0.03676  -0.03717   2.89801
   D41        0.81890   0.00039   0.00000   0.00854   0.00750   0.82640
   D42       -1.25829  -0.00097   0.00000  -0.00340  -0.00419  -1.26249
   D43       -0.81799  -0.00180   0.00000  -0.00849  -0.00931  -0.82730
   D44        1.34940   0.00383   0.00000   0.07315   0.07392   1.42333
   D45       -2.89060   0.00087   0.00000   0.03123   0.03126  -2.85933
   D46       -1.00692   0.00125   0.00000   0.04959   0.05017  -0.95675
   D47       -3.10962   0.00507   0.00000   0.09436   0.09424  -3.01538
   D48        1.12005   0.00630   0.00000   0.11801   0.11844   1.23850
   D49        1.16379  -0.00320   0.00000  -0.02471  -0.02438   1.13941
   D50       -0.93891   0.00062   0.00000   0.02005   0.01969  -0.91922
   D51       -2.99242   0.00185   0.00000   0.04370   0.04389  -2.94852
   D52       -3.10394  -0.00503   0.00000  -0.04790  -0.04798   3.13127
   D53        1.07655  -0.00121   0.00000  -0.00314  -0.00391   1.07264
   D54       -0.97696   0.00003   0.00000   0.02051   0.02029  -0.95667
   D55       -1.33871  -0.00489   0.00000  -0.08314  -0.08372  -1.42242
   D56        0.82279   0.00188   0.00000   0.00264   0.00325   0.82605
   D57        2.87744  -0.00026   0.00000  -0.02738  -0.02742   2.85003
   D58        2.94754  -0.00137   0.00000  -0.00862  -0.00879   2.93876
   D59       -1.21448  -0.00192   0.00000  -0.00478  -0.00516  -1.21964
   D60        0.84441   0.00382   0.00000   0.03043   0.03098   0.87539
   D61       -0.81580  -0.00322   0.00000  -0.08035  -0.08115  -0.89695
   D62        1.34132  -0.00159   0.00000  -0.04475  -0.04381   1.29751
   D63       -2.90403  -0.00043   0.00000  -0.04186  -0.04201  -2.94604
         Item               Value     Threshold  Converged?
 Maximum Force            0.021066     0.000450     NO 
 RMS     Force            0.005490     0.000300     NO 
 Maximum Displacement     0.425382     0.001800     NO 
 RMS     Displacement     0.115464     0.001200     NO 
 Predicted change in Energy=-1.131016D-02
 GradGradGradGradGradGradGradGradGradGradGradGradGradGradGradGradGradGrad

                          Input orientation:                          
 ---------------------------------------------------------------------
 Center     Atomic      Atomic             Coordinates (Angstroms)
 Number     Number       Type             X           Y           Z
 ---------------------------------------------------------------------
      1          6           0       -0.001812    0.029348   -0.082490
      2          6           0        1.524947    0.035655   -0.085123
      3          6           0       -0.655906    0.597270    1.186450
      4          6           0        2.178845   -0.717943    1.077888
      5          1           0        1.878826    1.070126   -0.047656
      6          1           0       -0.361656   -0.992410   -0.204391
      7          6           0       -0.194043    1.989955    1.601567
      8          1           0       -0.423031   -0.062258    2.021488
      9          6           0        1.991065   -2.238993    1.076921
     10          1           0        1.746670   -0.325442    1.998562
     11          1           0        0.847505    1.957886    1.940017
     12          1           0       -0.827704    2.311361    2.429383
     13          1           0        0.927941   -2.503145    1.028834
     14          1           0        2.390929   -2.618852    2.015876
     15          8           0       -0.325195    2.903448    0.505751
     16          1           0       -0.208720    3.799255    0.818299
     17          8           0       -2.069174    0.543486    1.050679
     18          1           0       -2.272664    0.900492    0.181759
     19          8           0       -0.450841    0.693721   -1.269890
     20          1           0       -0.361692    1.644309   -1.113612
     21          8           0        1.957019   -0.515878   -1.333608
     22          1           0        1.375090   -0.127700   -1.995664
     23          8           0        3.562376   -0.403879    1.154437
     24          1           0        3.993714   -0.962488    0.500585
     25          8           0        2.724573   -2.894422    0.058825
     26          1           0        2.508438   -2.440103   -0.765985
 ---------------------------------------------------------------------
                    Distance matrix (angstroms):
                    1          2          3          4          5
     1  C    0.000000
     2  C    1.526775   0.000000
     3  C    1.536419   2.586200   0.000000
     4  C    2.580734   1.532347   3.126881   0.000000
     5  H    2.149705   1.093967   2.858579   2.134022   0.000000
     6  H    1.090108   2.151840   2.132629   2.858971   3.049324
     7  C    2.591714   3.101473   1.524864   3.638344   2.804070
     8  H    2.147683   2.870892   1.089265   2.844304   3.295785
     9  C    3.234372   2.596466   3.881087   1.532598   3.496789
    10  H    2.741140   2.126334   2.698758   1.090171   2.480340
    11  H    2.920811   2.873168   2.163188   3.110594   2.408856
    12  H    3.492734   4.127535   2.124265   4.476892   3.873201
    13  H    2.917705   2.835987   3.485109   2.180393   3.851140
    14  H    4.140207   3.494357   4.507171   2.130319   4.257813
    15  O    2.951450   3.463581   2.427175   4.439823   2.919767
    16  H    3.881550   4.241044   3.253954   5.115948   3.543426
    17  O    2.412965   3.803373   1.420794   4.431435   4.131633
    18  H    2.446526   3.903975   1.927499   4.820613   4.161283
    19  O    1.432807   2.395926   2.466772   3.797381   2.657608
    20  H    1.949570   2.684205   2.544236   4.103319   2.546736
    21  O    2.387381   1.431639   3.796995   2.430092   2.043329
    22  H    2.362363   1.923358   3.844005   3.231273   2.341638
    23  O    3.797514   2.425039   4.335577   1.420793   2.540091
    24  H    4.157878   2.726565   4.951992   1.920112   2.984098
    25  O    4.000197   3.169413   4.989097   2.464421   4.055153
    26  H    3.587019   2.749583   4.801115   2.544471   3.637872
                    6          7          8          9         10
     6  H    0.000000
     7  C    3.490570   0.000000
     8  H    2.413190   2.107213   0.000000
     9  C    2.954830   4.788940   3.385003   0.000000
    10  H    3.121359   3.047136   2.185725   2.137949   0.000000
    11  H    3.842500   1.095627   2.387861   4.434688   2.454693
    12  H    4.250749   1.090920   2.442172   5.520900   3.710221
    13  H    2.337995   4.666349   2.961151   1.096505   2.520531
    14  H    3.892508   5.300456   3.801918   1.088954   2.382246
    15  O    3.960220   1.432649   3.332033   5.668862   4.116654
    16  H    4.901973   1.971621   4.050293   6.431669   4.714838
    17  O    2.617212   2.431434   2.004790   4.922237   4.026685
    18  H    2.717378   2.742891   2.780761   5.370015   4.578071
    19  O    1.996567   3.160923   3.377196   4.480093   4.068234
    20  H    2.789080   2.742220   3.570012   5.041222   4.243905
    21  O    2.622684   4.418316   4.138488   2.963264   3.344229
    22  H    2.640581   4.459452   4.401708   3.778592   4.016343
    23  O    4.194139   4.476723   4.092915   2.417161   2.003868
    24  H    4.412157   5.240838   4.757226   2.443815   2.774701
    25  O    3.634796   5.895380   4.666971   1.415677   3.364302
    26  H    3.263225   5.703868   4.692299   1.924687   3.562976
                   11         12         13         14         15
    11  H    0.000000
    12  H    1.780659   0.000000
    13  H    4.553847   5.312560   0.000000
    14  H    4.830574   5.902338   1.768608   0.000000
    15  O    2.080007   2.074473   5.574514   6.336687   0.000000
    16  H    2.400937   2.278719   6.407539   7.027408   0.955888
    17  O    3.361319   2.562705   4.273773   5.551982   2.984599
    18  H    3.734301   3.021634   4.748279   6.123632   2.812372
    19  O    3.686098   4.055047   4.171945   5.463063   2.837532
    20  H    3.299263   3.635235   4.842994   5.961976   2.051609
    21  O    4.250547   5.468826   3.254131   3.978671   4.503725
    22  H    4.485265   5.512020   3.871727   4.830137   4.282045
    23  O    3.683150   5.317031   3.370896   2.649617   5.145135
    24  H    4.527602   6.138764   3.471547   2.758364   5.796418
    25  O    5.532374   6.733379   2.078919   2.004322   6.566287
    26  H    5.424339   6.626962   2.392347   2.790074   6.180641
                   16         17         18         19         20
    16  H    0.000000
    17  O    3.757037   0.000000
    18  H    3.614951   0.961189   0.000000
    19  O    3.750133   2.833129   2.338607   0.000000
    20  H    2.898184   2.968411   2.425503   0.967464   0.000000
    21  O    5.285972   4.797636   4.710909   2.695362   3.176668
    22  H    5.084075   4.646898   4.370865   2.129672   2.633333
    23  O    5.656897   5.711622   6.057654   4.815391   4.973673
    24  H    6.358898   6.271298   6.545215   5.062773   5.326404
    25  O    7.347538   5.981889   6.276055   4.972274   5.612460
    26  H    6.987309   5.758177   5.909038   4.339597   5.004089
                   21         22         23         24         25
    21  O    0.000000
    22  H    0.963141   0.000000
    23  O    2.963120   3.844948   0.000000
    24  H    2.777022   3.712858   0.962091   0.000000
    25  O    2.861028   3.700916   2.846943   2.353346   0.000000
    26  H    2.080601   2.853733   2.990821   2.448181   0.966143
                   26
    26  H    0.000000
 Stoichiometry    C6H14O6
 Framework group  C1[X(C6H14O6)]
 Deg. of freedom    72
 Full point group                 C1      NOp   1
 Largest Abelian subgroup         C1      NOp   1
 Largest concise Abelian subgroup C1      NOp   1
                         Standard orientation:                         
 ---------------------------------------------------------------------
 Center     Atomic      Atomic             Coordinates (Angstroms)
 Number     Number       Type             X           Y           Z
 ---------------------------------------------------------------------
      1          6           0       -0.594658   -0.761087    0.155942
      2          6           0        0.507048   -0.076511   -0.649440
      3          6           0       -1.529391    0.186961    0.922796
      4          6           0        1.433781    0.834400    0.162652
      5          1           0        0.050414    0.533732   -1.434202
      6          1           0       -0.146378   -1.435990    0.885247
      7          6           0       -2.175002    1.292118    0.093927
      8          1           0       -0.953999    0.686664    1.701075
      9          6           0        2.343066    0.129184    1.174940
     10          1           0        0.799738    1.533275    0.708579
     11          1           0       -1.417381    2.014986   -0.228360
     12          1           0       -2.900963    1.797845    0.732150
     13          1           0        1.757202   -0.493153    1.861804
     14          1           0        2.841442    0.900436    1.760272
     15          8           0       -2.836710    0.734100   -1.047669
     16          1           0       -3.385338    1.400264   -1.458710
     17          8           0       -2.508557   -0.576233    1.613755
     18          1           0       -2.852888   -1.213097    0.981518
     19          8           0       -1.310323   -1.635992   -0.724570
     20          1           0       -1.907686   -1.084053   -1.248506
     21          8           0        1.268559   -1.101083   -1.297471
     22          1           0        0.617168   -1.730230   -1.625348
     23          8           0        2.215844    1.643300   -0.704936
     24          1           0        2.948567    1.088581   -0.989582
     25          8           0        3.381484   -0.619404    0.570420
     26          1           0        2.958665   -1.187157   -0.087084
 ---------------------------------------------------------------------
 Rotational constants (GHZ):           1.4551260           0.5300589           0.5173112
 Standard basis: def2TZVPP (5D, 7F)
 There are   642 symmetry adapted cartesian basis functions of A   symmetry.
 There are   568 symmetry adapted basis functions of A   symmetry.
   568 basis functions,   850 primitive gaussians,   642 cartesian basis functions
    49 alpha electrons       49 beta electrons
       nuclear repulsion energy       837.2167455255 Hartrees.
 NAtoms=   26 NActive=   26 NUniq=   26 SFac= 1.00D+00 NAtFMM=   60 NAOKFM=F Big=F
 Integral buffers will be    131072 words long.
 Raffenetti 2 integral format.
 Two-electron integral symmetry is turned on.
 Nuclear repulsion after empirical dispersion term =      837.1967297698 Hartrees.
 One-electron integrals computed using PRISM.
   1 Symmetry operations used in ECPInt.
 ECPInt:  NShTT=   23436 NPrTT=   62434 LenC2=   22067 LenP2D=   46030.
 LDataN:  DoStor=T MaxTD1= 6 Len=  172
 NBasis=   568 RedAO= T EigKep=  4.24D-05  NBF=   568
[...]
 4738,-0.00079735,-0.00060172,0.00043350,0.00017869,0.00011860,0.004310
 84,-0.00182415,0.00940827,0.00471814,-0.00061860,-0.00358955,0.1297167
 6,0.02319981,-0.12215869,0.06214548,0.00644795,-0.00444272,0.00719358,
 -0.00103678,0.00648026,-0.00151017,-0.00006834,0.00164676,-0.00212823,
 0.00136800,0.00223778,-0.00089868,0.01642160,-0.02074275,0.03878193,-0
 .00130479,-0.00408074,0.00517377,0.00088562,0.00045921,-0.00186458,-0.
 00137647,-0.00015306,0.00021095,-0.00006761,-0.00014213,0.00020832,-0.
 00025109,0.00031355,-0.00085610,0.00022823,0.00136588,-0.00033663,0.00
 065701,0.00063461,-0.00004245,0.00036577,0.00006433,0.00011436,-0.0025
 8136,-0.00747216,-0.00950922,0.00047128,0.00083252,-0.00286183,-0.0005
 0231,0.00335184,-0.00090544,-0.00183100,-0.00272186,0.00054508,0.04328
 547,0.62239079,-0.04739372,0.02480518,-0.16892929,-0.01124661,0.010850
 55,-0.02239530,-0.01351146,0.02351161,-0.04618639,-0.00016751,-0.00163
 710,0.00390265,0.00080580,-0.00069157,0.00046557,-0.00280797,0.0079017
 1,-0.00554312,0.00100441,0.00383689,0.00051498,0.00420474,-0.00448971,
 -0.00604886,0.00073793,-0.00056352,-0.00119064,0.00041857,-0.00015170,
 0.00066509,0.00000797,-0.00012746,0.00008344,0.00015900,-0.00055284,0.
 00040058,-0.00018482,-0.00014969,-0.00003926,-0.00012246,0.00017188,0.
 00003126,-0.00200786,-0.00987031,0.00057601,0.00022865,0.00015250,-0.0
 0132934,-0.00226139,0.00047585,0.00007984,-0.00119012,-0.00010864,-0.0
 0062242,0.09823792,-0.01651063,0.28833017,0.00154859,0.01597110,0.0004
 1535,0.00128158,0.00368177,0.00031458,0.00236607,-0.00124428,0.0003770
 5,-0.00050361,-0.00049206,-0.00067858,-0.00100128,-0.00090823,-0.00050
 380,-0.00009390,0.00052028,-0.00137571,0.00035374,0.00064439,-0.000720
 17,-0.00015854,0.00004120,-0.00028377,0.00032651,0.00009485,0.00026816
 ,0.00003188,-0.00000366,0.00017626,-0.00016660,-0.00003890,-0.00030310
 ,-0.00009391,-0.00028966,0.00026688,-0.00011329,-0.00004913,-0.0000337
 0,-0.00001179,-0.00015208,0.00001003,-0.00192679,-0.00018423,0.0012061
 1,-0.00065553,-0.00024091,-0.00034612,-0.00128269,0.00106224,-0.000585
 40,-0.00202359,-0.00210167,0.00161331,-0.03183879,-0.08796831,-0.02243
 570,0.03473293,-0.00252896,-0.02388283,0.00336487,0.00058515,0.0020466
 1,-0.00130123,-0.00039135,0.00316018,0.00019597,-0.00006545,-0.0000841
 0,0.00112250,0.00029164,-0.00023532,0.00010227,0.00135547,0.00112279,0
 .00218028,0.00000187,0.00623744,-0.00264945,0.00037528,-0.00061388,-0.
 00098544,-0.00005804,-0.00004154,-0.00017582,0.00003142,0.00003460,-0.
 00013686,0.00025363,-0.00068474,0.00095921,0.00006944,-0.00101098,0.00
 100804,-0.00001051,-0.00008943,0.00003064,-0.00006867,0.00012109,-0.00
 003959,0.00018595,-0.00636044,0.00204423,-0.00018539,-0.00123060,0.001
 16362,-0.00032565,-0.00105160,-0.00160024,-0.00151703,0.00080253,0.001
 68429,-0.06892281,-0.47673023,-0.03798981,0.07083184,0.49968598,0.0051
 4897,0.04182565,0.00047503,0.00008637,0.00086940,0.00088472,0.00111831
 ,0.00230322,-0.00033749,-0.00017575,-0.00016645,0.00025903,-0.00087239
 ,-0.00046114,0.00021291,-0.00274453,0.00347449,-0.00561093,-0.00020500
 ,0.00190733,-0.00582424,-0.00035123,-0.00059151,0.00037831,0.00023574,
 0.00019224,0.00007725,-0.00001289,0.00006564,-0.00020208,0.00028996,-0
 .00028343,0.00058733,-0.00007281,-0.00032714,0.00063404,-0.00013255,-0
 .00014099,0.00000825,-0.00008106,-0.00002983,-0.00002962,0.00087225,0.
 00210906,-0.00090453,-0.00032785,-0.00041930,0.00328107,0.00002125,-0.
 00126833,-0.00057956,0.00124695,0.00117814,0.00030645,-0.02705827,-0.0
 8153201,-0.04968294,0.02242635,0.03301020,0.05722168,-0.01982832,0.022
 77431,0.04063563,-0.09451996,0.02838559,0.00795020,-0.00506178,-0.0011
 5589,-0.00607735,0.00611749,-0.00791157,-0.01452656,0.00622563,0.00091
 322,-0.00276508,0.00368177,0.00046016,0.00015569,-0.00098067,-0.000788
 36,0.00024377,0.00004387,-0.00025445,0.00045849,-0.00206576,-0.0000196
 6,0.00264350,-0.00104334,0.00194024,-0.00358623,0.00025284,0.00017121,
 0.00011580,0.00006177,0.00045679,0.00010276,0.00075796,0.00039022,-0.0
 0030369,0.00026968,-0.00020034,-0.00019660,0.00058571,0.00088862,-0.00
 003135,-0.00014525,-0.00006691,0.00019151,-0.00416925,0.00171596,0.002
 98241,0.00105190,-0.00057594,0.00015952,-0.00217558,0.00340838,0.00492
 301,-0.00140220,-0.00095767,0.00070648,0.33039728,0.00486052,-0.002516
 21,-0.00579725,0.03442047,-0.10501626,-0.03703790,0.00002764,0.0014314
 7,0.00123731,-0.00443621,0.00975748,0.01375897,0.01419539,-0.01196233,
 -0.03903650,0.00178148,0.00160398,0.00081891,-0.00096583,-0.00008399,0
 .00026723,0.00025243,-0.00002901,-0.00040982,0.00109991,-0.00212992,-0
 .00541594,0.00160614,-0.00122166,0.00329587,0.00040544,0.00007086,0.00
 052284,0.00040422,0.00001451,0.00004808,-0.00006630,0.00038965,0.00007
 654,0.00005389,0.00090810,0.00040450,0.00087616,-0.00022536,-0.0004652
 1,-0.00019817,0.00026515,-0.00001611,0.00132097,0.00005741,-0.00062254
 ,-0.00045193,0.00001432,-0.00006222,0.00351341,0.00138588,-0.00329906,
 -0.00089764,0.00017224,-0.00006894,-0.18142720,0.19683660,0.01247531,-
 0.00926653,-0.02646144,0.04693931,-0.06207709,-0.18111554,0.00049871,0
 .00105796,0.00428203,0.01537086,-0.01458134,-0.04142042,0.00548660,-0.
 01543067,-0.01766411,-0.00093358,0.00093856,0.00062505,-0.00074747,0.0
 0105728,-0.00102031,-0.00031832,0.00005896,0.00043893,0.00073309,-0.00
 393324,0.00184814,-0.00395615,0.00353535,-0.00469081,0.00037261,0.0002
 5812,0.00057271,0.00038431,-0.00033049,0.00012603,0.00012158,0.0004148
 0,-0.00004523,-0.00004870,-0.00023442,0.00035192,0.00074411,-0.0007899
 4,0.00097543,-0.00009470,0.00029570,-0.00002707,0.00377227,-0.00120212
 ,-0.00060251,-0.00003632,0.00020556,-0.00095732,-0.00629291,0.00261038
 ,0.00657483,-0.00013710,-0.00097293,-0.00110471,0.16199701,-0.03433234
 ,0.52801909,0.00023038,-0.00120826,0.00802988,0.00945435,-0.00543742,0
 .00930276,0.00009682,0.00052879,-0.00052123,-0.00223402,0.00066944,0.0
 0340518,-0.00022113,0.00092343,0.00024974,-0.00025970,-0.00008596,-0.0
 0007329,0.00046817,-0.00003395,0.00032767,0.00017847,-0.00007331,-0.00
 046878,0.00032893,0.00053048,-0.00017341,0.00052660,-0.00034800,0.0012
 4035,-0.00017837,-0.00006042,-0.00017384,-0.00007730,-0.00006198,-0.00
 007942,-0.00015713,-0.00010295,-0.00002481,-0.00004989,-0.00010290,-0.
 00000223,-0.00051044,-0.00061138,-0.00045146,0.00011297,-0.00001016,-0
 .00024087,-0.00037280,-0.00006638,-0.00072914,-0.00071116,0.00011516,0
 .00076430,0.00109789,-0.00199997,-0.00364895,0.00073092,0.00177934,-0.
 00006078,-0.22030225,0.12378716,-0.22965995,0.21196607,0.00085374,0.00
 312179,-0.00345478,-0.01064327,0.00572247,-0.01296676,-0.00001503,-0.0
 0042013,0.00083280,0.00102018,-0.00101891,-0.00128306,-0.00018785,-0.0
 0080189,-0.00163929,-0.00042574,-0.00054921,0.00052422,0.00004569,0.00
 029400,-0.00056229,-0.00010243,0.00005323,0.00024771,0.00060817,0.0001
 2026,-0.00064057,-0.00013156,0.00050414,-0.00034580,0.00003728,0.00000
 594,0.00006187,-0.00000704,-0.00009456,0.00006507,-0.00016665,0.000009
 06,0.00008716,-0.00015340,-0.00002274,0.00002553,-0.00010508,-0.000053
 31,0.00053818,0.00004781,-0.00003252,-0.00000695,0.00042234,-0.0003169
 0,0.00015158,0.00034029,0.00010456,-0.00041131,-0.00357201,-0.00246179
 ,0.00320031,0.00171781,-0.00127813,-0.00143509,0.12788036,-0.08361684,
 0.12326258,-0.11823926,0.08088397,0.00030883,0.00144323,-0.00138660,-0
 .02166165,0.01191552,-0.03566587,-0.00038150,0.00014630,-0.00126289,0.
 00343152,-0.00417281,-0.00541072,-0.00045855,0.00007229,0.00044839,0.0
 0045153,0.00007152,-0.00006362,-0.00013120,-0.00014752,0.00010977,-0.0
 0001227,-0.00005421,0.00005424,0.00020512,-0.00044029,0.00004206,-0.00
 080111,0.00092655,-0.00110530,0.00000217,0.00002024,-0.00005252,-0.000
 03283,0.00012236,0.00002955,0.00005507,0.00018554,0.00000188,0.0000486
 1,-0.00009125,0.00009846,-0.00004447,0.00035965,0.00002802,0.00001235,
 -0.00008042,0.00009275,-0.00099020,0.00029865,0.00063881,0.00037528,-0
 .00014398,0.00001366,-0.00235666,0.00096738,0.00082236,0.00015806,-0.0
 0048517,0.00022774,-0.19093741,0.09673605,-0.26599265,0.21316536,-0.10
 838749,0.30661125,0.00483588,0.00227617,-0.00386007,-0.04509537,-0.005
 11142,-0.00520723,0.00100640,-0.00108329,-0.00006107,-0.22730560,-0.05
 602226,-0.01835246,0.00135532,-0.00059037,0.00160876,-0.00004288,-0.00
 023529,0.00019134,-0.00020289,-0.00063747,0.00010700,0.00026232,0.0002
 7268,-0.00049005,-0.02921999,-0.01261235,-0.00123002,-0.03293453,-0.00
 781253,0.00162824,-0.00002466,-0.00026571,-0.00012224,-0.00012101,0.00
 022944,0.00003458,0.00172891,-0.00396677,-0.00052230,0.00096287,0.0002
 9186,0.00091342,0.00004795,0.00100179,-0.00014045,-0.00009692,-0.00016
 855,0.00006992,-0.00139832,0.00068117,0.00009301,0.00035616,-0.0001420
 0,-0.00008825,-0.00425369,0.00197703,-0.00303488,0.00008571,-0.0008799
 4,-0.00005650,0.00281933,-0.00071137,-0.00203273,0.00007342,0.00008621
 ,0.00010629,0.47975160,-0.00001410,-0.00027133,0.00228946,0.01385125,0
 .00522305,-0.00092749,-0.00029590,0.00000299,0.00000143,-0.01601837,-0
 .09461219,-0.02198729,0.00045666,0.00300637,-0.00143780,0.00083252,0.0
 0026760,0.00013476,-0.00039362,0.00015170,-0.00009730,0.00005521,-0.00
 020536,0.00008308,-0.04453665,-0.01524749,-0.00528558,0.01091972,0.005
 77316,0.00134837,-0.00001164,0.00003669,0.00013142,0.00009475,-0.00001
 475,0.00001208,-0.00072544,-0.00868420,-0.00154007,0.00014156,0.003086
 74,-0.00006594,0.00024752,-0.00002055,0.00005578,-0.00015288,0.0000880
 0,0.00000382,0.00045244,0.00012073,0.00006583,-0.00007798,-0.00006764,
 0.00001882,0.00103021,0.00001997,0.00059313,-0.00013928,0.00005376,-0.
 00010652,0.00009277,0.00170686,0.00065368,0.00007170,-0.00001619,-0.00
 004029,-0.08494349,0.31983966,0.00196508,0.00179101,-0.00355760,-0.030
 98717,-0.00513859,0.00054067,-0.00003258,-0.00003948,-0.00138493,0.009
 74727,-0.01300467,-0.07855741,0.00089348,-0.00171217,0.00138717,-0.000
 27424,-0.00018888,-0.00001415,-0.00028675,0.00023106,-0.00028197,-0.00
 008129,-0.00029013,0.00057873,-0.00052016,-0.00384711,-0.00071042,0.02
 783990,0.00804491,0.00770314,0.00010079,0.00006977,-0.00004216,-0.0000
 0185,0.00010818,0.00008166,-0.00010907,-0.00003125,0.00157348,0.000275
 08,-0.00144578,0.00046281,-0.00002062,-0.00009805,0.00054179,0.0000196
 9,-0.00002207,0.00000435,-0.00022419,0.00020662,0.00080818,0.00031828,
 -0.00016114,-0.00020719,-0.00288890,0.00110441,-0.00083511,0.00017654,
 -0.00049018,-0.00022053,-0.00042927,-0.00036893,0.00316792,-0.00025466
 ,0.00001315,0.00106975,-0.12704053,0.22074931,0.25489837,-0.00018809,0
 .00014147,-0.00025545,-0.00218056,0.00100392,0.00079362,-0.00004630,-0
 .00002807,0.00026212,-0.03304182,0.02474901,0.02770031,-0.00011745,-0.
 00016072,-0.00005669,-0.00004324,-0.00003633,-0.00000196,-0.00006372,0
 .00005240,-0.00006428,-0.00002349,0.00007748,-0.00008708,-0.00147810,-
 0.00014465,0.00288252,-0.00527043,-0.00158808,-0.00164209,-0.00001844,
 0.00002574,0.00004600,0.00003577,-0.00003416,-0.00000753,0.00028999,0.
 00092740,0.00030024,0.00002504,-0.00025728,-0.00017286,0.00007484,-0.0
 0012948,-0.00000560,-0.00001456,0.00005231,-0.00002041,0.00019294,-0.0
 0007968,-0.00013638,-0.00009555,0.00005438,0.00001918,0.00031873,-0.00
 026260,-0.00002197,-0.00006887,0.00011247,0.00001829,0.00043520,-0.000
 43301,0.00004391,0.00013552,0.00003525,-0.00029119,-0.15830900,0.12406
 839,0.12647812,0.19811430,0.00039925,0.00030719,-0.00004645,0.00057773
 ,-0.00029283,-0.00006942,0.00007777,-0.00009112,0.00005771,-0.00687358
 ,0.00851301,0.00809113,0.00026869,-0.00019663,-0.00003122,-0.00018649,
 -0.00005072,-0.00004121,0.00006071,-0.00004047,-0.00003522,0.00004751,
 0.00007124,-0.00006516,-0.00736109,-0.00001255,0.00349625,-0.00440771,
 -0.00104717,0.00110495,-0.00005604,-0.00001887,-0.00001766,-0.00002395
 ,0.00000913,0.00000565,0.00132469,-0.00021311,-0.00068603,0.00003648,-
 0.00028014,-0.00008460,-0.00009185,0.00003517,0.00001994,0.00004755,-0
 .00002528,-0.00001278,-0.00024922,0.00000700,-0.00004427,0.00003513,0.
 00002799,0.00000574,-0.00037654,-0.00000957,-0.00015352,0.00007815,-0.
 00003442,0.00002539,-0.00043399,-0.00106704,-0.00033704,0.00001705,-0.
 00011757,0.00006695,0.16327112,-0.21815284,-0.20261185,-0.15003260,0.2
 1034416,0.00010216,0.00002114,-0.00067457,-0.00376993,0.00062960,0.001
 72908,0.00012585,0.00001541,0.00001740,0.00028783,0.00296311,0.0005283
 7,-0.00002010,-0.00020391,0.00002664,-0.00000868,-0.00002891,0.0000244
 0,0.00003786,-0.00002556,0.00005930,-0.00000558,-0.00000600,-0.0000006
 4,-0.00227512,-0.00124794,0.00278736,0.00183048,0.00009520,0.00061205,
 0.00000876,-0.00000853,-0.00002378,-0.00000187,-0.00000373,-0.00000962
 ,0.00030574,-0.00082214,-0.00094363,0.00036009,0.00052431,-0.00054758,
 -0.00000391,0.00002171,-0.00007588,-0.00000397,-0.00000307,0.00001621,
 0.00004489,-0.00003339,-0.00004020,-0.00001517,0.00000616,0.00001091,-
 0.00018210,0.00008766,-0.00043154,-0.00003554,0.00001373,0.00003713,0.
 00085613,-0.00045222,-0.00061419,0.00004530,-0.00000656,-0.00018096,0.
 15665162,-0.19431529,-0.18958344,-0.15393536,0.19223830,0.19109702,-0.
 00031986,-0.00114666,0.00027946,0.00025572,-0.00048946,0.00129185,0.00
 041965,-0.00027278,0.00016564,-0.01100709,0.00420530,0.00990690,-0.000
 04999,0.00053996,-0.00023955,0.00065174,0.00027228,0.00042073,-0.00014
 778,-0.00022088,0.00006335,0.00007077,-0.00010736,-0.00029211,-0.14262
 596,0.05369814,0.05238732,0.00112097,0.00094565,-0.00047546,-0.0000101
 4,-0.00004180,-0.00003026,-0.00001834,0.00007674,0.00001296,-0.0253322
 8,0.01780666,0.03496992,0.00562960,-0.00252815,0.00046315,0.00003357,0
 .00041264,-0.00012003,-0.00003394,-0.00005810,0.00001813,-0.00025308,0
 .00031844,-0.00006418,0.00008322,-0.00009726,0.00002865,0.00009420,0.0
 0087064,-0.00047334,-0.00005823,-0.00014025,-0.00009023,0.00020360,0.0
 0395539,-0.00338830,0.00037077,0.00045608,0.00039656,0.00697498,-0.004
 93074,-0.00526321,0.00207750,0.00482914,0.00185163,0.23145171,-0.00106
 869,-0.00046701,-0.00034463,-0.00123204,0.00289280,0.00006641,-0.00044
 675,0.00021471,-0.00003435,0.02404597,-0.01909145,-0.03634775,-0.00020
 212,0.00019149,-0.00005867,0.00019357,0.00012630,-0.00000680,-0.000452
 37,0.00025849,-0.00025191,-0.00014547,-0.00015586,0.00018403,0.0407381
 0,-0.09341093,-0.01503787,-0.00088832,-0.00803228,-0.00043285,0.000169
 32,0.00021249,0.00015747,0.00015056,-0.00005929,0.00001551,0.00132513,
 0.00519222,0.00259630,-0.00871210,0.00765266,0.00748201,0.00032238,-0.
 00042832,0.00022894,-0.00008413,0.00014101,-0.00002379,0.00085160,-0.0
 0005064,0.00005806,-0.00017916,-0.00002776,-0.00001536,0.00110690,-0.0
 0023566,0.00018683,-0.00019509,0.00021461,-0.00006814,0.00636201,-0.00
 601557,0.00798625,-0.00033088,-0.00199814,-0.00128714,0.00488843,-0.00
 021149,-0.00386163,0.00294652,0.00122140,0.00227259,-0.15007164,0.2348
 2689,-0.00049422,0.00086750,-0.00018479,-0.00023799,-0.00203932,-0.007
 80345,-0.00065242,0.00030439,-0.00071037,0.01116357,-0.01512548,-0.013
 06370,0.00016184,-0.00021842,0.00167855,-0.00014952,-0.00006090,-0.000
 37766,-0.00022292,0.00033473,-0.00027292,-0.00013900,-0.00007077,0.000
 40448,0.08254917,-0.04261413,-0.16850800,-0.00022915,-0.00231323,0.001
 31806,0.00012034,0.00013553,0.00006756,0.00005344,-0.00000920,0.000041
 73,0.01164282,-0.00192942,-0.00078832,0.02863272,-0.01548048,-0.032655
 38,0.00011300,-0.00041152,0.00045542,-0.00000798,0.00007353,-0.0000179
 4,0.00028560,-0.00010854,0.00049473,0.00006379,-0.00004709,-0.00014440
 ,-0.00024743,-0.00038733,0.00136676,0.00008758,-0.00011426,-0.00014202
 ,-0.00462303,0.00913284,0.00213860,0.00055438,0.00098548,0.00125038,0.
 00159044,-0.00141071,0.00225492,-0.00049600,0.00109293,-0.00268607,-0.
 00523470,-0.13047367,0.58874364,0.00007793,0.00043256,-0.00007715,-0.0
 0068710,0.00188044,0.00319744,-0.00006306,-0.00007708,0.00030616,0.002
 15049,0.00115306,0.00002819,0.00007082,-0.00032604,-0.00071268,-0.0002
 7008,-0.00013804,0.00008896,0.00011903,0.00000728,-0.00001647,0.000018
 92,0.00002972,-0.00005569,0.00475264,-0.01142709,0.02933470,-0.0002846
 9,0.00012738,-0.00017226,-0.00001704,-0.00000450,0.00001876,0.00001210
 ,-0.00006133,-0.00002463,-0.00025044,-0.00078119,0.00107576,-0.0026277
 3,0.00185934,0.00383390,-0.00000826,-0.00011230,-0.00009549,0.00000935
 ,0.00003029,-0.00001992,0.00014821,-0.00012104,-0.00020347,-0.00011591
 ,0.00008197,0.00005824,0.00022780,-0.00033616,-0.00021925,-0.00005833,
 0.00017822,0.00007092,-0.00120965,-0.00297295,-0.00129345,-0.00069708,
 0.00019811,-0.00061771,-0.00125598,-0.00007462,0.00060026,-0.00074021,
 -0.00097792,-0.00225100,-0.06958133,0.08090828,-0.12428432,0.07027959,
 0.00059240,0.00086224,0.00048359,0.00167393,-0.00294814,-0.00626026,-0
 .00006526,-0.00007175,-0.00055223,-0.00017541,0.00129471,-0.00303532,-
 0.00016680,0.00048456,0.00088528,-0.00016009,-0.00007509,-0.00010508,0
 .00005263,-0.00001818,-0.00004444,-0.00000895,0.00001549,0.00011532,-0
 .00361055,0.00742855,-0.01539093,0.00009335,-0.00039878,0.00068624,-0.
 00002800,-0.00003475,-0.00007666,-0.00006779,0.00006759,0.00003134,0.0
 0149695,-0.00031806,0.00012640,0.00210106,-0.00042243,-0.00331310,-0.0
 0015343,0.00015868,0.00017861,0.00005148,-0.00007649,0.00001902,-0.000
 61279,0.00008493,0.00036299,0.00025287,-0.00003941,-0.00007853,-0.0012
 1832,0.00016798,0.00060910,0.00026152,-0.00032361,-0.00006196,-0.00204
 787,-0.00073031,0.00115295,0.00035062,0.00197942,0.00199832,0.00020692
 ,-0.00187326,0.00099347,-0.00106008,0.00111406,-0.00173166,0.07171800,
 -0.12296067,0.19988754,-0.06947639,0.11663271,0.00024505,-0.00046882,-
 0.00029786,0.00042832,-0.00203852,0.00395649,0.00026142,-0.00005977,0.
 00028941,-0.00031219,-0.00108466,0.00090427,0.00014805,-0.00011604,-0.
 00086126,0.00011152,0.00001563,0.00014008,0.00009178,-0.00011215,0.000
 10198,0.00005794,0.00001949,-0.00014628,-0.00521476,0.01248285,-0.0355
 4387,0.00003455,0.00100163,0.00029454,-0.00003067,-0.00004404,-0.00001
 521,-0.00000900,-0.00000339,-0.00001626,-0.00106001,0.00095681,0.00177
 376,0.00387832,-0.00240864,-0.00147642,-0.00003668,0.00011640,-0.00018
 018,0.00000569,-0.00001838,0.00000797,-0.00002922,0.00001113,-0.000207
 14,-0.00004074,0.00002425,0.00005333,-0.00004439,0.00019998,-0.0005793
 3,-0.00005758,0.00006114,0.00004771,-0.00064534,0.00108586,-0.00740437
 ,-0.00052211,0.00114429,-0.00041794,-0.00075584,0.00107332,0.00032199,
 -0.00134946,-0.00196852,-0.00113380,-0.08658485,0.16701015,-0.37285982
 ,0.09143018,-0.17688001,0.41324823\\0.00001355,-0.00000302,-0.00001194
 ,-0.00002293,0.00000449,-0.00000737,-0.00001932,-0.00001030,0.00002826
 ,0.00000146,0.00000406,0.00002929,0.00000168,-0.00000194,-0.00000154,0
 .00000299,-0.00000047,-0.00000038,0.00000402,0.00000636,-0.00001215,-0
 .00000481,0.00000857,-0.00000401,0.00000384,0.00000204,-0.00001246,0.0
 0000500,0.00000023,-0.00000871,0.00000041,0.00000051,0.00000174,0.0000
 0194,0.00000336,0.00000331,-0.00000368,-0.00000364,0.00000043,-0.00000
 184,0.00000136,0.00000275,0.00000595,0.00000465,0.00000106,-0.00000523
 ,-0.00000359,-0.00000277,0.00001267,-0.00001583,-0.00000320,0.00000119
 ,0.00000740,0.00000487,0.00000118,-0.00000132,-0.00000365,-0.00000052,
 0.00000191,-0.00000133,-0.00000156,-0.00000064,-0.00000605,0.00000086,
 -0.00000177,0.00000195,0.00000323,-0.00000285,-0.00000246,-0.00000124,
 0.00000061,0.00000333,0.00000858,-0.00000626,0.00000742,-0.00000743,0.
 00000605,-0.00000642\\\@
 The archive entry for this job was punched.


 THE CAUTIOUS SELDOM ERR...CONFUCIUS                   
 Job cpu time:       0 days 11 hours 34 minutes 44.7 seconds.
 Elapsed time:       0 days  0 hours 43 minutes 33.3 seconds.
 File lengths (MBytes):  RWF=    704 Int=      0 D2E=      0 Chk=     27 Scr=      1
 Normal termination of Gaussian 16 at Wed Oct 11 15:47:00 2023.
