 Entering Gaussian System, Link 0=/opt/software/gaussian/g16.c01/g16
 Initial command:
 /opt/software/gaussian/g16.c01/l1.exe "/scratch/arhender/13209907/Gau-52435.inp" -scrdir="/scratch/arhender/13209907/"
 Entering Link 1 = /opt/software/gaussian/g16.c01/l1.exe PID=     52436.
  
 Copyright (c) 1988-2019, Gaussian, Inc.  All Rights Reserved.
  
 This is part of the Gaussian(R) 16 program.  It is based on
 the Gaussian(R) 09 system (copyright 2009, Gaussian, Inc.),
 the Gaussian(R) 03 system (copyright 2003, Gaussian, Inc.),
 the Gaussian(R) 98 system (copyright 1998, Gaussian, Inc.),
 the Gaussian(R) 94 system (copyright 1995, Gaussian, Inc.),
 the Gaussian 92(TM) system (copyright 1992, Gaussian, Inc.),
 the Gaussian 90(TM) system (copyright 1990, Gaussian, Inc.),
 the Gaussian 88(TM) system (copyright 1988, Gaussian, Inc.),
 the Gaussian 86(TM) system (copyright 1986, Carnegie Mellon
 University), and the Gaussian 82(TM) system (copyright 1983,
 Carnegie Mellon University). Gaussian is a federally registered
 trademark of Gaussian, Inc.
  
 This software contains proprietary and confidential information,
 including trade secrets, belonging to Gaussian, Inc.
  
 This software is provided under written license and may be
 used, copied, transmitted, or stored only in accord with that
 written license.
  
 The following legend is applicable only to US Government
 contracts under FAR:
  
                    RESTRICTED RIGHTS LEGEND
  
 Use, reproduction and disclosure by the US Government is
 subject to restrictions as set forth in subparagraphs (a)
 and (c) of the Commercial Computer Software - Restricted
 Rights clause in FAR 52.227-19.
  
 Gaussian, Inc.
 340 Quinnipiac St., Bldg. 40, Wallingford CT 06492
  
  
 ---------------------------------------------------------------
 Warning -- This program may not be used in any manner that
 competes with the business of Gaussian, Inc. or will provide
 assistance to any competitor of Gaussian, Inc.  The licensee
 of this program is prohibited from giving any competitor of
 Gaussian, Inc. access to this program.  By using this program,
 the user acknowledges that Gaussian, Inc. is engaged in the
 business of creating and licensing software in the field of
 computational chemistry and represents and warrants to the
 licensee that it is not a competitor of Gaussian, Inc. and that
 it will not use this program in any manner prohibited above.
 ---------------------------------------------------------------
  

 Cite this work as:
 Gaussian 16, Revision C.01,
 M. J. Frisch, G. W. Trucks, H. B. Schlegel, G. E. Scuseria, 
 M. A. Robb, J. R. Cheeseman, G. Scalmani, V. Barone, 
 G. A. Petersson, H. Nakatsuji, X. Li, M. Caricato, A. V. Marenich, 
 J. Bloino, B. G. Janesko, R. Gomperts, B. Mennucci, H. P. Hratchian, 
 J. V. Ortiz, A. F. Izmaylov, J. L. Sonnenberg, D. Williams-Young, 
 F. Ding, F. Lipparini, F. Egidi, J. Goings, B. Peng, A. Petrone, 
 T. Henderson, D. Ranasinghe, V. G. Zakrzewski, J. Gao, N. Rega, 
 G. Zheng, W. Liang, M. Hada, M. Ehara, K. Toyota, R. Fukuda, 
 J. Hasegawa, M. Ishida, T. Nakajima, Y. Honda, O. Kitao, H. Nakai, 
 T. Vreven, K. Throssell, J. A. Montgomery, Jr., J. E. Peralta, 
 F. Ogliaro, M. J. Bearpark, J. J. Heyd, E. N. Brothers, K. N. Kudin, 
 V. N. Staroverov, T. A. Keith, R. Kobayashi, J. Normand, 
 K. Raghavachari, A. P. Rendell, J. C. Burant, S. S. Iyengar, 
 J. Tomasi, M. Cossi, J. M. Millam, M. Klene, C. Adamo, R. Cammi, 
 J. W. Ochterski, R. L. Martin, K. Morokuma, O. Farkas, 
 J. B. Foresman, and D. J. Fox, Gaussian, Inc., Wallingford CT, 2019.
 
 ******************************************
 Gaussian 16:  ES64L-G16RevC.01  3-Jul-2019
                27-Sep-2023 
 ******************************************
 %chk=MannitolConformerOpt_5.chk
 %mem=8GB
 %nprocs=16
 Will use up to   16 processors via shared memory.
 ---------------------------------------------
 # opt freq wb97xd/def2tzvpp geom=connectivity
 ---------------------------------------------
 1/18=20,19=15,26=3,38=1,57=2/1,3;
 2/9=110,12=2,17=6,18=5,40=1/2;
 3/5=44,7=202,11=2,25=1,30=1,71=1,74=-58/1,2,3;
 4//1;
 5/5=2,38=5/2;
 6/7=2,8=2,9=2,10=2,28=1/1;
 7//1,2,3,16;
 1/18=20,19=15,26=3/3(2);
 2/9=110/2;
 99//99;
 2/9=110/2;
 3/5=44,7=202,11=2,25=1,30=1,71=1,74=-58/1,2,3;
 4/5=5,16=3,69=1/1;
 5/5=2,38=5/2;
 7//1,2,3,16;
 1/18=20,19=15,26=3/3(-5);
 2/9=110/2;
 6/7=2,8=2,9=2,10=2,19=2,28=1/1;
 99/9=1/99;
 --------------------------------
 Mannitol Conformer Optimziations
 --------------------------------
 Symbolic Z-matrix:
 Charge =  0 Multiplicity = 1
 C                     0.        0.        0. 
 C                     1.5417    0.        0. 
 C                    -0.6157    0.6383    1.251 
 C                     2.2525   -0.7783    1.1278 
 H                     1.9046    1.0351    0. 
 H                    -0.3642   -1.0269   -0.1195 
 C                    -2.137     0.7906    1.1318 
 H                    -0.1794    1.6286    1.4289 
 C                     1.8417   -2.2516    1.221 
 H                     2.1064   -0.2875    2.0937 
 H                    -2.4138    1.5064    0.3523 
 H                    -2.6135   -0.175     0.9341 
 H                     0.777    -2.3714    1.4338 
 H                     2.4087   -2.7654    2.0047 
 O                    -2.6347    1.2624    2.3906 
 H                    -3.5889    1.4163    2.2678 
 O                    -0.339    -0.1573    2.411 
 H                    -0.9618    0.1845    3.0889 
 O                    -0.4346    0.7163   -1.1705 
 H                     0.2008    0.4704   -1.8753 
 O                     1.9762   -0.5304   -1.2813 
 H                     1.84     -1.5043   -1.2293 
 O                     3.6728   -0.7521    0.8572 
 H                     3.761    -0.6016   -0.106 
 O                     2.1264   -2.91     -0.0205 
 H                     3.0967   -3.0351   -0.0182 
 

 GradGradGradGradGradGradGradGradGradGradGradGradGradGradGradGradGradGrad
 Berny optimization.
 Initialization pass.
                           ----------------------------
                           !    Initial Parameters    !
                           ! (Angstroms and Degrees)  !
 --------------------------                            --------------------------
 ! Name  Definition              Value          Derivative Info.                !
 --------------------------------------------------------------------------------
 ! R1    R(1,2)                  1.5417         estimate D2E/DX2                !
 ! R2    R(1,3)                  1.5335         estimate D2E/DX2                !
 ! R3    R(1,6)                  1.0961         estimate D2E/DX2                !
 ! R4    R(1,19)                 1.4395         estimate D2E/DX2                !
 ! R5    R(2,4)                  1.5437         estimate D2E/DX2                !
 ! R6    R(2,5)                  1.0969         estimate D2E/DX2                !
 ! R7    R(2,21)                 1.4532         estimate D2E/DX2                !
 ! R8    R(3,7)                  1.5335         estimate D2E/DX2                !
 ! R9    R(3,8)                  1.0967         estimate D2E/DX2                !
 ! R10   R(3,17)                 1.4336         estimate D2E/DX2                !
 ! R11   R(4,9)                  1.5323         estimate D2E/DX2                !
 ! R12   R(4,10)                 1.0932         estimate D2E/DX2                !
 ! R13   R(4,23)                 1.4461         estimate D2E/DX2                !
 ! R14   R(7,11)                 1.0939         estimate D2E/DX2                !
 ! R15   R(7,12)                 1.0948         estimate D2E/DX2                !
 ! R16   R(7,15)                 1.4335         estimate D2E/DX2                !
 ! R17   R(9,13)                 1.0923         estimate D2E/DX2                !
 ! R18   R(9,14)                 1.0953         estimate D2E/DX2                !
 ! R19   R(9,25)                 1.4338         estimate D2E/DX2                !
 ! R20   R(15,16)                0.9743         estimate D2E/DX2                !
 ! R21   R(17,18)                0.982          estimate D2E/DX2                !
 ! R22   R(19,20)                0.9803         estimate D2E/DX2                !
 ! R23   R(21,22)                0.9848         estimate D2E/DX2                !
 ! R24   R(23,24)                0.9789         estimate D2E/DX2                !
 ! R25   R(25,26)                0.9783         estimate D2E/DX2                !
 ! A1    A(2,1,3)              113.6726         estimate D2E/DX2                !
 ! A2    A(2,1,6)              109.4065         estimate D2E/DX2                !
 ! A3    A(2,1,19)             107.5729         estimate D2E/DX2                !
 ! A4    A(3,1,6)              110.2122         estimate D2E/DX2                !
 ! A5    A(3,1,19)             109.5735         estimate D2E/DX2                !
 ! A6    A(6,1,19)             106.095          estimate D2E/DX2                !
 ! A7    A(1,2,4)              117.4168         estimate D2E/DX2                !
 ! A8    A(1,2,5)              109.3204         estimate D2E/DX2                !
 ! A9    A(1,2,21)             107.397          estimate D2E/DX2                !
 ! A10   A(4,2,5)              108.8717         estimate D2E/DX2                !
 ! A11   A(4,2,21)             108.8124         estimate D2E/DX2                !
 ! A12   A(5,2,21)             104.2118         estimate D2E/DX2                !
 ! A13   A(1,3,7)              112.1004         estimate D2E/DX2                !
 ! A14   A(1,3,8)              110.3939         estimate D2E/DX2                !
 ! A15   A(1,3,17)             110.586          estimate D2E/DX2                !
 ! A16   A(7,3,8)              108.5173         estimate D2E/DX2                !
 ! A17   A(7,3,17)             108.0281         estimate D2E/DX2                !
 ! A18   A(8,3,17)             107.0433         estimate D2E/DX2                !
 ! A19   A(2,4,9)              113.9385         estimate D2E/DX2                !
 ! A20   A(2,4,10)             110.9533         estimate D2E/DX2                !
 ! A21   A(2,4,23)             107.8425         estimate D2E/DX2                !
 ! A22   A(9,4,10)             110.0035         estimate D2E/DX2                !
 ! A23   A(9,4,23)             106.9842         estimate D2E/DX2                !
 ! A24   A(10,4,23)            106.7652         estimate D2E/DX2                !
 ! A25   A(3,7,11)             111.8017         estimate D2E/DX2                !
 ! A26   A(3,7,12)             110.9908         estimate D2E/DX2                !
 ! A27   A(3,7,15)             107.9902         estimate D2E/DX2                !
 ! A28   A(11,7,12)            109.7753         estimate D2E/DX2                !
 ! A29   A(11,7,15)            108.8161         estimate D2E/DX2                !
 ! A30   A(12,7,15)            107.3229         estimate D2E/DX2                !
 ! A31   A(4,9,13)             112.2468         estimate D2E/DX2                !
 ! A32   A(4,9,14)             110.8403         estimate D2E/DX2                !
 ! A33   A(4,9,25)             109.6093         estimate D2E/DX2                !
 ! A34   A(13,9,14)            108.2842         estimate D2E/DX2                !
 ! A35   A(13,9,25)            108.1709         estimate D2E/DX2                !
 ! A36   A(14,9,25)            107.5385         estimate D2E/DX2                !
 ! A37   A(7,15,16)            106.3403         estimate D2E/DX2                !
 ! A38   A(3,17,18)            104.0646         estimate D2E/DX2                !
 ! A39   A(1,19,20)            105.3144         estimate D2E/DX2                !
 ! A40   A(2,21,22)            105.8458         estimate D2E/DX2                !
 ! A41   A(4,23,24)            105.9867         estimate D2E/DX2                !
 ! A42   A(9,25,26)            104.6912         estimate D2E/DX2                !
 ! D1    D(3,1,2,4)             61.6419         estimate D2E/DX2                !
 ! D2    D(3,1,2,5)            -62.9679         estimate D2E/DX2                !
 ! D3    D(3,1,2,21)          -175.4552         estimate D2E/DX2                !
 ! D4    D(6,1,2,4)            -62.0279         estimate D2E/DX2                !
 ! D5    D(6,1,2,5)            173.3624         estimate D2E/DX2                !
 ! D6    D(6,1,2,21)            60.875          estimate D2E/DX2                !
 ! D7    D(19,1,2,4)          -176.8553         estimate D2E/DX2                !
 ! D8    D(19,1,2,5)            58.535          estimate D2E/DX2                !
 ! D9    D(19,1,2,21)          -53.9523         estimate D2E/DX2                !
 ! D10   D(2,1,3,7)            172.322          estimate D2E/DX2                !
 ! D11   D(2,1,3,8)             51.2132         estimate D2E/DX2                !
 ! D12   D(2,1,3,17)           -67.059          estimate D2E/DX2                !
 ! D13   D(6,1,3,7)            -64.4476         estimate D2E/DX2                !
 ! D14   D(6,1,3,8)            174.4436         estimate D2E/DX2                !
 ! D15   D(6,1,3,17)            56.1714         estimate D2E/DX2                !
 ! D16   D(19,1,3,7)            51.9405         estimate D2E/DX2                !
 ! D17   D(19,1,3,8)           -69.1683         estimate D2E/DX2                !
 ! D18   D(19,1,3,17)          172.5595         estimate D2E/DX2                !
 ! D19   D(2,1,19,20)           37.6581         estimate D2E/DX2                !
 ! D20   D(3,1,19,20)          161.6863         estimate D2E/DX2                !
 ! D21   D(6,1,19,20)          -79.3509         estimate D2E/DX2                !
 ! D22   D(1,2,4,9)             55.8947         estimate D2E/DX2                !
 ! D23   D(1,2,4,10)           -68.9094         estimate D2E/DX2                !
 ! D24   D(1,2,4,23)           174.4917         estimate D2E/DX2                !
 ! D25   D(5,2,4,9)           -179.2714         estimate D2E/DX2                !
 ! D26   D(5,2,4,10)            55.9244         estimate D2E/DX2                !
 ! D27   D(5,2,4,23)           -60.6744         estimate D2E/DX2                !
 ! D28   D(21,2,4,9)           -66.283          estimate D2E/DX2                !
 ! D29   D(21,2,4,10)          168.9129         estimate D2E/DX2                !
 ! D30   D(21,2,4,23)           52.3141         estimate D2E/DX2                !
 ! D31   D(1,2,21,22)          -76.1373         estimate D2E/DX2                !
 ! D32   D(4,2,21,22)           51.9242         estimate D2E/DX2                !
 ! D33   D(5,2,21,22)          167.9496         estimate D2E/DX2                !
 ! D34   D(1,3,7,11)           -66.2046         estimate D2E/DX2                !
 ! D35   D(1,3,7,12)            56.736          estimate D2E/DX2                !
 ! D36   D(1,3,7,15)           174.1171         estimate D2E/DX2                !
 ! D37   D(8,3,7,11)            55.9798         estimate D2E/DX2                !
 ! D38   D(8,3,7,12)           178.9204         estimate D2E/DX2                !
 ! D39   D(8,3,7,15)           -63.6984         estimate D2E/DX2                !
 ! D40   D(17,3,7,11)          171.7055         estimate D2E/DX2                !
 ! D41   D(17,3,7,12)          -65.3539         estimate D2E/DX2                !
 ! D42   D(17,3,7,15)           52.0273         estimate D2E/DX2                !
 ! D43   D(1,3,17,18)         -165.0339         estimate D2E/DX2                !
 ! D44   D(7,3,17,18)          -42.017          estimate D2E/DX2                !
 ! D45   D(8,3,17,18)           74.6691         estimate D2E/DX2                !
 ! D46   D(2,4,9,13)           -61.4112         estimate D2E/DX2                !
 ! D47   D(2,4,9,14)           177.3636         estimate D2E/DX2                !
 ! D48   D(2,4,9,25)            58.8144         estimate D2E/DX2                !
 ! D49   D(10,4,9,13)           63.8984         estimate D2E/DX2                !
 ! D50   D(10,4,9,14)          -57.3268         estimate D2E/DX2                !
 ! D51   D(10,4,9,25)         -175.8759         estimate D2E/DX2                !
 ! D52   D(23,4,9,13)          179.5029         estimate D2E/DX2                !
 ! D53   D(23,4,9,14)           58.2777         estimate D2E/DX2                !
 ! D54   D(23,4,9,25)          -60.2715         estimate D2E/DX2                !
 ! D55   D(2,4,23,24)          -23.4801         estimate D2E/DX2                !
 ! D56   D(9,4,23,24)           99.4769         estimate D2E/DX2                !
 ! D57   D(10,4,23,24)        -142.7762         estimate D2E/DX2                !
 ! D58   D(3,7,15,16)          175.7143         estimate D2E/DX2                !
 ! D59   D(11,7,15,16)          54.1684         estimate D2E/DX2                !
 ! D60   D(12,7,15,16)         -64.5624         estimate D2E/DX2                !
 ! D61   D(4,9,25,26)           75.5154         estimate D2E/DX2                !
 ! D62   D(13,9,25,26)        -161.8054         estimate D2E/DX2                !
 ! D63   D(14,9,25,26)         -45.0601         estimate D2E/DX2                !
 --------------------------------------------------------------------------------
 Trust Radius=3.00D-01 FncErr=1.00D-07 GrdErr=1.00D-06 EigMax=2.50D+02 EigMin=1.00D-04
 Number of steps in this run=    140 maximum allowed number of steps=    156.
 GradGradGradGradGradGradGradGradGradGradGradGradGradGradGradGradGradGrad

                          Input orientation:                          
 ---------------------------------------------------------------------
 Center     Atomic      Atomic             Coordinates (Angstroms)
 Number     Number       Type             X           Y           Z
 ---------------------------------------------------------------------
      1          6           0        0.000000    0.000000    0.000000
      2          6           0        1.541700    0.000000    0.000000
      3          6           0       -0.615700    0.638300    1.251000
      4          6           0        2.252500   -0.778300    1.127800
      5          1           0        1.904600    1.035100    0.000000
      6          1           0       -0.364200   -1.026900   -0.119500
      7          6           0       -2.137000    0.790600    1.131800
      8          1           0       -0.179400    1.628600    1.428900
      9          6           0        1.841700   -2.251600    1.221000
     10          1           0        2.106400   -0.287500    2.093700
     11          1           0       -2.413800    1.506400    0.352300
     12          1           0       -2.613500   -0.175000    0.934100
     13          1           0        0.777000   -2.371400    1.433800
     14          1           0        2.408700   -2.765400    2.004700
     15          8           0       -2.634700    1.262400    2.390600
     16          1           0       -3.588900    1.416300    2.267800
     17          8           0       -0.339000   -0.157300    2.411000
     18          1           0       -0.961800    0.184500    3.088900
     19          8           0       -0.434600    0.716300   -1.170500
     20          1           0        0.200800    0.470400   -1.875300
     21          8           0        1.976200   -0.530400   -1.281300
     22          1           0        1.840000   -1.504300   -1.229300
     23          8           0        3.672800   -0.752100    0.857200
     24          1           0        3.761000   -0.601600   -0.106000
     25          8           0        2.126400   -2.910000   -0.020500
     26          1           0        3.096700   -3.035100   -0.018200
 ---------------------------------------------------------------------
                    Distance matrix (angstroms):
                    1          2          3          4          5
     1  C    0.000000
     2  C    1.541700   0.000000
     3  C    1.533465   2.574258   0.000000
     4  C    2.636558   1.543671   3.201329   0.000000
     5  H    2.167702   1.096872   2.841542   2.163651   0.000000
     6  H    1.096105   2.168239   2.171270   2.909412   3.068155
     7  C    2.544168   3.929231   1.533544   4.661456   4.204198
     8  H    2.174000   2.766998   1.096677   3.434817   2.595583
     9  C    3.154743   2.578865   3.793578   1.532337   3.506736
    10  H    2.983816   2.187492   2.996177   1.093249   2.484668
    11  H    2.867017   4.247274   2.189617   5.253152   4.358304
    12  H    2.780926   4.262494   2.180158   4.907081   4.769708
    13  H    2.878029   2.874732   3.321344   2.192876   3.864131
    14  H    4.179485   3.523911   4.615218   2.177595   4.326285
    15  O    3.774952   4.975032   2.400948   5.444616   5.135356
    16  H    4.475380   5.785489   3.237141   6.343329   5.955399
    17  O    2.439792   3.061813   1.433577   2.957721   3.502639
    18  H    3.240432   3.980308   1.924473   3.886466   4.298962
    19  O    1.439456   2.406017   2.429515   3.838817   2.635064
    20  H    1.943797   2.352879   3.235524   3.845430   2.595876
    21  O    2.414212   1.453219   3.807407   2.437531   2.024264
    22  H    2.675761   1.965472   4.095496   2.500630   2.822039
    23  O    3.845765   2.417030   4.525431   1.446085   2.656202
    24  H    3.810286   2.301836   4.747031   1.956798   2.477144
    25  O    3.604178   2.968231   4.661143   2.424590   3.951383
    26  H    4.336094   3.410306   5.374630   2.668171   4.241222
                    6          7          8          9         10
     6  H    0.000000
     7  C    2.830526   0.000000
     8  H    3.079509   2.150049   0.000000
     9  C    2.857066   5.009290   4.379957   0.000000
    10  H    3.398357   4.482633   3.055860   2.165493   0.000000
    11  H    3.292577   1.093896   2.483253   5.743386   5.165536
    12  H    2.625863   1.094770   3.069632   4.923757   4.861562
    13  H    2.350055   4.310550   4.112752   1.092347   2.558400
    14  H    3.901741   5.836992   5.131963   1.095292   2.497858
    15  O    4.086155   1.433485   2.662230   5.809847   4.996836
    16  H    4.697565   1.946795   3.517601   6.636317   5.947242
    17  O    2.675868   2.401598   2.044366   3.249253   2.469334
    18  H    3.481156   2.361926   2.335203   4.157312   3.259917
    19  O    2.036738   2.864310   2.766640   4.439509   4.256677
    20  H    2.375703   3.822367   3.521891   4.437219   4.467514
    21  O    2.659655   4.948384   4.080818   3.040086   3.386234
    22  H    2.513576   5.163128   4.578107   2.561724   3.548789
    23  O    4.162551   6.017400   4.564430   2.394531   2.048998
    24  H    4.147088   6.185206   4.780843   2.857821   2.770386
    25  O    3.123933   5.761841   5.293049   1.433829   3.368642
    26  H    4.002619   6.584079   5.880223   1.929900   3.604181
                   11         12         13         14         15
    11  H    0.000000
    12  H    1.790385   0.000000
    13  H    5.136943   4.070548   0.000000
    14  H    6.650955   5.751422   1.773022   0.000000
    15  O    2.064703   2.046451   5.075398   6.465909   0.000000
    16  H    2.249026   2.293991   5.839804   7.316218   0.974301
    17  O    3.363174   2.711991   2.665073   3.810134   2.699297
    18  H    3.368190   2.738707   3.506481   4.608435   2.109049
    19  O    2.619239   3.157746   4.217137   5.503498   4.221386
    20  H    3.587706   4.028592   4.399770   5.513585   5.183168
    21  O    5.107769   5.108782   3.492725   3.997509   6.160956
    22  H    5.446153   5.126500   2.995652   3.517463   6.386019
    23  O    6.511716   6.313202   3.367530   2.639712   6.796623
    24  H    6.540784   6.472870   3.795712   3.311465   7.114245
    25  O    6.344839   5.555010   2.055714   2.049887   6.774245
    26  H    7.150392   6.457045   2.815992   2.153650   7.557762
                   16         17         18         19         20
    16  H    0.000000
    17  O    3.613665   0.000000
    18  H    3.015492   0.981965   0.000000
    19  O    4.718211   3.687744   4.324724   0.000000
    20  H    5.694017   4.365519   5.106531   0.980277   0.000000
    21  O    6.881576   4.374064   5.314280   2.716338   2.122848
    22  H    7.087494   4.451318   5.417470   3.179360   2.646457
    23  O    7.708699   4.343112   5.228501   4.810250   4.584304
    24  H    7.982974   4.831427   5.755882   4.524719   4.117600
    25  O    7.524483   4.423545   5.364819   4.585987   4.309910
    26  H    8.350928   5.097723   6.040804   5.279288   4.911577
                   21         22         23         24         25
    21  O    0.000000
    22  H    0.984752   0.000000
    23  O    2.738756   2.877228   0.000000
    24  H    2.138203   2.401439   0.978869   0.000000
    25  O    2.697160   1.875957   2.796112   2.829830   0.000000
    26  H    3.020673   2.321510   2.512032   2.524069   0.978334
                   26
    26  H    0.000000
 Stoichiometry    C6H14O6
 Framework group  C1[X(C6H14O6)]
 Deg. of freedom    72
 Full point group                 C1      NOp   1
 Largest Abelian subgroup         C1      NOp   1
 Largest concise Abelian subgroup C1      NOp   1
                         Standard orientation:                         
 ---------------------------------------------------------------------
 Center     Atomic      Atomic             Coordinates (Angstroms)
 Number     Number       Type             X           Y           Z
 ---------------------------------------------------------------------
      1          6           0        0.501284    0.782344    0.197136
      2          6           0       -0.812394    0.654330   -0.599545
      3          6           0        1.633480   -0.103952   -0.335897
      4          6           0       -1.491736   -0.731437   -0.632187
      5          1           0       -0.646484    0.992471   -1.629721
      6          1           0        0.310197    0.558467    1.252982
      7          6           0        2.969712    0.187515    0.357854
      8          1           0        1.761015    0.046554   -1.414685
      9          6           0       -1.794540   -1.308264    0.754766
     10          1           0       -0.899079   -1.443814   -1.212247
     11          1           0        3.338136    1.190785    0.124786
     12          1           0        2.882790    0.067567    1.442556
     13          1           0       -0.888795   -1.460570    1.346078
     14          1           0       -2.316463   -2.267672    0.672316
     15          8           0        3.926895   -0.775079   -0.102681
     16          1           0        4.779731   -0.526780    0.297670
     17          8           0        1.324189   -1.489802   -0.138666
     18          1           0        2.182228   -1.947518   -0.274757
     19          8           0        0.906081    2.162866    0.148839
     20          1           0        0.074562    2.678696    0.207481
     21          8           0       -1.748281    1.622267   -0.052684
     22          1           0       -2.066193    1.238670    0.796740
     23          8           0       -2.757986   -0.588156   -1.315740
     24          1           0       -3.006255    0.354681   -1.228540
     25          8           0       -2.651530   -0.410478    1.472689
     26          1           0       -3.535165   -0.537697    1.072513
 ---------------------------------------------------------------------
 Rotational constants (GHZ):           1.5134460           0.5224762           0.4574446
 Standard basis: def2TZVPP (5D, 7F)
 There are   642 symmetry adapted cartesian basis functions of A   symmetry.
 There are   568 symmetry adapted basis functions of A   symmetry.
   568 basis functions,   850 primitive gaussians,   642 cartesian basis functions
    49 alpha electrons       49 beta electrons
       nuclear repulsion energy       829.4631131807 Hartrees.
 NAtoms=   26 NActive=   26 NUniq=   26 SFac= 1.00D+00 NAtFMM=   60 NAOKFM=F Big=F
 Integral buffers will be    131072 words long.
 Raffenetti 2 integral format.
 Two-electron integral symmetry is turned on.
 Nuclear repulsion after empirical dispersion term =      829.4443513797 Hartrees.
 One-electron integrals computed using PRISM.
   1 Symmetry operations used in ECPInt.
 ECPInt:  NShTT=   23436 NPrTT=   62434 LenC2=   21785 LenP2D=   45327.
 LDataN:  DoStor=T MaxTD1= 6 Len=  172
 NBasis=   568 RedAO= T EigKep=  3.95D-05  NBF=   568
 NBsUse=   568 1.00D-06 EigRej= -1.00D+00 NBFU=   568
 ExpMin= 9.52D-02 ExpMax= 2.70D+04 ExpMxC= 9.22D+02 IAcc=3 IRadAn=         5 AccDes= 0.00D+00
 Harris functional with IExCor= 4639 and IRadAn=       5 diagonalized for initial guess.
 HarFok:  IExCor= 4639 AccDes= 0.00D+00 IRadAn=         5 IDoV= 1 UseB2=F ITyADJ=14
 ICtDFT=  3500011 ScaDFX=  1.000000  1.000000  1.000000  1.000000
 FoFCou: FMM=F IPFlag=           0 FMFlag=      100000 FMFlg1=           0
         NFxFlg=           0 DoJE=T BraDBF=F KetDBF=T FulRan=T
         wScrn=  0.000000 ICntrl=       500 IOpCl=  0 I1Cent=   200000004 NGrid=           0
         NMat0=    1 NMatS0=      1 NMatT0=    0 NMatD0=    1 NMtDS0=    0 NMtDT0=    0
 Petite list used in FoFCou.
 Requested convergence on RMS density matrix=1.00D-08 within 128 cycles.
 Requested convergence on MAX density matrix=1.00D-06.
 Requested convergence on             energy=1.00D-06.
 No special actions if energy rises.
 Integral accuracy reduced to 1.0D-05 until final iterations.
 Initial convergence to 1.0D-05 achieved.  Increase integral accuracy.
 SCF Done:  E(RwB97XD) =  -688.471941832     A.U. after   14 cycles
            NFock= 14  Conv=0.23D-08     -V/T= 2.0050

 **********************************************************************

            Population analysis using the SCF Density.

 **********************************************************************

 Orbital symmetries:
       Occupied  (A) (A) (A) (A) (A) (A) (A) (A) (A) (A) (A) (A)
                 (A) (A) (A) (A) (A) (A) (A) (A) (A) (A) (A) (A)
                 (A) (A) (A) (A) (A) (A) (A) (A) (A) (A) (A) (A)
                 (A) (A) (A) (A) (A) (A) (A) (A) (A) (A) (A) (A)
                 (A)
       Virtual   (A) (A) (A) (A) (A) (A) (A) (A) (A) (A) (A) (A)
                 (A) (A) (A) (A) (A) (A) (A) (A) (A) (A) (A) (A)
                 (A) (A) (A) (A) (A) (A) (A) (A) (A) (A) (A) (A)
                 (A) (A) (A) (A) (A) (A) (A) (A) (A) (A) (A) (A)
                 (A) (A) (A) (A) (A) (A) (A) (A) (A) (A) (A) (A)
                 (A) (A) (A) (A) (A) (A) (A) (A) (A) (A) (A) (A)
                 (A) (A) (A) (A) (A) (A) (A) (A) (A) (A) (A) (A)
                 (A) (A) (A) (A) (A) (A) (A) (A) (A) (A) (A) (A)
                 (A) (A) (A) (A) (A) (A) (A) (A) (A) (A) (A) (A)
                 (A) (A) (A) (A) (A) (A) (A) (A) (A) (A) (A) (A)
                 (A) (A) (A) (A) (A) (A) (A) (A) (A) (A) (A) (A)
                 (A) (A) (A) (A) (A) (A) (A) (A) (A) (A) (A) (A)
                 (A) (A) (A) (A) (A) (A) (A) (A) (A) (A) (A) (A)
                 (A) (A) (A) (A) (A) (A) (A) (A) (A) (A) (A) (A)
                 (A) (A) (A) (A) (A) (A) (A) (A) (A) (A) (A) (A)
                 (A) (A) (A) (A) (A) (A) (A) (A) (A) (A) (A) (A)
                 (A) (A) (A) (A) (A) (A) (A) (A) (A) (A) (A) (A)
                 (A) (A) (A) (A) (A) (A) (A) (A) (A) (A) (A) (A)
                 (A) (A) (A) (A) (A) (A) (A) (A) (A) (A) (A) (A)
                 (A) (A) (A) (A) (A) (A) (A) (A) (A) (A) (A) (A)
                 (A) (A) (A) (A) (A) (A) (A) (A) (A) (A) (A) (A)
                 (A) (A) (A) (A) (A) (A) (A) (A) (A) (A) (A) (A)
                 (A) (A) (A) (A) (A) (A) (A) (A) (A) (A) (A) (A)
                 (A) (A) (A) (A) (A) (A) (A) (A) (A) (A) (A) (A)
                 (A) (A) (A) (A) (A) (A) (A) (A) (A) (A) (A) (A)
                 (A) (A) (A) (A) (A) (A) (A) (A) (A) (A) (A) (A)
                 (A) (A) (A) (A) (A) (A) (A) (A) (A) (A) (A) (A)
                 (A) (A) (A) (A) (A) (A) (A) (A) (A) (A) (A) (A)
                 (A) (A) (A) (A) (A) (A) (A) (A) (A) (A) (A) (A)
                 (A) (A) (A) (A) (A) (A) (A) (A) (A) (A) (A) (A)
                 (A) (A) (A) (A) (A) (A) (A) (A) (A) (A) (A) (A)
                 (A) (A) (A) (A) (A) (A) (A) (A) (A) (A) (A) (A)
                 (A) (A) (A) (A) (A) (A) (A) (A) (A) (A) (A) (A)
                 (A) (A) (A) (A) (A) (A) (A) (A) (A) (A) (A) (A)
                 (A) (A) (A) (A) (A) (A) (A) (A) (A) (A) (A) (A)
                 (A) (A) (A) (A) (A) (A) (A) (A) (A) (A) (A) (A)
                 (A) (A) (A) (A) (A) (A) (A) (A) (A) (A) (A) (A)
                 (A) (A) (A) (A) (A) (A) (A) (A) (A) (A) (A) (A)
                 (A) (A) (A) (A) (A) (A) (A) (A) (A) (A) (A) (A)
                 (A) (A) (A) (A) (A) (A) (A) (A) (A) (A) (A) (A)
                 (A) (A) (A) (A) (A) (A) (A) (A) (A) (A) (A) (A)
                 (A) (A) (A) (A) (A) (A) (A) (A) (A) (A) (A) (A)
                 (A) (A) (A) (A) (A) (A) (A) (A) (A) (A) (A) (A)
                 (A) (A) (A)
 The electronic state is 1-A.
 Alpha  occ. eigenvalues --  -19.27008 -19.26774 -19.26004 -19.25732 -19.25106
 Alpha  occ. eigenvalues --  -19.24919 -10.34948 -10.34902 -10.34881 -10.34064
 Alpha  occ. eigenvalues --  -10.33863 -10.33532  -1.15754  -1.14820  -1.13374
 Alpha  occ. eigenvalues --   -1.11940  -1.11478  -1.10204  -0.88560  -0.85164
 Alpha  occ. eigenvalues --   -0.80301  -0.75115  -0.70603  -0.68581  -0.63509
 Alpha  occ. eigenvalues --   -0.62693  -0.62040  -0.59422  -0.59287  -0.57902
 Alpha  occ. eigenvalues --   -0.55765  -0.55222  -0.53065  -0.51805  -0.50831
 Alpha  occ. eigenvalues --   -0.49836  -0.48877  -0.47032  -0.45982  -0.45367
 Alpha  occ. eigenvalues --   -0.44842  -0.41890  -0.41471  -0.39003  -0.38721
 Alpha  occ. eigenvalues --   -0.38021  -0.36954  -0.36202  -0.35190
 Alpha virt. eigenvalues --    0.08935   0.09708   0.12294   0.13219   0.13495
 Alpha virt. eigenvalues --    0.15471   0.16315   0.16706   0.17536   0.18532
 Alpha virt. eigenvalues --    0.19505   0.20031   0.20511   0.21464   0.21926
 Alpha virt. eigenvalues --    0.22109   0.24003   0.24549   0.25981   0.26827
 Alpha virt. eigenvalues --    0.27710   0.29265   0.31108   0.31449   0.32553
 Alpha virt. eigenvalues --    0.34800   0.36170   0.36762   0.37408   0.38279
 Alpha virt. eigenvalues --    0.38801   0.39696   0.40511   0.41039   0.41883
 Alpha virt. eigenvalues --    0.42372   0.43238   0.43526   0.44164   0.44782
 Alpha virt. eigenvalues --    0.45280   0.46591   0.47082   0.47256   0.47799
 Alpha virt. eigenvalues --    0.48551   0.49307   0.49921   0.50872   0.50971
 Alpha virt. eigenvalues --    0.51237   0.52320   0.52923   0.53430   0.54644
 Alpha virt. eigenvalues --    0.55723   0.56408   0.57903   0.58481   0.58766
 Alpha virt. eigenvalues --    0.60403   0.60593   0.61719   0.62638   0.63792
 Alpha virt. eigenvalues --    0.65446   0.65937   0.66897   0.67285   0.68879
 Alpha virt. eigenvalues --    0.69534   0.70824   0.71084   0.72793   0.73759
 Alpha virt. eigenvalues --    0.75172   0.75524   0.77139   0.78388   0.80269
 Alpha virt. eigenvalues --    0.81380   0.83359   0.83624   0.84626   0.86039
 Alpha virt. eigenvalues --    0.86396   0.88458   0.88989   0.90097   0.92022
 Alpha virt. eigenvalues --    0.93032   0.94047   0.94741   0.95316   0.96180
 Alpha virt. eigenvalues --    0.97112   0.98673   0.99446   1.00283   1.00808
 Alpha virt. eigenvalues --    1.02479   1.03075   1.05331   1.06662   1.07432
 Alpha virt. eigenvalues --    1.08914   1.09131   1.09711   1.11994   1.12550
 Alpha virt. eigenvalues --    1.14647   1.15516   1.16212   1.16629   1.17176
 Alpha virt. eigenvalues --    1.20050   1.20805   1.21912   1.23015   1.23982
 Alpha virt. eigenvalues --    1.25045   1.26568   1.27895   1.28038   1.29664
 Alpha virt. eigenvalues --    1.31933   1.31988   1.33257   1.33877   1.34832
 Alpha virt. eigenvalues --    1.35591   1.37398   1.38460   1.38961   1.40683
 Alpha virt. eigenvalues --    1.42182   1.43595   1.44145   1.46030   1.46643
 Alpha virt. eigenvalues --    1.47694   1.48640   1.49818   1.51082   1.52059
 Alpha virt. eigenvalues --    1.52647   1.53344   1.56417   1.56623   1.57611
 Alpha virt. eigenvalues --    1.58726   1.60593   1.62443   1.62606   1.64859
 Alpha virt. eigenvalues --    1.65219   1.66829   1.69420   1.70537   1.71884
 Alpha virt. eigenvalues --    1.74467   1.76805   1.79939   1.81611   1.83208
 Alpha virt. eigenvalues --    1.87699   1.89951   1.90904   1.91066   1.93613
 Alpha virt. eigenvalues --    1.94815   1.95592   1.97485   1.98476   1.99169
 Alpha virt. eigenvalues --    2.00745   2.02205   2.03219   2.03912   2.04404
 Alpha virt. eigenvalues --    2.05674   2.06930   2.08146   2.09475   2.11160
 Alpha virt. eigenvalues --    2.11509   2.13779   2.14247   2.16848   2.17889
 Alpha virt. eigenvalues --    2.18175   2.21425   2.22574   2.24765   2.25424
 Alpha virt. eigenvalues --    2.26096   2.27638   2.29493   2.30337   2.31357
 Alpha virt. eigenvalues --    2.32883   2.35785   2.38134   2.40077   2.43550
 Alpha virt. eigenvalues --    2.43780   2.47649   2.48479   2.49829   2.52337
 Alpha virt. eigenvalues --    2.56066   2.58416   2.60327   2.62106   2.63754
 Alpha virt. eigenvalues --    2.65706   2.67850   2.69386   2.70610   2.72973
 Alpha virt. eigenvalues --    2.73731   2.75132   2.75816   2.77118   2.77744
 Alpha virt. eigenvalues --    2.78795   2.79350   2.80645   2.81936   2.83213
 Alpha virt. eigenvalues --    2.85474   2.88025   2.89454   2.90149   2.92548
 Alpha virt. eigenvalues --    2.93891   2.95376   2.96123   2.97719   2.98090
 Alpha virt. eigenvalues --    3.00187   3.01186   3.02343   3.03356   3.05060
 Alpha virt. eigenvalues --    3.06781   3.07206   3.08907   3.10110   3.11638
 Alpha virt. eigenvalues --    3.12281   3.13875   3.14084   3.14808   3.15722
 Alpha virt. eigenvalues --    3.17467   3.18488   3.18963   3.21203   3.22796
 Alpha virt. eigenvalues --    3.23046   3.23770   3.24418   3.25336   3.26787
 Alpha virt. eigenvalues --    3.27627   3.29105   3.29842   3.31840   3.33438
 Alpha virt. eigenvalues --    3.34055   3.35251   3.35437   3.36989   3.37903
 Alpha virt. eigenvalues --    3.38171   3.39406   3.40256   3.42132   3.42672
 Alpha virt. eigenvalues --    3.44356   3.44496   3.46153   3.47284   3.48550
 Alpha virt. eigenvalues --    3.49737   3.50500   3.50938   3.51714   3.53474
 Alpha virt. eigenvalues --    3.54685   3.56112   3.56339   3.58685   3.59196
 Alpha virt. eigenvalues --    3.60494   3.63016   3.64213   3.64624   3.65569
 Alpha virt. eigenvalues --    3.67079   3.69328   3.70368   3.70865   3.71537
 Alpha virt. eigenvalues --    3.73240   3.74570   3.75791   3.76681   3.77253
 Alpha virt. eigenvalues --    3.79765   3.80397   3.81834   3.82455   3.83298
 Alpha virt. eigenvalues --    3.84313   3.86566   3.87207   3.88392   3.89220
 Alpha virt. eigenvalues --    3.91124   3.92272   3.93125   3.95237   3.96988
 Alpha virt. eigenvalues --    3.97745   3.98449   3.99181   4.00424   4.01066
 Alpha virt. eigenvalues --    4.01659   4.03727   4.04107   4.05651   4.05982
 Alpha virt. eigenvalues --    4.07588   4.07750   4.08822   4.10529   4.10947
 Alpha virt. eigenvalues --    4.12876   4.13424   4.15243   4.17135   4.17769
 Alpha virt. eigenvalues --    4.18383   4.19379   4.20638   4.21265   4.22296
 Alpha virt. eigenvalues --    4.23658   4.24091   4.25939   4.27386   4.28557
 Alpha virt. eigenvalues --    4.30737   4.31348   4.33233   4.33827   4.34448
 Alpha virt. eigenvalues --    4.35331   4.37402   4.38034   4.39172   4.39489
 Alpha virt. eigenvalues --    4.41518   4.42153   4.44137   4.45653   4.47351
 Alpha virt. eigenvalues --    4.48749   4.51092   4.51227   4.54023   4.55582
 Alpha virt. eigenvalues --    4.56517   4.58802   4.59010   4.60025   4.62616
 Alpha virt. eigenvalues --    4.63898   4.67603   4.68694   4.70635   4.72034
 Alpha virt. eigenvalues --    4.74335   4.75840   4.76075   4.77548   4.80610
 Alpha virt. eigenvalues --    4.83271   4.84545   4.86131   4.87592   4.88932
 Alpha virt. eigenvalues --    4.89645   4.92567   4.93194   4.95550   4.96953
 Alpha virt. eigenvalues --    4.98526   5.00564   5.01549   5.02465   5.04911
 Alpha virt. eigenvalues --    5.05764   5.06155   5.07752   5.10293   5.10965
 Alpha virt. eigenvalues --    5.12774   5.15109   5.18054   5.18956   5.21880
 Alpha virt. eigenvalues --    5.23210   5.24959   5.26051   5.29181   5.30189
 Alpha virt. eigenvalues --    5.31978   5.34022   5.38200   5.43370   5.45374
 Alpha virt. eigenvalues --    5.46902   5.51518   5.54375   5.57322   5.59528
 Alpha virt. eigenvalues --    5.61749   5.63366   5.64140   5.65227   5.66392
 Alpha virt. eigenvalues --    5.67808   5.68701   5.70758   5.72955   5.73452
 Alpha virt. eigenvalues --    5.75372   5.77862   5.79240   5.81964   5.84931
 Alpha virt. eigenvalues --    5.87925   5.88756   5.91011   5.93983   5.96106
 Alpha virt. eigenvalues --    5.97336   5.99581   6.01332   6.12238   6.12587
 Alpha virt. eigenvalues --    6.14301   6.16600   6.18957   6.22081   6.53330
 Alpha virt. eigenvalues --    6.53524   6.54315   6.54778   6.56574   6.58571
 Alpha virt. eigenvalues --    6.69968   6.72393   6.73638   6.74418   6.74495
 Alpha virt. eigenvalues --    6.75818   6.77362   6.78394   6.78832   6.80806
 Alpha virt. eigenvalues --    6.82020   6.82572   6.85220   6.87622   6.89974
 Alpha virt. eigenvalues --    6.91187   6.91987   6.96135   6.96649   7.00865
 Alpha virt. eigenvalues --    7.02796   7.04165   7.04745   7.06121   7.15537
 Alpha virt. eigenvalues --    7.16403   7.22657   7.23309   7.25470   7.26794
 Alpha virt. eigenvalues --    7.38953   7.40097   7.41289   7.42557   7.46985
 Alpha virt. eigenvalues --    7.48356   7.49406   7.55246   7.59018   7.60811
 Alpha virt. eigenvalues --    7.62776   7.70514  23.10284  23.18112  23.22286
 Alpha virt. eigenvalues --   23.24819  23.40579  23.43588  44.10744  44.13185
 Alpha virt. eigenvalues --   44.24262  44.27409  44.29589  44.35095
          Condensed to atoms (all electrons):
               1          2          3          4          5          6
     1  C    4.994029   0.314141   0.169179  -0.103178  -0.008081   0.376927
     2  C    0.314141   4.891643  -0.014500   0.287999   0.402698   0.007589
     3  C    0.169179  -0.014500   4.986519   0.031074  -0.013893  -0.030094
     4  C   -0.103178   0.287999   0.031074   4.920130  -0.049972  -0.013872
     5  H   -0.008081   0.402698  -0.013893  -0.049972   0.562160   0.008156
     6  H    0.376927   0.007589  -0.030094  -0.013872   0.008156   0.621198
     7  C    0.005200  -0.007964   0.285109   0.000630  -0.001024  -0.018799
     8  H   -0.030052  -0.010693   0.396108   0.001087   0.007856   0.009142
     9  C    0.039476   0.036329  -0.014347   0.188101   0.011433   0.002077
    10  H   -0.015810  -0.013566   0.002240   0.420152  -0.006108  -0.000883
    11  H   -0.014585   0.000099  -0.025339   0.000266   0.000108   0.001690
    12  H    0.013599   0.001069  -0.053819  -0.000433   0.000084   0.006232
    13  H    0.012041  -0.023799  -0.006536  -0.004184  -0.000583  -0.004391
    14  H   -0.001499   0.003486   0.000389  -0.036990  -0.000368   0.000346
    15  O    0.005967  -0.000261  -0.069947   0.000010   0.000001  -0.000325
    16  H   -0.001091   0.000033   0.010723   0.000000  -0.000001  -0.000046
    17  O   -0.039261  -0.011875   0.256540  -0.008758   0.000153   0.004848
    18  H    0.004323   0.002094  -0.031341  -0.002177  -0.000129  -0.000129
    19  O    0.276369  -0.024583  -0.048129   0.011455   0.006790  -0.042910
    20  H   -0.039479  -0.016573   0.011254   0.003565  -0.002065  -0.004340
    21  O   -0.022303   0.199167   0.005496  -0.031237  -0.032433  -0.001779
    22  H    0.009847  -0.043590   0.001122  -0.006340   0.005137   0.001522
    23  O    0.010032  -0.042803  -0.001605   0.292515   0.005937   0.000059
    24  H    0.001272  -0.012480  -0.000245  -0.046626  -0.001726   0.000047
    25  O   -0.006683  -0.024119   0.001112  -0.020226  -0.001813   0.002421
    26  H    0.001078  -0.012910  -0.000016   0.023132  -0.000204  -0.000555
               7          8          9         10         11         12
     1  C    0.005200  -0.030052   0.039476  -0.015810  -0.014585   0.013599
     2  C   -0.007964  -0.010693   0.036329  -0.013566   0.000099   0.001069
     3  C    0.285109   0.396108  -0.014347   0.002240  -0.025339  -0.053819
     4  C    0.000630   0.001087   0.188101   0.420152   0.000266  -0.000433
     5  H   -0.001024   0.007856   0.011433  -0.006108   0.000108   0.000084
     6  H   -0.018799   0.009142   0.002077  -0.000883   0.001690   0.006232
     7  C    4.725200  -0.026319  -0.000566  -0.000091   0.436059   0.418603
     8  H   -0.026319   0.627758  -0.000740  -0.002834  -0.005008   0.009866
     9  C   -0.000566  -0.000740   4.931904  -0.047073  -0.000041  -0.000118
    10  H   -0.000091  -0.002834  -0.047073   0.572957  -0.000052  -0.000060
    11  H    0.436059  -0.005008  -0.000041  -0.000052   0.575674  -0.036122
    12  H    0.418603   0.009866  -0.000118  -0.000060  -0.036122   0.610858
    13  H    0.000794   0.000660   0.375874   0.004160   0.000054   0.000212
    14  H   -0.000006  -0.000010   0.425936  -0.002465   0.000000  -0.000004
    15  O    0.278647   0.006053  -0.000018  -0.000015  -0.044662  -0.051666
    16  H   -0.029741  -0.000207   0.000003   0.000004  -0.005490  -0.004924
    17  O   -0.019264  -0.045440  -0.012452   0.018091   0.004411   0.000044
    18  H   -0.009052  -0.004964   0.000786   0.000271   0.001487  -0.001827
    19  O    0.001174   0.004195  -0.001267  -0.000144   0.009446  -0.000458
    20  H    0.000241  -0.000583  -0.000362  -0.000033  -0.000184  -0.000281
    21  O    0.000025   0.000037  -0.007615   0.003421  -0.000031  -0.000016
    22  H    0.000024   0.000008  -0.005038   0.000082  -0.000008  -0.000003
    23  O    0.000013   0.000038  -0.077674  -0.022487  -0.000000   0.000001
    24  H    0.000007  -0.000006  -0.007918   0.006213   0.000000   0.000000
    25  O    0.000010  -0.000009   0.208251   0.004746   0.000000  -0.000000
    26  H    0.000001  -0.000002  -0.052835   0.000957   0.000000  -0.000000
              13         14         15         16         17         18
     1  C    0.012041  -0.001499   0.005967  -0.001091  -0.039261   0.004323
     2  C   -0.023799   0.003486  -0.000261   0.000033  -0.011875   0.002094
     3  C   -0.006536   0.000389  -0.069947   0.010723   0.256540  -0.031341
     4  C   -0.004184  -0.036990   0.000010   0.000000  -0.008758  -0.002177
     5  H   -0.000583  -0.000368   0.000001  -0.000001   0.000153  -0.000129
     6  H   -0.004391   0.000346  -0.000325  -0.000046   0.004848  -0.000129
     7  C    0.000794  -0.000006   0.278647  -0.029741  -0.019264  -0.009052
     8  H    0.000660  -0.000010   0.006053  -0.000207  -0.045440  -0.004964
     9  C    0.375874   0.425936  -0.000018   0.000003  -0.012452   0.000786
    10  H    0.004160  -0.002465  -0.000015   0.000004   0.018091   0.000271
    11  H    0.000054   0.000000  -0.044662  -0.005490   0.004411   0.001487
    12  H    0.000212  -0.000004  -0.051666  -0.004924   0.000044  -0.001827
    13  H    0.577843  -0.018437   0.000008  -0.000001   0.015496  -0.000591
    14  H   -0.018437   0.575546   0.000000   0.000000  -0.000002  -0.000014
    15  O    0.000008   0.000000   7.892761   0.327092  -0.013792   0.027018
    16  H   -0.000001   0.000000   0.327092   0.522130   0.000455  -0.001753
    17  O    0.015496  -0.000002  -0.013792   0.000455   7.902288   0.326251
    18  H   -0.000591  -0.000014   0.027018  -0.001753   0.326251   0.488055
    19  O    0.000112   0.000007   0.000063   0.000042   0.001869  -0.000174
    20  H   -0.000041   0.000007  -0.000003  -0.000004  -0.000217   0.000038
    21  O    0.000554  -0.000600   0.000001  -0.000000  -0.000058   0.000013
    22  H   -0.001193   0.001247   0.000000  -0.000000   0.000034  -0.000002
    23  O    0.004650   0.004119  -0.000000   0.000000   0.000143  -0.000016
    24  H   -0.000300   0.000033  -0.000000   0.000000  -0.000036  -0.000002
    25  O   -0.024960  -0.034059   0.000000  -0.000000   0.000116  -0.000000
    26  H    0.009588  -0.010837   0.000000   0.000000  -0.000010   0.000001
              19         20         21         22         23         24
     1  C    0.276369  -0.039479  -0.022303   0.009847   0.010032   0.001272
     2  C   -0.024583  -0.016573   0.199167  -0.043590  -0.042803  -0.012480
     3  C   -0.048129   0.011254   0.005496   0.001122  -0.001605  -0.000245
     4  C    0.011455   0.003565  -0.031237  -0.006340   0.292515  -0.046626
     5  H    0.006790  -0.002065  -0.032433   0.005137   0.005937  -0.001726
     6  H   -0.042910  -0.004340  -0.001779   0.001522   0.000059   0.000047
     7  C    0.001174   0.000241   0.000025   0.000024   0.000013   0.000007
     8  H    0.004195  -0.000583   0.000037   0.000008   0.000038  -0.000006
     9  C   -0.001267  -0.000362  -0.007615  -0.005038  -0.077674  -0.007918
    10  H   -0.000144  -0.000033   0.003421   0.000082  -0.022487   0.006213
    11  H    0.009446  -0.000184  -0.000031  -0.000008  -0.000000   0.000000
    12  H   -0.000458  -0.000281  -0.000016  -0.000003   0.000001   0.000000
    13  H    0.000112  -0.000041   0.000554  -0.001193   0.004650  -0.000300
    14  H    0.000007   0.000007  -0.000600   0.001247   0.004119   0.000033
    15  O    0.000063  -0.000003   0.000001   0.000000  -0.000000  -0.000000
    16  H    0.000042  -0.000004  -0.000000  -0.000000   0.000000   0.000000
    17  O    0.001869  -0.000217  -0.000058   0.000034   0.000143  -0.000036
    18  H   -0.000174   0.000038   0.000013  -0.000002  -0.000016  -0.000002
    19  O    7.875795   0.330380  -0.020991  -0.000052  -0.000153  -0.000020
    20  H    0.330380   0.480325   0.031249  -0.000225  -0.000037  -0.000136
    21  O   -0.020991   0.031249   8.000688   0.324653  -0.013187   0.032191
    22  H   -0.000052  -0.000225   0.324653   0.447557   0.001112  -0.001281
    23  O   -0.000153  -0.000037  -0.013187   0.001112   7.896222   0.332050
    24  H   -0.000020  -0.000136   0.032191  -0.001281   0.332050   0.493273
    25  O    0.000011   0.000104  -0.026472   0.048115  -0.004903   0.003542
    26  H    0.000008   0.000004   0.002258  -0.003223   0.015678   0.000601
              25         26
     1  C   -0.006683   0.001078
     2  C   -0.024119  -0.012910
     3  C    0.001112  -0.000016
     4  C   -0.020226   0.023132
     5  H   -0.001813  -0.000204
     6  H    0.002421  -0.000555
     7  C    0.000010   0.000001
     8  H   -0.000009  -0.000002
     9  C    0.208251  -0.052835
    10  H    0.004746   0.000957
    11  H    0.000000   0.000000
    12  H   -0.000000  -0.000000
    13  H   -0.024960   0.009588
    14  H   -0.034059  -0.010837
    15  O    0.000000   0.000000
    16  H   -0.000000   0.000000
    17  O    0.000116  -0.000010
    18  H   -0.000000   0.000001
    19  O    0.000011   0.000008
    20  H    0.000104   0.000004
    21  O   -0.026472   0.002258
    22  H    0.048115  -0.003223
    23  O   -0.004903   0.015678
    24  H    0.003542   0.000601
    25  O    7.922843   0.318767
    26  H    0.318767   0.520103
 Mulliken charges:
               1
     1  C    0.048541
     2  C    0.113371
     3  C    0.152947
     4  C    0.143880
     5  H    0.107889
     6  H    0.075868
     7  C   -0.038910
     8  H    0.064061
     9  C    0.007896
    10  H    0.078324
    11  H    0.102226
    12  H    0.089166
    13  H    0.082970
    14  H    0.094174
    15  O   -0.356932
    16  H    0.182776
    17  O   -0.379573
    18  H    0.201834
    19  O   -0.378837
    20  H    0.207394
    21  O   -0.443030
    22  H    0.220493
    23  O   -0.399702
    24  H    0.201547
    25  O   -0.366792
    26  H    0.188419
 Sum of Mulliken charges =  -0.00000
 Mulliken charges with hydrogens summed into heavy atoms:
               1
     1  C    0.124409
     2  C    0.221260
     3  C    0.217009
     4  C    0.222204
     7  C    0.152482
     9  C    0.185041
    15  O   -0.174156
    17  O   -0.177739
    19  O   -0.171444
    21  O   -0.222537
    23  O   -0.198156
    25  O   -0.178374
 Electronic spatial extent (au):  <R**2>=           2525.2578
 Charge=             -0.0000 electrons
 Dipole moment (field-independent basis, Debye):
    X=              1.4770    Y=             -0.2870    Z=              1.1809  Tot=              1.9127
 Quadrupole moment (field-independent basis, Debye-Ang):
   XX=            -59.8139   YY=            -75.4636   ZZ=            -75.3081
   XY=             -0.9033   XZ=              0.6498   YZ=             -1.3425
 Traceless Quadrupole moment (field-independent basis, Debye-Ang):
   XX=             10.3813   YY=             -5.2684   ZZ=             -5.1129
   XY=             -0.9033   XZ=              0.6498   YZ=             -1.3425
 Octapole moment (field-independent basis, Debye-Ang**2):
  XXX=             45.2563  YYY=             -8.7712  ZZZ=             -2.6395  XYY=             -7.3029
  XXY=              4.0033  XXZ=             30.6399  XZZ=             11.6292  YZZ=              5.9789
  YYZ=              2.9923  XYZ=              4.1778
 Hexadecapole moment (field-independent basis, Debye-Ang**3):
 XXXX=          -1563.8863 YYYY=           -591.2088 ZZZZ=           -331.1790 XXXY=            -13.0882
 XXXZ=             39.0920 YYYX=            -23.8635 YYYZ=              8.9475 ZZZX=              6.7572
 ZZZY=             -1.4969 XXYY=           -465.8326 XXZZ=           -432.2553 YYZZ=           -155.6648
 XXYZ=            -27.3191 YYXZ=            -15.7035 ZZXY=            -22.2934
 N-N= 8.294443513797D+02 E-N=-3.276225880948D+03  KE= 6.850411165300D+02
   1 Symmetry operations used in ECPInt.
 ECPInt:  NShTT=   23436 NPrTT=   62434 LenC2=   21785 LenP2D=   45327.
 LDataN:  DoStor=T MaxTD1= 7 Len=  274
 Calling FoFJK, ICntrl=      2127 FMM=F ISym2X=0 I1Cent= 0 IOpClX= 0 NMat=1 NMatS=1 NMatT=0.
 ***** Axes restored to original set *****
 -------------------------------------------------------------------
 Center     Atomic                   Forces (Hartrees/Bohr)
 Number     Number              X              Y              Z
 -------------------------------------------------------------------
      1        6           0.002866629    0.005634974   -0.010743447
      2        6           0.001758875   -0.010857216   -0.008209561
      3        6          -0.010170913   -0.000027454    0.007887686
      4        6           0.014621774   -0.002284447   -0.002969180
      5        1          -0.003265978   -0.002715018    0.002145190
      6        1           0.001361162   -0.001957838    0.007309867
      7        6          -0.004102999    0.004101989    0.001950082
      8        1          -0.000472533    0.001169526   -0.006045428
      9        6           0.000268265   -0.000311304   -0.003193428
     10        1          -0.002603398   -0.001457649   -0.004005865
     11        1           0.005071049   -0.003684722   -0.002095856
     12        1           0.005007279   -0.001565962   -0.004972638
     13        1           0.002605759    0.001460541   -0.001951788
     14        1          -0.002261865    0.006143449    0.002120362
     15        8          -0.011935809    0.002926426   -0.006490205
     16        1           0.018467374   -0.002608793    0.006248809
     17        8          -0.013605015    0.008594404    0.001123432
     18        1           0.013120842   -0.009057907   -0.012186991
     19        8           0.012826248   -0.004979071    0.005060456
     20        1          -0.011010210    0.003613137    0.013868450
     21        8          -0.007353602   -0.004703108    0.010319861
     22        1           0.004186889    0.014832311    0.000466740
     23        8          -0.010428500    0.004886025   -0.013735686
     24        1          -0.001594523   -0.003099666    0.016696086
     25        8           0.015996922   -0.006677136    0.005093324
     26        1          -0.019353721    0.002624510   -0.003690271
 -------------------------------------------------------------------
 Cartesian Forces:  Max     0.019353721 RMS     0.007700004

 GradGradGradGradGradGradGradGradGradGradGradGradGradGradGradGradGradGrad
 Berny optimization.
 FormGI is forming the generalized inverse of G from B-inverse, IUseBI=4.
 Internal  Forces:  Max     0.019887852 RMS     0.005862708
 Search for a local minimum.
 Step number   1 out of a maximum of  140
 All quantities printed in internal units (Hartrees-Bohrs-Radians)
 Mixed Optimization -- RFO/linear search
 Second derivative matrix not updated -- first step.
 ITU=  0
     Eigenvalues ---    0.00230   0.00230   0.00322   0.00323   0.00338
     Eigenvalues ---    0.00988   0.01082   0.01170   0.01244   0.01248
     Eigenvalues ---    0.01249   0.03505   0.03907   0.03971   0.04224
     Eigenvalues ---    0.04565   0.04749   0.04781   0.04907   0.05060
     Eigenvalues ---    0.05280   0.05554   0.05572   0.07409   0.07650
     Eigenvalues ---    0.07714   0.08124   0.11329   0.11508   0.13609
     Eigenvalues ---    0.13752   0.16000   0.16000   0.16000   0.16000
     Eigenvalues ---    0.16000   0.16000   0.16689   0.16764   0.16912
     Eigenvalues ---    0.17717   0.19325   0.19633   0.19686   0.19770
     Eigenvalues ---    0.21993   0.22027   0.28196   0.28369   0.29099
     Eigenvalues ---    0.29106   0.29209   0.34030   0.34052   0.34117
     Eigenvalues ---    0.34208   0.34267   0.34366   0.34440   0.34543
     Eigenvalues ---    0.37826   0.38762   0.39660   0.40444   0.40480
     Eigenvalues ---    0.40493   0.50473   0.51005   0.51331   0.51605
     Eigenvalues ---    0.51710   0.52508
 RFO step:  Lambda=-1.75303684D-02 EMin= 2.30000000D-03
 Linear search not attempted -- first point.
 Iteration  1 RMS(Cart)=  0.09104474 RMS(Int)=  0.00313702
 Iteration  2 RMS(Cart)=  0.00414210 RMS(Int)=  0.00049731
 Iteration  3 RMS(Cart)=  0.00000942 RMS(Int)=  0.00049725
 Iteration  4 RMS(Cart)=  0.00000001 RMS(Int)=  0.00049725
 Variable       Old X    -DE/DX   Delta X   Delta X   Delta X     New X
                                 (Linear)    (Quad)   (Total)
    R1        2.91339  -0.00742   0.00000  -0.02463  -0.02463   2.88876
    R2        2.89783  -0.01251   0.00000  -0.04055  -0.04055   2.85728
    R3        2.07134   0.00059   0.00000   0.00163   0.00163   2.07297
    R4        2.72018  -0.01662   0.00000  -0.04013  -0.04013   2.68004
    R5        2.91712  -0.00603   0.00000  -0.02014  -0.02014   2.89698
    R6        2.07279  -0.00364   0.00000  -0.01018  -0.01018   2.06261
    R7        2.74619  -0.01415   0.00000  -0.03576  -0.03576   2.71042
    R8        2.89798  -0.01207   0.00000  -0.03913  -0.03913   2.85885
    R9        2.07242  -0.00011   0.00000  -0.00032  -0.00032   2.07210
   R10        2.70907  -0.00879   0.00000  -0.02081  -0.02081   2.68826
   R11        2.89570  -0.00248   0.00000  -0.00802  -0.00802   2.88768
   R12        2.06594  -0.00385   0.00000  -0.01063  -0.01063   2.05532
   R13        2.73271  -0.01233   0.00000  -0.03043  -0.03043   2.70227
   R14        2.06716  -0.00220   0.00000  -0.00609  -0.00609   2.06107
   R15        2.06882   0.00010   0.00000   0.00028   0.00028   2.06909
   R16        2.70889  -0.00238   0.00000  -0.00562  -0.00562   2.70327
   R17        2.06424  -0.00308   0.00000  -0.00849  -0.00849   2.05575
   R18        2.06980  -0.00254   0.00000  -0.00705  -0.00705   2.06275
   R19        2.70954  -0.00002   0.00000  -0.00005  -0.00005   2.70949
   R20        1.84116  -0.01929   0.00000  -0.03554  -0.03554   1.80562
   R21        1.85565  -0.01989   0.00000  -0.03770  -0.03770   1.81795
   R22        1.85246  -0.01801   0.00000  -0.03394  -0.03394   1.81852
   R23        1.86091  -0.01522   0.00000  -0.02915  -0.02915   1.83176
   R24        1.84979  -0.01705   0.00000  -0.03195  -0.03195   1.81784
   R25        1.84878  -0.01954   0.00000  -0.03655  -0.03655   1.81224
    A1        1.98396   0.00433   0.00000   0.00862   0.00864   1.99260
    A2        1.90950  -0.00209   0.00000  -0.00170  -0.00214   1.90737
    A3        1.87750   0.00277   0.00000   0.01344   0.01311   1.89061
    A4        1.92357  -0.00155   0.00000  -0.01938  -0.01901   1.90455
    A5        1.91242  -0.00826   0.00000  -0.05178  -0.05166   1.86076
    A6        1.85171   0.00493   0.00000   0.05487   0.05440   1.90610
    A7        2.04931  -0.00272   0.00000  -0.00777  -0.00833   2.04098
    A8        1.90800  -0.00047   0.00000  -0.02097  -0.02113   1.88687
    A9        1.87443   0.00110   0.00000   0.01712   0.01696   1.89140
   A10        1.90017   0.00042   0.00000  -0.00840  -0.00865   1.89152
   A11        1.89914   0.00327   0.00000   0.03043   0.03033   1.92946
   A12        1.81884  -0.00144   0.00000  -0.01004  -0.00981   1.80903
   A13        1.95652  -0.00067   0.00000  -0.01510  -0.01512   1.94140
   A14        1.92674   0.00003   0.00000  -0.01339  -0.01317   1.91357
   A15        1.93009  -0.00644   0.00000  -0.04184  -0.04157   1.88852
   A16        1.89398  -0.00109   0.00000  -0.00076  -0.00157   1.89241
   A17        1.88545   0.00498   0.00000   0.02503   0.02425   1.90969
   A18        1.86826   0.00357   0.00000   0.05049   0.05008   1.91834
   A19        1.98860   0.00340   0.00000   0.02110   0.02010   2.00871
   A20        1.93650  -0.00247   0.00000  -0.03804  -0.03814   1.89836
   A21        1.88221  -0.00116   0.00000   0.01382   0.01272   1.89493
   A22        1.91992  -0.00318   0.00000  -0.03713  -0.03719   1.88273
   A23        1.86723   0.00263   0.00000   0.03611   0.03544   1.90266
   A24        1.86340   0.00092   0.00000   0.00789   0.00852   1.87192
   A25        1.95131  -0.00143   0.00000  -0.02502  -0.02488   1.92643
   A26        1.93715  -0.00254   0.00000  -0.02985  -0.02958   1.90758
   A27        1.88478  -0.01215   0.00000  -0.04815  -0.04794   1.83685
   A28        1.91594   0.00005   0.00000  -0.00063  -0.00281   1.91313
   A29        1.89920   0.00779   0.00000   0.04884   0.04772   1.94692
   A30        1.87314   0.00878   0.00000   0.05950   0.05844   1.93158
   A31        1.95908  -0.00295   0.00000  -0.02219  -0.02255   1.93653
   A32        1.93453  -0.00781   0.00000  -0.04271  -0.04395   1.89057
   A33        1.91304   0.01263   0.00000   0.05881   0.05895   1.97200
   A34        1.88992   0.00242   0.00000  -0.00382  -0.00488   1.88504
   A35        1.88794  -0.00548   0.00000  -0.02431  -0.02380   1.86414
   A36        1.87690   0.00128   0.00000   0.03641   0.03691   1.91381
   A37        1.85599   0.00699   0.00000   0.03937   0.03937   1.89536
   A38        1.81627   0.00484   0.00000   0.02727   0.02727   1.84354
   A39        1.83808  -0.00268   0.00000  -0.01512  -0.01512   1.82297
   A40        1.84736  -0.00081   0.00000  -0.00454  -0.00454   1.84282
   A41        1.84982  -0.00010   0.00000  -0.00055  -0.00055   1.84926
   A42        1.82721   0.00593   0.00000   0.03339   0.03339   1.86060
    D1        1.07585   0.00025   0.00000  -0.00440  -0.00421   1.07164
    D2       -1.09900   0.00221   0.00000   0.03151   0.03148  -1.06752
    D3       -3.06227   0.00357   0.00000   0.04464   0.04473  -3.01754
    D4       -1.08259   0.00075   0.00000   0.01602   0.01607  -1.06653
    D5        3.02574   0.00272   0.00000   0.05192   0.05176   3.07750
    D6        1.06247   0.00408   0.00000   0.06505   0.06501   1.12748
    D7       -3.08671  -0.00546   0.00000  -0.05490  -0.05483  -3.14153
    D8        1.02163  -0.00349   0.00000  -0.01899  -0.01913   1.00250
    D9       -0.94165  -0.00214   0.00000  -0.00586  -0.00588  -0.94753
   D10        3.00759  -0.00090   0.00000  -0.01794  -0.01803   2.98956
   D11        0.89384   0.00092   0.00000   0.00264   0.00279   0.89663
   D12       -1.17040   0.00051   0.00000  -0.02532  -0.02510  -1.19550
   D13       -1.12482  -0.00167   0.00000  -0.02872  -0.02911  -1.15393
   D14        3.04462   0.00015   0.00000  -0.00814  -0.00829   3.03633
   D15        0.98038  -0.00026   0.00000  -0.03610  -0.03617   0.94420
   D16        0.90653  -0.00144   0.00000  -0.00381  -0.00388   0.90265
   D17       -1.20721   0.00039   0.00000   0.01677   0.01694  -1.19028
   D18        3.01173  -0.00003   0.00000  -0.01119  -0.01095   3.00079
   D19        0.65726  -0.00014   0.00000   0.01661   0.01707   0.67433
   D20        2.82196   0.00183   0.00000   0.00364   0.00419   2.82615
   D21       -1.38493  -0.00155   0.00000  -0.01552  -0.01654  -1.40147
   D22        0.97555  -0.00243   0.00000  -0.07746  -0.07748   0.89807
   D23       -1.20270   0.00120   0.00000  -0.01333  -0.01339  -1.21609
   D24        3.04546   0.00214   0.00000  -0.00999  -0.00991   3.03554
   D25       -3.12888  -0.00482   0.00000  -0.11950  -0.11949   3.03482
   D26        0.97607  -0.00119   0.00000  -0.05538  -0.05540   0.92066
   D27       -1.05897  -0.00026   0.00000  -0.05203  -0.05192  -1.11089
   D28       -1.15686  -0.00462   0.00000  -0.11993  -0.11998  -1.27684
   D29        2.94809  -0.00099   0.00000  -0.05581  -0.05590   2.89219
   D30        0.91305  -0.00005   0.00000  -0.05246  -0.05242   0.86063
   D31       -1.32885  -0.00153   0.00000  -0.06688  -0.06721  -1.39605
   D32        0.90625  -0.00200   0.00000  -0.04475  -0.04440   0.86184
   D33        2.93127  -0.00078   0.00000  -0.04580  -0.04582   2.88545
   D34       -1.15549  -0.00004   0.00000   0.01417   0.01402  -1.14147
   D35        0.99023  -0.00285   0.00000  -0.02622  -0.02635   0.96388
   D36        3.03892  -0.00095   0.00000   0.00006  -0.00009   3.03882
   D37        0.97703  -0.00119   0.00000  -0.01307  -0.01306   0.96397
   D38        3.12275  -0.00400   0.00000  -0.05346  -0.05344   3.06931
   D39       -1.11175  -0.00210   0.00000  -0.02718  -0.02718  -1.13893
   D40        2.99683   0.00507   0.00000   0.05919   0.05933   3.05615
   D41       -1.14064   0.00226   0.00000   0.01880   0.01895  -1.12169
   D42        0.90805   0.00416   0.00000   0.04508   0.04521   0.95326
   D43       -2.88038   0.00043   0.00000   0.01892   0.01869  -2.86169
   D44       -0.73334  -0.00120   0.00000  -0.00978  -0.01050  -0.74384
   D45        1.30322   0.00190   0.00000   0.02819   0.02914   1.33236
   D46       -1.07183   0.00051   0.00000   0.02692   0.02757  -1.04426
   D47        3.09558   0.00499   0.00000   0.07748   0.07705  -3.11056
   D48        1.02650   0.00028   0.00000   0.02186   0.02224   1.04874
   D49        1.11524  -0.00275   0.00000  -0.03750  -0.03686   1.07838
   D50       -1.00054   0.00173   0.00000   0.01306   0.01262  -0.98792
   D51       -3.06961  -0.00298   0.00000  -0.04256  -0.04219  -3.11180
   D52        3.13292  -0.00185   0.00000  -0.02737  -0.02731   3.10561
   D53        1.01714   0.00263   0.00000   0.02319   0.02217   1.03931
   D54       -1.05194  -0.00208   0.00000  -0.03243  -0.03264  -1.08458
   D55       -0.40980  -0.00293   0.00000  -0.03925  -0.03952  -0.44932
   D56        1.73620   0.00199   0.00000   0.01491   0.01502   1.75122
   D57       -2.49191   0.00008   0.00000  -0.00607  -0.00592  -2.49783
   D58        3.06679   0.00055   0.00000   0.01383   0.01393   3.08072
   D59        0.94542   0.00497   0.00000   0.04414   0.04596   0.99137
   D60       -1.12683  -0.00423   0.00000  -0.01489  -0.01681  -1.14364
   D61        1.31799  -0.00173   0.00000  -0.03101  -0.03005   1.28795
   D62       -2.82404  -0.00102   0.00000  -0.03730  -0.03714  -2.86118
   D63       -0.78645  -0.00035   0.00000  -0.03523  -0.03635  -0.82280
         Item               Value     Threshold  Converged?
 Maximum Force            0.019888     0.000450     NO 
 RMS     Force            0.005863     0.000300     NO 
 Maximum Displacement     0.303789     0.001800     NO 
 RMS     Displacement     0.092572     0.001200     NO 
 Predicted change in Energy=-1.020443D-02
 GradGradGradGradGradGradGradGradGradGradGradGradGradGradGradGradGradGrad

                          Input orientation:                          
 ---------------------------------------------------------------------
 Center     Atomic      Atomic             Coordinates (Angstroms)
 Number     Number       Type             X           Y           Z
 ---------------------------------------------------------------------
      1          6           0        0.010141    0.000528   -0.005096
      2          6           0        1.538592    0.018795   -0.023033
      3          6           0       -0.601697    0.610417    1.235811
      4          6           0        2.255517   -0.753142    1.090639
      5          1           0        1.865907    1.059392    0.013890
      6          1           0       -0.341030   -1.033620   -0.107845
      7          6           0       -2.101270    0.751852    1.094545
      8          1           0       -0.174238    1.605649    1.406480
      9          6           0        1.799692   -2.200220    1.273017
     10          1           0        2.100018   -0.232906    2.033033
     11          1           0       -2.342761    1.467672    0.307877
     12          1           0       -2.535222   -0.223223    0.850087
     13          1           0        0.739804   -2.246867    1.513623
     14          1           0        2.354539   -2.632115    2.107953
     15          8           0       -2.558698    1.201943    2.373033
     16          1           0       -3.499592    1.360186    2.321612
     17          8           0       -0.308582   -0.238478    2.339056
     18          1           0       -0.911039    0.029582    3.039532
     19          8           0       -0.457830    0.763750   -1.105023
     20          1           0        0.151897    0.554192   -1.819429
     21          8           0        1.980890   -0.429625   -1.311633
     22          1           0        1.920761   -1.396735   -1.285612
     23          8           0        3.660364   -0.737262    0.824188
     24          1           0        3.747774   -0.628070   -0.127550
     25          8           0        1.994024   -3.000630    0.099404
     26          1           0        2.935942   -3.169065    0.035442
 ---------------------------------------------------------------------
                    Distance matrix (angstroms):
                    1          2          3          4          5
     1  C    0.000000
     2  C    1.528665   0.000000
     3  C    1.512006   2.552555   0.000000
     4  C    2.609668   1.533014   3.169233   0.000000
     5  H    2.136685   1.091485   2.789935   2.143936   0.000000
     6  H    1.096968   2.155864   2.139209   2.873515   3.044025
     7  C    2.496348   3.877492   1.512838   4.609405   4.123213
     8  H    2.145450   2.737772   1.096510   3.401081   2.529801
     9  C    3.111167   2.583012   3.696990   1.528095   3.494976
    10  H    2.928489   2.146150   2.940411   1.087626   2.408688
    11  H    2.790450   4.156157   2.151105   5.166129   4.238632
    12  H    2.694490   4.173352   2.140621   4.825956   4.659856
    13  H    2.808861   2.851771   3.168735   2.169681   3.801139
    14  H    4.109987   3.497742   4.473699   2.138989   4.272129
    15  O    3.701059   4.891703   2.339451   5.351968   5.016274
    16  H    4.424982   5.716641   3.184166   6.253217   5.848473
    17  O    2.377763   3.009602   1.422564   2.897935   3.437916
    18  H    3.181065   3.921748   1.920019   3.799726   4.233963
    19  O    1.418218   2.389845   2.350257   3.805804   2.595982
    20  H    1.902221   2.331654   3.147310   3.821366   2.560101
    21  O    2.403315   1.434294   3.773714   2.439466   1.996849
    22  H    2.691195   1.934912   4.092557   2.484520   2.779258
    23  O    3.815256   2.406517   4.488969   1.429981   2.665450
    24  H    3.792101   2.304310   4.723400   1.930404   2.531592
    25  O    3.599119   3.056033   4.590082   2.470249   4.062943
    26  H    4.313730   3.481157   5.314156   2.722701   4.361798
                    6          7          8          9         10
     6  H    0.000000
     7  C    2.780664   0.000000
     8  H    3.047415   2.130663   0.000000
     9  C    2.801861   4.895312   4.289388   0.000000
    10  H    3.344131   4.416030   2.990834   2.130292   0.000000
    11  H    3.230512   1.090671   2.434843   5.616479   5.060277
    12  H    2.527618   1.094917   3.037860   4.783186   4.783817
    13  H    2.295502   4.152065   3.960913   1.087855   2.485157
    14  H    3.838104   5.686164   4.984518   1.091562   2.413835
    15  O    4.008809   1.430509   2.604392   5.637403   4.886515
    16  H    4.648557   1.957312   3.457702   6.469811   5.828967
    17  O    2.573058   2.396516   2.070882   3.070780   2.427969
    18  H    3.370651   2.391923   2.386152   3.929460   3.185656
    19  O    2.058773   2.745748   2.663993   4.420023   4.169329
    20  H    2.386136   3.688777   3.408579   4.457044   4.388184
    21  O    2.684256   4.883606   4.021822   3.138194   3.352563
    22  H    2.575788   5.143763   4.544302   2.684554   3.521368
    23  O    4.119183   5.957095   4.531276   2.409107   2.037244
    24  H    4.108915   6.132619   4.767067   2.868496   2.745792
    25  O    3.060156   5.642947   5.256197   1.433802   3.377936
    26  H    3.913975   6.470609   5.860959   1.939411   3.648310
                   11         12         13         14         15
    11  H    0.000000
    12  H    1.786101   0.000000
    13  H    4.975322   3.906560   0.000000
    14  H    6.489465   5.594172   1.763240   0.000000
    15  O    2.093350   2.085909   4.849020   6.237802   0.000000
    16  H    2.324853   2.366977   5.624603   7.089074   0.955493
    17  O    3.342831   2.678654   2.411240   3.588192   2.671889
    18  H    3.402920   2.737800   3.199360   4.314681   2.129186
    19  O    2.458608   3.018630   4.165987   5.455688   4.086873
    20  H    3.403409   3.866691   4.393269   5.516205   5.034248
    21  O    4.991643   5.011078   3.581165   4.084623   6.070144
    22  H    5.377885   5.078791   3.154853   3.637390   6.340691
    23  O    6.416060   6.216928   3.359152   2.635090   6.695983
    24  H    6.455722   6.371477   3.789702   3.309800   7.026625
    25  O    6.230320   5.365779   2.035004   2.073655   6.599871
    26  H    7.031234   6.266998   2.803300   2.218478   7.400075
                   16         17         18         19         20
    16  H    0.000000
    17  O    3.569114   0.000000
    18  H    2.997753   0.962017   0.000000
    19  O    4.620593   3.590044   4.233407   0.000000
    20  H    5.579536   4.258329   5.001455   0.962319   0.000000
    21  O    6.814659   4.313439   5.244689   2.722901   2.137983
    22  H    7.070566   4.410187   5.362867   3.218385   2.686998
    23  O    7.609635   4.277400   5.137464   4.788989   4.578855
    24  H    7.904169   4.763398   5.671636   4.536488   4.146147
    25  O    7.357631   4.236452   5.125030   4.651106   4.439833
    26  H    8.194924   4.941853   5.835680   5.318400   5.005407
                   21         22         23         24         25
    21  O    0.000000
    22  H    0.969327   0.000000
    23  O    2.734411   2.812895   0.000000
    24  H    2.136191   2.295633   0.961961   0.000000
    25  O    2.932792   2.120404   2.902557   2.959086   0.000000
    26  H    3.198635   2.432473   2.657174   2.672506   0.958995
                   26
    26  H    0.000000
 Stoichiometry    C6H14O6
 Framework group  C1[X(C6H14O6)]
 Deg. of freedom    72
 Full point group                 C1      NOp   1
 Largest Abelian subgroup         C1      NOp   1
 Largest concise Abelian subgroup C1      NOp   1
                         Standard orientation:                         
 ---------------------------------------------------------------------
 Center     Atomic      Atomic             Coordinates (Angstroms)
 Number     Number       Type             X           Y           Z
 ---------------------------------------------------------------------
      1          6           0        0.498255    0.765729    0.245179
      2          6           0       -0.805716    0.734214   -0.551992
      3          6           0        1.601298   -0.088077   -0.338321
      4          6           0       -1.502294   -0.624341   -0.690703
      5          1           0       -0.601164    1.119755   -1.552420
      6          1           0        0.301117    0.443591    1.275083
      7          6           0        2.914993    0.153326    0.372037
      8          1           0        1.731818    0.153407   -1.399917
      9          6           0       -1.729563   -1.373026    0.621888
     10          1           0       -0.903074   -1.260326   -1.338306
     11          1           0        3.258290    1.174007    0.199057
     12          1           0        2.781367   -0.012464    1.446049
     13          1           0       -0.785590   -1.572760    1.124333
     14          1           0       -2.199525   -2.331368    0.393364
     15          8           0        3.821954   -0.806438   -0.178081
     16          1           0        4.687009   -0.660034    0.200352
     17          8           0        1.229691   -1.453664   -0.194204
     18          1           0        2.037502   -1.957874   -0.330912
     19          8           0        0.981136    2.099151    0.257616
     20          1           0        0.190472    2.639998    0.349234
     21          8           0       -1.701416    1.704416    0.008036
     22          1           0       -2.085768    1.282382    0.791460
     23          8           0       -2.761794   -0.426346   -1.338238
     24          1           0       -3.017269    0.481294   -1.147739
     25          8           0       -2.546116   -0.644199    1.548085
     26          1           0       -3.444663   -0.689924    1.216128
 ---------------------------------------------------------------------
 Rotational constants (GHZ):           1.4861245           0.5411320           0.4723711
 Standard basis: def2TZVPP (5D, 7F)
 There are   642 symmetry adapted cartesian basis functions of A   symmetry.
 There are   568 symmetry adapted basis functions of A   symmetry.
   568 basis functions,   850 primitive gaussians,   642 cartesian basis functions
    49 alpha electrons       49 beta electrons
       nuclear repulsion energy       836.2103964245 Hartrees.
 NAtoms=   26 NActive=   26 NUniq=   26 SFac= 1.00D+00 NAtFMM=   60 NAOKFM=F Big=F
 Integral buffers will be    131072 words long.
 Raffenetti 2 integral format.
 Two-electron integral symmetry is turned on.
 Nuclear repulsion after empirical dispersion term =      836.1913163310 Hartrees.
 One-electron integrals computed using PRISM.
   1 Symmetry operations used in ECPInt.
 ECPInt:  NShTT=   23436 NPrTT=   62434 LenC2=   21870 LenP2D=   45553.
 LDataN:  DoStor=T MaxTD1= 6 Len=  172
[...]
 ,0.00608797,0.00028156,-0.00016365,0.00097369,0.33316745,0.04310673,-0
 .12135079,0.05078057,0.00709197,-0.00448915,0.00734244,-0.00450223,0.0
 0666181,-0.00358513,-0.00007629,0.00165466,-0.00128696,0.00152045,0.00
 189117,-0.00062497,0.01507696,-0.01767175,0.03749312,0.00110569,-0.000
 92207,0.00096643,-0.00017066,0.00187763,0.00118734,-0.00105755,0.00000
 189,0.00033965,0.00012737,-0.00006093,0.00026080,-0.00001885,0.0005259
 9,-0.00120816,0.00018004,0.00027268,-0.00010520,0.00053853,0.00034088,
 -0.00050946,0.00050184,0.00006084,-0.00005363,-0.00029571,0.00069722,-
 0.00070404,-0.00010363,-0.00014444,0.00007286,0.00112083,0.00133878,-0
 .00346659,0.00015308,0.00043900,-0.00060460,-0.15457372,0.17981695,-0.
 04858588,0.07293087,-0.17932985,-0.01294956,0.01118692,-0.02224651,-0.
 01447324,0.02504548,-0.03386289,-0.00015332,-0.00116670,0.00408222,0.0
 0117797,-0.00075661,0.00037435,-0.00361179,0.01598731,-0.00990746,0.00
 076765,-0.00015723,0.00027175,-0.00086228,-0.00052616,0.00164839,0.000
 71196,-0.00079583,-0.00136573,0.00048269,-0.00019325,0.00039288,0.0013
 3995,-0.00001911,-0.00224428,0.00028681,0.00063412,-0.00005027,-0.0001
 5249,-0.00050772,0.00025003,-0.00034336,0.00030235,0.00010929,0.000218
 97,-0.00013817,-0.00056382,-0.00023626,0.00007626,0.00017370,0.0056206
 3,-0.00406710,-0.01019421,-0.00160568,0.00133504,-0.00149828,-0.174812
 50,-0.02196341,0.55032577,0.01002257,-0.00416665,-0.01227342,-0.000103
 35,-0.00016709,-0.00831098,-0.00238524,0.00193454,-0.00190599,0.000109
 83,0.00049434,0.00067843,-0.00028038,-0.00011679,0.00005748,-0.0002502
 9,0.00102554,-0.00013489,-0.00034544,0.00075730,0.00010225,0.00000495,
 -0.00016464,0.00009453,0.00049484,0.00006037,-0.00052833,0.00032287,-0
 .00016898,0.00036526,0.00002728,-0.00023361,0.00028114,0.00003265,-0.0
 0004268,-0.00007789,-0.00011105,-0.00015461,0.00007220,-0.00006595,-0.
 00007535,0.00009377,0.00006468,-0.00021183,0.00005875,0.00000892,0.000
 02321,0.00003751,0.00059523,-0.00010590,-0.00199253,-0.00008518,0.0002
 5818,-0.00028541,-0.21450882,0.08680251,0.24380271,0.20714744,-0.01275
 288,0.00401173,0.02047126,0.00126861,0.00296353,0.00404602,0.00156049,
 -0.00170892,0.00041606,-0.00011250,-0.00037142,-0.00080032,-0.00040479
 ,-0.00052965,-0.00060911,-0.00017860,-0.00097404,0.00148836,0.00035059
 ,-0.00029921,0.00001788,-0.00007237,0.00002126,0.00017671,0.00000601,0
 .00013695,0.00053896,-0.00015853,0.00009687,-0.00019040,-0.00020889,0.
 00020441,-0.00015253,0.00001347,0.00009014,-0.00009842,0.00000034,0.00
 003028,0.00001531,-0.00002319,-0.00006880,-0.00006390,0.00006004,-0.00
 000809,-0.00023906,-0.00001888,0.00002709,-0.00000190,-0.00018243,0.00
 014392,0.00112826,0.00017844,0.00006160,0.00020364,0.09656567,-0.05231
 575,-0.09609335,-0.08449769,0.05197778,0.01925610,-0.00640629,-0.03659
 450,-0.00009664,-0.00081325,-0.00086739,-0.00250874,0.00497595,-0.0027
 6156,0.00029575,-0.00010270,-0.00151884,-0.00057684,-0.00016065,-0.000
 16621,0.00038320,-0.00031585,0.00058526,-0.00015107,0.00022959,0.00009
 314,-0.00009138,-0.00016937,0.00019281,0.00009126,0.00021391,0.0002763
 1,-0.00002784,0.00007448,-0.00000284,0.00018886,-0.00014995,-0.0000587
 1,0.00009929,0.00001948,-0.00003781,0.00003541,0.00001911,-0.00007335,
 0.00005613,-0.00014200,0.00001017,-0.00027432,0.00006918,0.00053844,0.
 00006476,-0.00000830,-0.00000461,0.00091323,-0.00078457,-0.00138679,-0
 .00024236,0.00022153,-0.00041393,0.20370916,-0.06749160,-0.30189279,-0
 .22391337,0.07232822,0.34309438,-0.01938963,0.02091236,0.03872105,-0.0
 7720329,0.00060305,0.04026901,-0.00894344,0.00025736,-0.00619978,-0.00
 391671,-0.00287980,-0.00853954,0.00425564,0.00066334,-0.00386693,0.003
 40444,-0.00019780,-0.00038612,0.00178356,0.00068099,0.00205715,-0.0000
 4651,0.00018856,0.00013588,-0.00063171,0.00034748,0.00147052,-0.000638
 47,0.00128090,-0.00197950,0.00018470,-0.00008129,-0.00002608,-0.000023
 44,-0.00012382,0.00000962,0.00038131,0.00061083,-0.00027436,0.00002949
 ,-0.00031511,0.00008231,-0.00209872,0.00049861,0.00120674,0.00003733,0
 .00008973,0.00020765,0.00095670,-0.00102299,0.00137474,0.00005548,-0.0
 0002406,-0.00018302,-0.00181515,0.00265867,0.00725109,-0.00005091,-0.0
 0376229,0.00181453,0.11040473,0.00455473,-0.00203892,-0.00384290,0.014
 73772,-0.11104763,-0.05139141,0.00153533,0.00024634,0.00159586,-0.0033
 3806,0.00884586,0.00954367,0.01465429,-0.01340104,-0.04052890,0.001847
 55,0.00212712,0.00088175,-0.00043675,0.00031399,-0.00040339,-0.0001926
 7,0.00083184,0.00053427,0.00031953,-0.00391318,-0.00727422,0.00178840,
 -0.00038962,0.00235537,-0.00014946,0.00004479,-0.00001212,0.00017605,0
 .00005771,-0.00000866,-0.00010471,-0.00005268,0.00038638,0.00013858,0.
 00142245,0.00056295,0.00065632,-0.00013019,-0.00051915,-0.00006996,-0.
 00005475,-0.00002207,-0.00001572,0.00081995,-0.00118390,-0.00006717,0.
 00000199,0.00005063,0.00417690,0.00163185,-0.00339350,-0.00223367,-0.0
 0215924,-0.00122298,0.01476951,0.61297192,0.01136792,-0.00864144,-0.02
 596979,0.04190846,-0.01294321,-0.18067117,0.00373662,0.00108030,0.0033
 5099,0.01166335,-0.01643370,-0.04912921,0.00435746,-0.00876695,-0.0115
 0052,-0.00052309,0.00103377,0.00072376,-0.00108119,-0.00027365,-0.0017
 3777,-0.00028420,0.00010288,0.00015947,0.00017858,-0.00423480,-0.00034
 690,-0.00530155,0.00541142,-0.00435069,0.00021330,-0.00024913,0.000091
 80,0.00013273,0.00012701,-0.00007581,0.00002431,0.00024822,0.00002697,
 -0.00015170,0.00058136,0.00048864,0.00133996,-0.00041245,-0.00008438,-
 0.00001401,-0.00005833,-0.00014274,0.00059594,0.00025120,0.00031438,-0
 .00019282,-0.00004166,0.00021931,-0.00412807,0.00234092,0.00620104,0.0
 0253703,-0.00322590,0.00002492,-0.08020210,0.03969018,0.30516947,0.001
 10763,0.00351753,0.00000649,0.00050303,0.01404165,0.00178300,-0.000415
 81,-0.00047563,0.00086915,0.00237299,-0.00119047,-0.00054397,0.0002053
 0,-0.00023544,0.00059775,-0.00078698,-0.00096955,0.00041111,-0.0002433
 7,0.00006544,0.00013967,0.00003035,-0.00023783,-0.00026518,0.00108396,
 -0.00096964,-0.00088678,-0.00006634,0.00012857,0.00020168,-0.00003569,
 0.00001320,0.00000280,-0.00005026,-0.00003190,-0.00000411,-0.00027793,
 -0.00017244,0.00038965,-0.00016045,0.00010089,0.00021611,0.00016730,-0
 .00011013,-0.00024482,-0.00002159,0.00002055,0.00001443,-0.00018847,0.
 00016544,-0.00035305,-0.00001230,0.00000738,0.00003513,-0.00150700,-0.
 00080833,0.00014214,0.00083175,0.00166159,0.00014709,-0.02046210,-0.05
 122491,0.01204753,0.02635824,0.00084956,0.00188463,0.00116611,-0.00080
 504,-0.01753424,-0.00604231,-0.00091003,0.00037269,-0.00115609,-0.0002
 6194,0.00306836,0.00004551,0.00085626,0.00188999,-0.00104591,0.0001263
 9,-0.00040264,-0.00012038,0.00039966,0.00007865,0.00018242,-0.00005175
 ,-0.00006835,0.00007343,-0.00243990,0.00580915,0.00552595,0.00044281,-
 0.00102782,0.00076580,0.00006536,-0.00004418,-0.00000763,-0.00003532,-
 0.00003678,0.00000116,0.00017333,-0.00023095,-0.00040674,0.00012218,-0
 .00111884,-0.00135329,-0.00043179,0.00008003,0.00034594,0.00002358,0.0
 0003514,0.00001257,0.00004959,-0.00050061,0.00049154,0.00003538,0.0000
 1341,-0.00005196,-0.00090013,-0.00007175,0.00109633,0.00175334,-0.0013
 3110,0.00016244,-0.03605285,-0.48676872,-0.00393692,0.03671444,0.50103
 946,0.00008233,-0.00090988,0.00053246,-0.00272624,-0.04513892,-0.00452
 066,0.00032624,-0.00020969,0.00031211,-0.00127868,-0.00163391,-0.00029
 226,0.00267197,-0.00248740,-0.00654440,0.00078721,0.00045070,0.0002106
 3,0.00002575,0.00008731,-0.00000982,-0.00002608,0.00023912,0.00010838,
 0.00060821,0.00007617,-0.00696202,0.00055610,0.00047147,0.00051977,-0.
 00004401,0.00003664,-0.00000803,0.00004102,-0.00001280,0.00001361,-0.0
 0008098,0.00001909,0.00014835,0.00016652,0.00008391,0.00048515,-0.0000
 2660,0.00004038,-0.00007870,0.00000539,-0.00001454,-0.00000082,-0.0002
 5378,0.00035024,-0.00026650,0.00004034,0.00000891,-0.00002842,-0.00089
 974,0.00020902,-0.00081598,0.00045214,0.00104410,0.00039240,0.01547778
 ,0.03962607,-0.04390044,-0.01486844,0.01134292,0.05721626,0.00538132,0
 .00263154,-0.00488369,-0.04946790,0.00031256,0.00375731,0.00077076,-0.
 00108324,-0.00012861,-0.21715588,-0.00479445,-0.00134979,0.00158022,-0
 .00003745,0.00126599,-0.00015543,-0.00024186,0.00026593,0.00051276,-0.
 00010380,-0.00018473,0.00005506,0.00018546,0.00005000,-0.03766258,-0.0
 0863383,0.00893979,-0.01980781,-0.00014446,0.00593717,-0.00004078,0.00
 004367,-0.00003071,0.00002953,-0.00000783,0.00005089,-0.00004020,-0.00
 555296,0.00027617,0.00194870,0.00042759,0.00027417,-0.00072664,0.00043
 382,0.00049544,0.00010081,-0.00004708,-0.00006187,-0.00134826,0.000347
 86,0.00062071,0.00004266,-0.00003840,-0.00037047,-0.00442998,0.0016137
 6,-0.00348289,-0.00034116,0.00024847,0.00113859,0.00343350,-0.00037890
 ,0.00137290,-0.00125295,-0.00012944,-0.00011275,0.36441247,-0.00133724
 ,-0.00073949,0.00323555,0.02102604,0.00049790,-0.00436385,-0.00040535,
 -0.00029706,0.00091071,-0.01310082,-0.06392681,0.00803659,-0.00034829,
 0.00260926,-0.00195977,0.00113617,0.00041083,0.00008459,-0.00020723,-0
 .00000338,-0.00000895,-0.00008243,0.00019908,-0.00005836,-0.03955988,-
 0.00357948,0.00570613,0.00963929,0.00561703,0.00084758,-0.00005422,0.0
 0003480,-0.00000739,0.00006324,0.00002990,0.00000534,-0.00181397,-0.00
 707940,-0.00010014,0.00049233,0.00299494,-0.00085429,0.00020298,0.0000
 2317,-0.00020598,-0.00002282,-0.00004104,0.00000647,0.00029413,0.00071
 995,-0.00065599,0.00001540,-0.00001658,0.00005047,0.00192817,0.0000217
 1,0.00104650,-0.00015476,-0.00025000,-0.00035945,-0.00088881,0.0038279
 7,0.00005576,0.00124880,-0.00166755,0.00128781,0.02835829,0.06560551,0
 .00062396,0.00246880,-0.00299504,-0.02190670,-0.00181701,-0.00112739,-
 0.00080098,0.00084633,-0.00206678,0.04685001,0.00738225,-0.10054002,0.
 00004997,-0.00091335,0.00089372,-0.00020098,-0.00024050,-0.00001758,0.
 00021070,-0.00007318,0.00012877,-0.00008995,-0.00003501,0.00012454,0.0
 1305930,-0.00272643,-0.00176374,0.03601029,0.00522233,-0.00088592,0.00
 016639,-0.00010473,0.00000672,0.00001243,0.00001855,-0.00001657,0.0007
 8745,0.00237820,0.00136672,0.00017280,-0.00158637,0.00042373,-0.000091
 70,-0.00004054,0.00033648,-0.00001098,0.00002106,0.00004282,0.00204766
 ,-0.00067362,0.00053811,0.00010253,-0.00001210,0.00024093,-0.00223698,
 0.00042827,-0.00000333,0.00077354,-0.00034549,0.00043472,-0.01082642,0
 .00078622,-0.00018644,0.00082864,0.00148284,-0.00020424,-0.08715073,-0
 .08874668,0.60730342,-0.00036994,-0.00038018,0.00047931,-0.00410585,0.
 00255302,0.00447232,0.00031617,-0.00018508,0.00087355,-0.01311121,-0.0
 0560295,0.04592742,-0.00019932,0.00036132,-0.00044659,0.00018467,0.000
 05441,0.00002042,-0.00024016,0.00007004,-0.00001792,0.00000898,0.00001
 318,-0.00003511,-0.00307639,0.00060110,0.00181575,-0.00582862,-0.00107
 309,0.00019901,-0.00005711,0.00002739,0.00000089,0.00000024,-0.0000003
 7,-0.00000715,-0.00009505,-0.00075553,-0.00014996,-0.00004804,0.000231
 23,-0.00012342,0.00026493,-0.00010473,-0.00027854,-0.00002645,0.000004
 03,-0.00000108,-0.00036856,0.00020667,-0.00034592,-0.00007277,0.000010
 05,-0.00000734,0.00108453,-0.00036583,-0.00010271,-0.00080086,0.000443
 73,-0.00032499,0.00607040,-0.00073518,0.00125596,-0.00144343,-0.001887
 01,-0.00083574,-0.04919025,-0.00431697,0.02547957,0.07004792,0.0001656
 0,-0.00037522,-0.00029102,0.00173372,0.00325439,-0.00027025,-0.0000231
 4,0.00024925,-0.00040158,0.00102069,-0.00330282,0.00025498,0.00056792,
 -0.00111299,-0.00012315,-0.00035262,-0.00005674,-0.00001920,0.00004414
 ,-0.00002336,-0.00000312,0.00000128,-0.00007051,-0.00001123,-0.0037229
 1,0.00041523,0.00327344,0.00335806,-0.00027278,-0.00108447,0.00003372,
 -0.00001427,0.00000605,-0.00001467,-0.00000698,0.00000058,-0.00023251,
 -0.00066942,-0.00050980,0.00002279,0.00019003,-0.00025419,-0.00002644,
 -0.00002539,0.00006824,0.00000484,0.00001187,0.00000148,0.00035754,-0.
 00020369,0.00018601,0.00002517,0.00000957,0.00002215,-0.00018784,-0.00
 013430,-0.00004552,0.00004389,0.00015357,0.00006395,0.00098657,-0.0034
 6380,0.00016931,-0.00247674,0.00057783,-0.00115320,-0.01318999,-0.0112
 7769,0.07341819,0.01075821,0.01819950,0.00107411,-0.00071186,-0.001292
 86,-0.00589047,0.00192817,0.00418138,0.00049581,-0.00013021,0.00037487
 ,0.00448679,-0.00070063,-0.00803092,0.00039845,-0.00052317,0.00011271,
 -0.00016369,-0.00005074,0.00005948,-0.00007070,-0.00001991,-0.00006322
 ,0.00001296,-0.00000742,-0.00000873,-0.00128699,0.00033068,0.00033050,
 0.00084227,0.00120594,0.00069367,-0.00002739,0.00002133,-0.00000571,-0
 .00000324,-0.00000173,0.00000532,-0.00040720,-0.00069836,0.00000122,0.
 00004601,0.00003481,-0.00009168,0.00006224,-0.00000150,-0.00008470,0.0
 0000524,-0.00000929,-0.00000901,-0.00017504,0.00009984,-0.00012666,0.0
 0001734,0.00000873,0.00000001,-0.00042544,0.00024058,-0.00105454,-0.00
 076163,0.00045840,0.00017515,0.00411826,0.00015904,-0.00034928,-0.0012
 8495,-0.00177933,0.00010233,0.07551846,0.07234641,-0.50654251,-0.07638
 121,-0.07247046,0.51223792,-0.00046694,-0.00115805,0.00050520,-0.00061
 728,-0.00026029,0.00058236,0.00022082,-0.00055478,0.00063589,-0.001240
 18,-0.00403686,-0.00212123,-0.00006928,0.00019207,-0.00012409,0.000329
 89,0.00029248,0.00010777,0.00006378,-0.00004616,-0.00013533,0.00000558
 ,0.00021717,-0.00004234,-0.09938889,0.02814443,0.03684523,0.00069580,-
 0.00122610,0.00032401,-0.00005724,0.00005117,-0.00000482,0.00004987,0.
 00000527,0.00002776,-0.00229720,0.02237874,0.03446038,0.00759480,-0.00
 944645,-0.00945872,-0.00015532,0.00016127,0.00004951,0.00003330,-0.000
 03592,-0.00003528,-0.00045705,0.00113712,0.00008009,0.00005823,0.00014
 032,-0.00015222,0.00027076,0.00043395,-0.00044108,-0.00023840,-0.00003
 589,0.00005174,0.00403061,0.00068872,-0.00102284,-0.00476437,0.0007288
 2,0.00090082,0.00454643,-0.00306845,-0.00398995,0.00057647,0.00155101,
 -0.00032075,0.61854029,-0.00088771,-0.00067416,-0.00017956,-0.00123518
 ,0.00524639,0.00158739,-0.00014234,0.00034060,0.00004240,0.00942025,-0
 .02292300,-0.04588118,-0.00008326,0.00021304,-0.00042942,0.00028767,0.
 00008836,-0.00007839,-0.00037667,0.00002330,0.00002786,-0.00005819,0.0
 0011336,0.00005975,0.00205616,-0.10224978,-0.06918555,-0.00331287,-0.0
 0862255,0.00159328,0.00001642,-0.00001742,0.00000973,0.00006089,0.0000
 5456,-0.00001833,0.00304542,-0.00133786,-0.00431820,-0.00232832,0.0070
 2454,0.00044793,0.00051436,-0.00015829,-0.00028788,-0.00006593,-0.0000
 2647,0.00004095,0.00096559,0.00008225,-0.00022554,-0.00015397,-0.00011
 753,0.00019318,0.00122399,-0.00014223,0.00025458,-0.00096288,0.0001772
 9,-0.00039031,0.00267279,-0.01002131,0.00798681,-0.00177295,-0.0034396
 0,-0.00471715,0.00128605,0.00274159,0.00075882,0.00067131,0.00058224,-
 0.00020477,-0.08131900,0.15379808,-0.00080078,0.00049748,-0.00002949,0
 .00017155,-0.00243274,-0.00801987,-0.00062090,0.00093737,-0.00157416,0
 .00685574,-0.01353270,-0.01196095,0.00016398,-0.00020798,0.00164446,0.
 00001174,0.00007721,-0.00027065,0.00007171,-0.00003650,0.00007751,-0.0
 0004539,-0.00011223,0.00017183,-0.00572219,-0.06335398,-0.18138413,-0.
 00080929,-0.00178539,0.00196425,0.00013381,-0.00009904,0.00001769,-0.0
 0000194,0.00003203,-0.00003744,0.00411097,-0.00888364,-0.01164843,0.00
 999542,-0.02408062,-0.03736247,0.00005462,-0.00010766,0.00023046,-0.00
 003006,0.00003122,0.00002613,0.00085025,-0.00101384,0.00078905,-0.0001
 7750,-0.00001378,0.00006496,-0.00009945,-0.00016508,0.00141961,0.00088
 614,-0.00053834,-0.00009874,-0.00287880,0.01341895,0.00277141,0.003615
 72,-0.00721264,0.00285253,-0.00147283,0.00237224,0.00461182,-0.0013616
 8,-0.00128092,-0.00121807,-0.05602130,0.12830465,0.27341611,-0.0000794
 5,-0.00001076,-0.00009459,-0.00051576,0.00020747,0.00038836,0.00001192
 ,0.00004618,0.00001639,0.00164493,-0.00006720,-0.00175540,0.00009656,-
 0.00014213,0.00003935,0.00000044,-0.00004041,0.00001448,-0.00004021,0.
 00001681,0.00001200,-0.00000414,-0.00000789,0.00000531,-0.00924100,-0.
 00049117,-0.00064070,-0.00042153,-0.00055924,0.00004036,0.00000131,-0.
 00000351,0.00000221,-0.00000049,0.00000044,-0.00000455,0.00189253,0.00
 055189,0.00177111,0.00164748,-0.00122891,-0.00166783,0.00005959,-0.000
 03739,-0.00004161,-0.00000900,0.00000628,0.00000468,0.00004815,-0.0000
 2359,-0.00000476,-0.00001907,0.00000903,0.00001348,0.00008938,-0.00005
 959,0.00001048,-0.00009601,0.00005150,-0.00003755,0.00019220,-0.001096
 46,0.00016953,-0.00097152,0.00156448,-0.00098880,-0.00119441,0.0009563
 9,0.00013010,0.00047972,-0.00044830,0.00012075,-0.52726447,0.07047837,
 0.04312046,0.53369285,0.00029635,0.00028648,-0.00008484,0.00031969,-0.
 00051963,-0.00045729,-0.00001986,0.00000861,-0.00022449,0.00485278,-0.
 00135913,-0.00179627,0.00000329,0.00001745,0.00012455,-0.00013999,-0.0
 0004830,-0.00002036,0.00013036,-0.00002794,-0.00000886,0.00001217,-0.0
 0003897,-0.00000497,0.02280193,-0.00386430,-0.00338525,-0.00045533,0.0
 0013023,0.00013478,0.00001168,-0.00000160,-0.00000048,-0.00001460,-0.0
 0001191,0.00000524,-0.00063839,-0.00128856,-0.00179523,-0.00109095,0.0
 0131049,0.00000569,-0.00016765,0.00005267,0.00012819,0.00002185,0.0000
 0719,-0.00001142,-0.00017738,-0.00012963,0.00014477,0.00002523,0.00000
 572,-0.00004500,-0.00048256,0.00007009,-0.00007210,0.00030387,-0.00008
 021,0.00013944,-0.00187195,0.00029733,0.00013900,0.00299048,-0.0006062
 5,0.00090362,-0.00150539,0.00354485,0.00210316,-0.00059877,-0.00263352
 ,0.00047546,0.04506542,-0.02075540,-0.02081407,-0.06967227,0.02563424,
 0.00001901,-0.00030589,-0.00000366,-0.00016819,0.00012284,0.00071235,0
 .00010308,0.00009699,-0.00008581,0.00083551,-0.00058836,-0.00013290,0.
 00002527,-0.00001809,-0.00012895,0.00010242,0.00004743,-0.00004611,0.0
 0000810,-0.00002391,-0.00000191,-0.00000835,-0.00000215,0.00004184,0.0
 4213407,-0.00790874,-0.00837954,-0.00003179,0.00009281,-0.00006530,0.0
 0000278,0.00000453,-0.00000080,0.00000141,0.00000103,0.00000016,0.0005
 1163,-0.00384901,-0.00572606,0.00055451,0.00095233,0.00034599,-0.00000
 060,0.00000840,-0.00000170,0.00000265,-0.00000698,0.00000454,0.0000387
 7,-0.00014771,-0.00007713,0.00001646,-0.00004606,0.00002996,-0.0000444
 9,0.00010682,-0.00021909,-0.00010844,0.00002555,0.00006035,0.00116631,
 0.00021185,-0.00109699,-0.00299679,0.00041823,0.00073831,-0.00073444,0
 .00132868,-0.00010294,-0.00010482,0.00045373,0.00060332,-0.00070081,-0
 .01539103,-0.03645341,-0.04062325,0.02441672,0.04998550\\0.00000625,-0
 .00000532,-0.00000066,0.00001840,-0.00000332,0.00000532,-0.00001276,0.
 00000697,0.00001597,-0.00000052,0.00000285,-0.00002318,0.00000384,0.00
 000323,0.00000413,-0.00000002,-0.00000453,0.00000152,-0.00000433,0.,0.
 00000355,0.00000183,0.00000123,-0.00000159,0.00000854,0.00000010,-0.00
 000798,-0.00000240,0.00000011,0.00000383,-0.00000291,0.00000181,-0.000
 00179,-0.00000247,-0.00000146,0.00000436,-0.00000530,-0.00000264,-0.00
 000298,-0.00000067,-0.00000142,0.00000352,0.00001718,-0.00000240,-0.00
 001012,-0.00000686,-0.00000451,-0.00000510,0.00000065,-0.00000940,-0.0
 0001260,0.00000549,0.00000608,0.00000064,-0.00000178,-0.00000160,-0.00
 000146,0.00000038,-0.00000287,-0.00000359,-0.00001508,-0.00000350,0.00
 001397,0.00000255,0.00000161,-0.00000181,-0.00000695,0.00001065,0.0000
 0518,0.00000288,-0.00000285,-0.00000157,-0.00001329,0.00000733,0.00001
 378,0.00000736,0.00000384,-0.00000132\\\@
 The archive entry for this job was punched.


 WE HAVE LEFT UNDONE THOSE THINGS WHICH WE OUGHT TO HAVE DONE,
 AND WE HAVE DONE THOSE THINGS WHICH WE OUGHT NOT TO HAVE DONE.
                   BOOK OF COMMON PRAYER                      
 Job cpu time:       0 days 10 hours 36 minutes 27.5 seconds.
 Elapsed time:       0 days  0 hours 40 minutes 46.2 seconds.
 File lengths (MBytes):  RWF=    704 Int=      0 D2E=      0 Chk=     27 Scr=      1
 Normal termination of Gaussian 16 at Wed Sep 27 12:24:10 2023.
