 Entering Gaussian System, Link 0=/opt/software/gaussian/g16.c01/g16
 Initial command:
 /opt/software/gaussian/g16.c01/l1.exe "/scratch/arhender/14836892/Gau-28330.inp" -scrdir="/scratch/arhender/14836892/"
 Entering Link 1 = /opt/software/gaussian/g16.c01/l1.exe PID=     28333.
  
 Copyright (c) 1988-2019, Gaussian, Inc.  All Rights Reserved.
  
 This is part of the Gaussian(R) 16 program.  It is based on
 the Gaussian(R) 09 system (copyright 2009, Gaussian, Inc.),
 the Gaussian(R) 03 system (copyright 2003, Gaussian, Inc.),
 the Gaussian(R) 98 system (copyright 1998, Gaussian, Inc.),
 the Gaussian(R) 94 system (copyright 1995, Gaussian, Inc.),
 the Gaussian 92(TM) system (copyright 1992, Gaussian, Inc.),
 the Gaussian 90(TM) system (copyright 1990, Gaussian, Inc.),
 the Gaussian 88(TM) system (copyright 1988, Gaussian, Inc.),
 the Gaussian 86(TM) system (copyright 1986, Carnegie Mellon
 University), and the Gaussian 82(TM) system (copyright 1983,
 Carnegie Mellon University). Gaussian is a federally registered
 trademark of Gaussian, Inc.
  
 This software contains proprietary and confidential information,
 including trade secrets, belonging to Gaussian, Inc.
  
 This software is provided under written license and may be
 used, copied, transmitted, or stored only in accord with that
 written license.
  
 The following legend is applicable only to US Government
 contracts under FAR:
  
                    RESTRICTED RIGHTS LEGEND
  
 Use, reproduction and disclosure by the US Government is
 subject to restrictions as set forth in subparagraphs (a)
 and (c) of the Commercial Computer Software - Restricted
 Rights clause in FAR 52.227-19.
  
 Gaussian, Inc.
 340 Quinnipiac St., Bldg. 40, Wallingford CT 06492
  
  
 ---------------------------------------------------------------
 Warning -- This program may not be used in any manner that
 competes with the business of Gaussian, Inc. or will provide
 assistance to any competitor of Gaussian, Inc.  The licensee
 of this program is prohibited from giving any competitor of
 Gaussian, Inc. access to this program.  By using this program,
 the user acknowledges that Gaussian, Inc. is engaged in the
 business of creating and licensing software in the field of
 computational chemistry and represents and warrants to the
 licensee that it is not a competitor of Gaussian, Inc. and that
 it will not use this program in any manner prohibited above.
 ---------------------------------------------------------------
  

 Cite this work as:
 Gaussian 16, Revision C.01,
 M. J. Frisch, G. W. Trucks, H. B. Schlegel, G. E. Scuseria, 
 M. A. Robb, J. R. Cheeseman, G. Scalmani, V. Barone, 
 G. A. Petersson, H. Nakatsuji, X. Li, M. Caricato, A. V. Marenich, 
 J. Bloino, B. G. Janesko, R. Gomperts, B. Mennucci, H. P. Hratchian, 
 J. V. Ortiz, A. F. Izmaylov, J. L. Sonnenberg, D. Williams-Young, 
 F. Ding, F. Lipparini, F. Egidi, J. Goings, B. Peng, A. Petrone, 
 T. Henderson, D. Ranasinghe, V. G. Zakrzewski, J. Gao, N. Rega, 
 G. Zheng, W. Liang, M. Hada, M. Ehara, K. Toyota, R. Fukuda, 
 J. Hasegawa, M. Ishida, T. Nakajima, Y. Honda, O. Kitao, H. Nakai, 
 T. Vreven, K. Throssell, J. A. Montgomery, Jr., J. E. Peralta, 
 F. Ogliaro, M. J. Bearpark, J. J. Heyd, E. N. Brothers, K. N. Kudin, 
 V. N. Staroverov, T. A. Keith, R. Kobayashi, J. Normand, 
 K. Raghavachari, A. P. Rendell, J. C. Burant, S. S. Iyengar, 
 J. Tomasi, M. Cossi, J. M. Millam, M. Klene, C. Adamo, R. Cammi, 
 J. W. Ochterski, R. L. Martin, K. Morokuma, O. Farkas, 
 J. B. Foresman, and D. J. Fox, Gaussian, Inc., Wallingford CT, 2019.
 
 ******************************************
 Gaussian 16:  ES64L-G16RevC.01  3-Jul-2019
                11-Oct-2023 
 ******************************************
 %chk=MannitolConformerOpt_32.chk
 %mem=8GB
 %nprocs=16
 Will use up to   16 processors via shared memory.
 ---------------------------------------------
 # opt freq wb97xd/Def2TZVPP geom=connectivity
 ---------------------------------------------
 1/18=20,19=15,26=3,38=1,57=2/1,3;
 2/9=110,12=2,17=6,18=5,40=1/2;
 3/5=44,7=202,11=2,25=1,30=1,71=1,74=-58/1,2,3;
 4//1;
 5/5=2,38=5/2;
 6/7=2,8=2,9=2,10=2,28=1/1;
 7//1,2,3,16;
 1/18=20,19=15,26=3/3(2);
 2/9=110/2;
 99//99;
 2/9=110/2;
 3/5=44,7=202,11=2,25=1,30=1,71=1,74=-58/1,2,3;
 4/5=5,16=3,69=1/1;
 5/5=2,38=5/2;
 7//1,2,3,16;
 1/18=20,19=15,26=3/3(-5);
 2/9=110/2;
 6/7=2,8=2,9=2,10=2,19=2,28=1/1;
 99/9=1/99;
 -------------------
 Title Card Required
 -------------------
 Symbolic Z-matrix:
 Charge =  0 Multiplicity = 1
 C                     0.        0.        0. 
 C                     1.5416    0.        0. 
 C                    -0.6196    0.6213    1.2572 
 C                     2.24     -0.7561    1.1493 
 H                     1.8992    1.0377    0. 
 H                    -0.3635   -1.0257   -0.1312 
 C                    -2.1336    0.8204    1.1176 
 H                    -0.1584    1.5927    1.4721 
 C                     1.8399   -2.2279    1.3202 
 H                     2.0732   -0.2202    2.0884 
 H                    -2.6333   -0.1237    0.8782 
 H                    -2.3763    1.5705    0.3593 
 H                     0.7595   -2.3856    1.2942 
 H                     2.225    -2.6023    2.2745 
 O                    -2.641     1.2623    2.3839 
 H                    -3.5852    1.459     2.2461 
 O                    -0.3875   -0.2165    2.3997 
 H                    -1.0118    0.1281    3.0749 
 O                    -0.4322    0.7237   -1.1673 
 H                     0.1762    0.4204   -1.8758 
 O                     1.9537   -0.5188   -1.2855 
 H                     2.9164   -0.6638   -1.1999 
 O                     3.6627   -0.7153    0.89 
 H                     3.8787   -1.606     0.5398 
 O                     2.4659   -3.007     0.2956 
 H                     2.1001   -3.907     0.3679 
 

 GradGradGradGradGradGradGradGradGradGradGradGradGradGradGradGradGradGrad
 Berny optimization.
 Initialization pass.
                           ----------------------------
                           !    Initial Parameters    !
                           ! (Angstroms and Degrees)  !
 --------------------------                            --------------------------
 ! Name  Definition              Value          Derivative Info.                !
 --------------------------------------------------------------------------------
 ! R1    R(1,2)                  1.5416         estimate D2E/DX2                !
 ! R2    R(1,3)                  1.5331         estimate D2E/DX2                !
 ! R3    R(1,6)                  1.0961         estimate D2E/DX2                !
 ! R4    R(1,19)                 1.4398         estimate D2E/DX2                !
 ! R5    R(2,4)                  1.5428         estimate D2E/DX2                !
 ! R6    R(2,5)                  1.0976         estimate D2E/DX2                !
 ! R7    R(2,21)                 1.4462         estimate D2E/DX2                !
 ! R8    R(3,7)                  1.5334         estimate D2E/DX2                !
 ! R9    R(3,8)                  1.0966         estimate D2E/DX2                !
 ! R10   R(3,17)                 1.4356         estimate D2E/DX2                !
 ! R11   R(4,9)                  1.5348         estimate D2E/DX2                !
 ! R12   R(4,10)                 1.094          estimate D2E/DX2                !
 ! R13   R(4,23)                 1.4467         estimate D2E/DX2                !
 ! R14   R(7,11)                 1.0947         estimate D2E/DX2                !
 ! R15   R(7,12)                 1.0939         estimate D2E/DX2                !
 ! R16   R(7,15)                 1.434          estimate D2E/DX2                !
 ! R17   R(9,13)                 1.0922         estimate D2E/DX2                !
 ! R18   R(9,14)                 1.0951         estimate D2E/DX2                !
 ! R19   R(9,25)                 1.4313         estimate D2E/DX2                !
 ! R20   R(15,16)                0.9743         estimate D2E/DX2                !
 ! R21   R(17,18)                0.982          estimate D2E/DX2                !
 ! R22   R(19,20)                0.9819         estimate D2E/DX2                !
 ! R23   R(21,22)                0.9773         estimate D2E/DX2                !
 ! R24   R(23,24)                0.9811         estimate D2E/DX2                !
 ! R25   R(25,26)                0.9742         estimate D2E/DX2                !
 ! A1    A(2,1,3)              113.8374         estimate D2E/DX2                !
 ! A2    A(2,1,6)              109.368          estimate D2E/DX2                !
 ! A3    A(2,1,19)             107.468          estimate D2E/DX2                !
 ! A4    A(3,1,6)              110.0814         estimate D2E/DX2                !
 ! A5    A(3,1,19)             109.865          estimate D2E/DX2                !
 ! A6    A(6,1,19)             105.8882         estimate D2E/DX2                !
 ! A7    A(1,2,4)              116.9153         estimate D2E/DX2                !
 ! A8    A(1,2,5)              109.0144         estimate D2E/DX2                !
 ! A9    A(1,2,21)             106.5561         estimate D2E/DX2                !
 ! A10   A(4,2,5)              108.4121         estimate D2E/DX2                !
 ! A11   A(4,2,21)             110.9379         estimate D2E/DX2                !
 ! A12   A(5,2,21)             104.2599         estimate D2E/DX2                !
 ! A13   A(1,3,7)              112.1475         estimate D2E/DX2                !
 ! A14   A(1,3,8)              110.4699         estimate D2E/DX2                !
 ! A15   A(1,3,17)             110.5334         estimate D2E/DX2                !
 ! A16   A(7,3,8)              108.5467         estimate D2E/DX2                !
 ! A17   A(7,3,17)             107.9294         estimate D2E/DX2                !
 ! A18   A(8,3,17)             107.0375         estimate D2E/DX2                !
 ! A19   A(2,4,9)              115.7796         estimate D2E/DX2                !
 ! A20   A(2,4,10)             109.2906         estimate D2E/DX2                !
 ! A21   A(2,4,23)             107.3269         estimate D2E/DX2                !
 ! A22   A(9,4,10)             109.5369         estimate D2E/DX2                !
 ! A23   A(9,4,23)             107.6601         estimate D2E/DX2                !
 ! A24   A(10,4,23)            106.8561         estimate D2E/DX2                !
 ! A25   A(3,7,11)             111.0161         estimate D2E/DX2                !
 ! A26   A(3,7,12)             111.7902         estimate D2E/DX2                !
 ! A27   A(3,7,15)             107.9981         estimate D2E/DX2                !
 ! A28   A(11,7,12)            109.7864         estimate D2E/DX2                !
 ! A29   A(11,7,15)            107.3001         estimate D2E/DX2                !
 ! A30   A(12,7,15)            108.8046         estimate D2E/DX2                !
 ! A31   A(4,9,13)             113.1852         estimate D2E/DX2                !
 ! A32   A(4,9,14)             109.4652         estimate D2E/DX2                !
 ! A33   A(4,9,25)             109.1636         estimate D2E/DX2                !
 ! A34   A(13,9,14)            108.6182         estimate D2E/DX2                !
 ! A35   A(13,9,25)            109.6949         estimate D2E/DX2                !
 ! A36   A(14,9,25)            106.4941         estimate D2E/DX2                !
 ! A37   A(7,15,16)            106.2746         estimate D2E/DX2                !
 ! A38   A(3,17,18)            103.8633         estimate D2E/DX2                !
 ! A39   A(1,19,20)            104.1071         estimate D2E/DX2                !
 ! A40   A(2,21,22)            104.8365         estimate D2E/DX2                !
 ! A41   A(4,23,24)            104.7658         estimate D2E/DX2                !
 ! A42   A(9,25,26)            106.5899         estimate D2E/DX2                !
 ! D1    D(3,1,2,4)             59.6383         estimate D2E/DX2                !
 ! D2    D(3,1,2,5)            -63.7017         estimate D2E/DX2                !
 ! D3    D(3,1,2,21)          -175.6797         estimate D2E/DX2                !
 ! D4    D(6,1,2,4)            -63.9492         estimate D2E/DX2                !
 ! D5    D(6,1,2,5)            172.7107         estimate D2E/DX2                !
 ! D6    D(6,1,2,21)            60.7328         estimate D2E/DX2                !
 ! D7    D(19,1,2,4)          -178.4579         estimate D2E/DX2                !
 ! D8    D(19,1,2,5)            58.202          estimate D2E/DX2                !
 ! D9    D(19,1,2,21)          -53.7759         estimate D2E/DX2                !
 ! D10   D(2,1,3,7)            170.2573         estimate D2E/DX2                !
 ! D11   D(2,1,3,8)             49.0257         estimate D2E/DX2                !
 ! D12   D(2,1,3,17)           -69.2541         estimate D2E/DX2                !
 ! D13   D(6,1,3,7)            -66.5432         estimate D2E/DX2                !
 ! D14   D(6,1,3,8)            172.2252         estimate D2E/DX2                !
 ! D15   D(6,1,3,17)            53.9455         estimate D2E/DX2                !
 ! D16   D(19,1,3,7)            49.689          estimate D2E/DX2                !
 ! D17   D(19,1,3,8)           -71.5426         estimate D2E/DX2                !
 ! D18   D(19,1,3,17)          170.1776         estimate D2E/DX2                !
 ! D19   D(2,1,19,20)           41.5084         estimate D2E/DX2                !
 ! D20   D(3,1,19,20)          165.854          estimate D2E/DX2                !
 ! D21   D(6,1,19,20)          -75.3024         estimate D2E/DX2                !
 ! D22   D(1,2,4,9)             55.259          estimate D2E/DX2                !
 ! D23   D(1,2,4,10)           -68.9708         estimate D2E/DX2                !
 ! D24   D(1,2,4,23)           175.497          estimate D2E/DX2                !
 ! D25   D(5,2,4,9)            178.9074         estimate D2E/DX2                !
 ! D26   D(5,2,4,10)            54.6776         estimate D2E/DX2                !
 ! D27   D(5,2,4,23)           -60.8546         estimate D2E/DX2                !
 ! D28   D(21,2,4,9)           -67.1805         estimate D2E/DX2                !
 ! D29   D(21,2,4,10)          168.5897         estimate D2E/DX2                !
 ! D30   D(21,2,4,23)           53.0576         estimate D2E/DX2                !
 ! D31   D(1,2,21,22)         -169.8492         estimate D2E/DX2                !
 ! D32   D(4,2,21,22)          -41.5779         estimate D2E/DX2                !
 ! D33   D(5,2,21,22)           74.9205         estimate D2E/DX2                !
 ! D34   D(1,3,7,11)            56.313          estimate D2E/DX2                !
 ! D35   D(1,3,7,12)           -66.6521         estimate D2E/DX2                !
 ! D36   D(1,3,7,15)           173.6856         estimate D2E/DX2                !
 ! D37   D(8,3,7,11)           178.6444         estimate D2E/DX2                !
 ! D38   D(8,3,7,12)            55.6792         estimate D2E/DX2                !
 ! D39   D(8,3,7,15)           -63.9831         estimate D2E/DX2                !
 ! D40   D(17,3,7,11)          -65.6735         estimate D2E/DX2                !
 ! D41   D(17,3,7,12)          171.3613         estimate D2E/DX2                !
 ! D42   D(17,3,7,15)           51.699          estimate D2E/DX2                !
 ! D43   D(1,3,17,18)         -165.1672         estimate D2E/DX2                !
 ! D44   D(7,3,17,18)          -42.19           estimate D2E/DX2                !
 ! D45   D(8,3,17,18)           74.4775         estimate D2E/DX2                !
 ! D46   D(2,4,9,13)           -46.8604         estimate D2E/DX2                !
 ! D47   D(2,4,9,14)          -168.1752         estimate D2E/DX2                !
 ! D48   D(2,4,9,25)            75.6174         estimate D2E/DX2                !
 ! D49   D(10,4,9,13)           77.2415         estimate D2E/DX2                !
 ! D50   D(10,4,9,14)          -44.0733         estimate D2E/DX2                !
 ! D51   D(10,4,9,25)         -160.2807         estimate D2E/DX2                !
 ! D52   D(23,4,9,13)         -166.9176         estimate D2E/DX2                !
 ! D53   D(23,4,9,14)           71.7676         estimate D2E/DX2                !
 ! D54   D(23,4,9,25)          -44.4398         estimate D2E/DX2                !
 ! D55   D(2,4,23,24)         -102.6886         estimate D2E/DX2                !
 ! D56   D(9,4,23,24)           22.5822         estimate D2E/DX2                !
 ! D57   D(10,4,23,24)         140.1741         estimate D2E/DX2                !
 ! D58   D(3,7,15,16)          174.9248         estimate D2E/DX2                !
 ! D59   D(11,7,15,16)         -65.3302         estimate D2E/DX2                !
 ! D60   D(12,7,15,16)          53.3948         estimate D2E/DX2                !
 ! D61   D(4,9,25,26)         -172.9277         estimate D2E/DX2                !
 ! D62   D(13,9,25,26)         -48.3797         estimate D2E/DX2                !
 ! D63   D(14,9,25,26)          68.9843         estimate D2E/DX2                !
 --------------------------------------------------------------------------------
 Trust Radius=3.00D-01 FncErr=1.00D-07 GrdErr=1.00D-06 EigMax=2.50D+02 EigMin=1.00D-04
 Number of steps in this run=    140 maximum allowed number of steps=    156.
 GradGradGradGradGradGradGradGradGradGradGradGradGradGradGradGradGradGrad

                          Input orientation:                          
 ---------------------------------------------------------------------
 Center     Atomic      Atomic             Coordinates (Angstroms)
 Number     Number       Type             X           Y           Z
 ---------------------------------------------------------------------
      1          6           0        0.000000    0.000000    0.000000
      2          6           0        1.541600    0.000000    0.000000
      3          6           0       -0.619600    0.621300    1.257200
      4          6           0        2.240000   -0.756100    1.149300
      5          1           0        1.899200    1.037700    0.000000
      6          1           0       -0.363500   -1.025700   -0.131200
      7          6           0       -2.133600    0.820400    1.117600
      8          1           0       -0.158400    1.592700    1.472100
      9          6           0        1.839900   -2.227900    1.320200
     10          1           0        2.073200   -0.220200    2.088400
     11          1           0       -2.633300   -0.123700    0.878200
     12          1           0       -2.376300    1.570500    0.359300
     13          1           0        0.759500   -2.385600    1.294200
     14          1           0        2.225000   -2.602300    2.274500
     15          8           0       -2.641000    1.262300    2.383900
     16          1           0       -3.585200    1.459000    2.246100
     17          8           0       -0.387500   -0.216500    2.399700
     18          1           0       -1.011800    0.128100    3.074900
     19          8           0       -0.432200    0.723700   -1.167300
     20          1           0        0.176200    0.420400   -1.875800
     21          8           0        1.953700   -0.518800   -1.285500
     22          1           0        2.916400   -0.663800   -1.199900
     23          8           0        3.662700   -0.715300    0.890000
     24          1           0        3.878700   -1.606000    0.539800
     25          8           0        2.465900   -3.007000    0.295600
     26          1           0        2.100100   -3.907000    0.367900
 ---------------------------------------------------------------------
                    Distance matrix (angstroms):
                    1          2          3          4          5
     1  C    0.000000
     2  C    1.541600   0.000000
     3  C    1.533124   2.576306   0.000000
     4  C    2.628722   1.542835   3.175876   0.000000
     5  H    2.164205   1.097588   2.845750   2.157488   0.000000
     6  H    1.096087   2.167644   2.169297   2.913859   3.065068
     7  C    2.544471   3.928000   1.533403   4.649165   4.190433
     8  H    2.174595   2.755680   1.096588   3.372445   2.590139
     9  C    3.176743   2.606808   3.764445   1.534758   3.522866
    10  H    2.950942   2.166218   2.941120   1.094038   2.444177
    11  H    2.778634   4.268059   2.180288   4.921634   4.760635
    12  H    2.870953   4.236214   2.189338   5.229474   4.323525
    13  H    2.818312   2.824486   3.308283   2.206388   3.833126
    14  H    4.110467   3.523117   4.417946   2.162118   4.304544
    15  O    3.775084   4.976999   2.401331   5.424236   5.132917
    16  H    4.475188   5.784265   3.236425   6.327922   5.941473
    17  O    2.440407   3.086561   1.435648   2.959464   3.544090
    18  H    3.239623   3.998909   1.923824   3.881230   4.330855
    19  O    1.439836   2.404624   2.433887   3.833679   2.626140
    20  H    1.930391   2.357897   3.238726   3.846382   2.620766
    21  O    2.395539   1.446198   3.793023   2.463033   2.019449
    22  H    3.222698   1.941769   4.493564   2.446380   2.317231
    23  O    3.836551   2.408904   4.501048   1.446712   2.641030
    24  H    4.232604   2.886634   5.070526   1.944006   3.346484
    25  O    3.900012   3.159709   4.858965   2.417930   4.094890
    26  H    4.450890   3.963827   5.356596   3.249358   4.962436
                    6          7          8          9         10
     6  H    0.000000
     7  C    2.846198   0.000000
     8  H    3.077118   2.150240   0.000000
     9  C    2.899451   5.012173   4.314309   0.000000
    10  H    3.393075   4.440998   2.940488   2.162272   0.000000
    11  H    2.642818   1.094686   3.069833   4.963118   4.860559
    12  H    3.321477   1.093879   2.481511   5.755651   5.098475
    13  H    2.267647   4.321996   4.086693   1.092158   2.654340
    14  H    3.869547   5.661333   4.891060   1.095064   2.394176
    15  O    4.092393   1.433962   2.665304   5.778531   4.950637
    16  H    4.712180   1.946398   3.515666   6.624367   5.904411
    17  O    2.657223   2.401626   2.046004   3.189414   2.480316
    18  H    3.468519   2.359817   2.332876   4.094130   3.257564
    19  O    2.034361   2.850418   2.792232   4.479067   4.215158
    20  H    2.329401   3.802055   3.562959   4.471667   4.441155
    21  O    2.637948   4.926902   4.064942   3.118276   3.389195
    22  H    3.468549   5.751187   4.656798   3.155339   3.423548
    23  O    4.165271   6.000606   4.501834   2.407412   2.051292
    24  H    4.333965   6.509149   5.234409   2.269910   2.752896
    25  O    3.480404   6.039874   5.424790   1.431320   3.336855
    26  H    3.823652   6.390194   6.047047   1.947808   4.068579
                   11         12         13         14         15
    11  H    0.000000
    12  H    1.790424   0.000000
    13  H    4.098822   5.134005   0.000000
    14  H    5.629937   6.500170   1.776411   0.000000
    15  O    2.046506   2.064960   5.104706   6.214906   0.000000
    16  H    2.298304   2.243632   5.879071   7.088962   0.974266
    17  O    2.714257   3.363321   2.691233   3.540180   2.695433
    18  H    2.741926   3.364054   3.553461   4.309594   2.101947
    19  O    3.122018   2.612872   4.140879   5.474393   4.216623
    20  H    3.971631   3.582410   4.273497   5.528045   5.175950
    21  O    5.087069   5.081283   3.400869   4.133785   6.143947
    22  H    5.950578   5.952804   3.719859   4.038226   6.887538
    23  O    6.323745   6.478892   3.373700   2.746742   6.773424
    24  H    6.687142   7.017675   3.302469   2.595481   7.357604
    25  O    5.886823   6.663668   2.072472   2.034173   6.976270
    26  H    6.081023   7.073983   2.229327   2.313648   7.298215
                   16         17         18         19         20
    16  H    0.000000
    17  O    3.613333   0.000000
    18  H    3.013402   0.982036   0.000000
    19  O    4.704612   3.689101   4.322839   0.000000
    20  H    5.675992   4.359277   5.099629   0.981893   0.000000
    21  O    6.860270   4.376449   5.312792   2.692637   2.095246
    22  H    7.658459   4.906420   5.859332   3.624823   3.023413
    23  O    7.687564   4.351105   5.228390   4.803271   4.592945
    24  H    8.247150   4.856995   5.775017   5.188984   4.863119
    25  O    7.769518   4.511764   5.444975   4.945420   4.658838
    26  H    8.040163   4.892459   5.770078   5.496614   5.240417
                   21         22         23         24         25
    21  O    0.000000
    22  H    0.977315   0.000000
    23  O    2.773462   2.219752   0.000000
    24  H    2.866941   2.200072   0.981143   0.000000
    25  O    2.992217   2.816036   2.652834   2.004604   0.000000
    26  H    3.772938   3.693601   3.591832   2.913343   0.974185
                   26
    26  H    0.000000
 Stoichiometry    C6H14O6
 Framework group  C1[X(C6H14O6)]
 Deg. of freedom    72
 Full point group                 C1      NOp   1
 Largest Abelian subgroup         C1      NOp   1
 Largest concise Abelian subgroup C1      NOp   1
                         Standard orientation:                         
 ---------------------------------------------------------------------
 Center     Atomic      Atomic             Coordinates (Angstroms)
 Number     Number       Type             X           Y           Z
 ---------------------------------------------------------------------
      1          6           0        0.544733    0.792628    0.266094
      2          6           0       -0.775178    0.774649   -0.530173
      3          6           0        1.636502   -0.107701   -0.323752
      4          6           0       -1.482651   -0.588338   -0.678799
      5          1           0       -0.593409    1.182068   -1.533003
      6          1           0        0.345573    0.510466    1.306347
      7          6           0        2.996519    0.117066    0.347931
      8          1           0        1.744397    0.074955   -1.399624
      9          6           0       -1.795570   -1.324310    0.631128
     10          1           0       -0.886819   -1.235836   -1.328913
     11          1           0        2.929180   -0.031825    1.430352
     12          1           0        3.394702    1.113458    0.135271
     13          1           0       -0.950255   -1.350394    1.322194
     14          1           0       -2.097058   -2.353256    0.408548
     15          8           0        3.909813   -0.864082   -0.161469
     16          1           0        4.781227   -0.648565    0.217191
     17          8           0        1.288400   -1.491413   -0.164840
     18          1           0        2.129497   -1.967218   -0.339653
     19          8           0        1.005199    2.156181    0.308781
     20          1           0        0.190007    2.679119    0.470372
     21          8           0       -1.647146    1.744030    0.095495
     22          1           0       -2.521264    1.596718   -0.316041
     23          8           0       -2.737083   -0.350736   -1.359182
     24          1           0       -3.415810   -0.385090   -0.651516
     25          8           0       -2.917227   -0.700148    1.264363
     26          1           0       -3.011749   -1.119219    2.138710
 ---------------------------------------------------------------------
 Rotational constants (GHZ):           1.4855315           0.5160239           0.4451850
 Standard basis: def2TZVPP (5D, 7F)
 There are   642 symmetry adapted cartesian basis functions of A   symmetry.
 There are   568 symmetry adapted basis functions of A   symmetry.
   568 basis functions,   850 primitive gaussians,   642 cartesian basis functions
    49 alpha electrons       49 beta electrons
       nuclear repulsion energy       823.9909878559 Hartrees.
 NAtoms=   26 NActive=   26 NUniq=   26 SFac= 1.00D+00 NAtFMM=   60 NAOKFM=F Big=F
 Integral buffers will be    131072 words long.
 Raffenetti 2 integral format.
 Two-electron integral symmetry is turned on.
 Nuclear repulsion after empirical dispersion term =      823.9729526940 Hartrees.
 One-electron integrals computed using PRISM.
   1 Symmetry operations used in ECPInt.
 ECPInt:  NShTT=   23436 NPrTT=   62434 LenC2=   21712 LenP2D=   45098.
 LDataN:  DoStor=T MaxTD1= 6 Len=  172
 NBasis=   568 RedAO= T EigKep=  5.42D-05  NBF=   568
 NBsUse=   568 1.00D-06 EigRej= -1.00D+00 NBFU=   568
 ExpMin= 9.52D-02 ExpMax= 2.70D+04 ExpMxC= 9.22D+02 IAcc=3 IRadAn=         5 AccDes= 0.00D+00
 Harris functional with IExCor= 4639 and IRadAn=       5 diagonalized for initial guess.
 HarFok:  IExCor= 4639 AccDes= 0.00D+00 IRadAn=         5 IDoV= 1 UseB2=F ITyADJ=14
 ICtDFT=  3500011 ScaDFX=  1.000000  1.000000  1.000000  1.000000
 FoFCou: FMM=F IPFlag=           0 FMFlag=      100000 FMFlg1=           0
         NFxFlg=           0 DoJE=T BraDBF=F KetDBF=T FulRan=T
         wScrn=  0.000000 ICntrl=       500 IOpCl=  0 I1Cent=   200000004 NGrid=           0
         NMat0=    1 NMatS0=      1 NMatT0=    0 NMatD0=    1 NMtDS0=    0 NMtDT0=    0
 Petite list used in FoFCou.
 Requested convergence on RMS density matrix=1.00D-08 within 128 cycles.
 Requested convergence on MAX density matrix=1.00D-06.
 Requested convergence on             energy=1.00D-06.
 No special actions if energy rises.
 Integral accuracy reduced to 1.0D-05 until final iterations.
 Initial convergence to 1.0D-05 achieved.  Increase integral accuracy.
 SCF Done:  E(RwB97XD) =  -688.462579645     A.U. after   14 cycles
            NFock= 14  Conv=0.24D-08     -V/T= 2.0050

 **********************************************************************

            Population analysis using the SCF Density.

 **********************************************************************

 Orbital symmetries:
       Occupied  (A) (A) (A) (A) (A) (A) (A) (A) (A) (A) (A) (A)
                 (A) (A) (A) (A) (A) (A) (A) (A) (A) (A) (A) (A)
                 (A) (A) (A) (A) (A) (A) (A) (A) (A) (A) (A) (A)
                 (A) (A) (A) (A) (A) (A) (A) (A) (A) (A) (A) (A)
                 (A)
       Virtual   (A) (A) (A) (A) (A) (A) (A) (A) (A) (A) (A) (A)
                 (A) (A) (A) (A) (A) (A) (A) (A) (A) (A) (A) (A)
                 (A) (A) (A) (A) (A) (A) (A) (A) (A) (A) (A) (A)
                 (A) (A) (A) (A) (A) (A) (A) (A) (A) (A) (A) (A)
                 (A) (A) (A) (A) (A) (A) (A) (A) (A) (A) (A) (A)
                 (A) (A) (A) (A) (A) (A) (A) (A) (A) (A) (A) (A)
                 (A) (A) (A) (A) (A) (A) (A) (A) (A) (A) (A) (A)
                 (A) (A) (A) (A) (A) (A) (A) (A) (A) (A) (A) (A)
                 (A) (A) (A) (A) (A) (A) (A) (A) (A) (A) (A) (A)
                 (A) (A) (A) (A) (A) (A) (A) (A) (A) (A) (A) (A)
                 (A) (A) (A) (A) (A) (A) (A) (A) (A) (A) (A) (A)
                 (A) (A) (A) (A) (A) (A) (A) (A) (A) (A) (A) (A)
                 (A) (A) (A) (A) (A) (A) (A) (A) (A) (A) (A) (A)
                 (A) (A) (A) (A) (A) (A) (A) (A) (A) (A) (A) (A)
                 (A) (A) (A) (A) (A) (A) (A) (A) (A) (A) (A) (A)
                 (A) (A) (A) (A) (A) (A) (A) (A) (A) (A) (A) (A)
                 (A) (A) (A) (A) (A) (A) (A) (A) (A) (A) (A) (A)
                 (A) (A) (A) (A) (A) (A) (A) (A) (A) (A) (A) (A)
                 (A) (A) (A) (A) (A) (A) (A) (A) (A) (A) (A) (A)
                 (A) (A) (A) (A) (A) (A) (A) (A) (A) (A) (A) (A)
                 (A) (A) (A) (A) (A) (A) (A) (A) (A) (A) (A) (A)
                 (A) (A) (A) (A) (A) (A) (A) (A) (A) (A) (A) (A)
                 (A) (A) (A) (A) (A) (A) (A) (A) (A) (A) (A) (A)
                 (A) (A) (A) (A) (A) (A) (A) (A) (A) (A) (A) (A)
                 (A) (A) (A) (A) (A) (A) (A) (A) (A) (A) (A) (A)
                 (A) (A) (A) (A) (A) (A) (A) (A) (A) (A) (A) (A)
                 (A) (A) (A) (A) (A) (A) (A) (A) (A) (A) (A) (A)
                 (A) (A) (A) (A) (A) (A) (A) (A) (A) (A) (A) (A)
                 (A) (A) (A) (A) (A) (A) (A) (A) (A) (A) (A) (A)
                 (A) (A) (A) (A) (A) (A) (A) (A) (A) (A) (A) (A)
                 (A) (A) (A) (A) (A) (A) (A) (A) (A) (A) (A) (A)
                 (A) (A) (A) (A) (A) (A) (A) (A) (A) (A) (A) (A)
                 (A) (A) (A) (A) (A) (A) (A) (A) (A) (A) (A) (A)
                 (A) (A) (A) (A) (A) (A) (A) (A) (A) (A) (A) (A)
                 (A) (A) (A) (A) (A) (A) (A) (A) (A) (A) (A) (A)
                 (A) (A) (A) (A) (A) (A) (A) (A) (A) (A) (A) (A)
                 (A) (A) (A) (A) (A) (A) (A) (A) (A) (A) (A) (A)
                 (A) (A) (A) (A) (A) (A) (A) (A) (A) (A) (A) (A)
                 (A) (A) (A) (A) (A) (A) (A) (A) (A) (A) (A) (A)
                 (A) (A) (A) (A) (A) (A) (A) (A) (A) (A) (A) (A)
                 (A) (A) (A) (A) (A) (A) (A) (A) (A) (A) (A) (A)
                 (A) (A) (A) (A) (A) (A) (A) (A) (A) (A) (A) (A)
                 (A) (A) (A) (A) (A) (A) (A) (A) (A) (A) (A) (A)
                 (A) (A) (A)
 The electronic state is 1-A.
 Alpha  occ. eigenvalues --  -19.26617 -19.26509 -19.25512 -19.25152 -19.24855
 Alpha  occ. eigenvalues --  -19.24658 -10.34619 -10.34406 -10.34164 -10.33768
 Alpha  occ. eigenvalues --  -10.33735 -10.33662  -1.15026  -1.14594  -1.13111
 Alpha  occ. eigenvalues --   -1.11698  -1.11234  -1.09727  -0.88198  -0.84908
 Alpha  occ. eigenvalues --   -0.80018  -0.74809  -0.70358  -0.67051  -0.62860
 Alpha  occ. eigenvalues --   -0.62475  -0.62006  -0.59631  -0.58512  -0.57617
 Alpha  occ. eigenvalues --   -0.56070  -0.54864  -0.53109  -0.51545  -0.50263
 Alpha  occ. eigenvalues --   -0.49552  -0.47846  -0.46222  -0.45775  -0.45140
 Alpha  occ. eigenvalues --   -0.44210  -0.41756  -0.41201  -0.38839  -0.37961
 Alpha  occ. eigenvalues --   -0.37740  -0.36508  -0.35475  -0.34538
 Alpha virt. eigenvalues --    0.08748   0.09370   0.12320   0.12717   0.13808
 Alpha virt. eigenvalues --    0.15141   0.16582   0.17285   0.18108   0.18755
 Alpha virt. eigenvalues --    0.19622   0.20030   0.20960   0.21393   0.22118
 Alpha virt. eigenvalues --    0.22675   0.24234   0.24554   0.26099   0.27314
 Alpha virt. eigenvalues --    0.28202   0.29917   0.30600   0.31975   0.33250
 Alpha virt. eigenvalues --    0.34017   0.36831   0.37208   0.37419   0.38955
 Alpha virt. eigenvalues --    0.39274   0.40255   0.40585   0.40751   0.42232
 Alpha virt. eigenvalues --    0.42940   0.43293   0.43654   0.44432   0.45456
 Alpha virt. eigenvalues --    0.45693   0.46019   0.47086   0.48196   0.48346
 Alpha virt. eigenvalues --    0.48985   0.49265   0.50191   0.51152   0.51559
 Alpha virt. eigenvalues --    0.52173   0.52865   0.53437   0.54353   0.54905
 Alpha virt. eigenvalues --    0.55590   0.56463   0.56751   0.57867   0.58677
 Alpha virt. eigenvalues --    0.60708   0.61447   0.62690   0.64158   0.64453
 Alpha virt. eigenvalues --    0.65423   0.66135   0.66587   0.66921   0.68191
 Alpha virt. eigenvalues --    0.69923   0.71528   0.72115   0.72812   0.74141
 Alpha virt. eigenvalues --    0.74617   0.76001   0.76796   0.77628   0.79768
 Alpha virt. eigenvalues --    0.81588   0.82217   0.83411   0.84669   0.86380
 Alpha virt. eigenvalues --    0.88213   0.88816   0.89621   0.90328   0.91539
 Alpha virt. eigenvalues --    0.92479   0.93497   0.94586   0.94679   0.95485
 Alpha virt. eigenvalues --    0.97261   0.97538   0.99742   1.00530   1.01432
 Alpha virt. eigenvalues --    1.02378   1.03461   1.04634   1.06282   1.07456
 Alpha virt. eigenvalues --    1.09116   1.09484   1.10191   1.10892   1.12328
 Alpha virt. eigenvalues --    1.13265   1.13353   1.14934   1.17323   1.18549
 Alpha virt. eigenvalues --    1.19748   1.20753   1.21370   1.21943   1.23283
 Alpha virt. eigenvalues --    1.24559   1.27272   1.27976   1.29462   1.29897
 Alpha virt. eigenvalues --    1.30842   1.31430   1.32540   1.32943   1.34490
 Alpha virt. eigenvalues --    1.35358   1.36384   1.37562   1.38787   1.40740
 Alpha virt. eigenvalues --    1.41868   1.43229   1.44415   1.45629   1.46193
 Alpha virt. eigenvalues --    1.47027   1.48834   1.50276   1.50676   1.51508
 Alpha virt. eigenvalues --    1.52065   1.53553   1.54276   1.56083   1.57015
 Alpha virt. eigenvalues --    1.59010   1.59361   1.61392   1.63625   1.64533
 Alpha virt. eigenvalues --    1.66143   1.67388   1.69949   1.72555   1.72836
 Alpha virt. eigenvalues --    1.74899   1.79137   1.79745   1.83703   1.84717
 Alpha virt. eigenvalues --    1.88789   1.89592   1.90153   1.91884   1.93283
 Alpha virt. eigenvalues --    1.94129   1.95518   1.96946   1.97519   1.99258
 Alpha virt. eigenvalues --    2.00694   2.01868   2.03543   2.05208   2.05544
 Alpha virt. eigenvalues --    2.06546   2.07384   2.08261   2.08843   2.10807
 Alpha virt. eigenvalues --    2.11124   2.13093   2.15003   2.15718   2.16583
 Alpha virt. eigenvalues --    2.17836   2.18500   2.18889   2.22248   2.24614
 Alpha virt. eigenvalues --    2.25118   2.27442   2.29241   2.30320   2.33072
 Alpha virt. eigenvalues --    2.33692   2.35056   2.36735   2.37665   2.39558
 Alpha virt. eigenvalues --    2.42560   2.45830   2.48158   2.50981   2.51661
 Alpha virt. eigenvalues --    2.54309   2.58292   2.59459   2.63996   2.64929
 Alpha virt. eigenvalues --    2.66600   2.67267   2.69149   2.70795   2.71552
 Alpha virt. eigenvalues --    2.72329   2.74914   2.75529   2.76606   2.77697
 Alpha virt. eigenvalues --    2.78664   2.80088   2.83048   2.83249   2.85086
 Alpha virt. eigenvalues --    2.85707   2.87617   2.88144   2.88740   2.89308
 Alpha virt. eigenvalues --    2.92150   2.94096   2.95786   2.97243   2.97797
 Alpha virt. eigenvalues --    2.98543   3.00610   3.01224   3.02564   3.03531
 Alpha virt. eigenvalues --    3.06121   3.07120   3.08321   3.09347   3.10897
 Alpha virt. eigenvalues --    3.12133   3.12720   3.13301   3.14572   3.15236
 Alpha virt. eigenvalues --    3.17367   3.17622   3.19651   3.20617   3.21150
 Alpha virt. eigenvalues --    3.21808   3.24027   3.24678   3.26439   3.27263
 Alpha virt. eigenvalues --    3.27845   3.29611   3.31198   3.32533   3.34072
 Alpha virt. eigenvalues --    3.34515   3.35052   3.35832   3.36277   3.37669
 Alpha virt. eigenvalues --    3.39100   3.39298   3.40858   3.41567   3.43024
 Alpha virt. eigenvalues --    3.43487   3.44468   3.45371   3.47486   3.48537
 Alpha virt. eigenvalues --    3.49353   3.50324   3.51098   3.51537   3.53626
 Alpha virt. eigenvalues --    3.54073   3.55242   3.56458   3.57327   3.58208
 Alpha virt. eigenvalues --    3.60004   3.61790   3.63642   3.65508   3.66312
 Alpha virt. eigenvalues --    3.67296   3.68065   3.70608   3.71328   3.72268
 Alpha virt. eigenvalues --    3.73448   3.74447   3.75615   3.76163   3.78710
 Alpha virt. eigenvalues --    3.78951   3.80762   3.81312   3.82441   3.82711
 Alpha virt. eigenvalues --    3.83877   3.86286   3.87470   3.89380   3.90659
 Alpha virt. eigenvalues --    3.91122   3.92155   3.93340   3.94976   3.96860
 Alpha virt. eigenvalues --    3.97898   3.98429   3.99282   4.00273   4.01554
 Alpha virt. eigenvalues --    4.02415   4.03576   4.04921   4.05852   4.06293
 Alpha virt. eigenvalues --    4.07456   4.07677   4.09092   4.09784   4.11764
 Alpha virt. eigenvalues --    4.12387   4.13335   4.14363   4.15531   4.17004
 Alpha virt. eigenvalues --    4.17172   4.18423   4.18839   4.20276   4.21627
 Alpha virt. eigenvalues --    4.22763   4.24932   4.25365   4.26627   4.28709
 Alpha virt. eigenvalues --    4.29262   4.30798   4.32191   4.33532   4.33980
 Alpha virt. eigenvalues --    4.35759   4.36549   4.37464   4.39014   4.40581
 Alpha virt. eigenvalues --    4.41442   4.42433   4.44546   4.47061   4.47791
 Alpha virt. eigenvalues --    4.49730   4.50194   4.54626   4.55920   4.56260
 Alpha virt. eigenvalues --    4.56857   4.59307   4.59474   4.60987   4.61938
 Alpha virt. eigenvalues --    4.63109   4.64276   4.66024   4.69561   4.70203
 Alpha virt. eigenvalues --    4.71746   4.73675   4.75944   4.76638   4.80361
 Alpha virt. eigenvalues --    4.81734   4.83387   4.83841   4.84999   4.88328
 Alpha virt. eigenvalues --    4.89785   4.91784   4.94006   4.94381   4.95426
 Alpha virt. eigenvalues --    4.96941   4.99225   5.00855   5.02154   5.03608
 Alpha virt. eigenvalues --    5.05335   5.06245   5.09838   5.10008   5.11787
 Alpha virt. eigenvalues --    5.13489   5.15101   5.18073   5.18519   5.21787
 Alpha virt. eigenvalues --    5.23070   5.24492   5.25447   5.28877   5.31528
 Alpha virt. eigenvalues --    5.32224   5.33537   5.37732   5.40902   5.44021
 Alpha virt. eigenvalues --    5.46941   5.49741   5.51794   5.57054   5.59279
 Alpha virt. eigenvalues --    5.60660   5.62216   5.63556   5.66069   5.67099
 Alpha virt. eigenvalues --    5.68864   5.69683   5.71709   5.72601   5.73322
 Alpha virt. eigenvalues --    5.77997   5.81737   5.83013   5.85139   5.86197
 Alpha virt. eigenvalues --    5.87152   5.89241   5.92321   5.93930   5.95923
 Alpha virt. eigenvalues --    5.97936   6.01585   6.01678   6.12604   6.13065
 Alpha virt. eigenvalues --    6.14629   6.17526   6.20200   6.22471   6.53269
 Alpha virt. eigenvalues --    6.53708   6.56453   6.56706   6.58751   6.60123
 Alpha virt. eigenvalues --    6.71582   6.72705   6.73173   6.74758   6.75692
 Alpha virt. eigenvalues --    6.76811   6.77655   6.78545   6.80209   6.80650
 Alpha virt. eigenvalues --    6.81322   6.82024   6.82754   6.84359   6.90010
 Alpha virt. eigenvalues --    6.91861   6.92516   6.93562   6.96138   6.99617
 Alpha virt. eigenvalues --    7.00804   7.04173   7.05038   7.08133   7.15711
 Alpha virt. eigenvalues --    7.16938   7.22207   7.22576   7.23477   7.25307
 Alpha virt. eigenvalues --    7.38654   7.40051   7.41622   7.44358   7.44985
 Alpha virt. eigenvalues --    7.47708   7.49698   7.51611   7.55334   7.61002
 Alpha virt. eigenvalues --    7.61806   7.66279  23.09848  23.15634  23.19944
 Alpha virt. eigenvalues --   23.25857  23.40306  23.42684  44.10661  44.12618
 Alpha virt. eigenvalues --   44.23890  44.27570  44.30616  44.35930
          Condensed to atoms (all electrons):
               1          2          3          4          5          6
     1  C    5.121384   0.198675   0.091682  -0.020379  -0.037275   0.391769
     2  C    0.198675   5.030714   0.030896   0.234459   0.433451  -0.021244
     3  C    0.091682   0.030896   5.047099   0.003086  -0.006890  -0.025842
     4  C   -0.020379   0.234459   0.003086   4.897813  -0.047057  -0.002504
     5  H   -0.037275   0.433451  -0.006890  -0.047057   0.570010   0.008708
     6  H    0.391769  -0.021244  -0.025842  -0.002504   0.008708   0.612585
     7  C    0.014028  -0.008549   0.270783   0.000776  -0.001201  -0.016608
     8  H   -0.040211  -0.006123   0.400706   0.001840   0.008435   0.009028
     9  C    0.017086  -0.010374  -0.005587   0.265890   0.010264  -0.003860
    10  H   -0.003188  -0.030665  -0.000781   0.420226  -0.002388  -0.000025
    11  H    0.014416   0.000890  -0.055929  -0.000361   0.000066   0.005688
    12  H   -0.014480  -0.000290  -0.022972   0.000383   0.000148   0.001669
    13  H    0.011479  -0.010409  -0.008883  -0.016503  -0.000139  -0.003402
    14  H   -0.003202   0.007130   0.001198  -0.040835  -0.000393   0.000689
    15  O    0.005726  -0.000185  -0.069715  -0.000008   0.000003  -0.000303
    16  H   -0.001054   0.000018   0.010631   0.000000  -0.000000  -0.000037
    17  O   -0.045131  -0.007715   0.263129  -0.015590   0.000002   0.004241
    18  H    0.005023   0.002175  -0.033430  -0.002107  -0.000091  -0.000054
    19  O    0.268802  -0.022997  -0.049037   0.010021   0.006747  -0.040171
    20  H   -0.047932  -0.002064   0.011086   0.001781  -0.001369  -0.004256
    21  O   -0.039791   0.255788   0.003965  -0.056546  -0.038545   0.005297
    22  H    0.012789  -0.058358  -0.000856   0.004686  -0.002359  -0.000000
    23  O    0.009793  -0.076171  -0.000789   0.272237   0.006718   0.000052
    24  H   -0.001772  -0.000993   0.000047  -0.052509  -0.000710  -0.000053
    25  O   -0.004595   0.000704   0.001104  -0.065779  -0.000578   0.002243
    26  H    0.000043   0.000071   0.000010   0.006908   0.000074   0.000269
               7          8          9         10         11         12
     1  C    0.014028  -0.040211   0.017086  -0.003188   0.014416  -0.014480
     2  C   -0.008549  -0.006123  -0.010374  -0.030665   0.000890  -0.000290
     3  C    0.270783   0.400706  -0.005587  -0.000781  -0.055929  -0.022972
     4  C    0.000776   0.001840   0.265890   0.420226  -0.000361   0.000383
     5  H   -0.001201   0.008435   0.010264  -0.002388   0.000066   0.000148
     6  H   -0.016608   0.009028  -0.003860  -0.000025   0.005688   0.001669
     7  C    4.726033  -0.026501  -0.000272  -0.000178   0.419753   0.434248
     8  H   -0.026501   0.629290  -0.000608  -0.002642   0.010099  -0.005042
     9  C   -0.000272  -0.000608   4.795387  -0.028916  -0.000112  -0.000060
    10  H   -0.000178  -0.002642  -0.028916   0.553866  -0.000068  -0.000059
    11  H    0.419753   0.010099  -0.000112  -0.000068   0.611595  -0.035896
    12  H    0.434248  -0.005042  -0.000060  -0.000059  -0.035896   0.576863
    13  H   -0.000151   0.000770   0.406538   0.001625   0.000280   0.000063
    14  H   -0.000015  -0.000019   0.436316  -0.007512  -0.000006  -0.000000
    15  O    0.278024   0.006472  -0.000014  -0.000024  -0.051795  -0.044837
    16  H   -0.029977  -0.000206   0.000003   0.000005  -0.004758  -0.005721
    17  O   -0.019852  -0.046956  -0.005834   0.017501   0.000423   0.004267
    18  H   -0.009202  -0.004822   0.000481   0.000225  -0.001835   0.001501
    19  O    0.003878   0.003590  -0.000732  -0.000216  -0.000362   0.008837
    20  H   -0.000291  -0.000604   0.000015  -0.000064  -0.000284  -0.000165
    21  O   -0.000034  -0.000174   0.011774   0.003793  -0.000012  -0.000005
    22  H    0.000062  -0.000049  -0.004536   0.001232  -0.000001   0.000001
    23  O    0.000005  -0.000055  -0.034336  -0.017658   0.000001   0.000000
    24  H   -0.000009   0.000013  -0.014165   0.004931   0.000000   0.000000
    25  O    0.000017   0.000012   0.249950   0.001787  -0.000000  -0.000000
    26  H    0.000000   0.000003  -0.021000  -0.000322   0.000001  -0.000000
              13         14         15         16         17         18
     1  C    0.011479  -0.003202   0.005726  -0.001054  -0.045131   0.005023
     2  C   -0.010409   0.007130  -0.000185   0.000018  -0.007715   0.002175
     3  C   -0.008883   0.001198  -0.069715   0.010631   0.263129  -0.033430
     4  C   -0.016503  -0.040835  -0.000008   0.000000  -0.015590  -0.002107
     5  H   -0.000139  -0.000393   0.000003  -0.000000   0.000002  -0.000091
     6  H   -0.003402   0.000689  -0.000303  -0.000037   0.004241  -0.000054
     7  C   -0.000151  -0.000015   0.278024  -0.029977  -0.019852  -0.009202
     8  H    0.000770  -0.000019   0.006472  -0.000206  -0.046956  -0.004822
     9  C    0.406538   0.436316  -0.000014   0.000003  -0.005834   0.000481
    10  H    0.001625  -0.007512  -0.000024   0.000005   0.017501   0.000225
    11  H    0.000280  -0.000006  -0.051795  -0.004758   0.000423  -0.001835
    12  H    0.000063  -0.000000  -0.044837  -0.005721   0.004267   0.001501
    13  H    0.601723  -0.033737   0.000009  -0.000001   0.013023  -0.000407
    14  H   -0.033737   0.587349   0.000000   0.000000   0.000280  -0.000029
    15  O    0.000009   0.000000   7.893570   0.327291  -0.014420   0.027235
    16  H   -0.000001   0.000000   0.327291   0.522891   0.000488  -0.001780
    17  O    0.013023   0.000280  -0.014420   0.000488   7.905197   0.327556
    18  H   -0.000407  -0.000029   0.027235  -0.001780   0.327556   0.486484
    19  O   -0.000019   0.000003   0.000078   0.000049   0.001830  -0.000178
    20  H   -0.000091   0.000003  -0.000004  -0.000004  -0.000215   0.000038
    21  O   -0.000738  -0.000467   0.000000  -0.000000  -0.000080   0.000009
    22  H   -0.000595   0.000106  -0.000000   0.000000  -0.000008  -0.000003
    23  O    0.003665   0.000962  -0.000000   0.000000   0.000185  -0.000008
    24  H    0.002419  -0.000808  -0.000000  -0.000000  -0.000029   0.000001
    25  O   -0.041649  -0.049748   0.000000  -0.000000   0.000132  -0.000006
    26  H   -0.007813  -0.004628  -0.000000  -0.000000   0.000027  -0.000001
              19         20         21         22         23         24
     1  C    0.268802  -0.047932  -0.039791   0.012789   0.009793  -0.001772
     2  C   -0.022997  -0.002064   0.255788  -0.058358  -0.076171  -0.000993
     3  C   -0.049037   0.011086   0.003965  -0.000856  -0.000789   0.000047
     4  C    0.010021   0.001781  -0.056546   0.004686   0.272237  -0.052509
     5  H    0.006747  -0.001369  -0.038545  -0.002359   0.006718  -0.000710
     6  H   -0.040171  -0.004256   0.005297  -0.000000   0.000052  -0.000053
     7  C    0.003878  -0.000291  -0.000034   0.000062   0.000005  -0.000009
     8  H    0.003590  -0.000604  -0.000174  -0.000049  -0.000055   0.000013
     9  C   -0.000732   0.000015   0.011774  -0.004536  -0.034336  -0.014165
    10  H   -0.000216  -0.000064   0.003793   0.001232  -0.017658   0.004931
    11  H   -0.000362  -0.000284  -0.000012  -0.000001   0.000001   0.000000
    12  H    0.008837  -0.000165  -0.000005   0.000001   0.000000   0.000000
    13  H   -0.000019  -0.000091  -0.000738  -0.000595   0.003665   0.002419
    14  H    0.000003   0.000003  -0.000467   0.000106   0.000962  -0.000808
    15  O    0.000078  -0.000004   0.000000  -0.000000  -0.000000  -0.000000
    16  H    0.000049  -0.000004  -0.000000   0.000000   0.000000  -0.000000
    17  O    0.001830  -0.000215  -0.000080  -0.000008   0.000185  -0.000029
    18  H   -0.000178   0.000038   0.000009  -0.000003  -0.000008   0.000001
    19  O    7.877170   0.332253  -0.015246  -0.000060  -0.000145   0.000020
    20  H    0.332253   0.477899   0.024541  -0.001425  -0.000042  -0.000003
    21  O   -0.015246   0.024541   7.912481   0.336654  -0.007445   0.001128
    22  H   -0.000060  -0.001425   0.336654   0.488481   0.029966   0.001130
    23  O   -0.000145  -0.000042  -0.007445   0.029966   7.892282   0.334171
    24  H    0.000020  -0.000003   0.001128   0.001130   0.334171   0.495527
    25  O   -0.000012   0.000001  -0.002786   0.003295  -0.013310   0.033042
    26  H   -0.000000  -0.000001   0.000800  -0.000018   0.000595  -0.001950
              25         26
     1  C   -0.004595   0.000043
     2  C    0.000704   0.000071
     3  C    0.001104   0.000010
     4  C   -0.065779   0.006908
     5  H   -0.000578   0.000074
     6  H    0.002243   0.000269
     7  C    0.000017   0.000000
     8  H    0.000012   0.000003
     9  C    0.249950  -0.021000
    10  H    0.001787  -0.000322
    11  H   -0.000000   0.000001
    12  H   -0.000000  -0.000000
    13  H   -0.041649  -0.007813
    14  H   -0.049748  -0.004628
    15  O    0.000000  -0.000000
    16  H   -0.000000  -0.000000
    17  O    0.000132   0.000027
    18  H   -0.000006  -0.000001
    19  O   -0.000012  -0.000000
    20  H    0.000001  -0.000001
    21  O   -0.002786   0.000800
    22  H    0.003295  -0.000018
    23  O   -0.013310   0.000595
    24  H    0.033042  -0.001950
    25  O    7.911875   0.325108
    26  H    0.325108   0.527940
 Mulliken charges:
               1
     1  C    0.096314
     2  C    0.061166
     3  C    0.145289
     4  C    0.200070
     5  H    0.094369
     6  H    0.076120
     7  C   -0.034768
     8  H    0.063752
     9  C   -0.063298
    10  H    0.089514
    11  H    0.088206
    12  H    0.101544
    13  H    0.082944
    14  H    0.107362
    15  O   -0.357104
    16  H    0.182164
    17  O   -0.382450
    18  H    0.203225
    19  O   -0.384099
    20  H    0.211197
    21  O   -0.394361
    22  H    0.189866
    23  O   -0.400672
    24  H    0.200572
    25  O   -0.350809
    26  H    0.173886
 Sum of Mulliken charges =  -0.00000
 Mulliken charges with hydrogens summed into heavy atoms:
               1
     1  C    0.172433
     2  C    0.155535
     3  C    0.209042
     4  C    0.289584
     7  C    0.154982
     9  C    0.127008
    15  O   -0.174941
    17  O   -0.179225
    19  O   -0.172901
    21  O   -0.204495
    23  O   -0.200100
    25  O   -0.176924
 Electronic spatial extent (au):  <R**2>=           2572.8390
 Charge=             -0.0000 electrons
 Dipole moment (field-independent basis, Debye):
    X=              1.2730    Y=             -1.5473    Z=              2.2687  Tot=              3.0268
 Quadrupole moment (field-independent basis, Debye-Ang):
   XX=            -60.4959   YY=            -74.1980   ZZ=            -70.7436
   XY=              1.4456   XZ=             -2.5466   YZ=             -4.2755
 Traceless Quadrupole moment (field-independent basis, Debye-Ang):
   XX=              7.9832   YY=             -5.7188   ZZ=             -2.2645
   XY=              1.4456   XZ=             -2.5466   YZ=             -4.2755
 Octapole moment (field-independent basis, Debye-Ang**2):
  XXX=             55.1770  YYY=             -7.8290  ZZZ=             20.4766  XYY=            -14.4114
  XXY=             -3.7465  XXZ=             33.4153  XZZ=             -2.8921  YZZ=             -6.0093
  YYZ=              2.8761  XYZ=             10.3787
 Hexadecapole moment (field-independent basis, Debye-Ang**3):
 XXXX=          -1649.0610 YYYY=           -619.0575 ZZZZ=           -272.6415 XXXY=            -17.5161
 XXXZ=             34.0185 YYYX=            -25.6914 YYYZ=              5.0126 ZZZX=            -62.8782
 ZZZY=            -21.1167 XXYY=           -457.2040 XXZZ=           -402.7746 YYZZ=           -150.2431
 XXYZ=            -44.2622 YYXZ=            -15.3871 ZZXY=             12.3830
 N-N= 8.239729526940D+02 E-N=-3.265617067523D+03  KE= 6.850206225885D+02
   1 Symmetry operations used in ECPInt.
 ECPInt:  NShTT=   23436 NPrTT=   62434 LenC2=   21712 LenP2D=   45098.
 LDataN:  DoStor=T MaxTD1= 7 Len=  274
 Calling FoFJK, ICntrl=      2127 FMM=F ISym2X=0 I1Cent= 0 IOpClX= 0 NMat=1 NMatS=1 NMatT=0.
 ***** Axes restored to original set *****
 -------------------------------------------------------------------
 Center     Atomic                   Forces (Hartrees/Bohr)
 Number     Number              X              Y              Z
 -------------------------------------------------------------------
      1        6           0.005534723    0.001799839   -0.013781715
      2        6           0.004740968   -0.003979578   -0.010056223
      3        6          -0.008889570   -0.000043455    0.007907548
      4        6           0.011676572   -0.004084499   -0.007533489
      5        1          -0.004512871    0.000539058    0.008768895
      6        1           0.001751912   -0.001504745    0.007129585
      7        6          -0.003913816    0.003936423    0.001683422
      8        1          -0.000505669    0.001317131   -0.005639125
      9        6           0.002015718   -0.005587636    0.001266775
     10        1          -0.002365635   -0.003302696   -0.003856905
     11        1           0.005006273   -0.001484414   -0.004994787
     12        1           0.004961978   -0.003856693   -0.002115064
     13        1           0.000841328    0.006056834    0.001694670
     14        1          -0.003105387    0.005875647    0.003210006
     15        8          -0.011666109    0.003790625   -0.006765167
     16        1           0.018230405   -0.003555875    0.006593879
     17        8          -0.013396081    0.009620676    0.000678153
     18        1           0.013243405   -0.009296380   -0.012013432
     19        8           0.014184443   -0.007790220    0.002455324
     20        1          -0.012691191    0.007390801    0.013353766
     21        8           0.006876847   -0.001439516    0.015775185
     22        1          -0.017409287    0.003147356   -0.003702340
     23        8          -0.009534376   -0.017652849   -0.005128488
     24        1          -0.001158464    0.016611083    0.007135024
     25        8          -0.010091466   -0.013139198    0.001462162
     26        1           0.010175352    0.016632281   -0.003527662
 -------------------------------------------------------------------
 Cartesian Forces:  Max     0.018230405 RMS     0.008142415

 GradGradGradGradGradGradGradGradGradGradGradGradGradGradGradGradGradGrad
 Berny optimization.
 FormGI is forming the generalized inverse of G from B-inverse, IUseBI=4.
 Internal  Forces:  Max     0.019941182 RMS     0.006059878
 Search for a local minimum.
 Step number   1 out of a maximum of  140
 All quantities printed in internal units (Hartrees-Bohrs-Radians)
 Mixed Optimization -- RFO/linear search
 Second derivative matrix not updated -- first step.
 ITU=  0
     Eigenvalues ---    0.00230   0.00230   0.00306   0.00324   0.00328
     Eigenvalues ---    0.01074   0.01081   0.01165   0.01220   0.01243
     Eigenvalues ---    0.01277   0.03553   0.03787   0.03953   0.04219
     Eigenvalues ---    0.04533   0.04727   0.04760   0.04787   0.04994
     Eigenvalues ---    0.05280   0.05571   0.05675   0.07416   0.07674
     Eigenvalues ---    0.07856   0.08044   0.11329   0.11450   0.13608
     Eigenvalues ---    0.13731   0.16000   0.16000   0.16000   0.16000
     Eigenvalues ---    0.16000   0.16000   0.16685   0.16966   0.17216
     Eigenvalues ---    0.17689   0.19455   0.19669   0.19748   0.19897
     Eigenvalues ---    0.22005   0.22027   0.28269   0.28378   0.28988
     Eigenvalues ---    0.29111   0.29137   0.33950   0.34062   0.34119
     Eigenvalues ---    0.34234   0.34277   0.34350   0.34368   0.34564
     Eigenvalues ---    0.38679   0.38747   0.39608   0.40188   0.40425
     Eigenvalues ---    0.40800   0.50991   0.51019   0.51163   0.51910
     Eigenvalues ---    0.52515   0.52531
 RFO step:  Lambda=-1.81699638D-02 EMin= 2.30000000D-03
 Linear search not attempted -- first point.
 Iteration  1 RMS(Cart)=  0.07078642 RMS(Int)=  0.00159994
 Iteration  2 RMS(Cart)=  0.00203282 RMS(Int)=  0.00052164
 Iteration  3 RMS(Cart)=  0.00000249 RMS(Int)=  0.00052164
 Iteration  4 RMS(Cart)=  0.00000000 RMS(Int)=  0.00052164
 Variable       Old X    -DE/DX   Delta X   Delta X   Delta X     New X
                                 (Linear)    (Quad)   (Total)
    R1        2.91320  -0.01185   0.00000  -0.03925  -0.03925   2.87395
    R2        2.89718  -0.01309   0.00000  -0.04228  -0.04228   2.85490
    R3        2.07130  -0.00003   0.00000  -0.00007  -0.00007   2.07123
    R4        2.72090  -0.01347   0.00000  -0.03251  -0.03251   2.68839
    R5        2.91554  -0.00533   0.00000  -0.01770  -0.01770   2.89784
    R6        2.07414  -0.00096   0.00000  -0.00269  -0.00269   2.07145
    R7        2.73292  -0.01434   0.00000  -0.03536  -0.03536   2.69756
    R8        2.89771  -0.01210   0.00000  -0.03913  -0.03913   2.85858
    R9        2.07225  -0.00015   0.00000  -0.00042  -0.00042   2.07183
   R10        2.71298  -0.00923   0.00000  -0.02198  -0.02198   2.69100
   R11        2.90027  -0.00894   0.00000  -0.02901  -0.02901   2.87126
   R12        2.06743  -0.00457   0.00000  -0.01263  -0.01263   2.05480
   R13        2.73389  -0.01090   0.00000  -0.02693  -0.02693   2.70696
   R14        2.06866   0.00009   0.00000   0.00024   0.00024   2.06890
   R15        2.06713  -0.00228   0.00000  -0.00630  -0.00630   2.06083
   R16        2.70979  -0.00240   0.00000  -0.00568  -0.00568   2.70411
   R17        2.06388  -0.00175   0.00000  -0.00480  -0.00480   2.05908
   R18        2.06937  -0.00030   0.00000  -0.00084  -0.00084   2.06853
   R19        2.70480  -0.00039   0.00000  -0.00091  -0.00091   2.70390
   R20        1.84110  -0.01932   0.00000  -0.03556  -0.03556   1.80554
   R21        1.85578  -0.01994   0.00000  -0.03776  -0.03776   1.81802
   R22        1.85551  -0.01978   0.00000  -0.03744  -0.03744   1.81807
   R23        1.84686  -0.01794   0.00000  -0.03339  -0.03339   1.81346
   R24        1.85409  -0.01788   0.00000  -0.03375  -0.03375   1.82034
   R25        1.84094  -0.01945   0.00000  -0.03578  -0.03578   1.80516
    A1        1.98684   0.00239   0.00000  -0.00137  -0.00135   1.98549
    A2        1.90883  -0.00202   0.00000  -0.00253  -0.00322   1.90562
    A3        1.87567   0.00450   0.00000   0.02171   0.02107   1.89674
    A4        1.92128  -0.00059   0.00000  -0.01508  -0.01469   1.90659
    A5        1.91751  -0.00864   0.00000  -0.05400  -0.05379   1.86371
    A6        1.84810   0.00463   0.00000   0.05645   0.05597   1.90407
    A7        2.04056   0.00271   0.00000  -0.00147  -0.00152   2.03904
    A8        1.90266  -0.00090   0.00000  -0.02144  -0.02131   1.88135
    A9        1.85975  -0.00784   0.00000  -0.04150  -0.04122   1.81854
   A10        1.89215  -0.00317   0.00000  -0.01861  -0.01957   1.87258
   A11        1.93623   0.00457   0.00000   0.02539   0.02502   1.96125
   A12        1.81968   0.00496   0.00000   0.06571   0.06549   1.88517
   A13        1.95734  -0.00131   0.00000  -0.01773  -0.01773   1.93961
   A14        1.92806   0.00044   0.00000  -0.01045  -0.01024   1.91783
   A15        1.92917  -0.00646   0.00000  -0.04197  -0.04167   1.88750
   A16        1.89450  -0.00103   0.00000  -0.00048  -0.00129   1.89321
   A17        1.88372   0.00546   0.00000   0.02708   0.02625   1.90997
   A18        1.86816   0.00329   0.00000   0.04802   0.04760   1.91576
   A19        2.02073   0.00315   0.00000   0.01852   0.01789   2.03863
   A20        1.90748  -0.00210   0.00000  -0.02925  -0.02928   1.87820
   A21        1.87321  -0.00014   0.00000   0.01628   0.01563   1.88884
   A22        1.91178  -0.00267   0.00000  -0.03302  -0.03302   1.87876
   A23        1.87902   0.00078   0.00000   0.02095   0.02039   1.89941
   A24        1.86499   0.00100   0.00000   0.00835   0.00876   1.87375
   A25        1.93760  -0.00246   0.00000  -0.02905  -0.02876   1.90883
   A26        1.95111  -0.00139   0.00000  -0.02474  -0.02460   1.92651
   A27        1.88492  -0.01224   0.00000  -0.04835  -0.04813   1.83679
   A28        1.91613  -0.00003   0.00000  -0.00116  -0.00330   1.91283
   A29        1.87274   0.00883   0.00000   0.05964   0.05861   1.93135
   A30        1.89900   0.00778   0.00000   0.04833   0.04722   1.94622
   A31        1.97545  -0.00333   0.00000  -0.03617  -0.03637   1.93908
   A32        1.91053  -0.00291   0.00000  -0.02683  -0.02687   1.88366
   A33        1.90526  -0.00727   0.00000  -0.02725  -0.02706   1.87820
   A34        1.89575   0.00075   0.00000   0.00012  -0.00193   1.89382
   A35        1.91454   0.00629   0.00000   0.03887   0.03802   1.95255
   A36        1.85867   0.00717   0.00000   0.05715   0.05669   1.91536
   A37        1.85484   0.00708   0.00000   0.03974   0.03974   1.89458
   A38        1.81276   0.00532   0.00000   0.02987   0.02987   1.84262
   A39        1.81701   0.00291   0.00000   0.01632   0.01632   1.83333
   A40        1.82974   0.00343   0.00000   0.01926   0.01926   1.84900
   A41        1.82851   0.00500   0.00000   0.02807   0.02807   1.85658
   A42        1.86035   0.00667   0.00000   0.03746   0.03746   1.89781
    D1        1.04089   0.00045   0.00000   0.00128   0.00132   1.04221
    D2       -1.11180   0.00345   0.00000   0.04534   0.04556  -1.06624
    D3       -3.06619   0.00200   0.00000  -0.00019  -0.00007  -3.06626
    D4       -1.11612   0.00105   0.00000   0.02390   0.02378  -1.09235
    D5        3.01437   0.00406   0.00000   0.06797   0.06802   3.08239
    D6        1.05999   0.00261   0.00000   0.02244   0.02238   1.08237
    D7       -3.11468  -0.00575   0.00000  -0.05262  -0.05278   3.11572
    D8        1.01582  -0.00274   0.00000  -0.00856  -0.00854   1.00727
    D9       -0.93857  -0.00420   0.00000  -0.05409  -0.05418  -0.99274
   D10        2.97155  -0.00053   0.00000  -0.01267  -0.01270   2.95885
   D11        0.85566   0.00137   0.00000   0.00740   0.00762   0.86328
   D12       -1.20871   0.00107   0.00000  -0.01923  -0.01889  -1.22760
   D13       -1.16140  -0.00190   0.00000  -0.02856  -0.02893  -1.19032
   D14        3.00590   0.00000   0.00000  -0.00849  -0.00860   2.99729
   D15        0.94153  -0.00030   0.00000  -0.03512  -0.03511   0.90642
   D16        0.86724  -0.00168   0.00000  -0.00046  -0.00069   0.86655
   D17       -1.24865   0.00023   0.00000   0.01961   0.01964  -1.22902
   D18        2.97016  -0.00008   0.00000  -0.00702  -0.00687   2.96329
   D19        0.72446   0.00027   0.00000   0.00961   0.01032   0.73477
   D20        2.89470   0.00074   0.00000  -0.01183  -0.01136   2.88334
   D21       -1.31428  -0.00185   0.00000  -0.02587  -0.02704  -1.34132
   D22        0.96445  -0.00329   0.00000  -0.05063  -0.05085   0.91360
   D23       -1.20377  -0.00035   0.00000   0.00378   0.00356  -1.20021
   D24        3.06300  -0.00037   0.00000   0.00021   0.00018   3.06318
   D25        3.12252  -0.00515   0.00000  -0.09597  -0.09585   3.02668
   D26        0.95430  -0.00220   0.00000  -0.04156  -0.04143   0.91287
   D27       -1.06211  -0.00222   0.00000  -0.04513  -0.04481  -1.10693
   D28       -1.17252   0.00143   0.00000  -0.01434  -0.01443  -1.18695
   D29        2.94245   0.00438   0.00000   0.04007   0.03998   2.98243
   D30        0.92603   0.00436   0.00000   0.03651   0.03660   0.96263
   D31       -2.96443  -0.00170   0.00000  -0.02347  -0.02389  -2.98832
   D32       -0.72567  -0.00081   0.00000  -0.03802  -0.03890  -0.76458
   D33        1.30761   0.00039   0.00000  -0.01135  -0.01005   1.29756
   D34        0.98285  -0.00292   0.00000  -0.02629  -0.02644   0.95641
   D35       -1.16330  -0.00010   0.00000   0.01403   0.01388  -1.14942
   D36        3.03138  -0.00097   0.00000   0.00048   0.00031   3.03170
   D37        3.11793  -0.00394   0.00000  -0.05142  -0.05141   3.06652
   D38        0.97179  -0.00112   0.00000  -0.01110  -0.01109   0.96070
   D39       -1.11672  -0.00199   0.00000  -0.02465  -0.02466  -1.14137
   D40       -1.14622   0.00228   0.00000   0.01910   0.01926  -1.12696
   D41        2.99082   0.00509   0.00000   0.05942   0.05958   3.05040
   D42        0.90232   0.00422   0.00000   0.04587   0.04601   0.94833
   D43       -2.88271   0.00062   0.00000   0.01790   0.01772  -2.86499
   D44       -0.73635  -0.00148   0.00000  -0.01268  -0.01342  -0.74977
   D45        1.29988   0.00178   0.00000   0.02523   0.02614   1.32602
   D46       -0.81787   0.00074   0.00000   0.03325   0.03345  -0.78442
   D47       -2.93521   0.00411   0.00000   0.07670   0.07656  -2.85865
   D48        1.31977   0.00124   0.00000   0.03859   0.03880   1.35857
   D49        1.34812  -0.00191   0.00000  -0.01923  -0.01902   1.32910
   D50       -0.76922   0.00146   0.00000   0.02422   0.02408  -0.74514
   D51       -2.79743  -0.00140   0.00000  -0.01389  -0.01368  -2.81110
   D52       -2.91326  -0.00170   0.00000  -0.01521  -0.01529  -2.92855
   D53        1.25258   0.00168   0.00000   0.02824   0.02782   1.28040
   D54       -0.77562  -0.00119   0.00000  -0.00988  -0.00994  -0.78556
   D55       -1.79225  -0.00271   0.00000  -0.04441  -0.04454  -1.83679
   D56        0.39413   0.00149   0.00000   0.00071   0.00081   0.39494
   D57        2.44650  -0.00070   0.00000  -0.02283  -0.02280   2.42370
   D58        3.05301   0.00051   0.00000   0.01267   0.01277   3.06578
   D59       -1.14023  -0.00419   0.00000  -0.01511  -0.01701  -1.15724
   D60        0.93191   0.00492   0.00000   0.04304   0.04484   0.97675
   D61       -3.01816  -0.00011   0.00000  -0.01327  -0.01325  -3.03141
   D62       -0.84439  -0.00499   0.00000  -0.05105  -0.05235  -0.89673
   D63        1.20400   0.00315   0.00000   0.00105   0.00233   1.20634
         Item               Value     Threshold  Converged?
 Maximum Force            0.019941     0.000450     NO 
 RMS     Force            0.006060     0.000300     NO 
 Maximum Displacement     0.260995     0.001800     NO 
 RMS     Displacement     0.070477     0.001200     NO 
 Predicted change in Energy=-1.032518D-02
 GradGradGradGradGradGradGradGradGradGradGradGradGradGradGradGradGradGrad

                          Input orientation:                          
 ---------------------------------------------------------------------
 Center     Atomic      Atomic             Coordinates (Angstroms)
 Number     Number       Type             X           Y           Z
 ---------------------------------------------------------------------
      1          6           0        0.008814   -0.006110   -0.003360
      2          6           0        1.529636   -0.001553   -0.006131
      3          6           0       -0.599425    0.598598    1.240319
      4          6           0        2.226065   -0.758646    1.131112
      5          1           0        1.861582    1.041847    0.045896
      6          1           0       -0.348467   -1.036153   -0.115993
      7          6           0       -2.089930    0.798287    1.076722
      8          1           0       -0.138898    1.572252    1.445089
      9          6           0        1.800728   -2.199861    1.356027
     10          1           0        2.039662   -0.212346    2.052605
     11          1           0       -2.554935   -0.152240    0.795857
     12          1           0       -2.290930    1.545103    0.307858
     13          1           0        0.715876   -2.297655    1.327848
     14          1           0        2.151373   -2.503815    2.347416
     15          8           0       -2.554948    1.228069    2.359953
     16          1           0       -3.485430    1.434363    2.292650
     17          8           0       -0.356713   -0.287295    2.328484
     18          1           0       -0.958049   -0.010013    3.026379
     19          8           0       -0.451042    0.768975   -1.104116
     20          1           0        0.121495    0.525010   -1.837791
     21          8           0        1.878865   -0.512242   -1.292581
     22          1           0        2.828038   -0.652084   -1.271841
     23          8           0        3.638145   -0.725219    0.892644
     24          1           0        3.882238   -1.604321    0.583592
     25          8           0        2.434295   -2.999807    0.353039
     26          1           0        2.101657   -3.892945    0.417520
 ---------------------------------------------------------------------
                    Distance matrix (angstroms):
                    1          2          3          4          5
     1  C    0.000000
     2  C    1.520831   0.000000
     3  C    1.510750   2.539039   0.000000
     4  C    2.601834   1.533468   3.136468   0.000000
     5  H    2.129176   1.096166   2.771222   2.133616   0.000000
     6  H    1.096049   2.147029   2.138919   2.874108   3.037862
     7  C    2.493664   3.861810   1.512695   4.588553   4.091012
     8  H    2.147336   2.714205   1.096366   3.335374   2.498197
     9  C    3.141884   2.600293   3.688563   1.519407   3.496973
    10  H    2.897218   2.131421   2.877885   1.087354   2.373098
    11  H    2.689407   4.165286   2.141337   4.830950   4.636152
    12  H    2.791405   4.133698   2.150941   5.136950   4.191092
    13  H    2.742850   2.777370   3.182131   2.165161   3.756104
    14  H    4.044160   3.490996   4.291564   2.128518   4.237061
    15  O    3.698827   4.877925   2.339633   5.321200   4.989517
    16  H    4.422258   5.700625   3.183540   6.227329   5.813132
    17  O    2.377009   3.015027   1.424015   2.885587   3.449299
    18  H    3.180276   3.922341   1.920684   3.780353   4.235564
    19  O    1.422634   2.392148   2.355296   3.807463   2.597156
    20  H    1.913092   2.369622   3.162262   3.858934   2.615970
    21  O    2.327090   1.427487   3.713687   2.460804   2.051100
    22  H    3.158219   1.926411   4.429746   2.479498   2.353692
    23  O    3.806833   2.403601   4.453130   1.432464   2.644934
    24  H    4.231099   2.907125   5.036809   1.938518   3.372591
    25  O    3.869392   3.152290   4.789493   2.381504   4.093569
    26  H    4.434480   3.955959   5.305356   3.216911   4.954585
                    6          7          8          9         10
     6  H    0.000000
     7  C    2.796504   0.000000
     8  H    3.047076   2.131019   0.000000
     9  C    2.853086   4.919769   4.242513   0.000000
    10  H    3.329360   4.362025   2.880971   2.119558   0.000000
    11  H    2.545834   1.094814   3.038521   4.845445   4.763754
    12  H    3.258174   1.090545   2.434189   5.644917   4.988668
    13  H    2.192918   4.185746   3.964916   1.089616   2.574140
    14  H    3.804157   5.523332   4.761707   1.094619   2.313055
    15  O    4.015665   1.430956   2.606288   5.632982   4.824904
    16  H    4.663212   1.957164   3.454945   6.482925   5.770261
    17  O    2.556624   2.397799   2.070205   3.042718   2.413367
    18  H    3.361407   2.394925   2.382236   3.898251   3.158393
    19  O    2.060436   2.728162   2.690935   4.465061   4.139020
    20  H    2.371219   3.668715   3.455693   4.521639   4.399800
    21  O    2.572906   4.804417   3.988899   3.141543   3.362449
    22  H    3.402010   5.639657   4.596964   3.218178   3.444829
    23  O    4.123966   5.930076   4.455291   2.401123   2.040513
    24  H    4.325633   6.456198   5.196376   2.298697   2.736910
    25  O    3.437978   5.951290   5.358882   1.430841   3.288495
    26  H    3.801184   6.325473   5.995361   1.959052   4.027921
                   11         12         13         14         15
    11  H    0.000000
    12  H    1.785726   0.000000
    13  H    3.947659   4.984782   0.000000
    14  H    5.485122   6.347251   1.772758   0.000000
    15  O    2.086061   2.093158   4.918765   6.006377   0.000000
    16  H    2.371397   2.319158   5.701733   6.876466   0.955449
    17  O    2.683163   3.343922   2.488627   3.347210   2.670123
    18  H    2.746908   3.403721   3.304593   4.043333   2.127688
    19  O    2.980754   2.445656   4.084160   5.421881   4.078843
    20  H    3.815500   3.385881   4.282755   5.550688   5.027792
    21  O    4.914239   4.917445   3.377409   4.158149   6.002365
    22  H    5.788057   5.790243   3.731958   4.121383   6.760283
    23  O    6.220281   6.375756   3.346881   2.736833   6.657531
    24  H    6.602332   6.935626   3.325730   2.629840   7.253637
    25  O    5.761695   6.556371   2.096720   2.074510   6.840700
    26  H    5.984969   6.991367   2.300877   2.378371   7.189005
                   16         17         18         19         20
    16  H    0.000000
    17  O    3.571311   0.000000
    18  H    3.002038   0.962054   0.000000
    19  O    4.603071   3.592680   4.233776   0.000000
    20  H    5.558540   4.271577   5.011168   0.962079   0.000000
    21  O    6.739347   4.261517   5.191698   2.665615   2.112225
    22  H    7.544450   4.820586   5.763800   3.577696   3.005199
    23  O    7.574241   4.267587   5.117552   4.789689   4.624410
    24  H    8.150890   4.769477   5.651319   5.220940   4.953820
    25  O    7.646378   4.364611   5.252962   4.965097   4.751117
    26  H    7.944297   4.764040   5.589732   5.528576   5.340955
                   21         22         23         24         25
    21  O    0.000000
    22  H    0.959643   0.000000
    23  O    2.813474   2.312275   0.000000
    24  H    2.954009   2.336819   0.963283   0.000000
    25  O    3.033900   2.882199   2.629483   2.024124   0.000000
    26  H    3.795160   3.726224   3.552608   2.904453   0.955249
                   26
    26  H    0.000000
 Stoichiometry    C6H14O6
 Framework group  C1[X(C6H14O6)]
 Deg. of freedom    72
 Full point group                 C1      NOp   1
 Largest Abelian subgroup         C1      NOp   1
 Largest concise Abelian subgroup C1      NOp   1
                         Standard orientation:                         
 ---------------------------------------------------------------------
 Center     Atomic      Atomic             Coordinates (Angstroms)
 Number     Number       Type             X           Y           Z
 ---------------------------------------------------------------------
      1          6           0        0.546615    0.781187    0.276380
      2          6           0       -0.754670    0.802139   -0.510477
      3          6           0        1.604067   -0.118054   -0.319881
      4          6           0       -1.483636   -0.536514   -0.678230
      5          1           0       -0.532606    1.180322   -1.515089
      6          1           0        0.340477    0.463553    1.304942
      7          6           0        2.943184    0.096092    0.350308
      8          1           0        1.713385    0.093640   -1.390046
      9          6           0       -1.759390   -1.329910    0.587898
     10          1           0       -0.879819   -1.160169   -1.333057
     11          1           0        2.833467   -0.036708    1.431484
     12          1           0        3.316549    1.099128    0.141010
     13          1           0       -0.882120   -1.355530    1.233658
     14          1           0       -2.005887   -2.355624    0.295771
     15          8           0        3.802692   -0.908528   -0.197069
     16          1           0        4.684444   -0.773661    0.145286
     17          8           0        1.192749   -1.468883   -0.135770
     18          1           0        1.979403   -2.001434   -0.287798
     19          8           0        1.088764    2.096333    0.295243
     20          1           0        0.335461    2.674768    0.448681
     21          8           0       -1.554088    1.775708    0.160949
     22          1           0       -2.429580    1.710509   -0.226579
     23          8           0       -2.725205   -0.289536   -1.348649
     24          1           0       -3.414095   -0.359936   -0.679031
     25          8           0       -2.883187   -0.729479    1.238950
     26          1           0       -3.009907   -1.153415    2.085543
 ---------------------------------------------------------------------
 Rotational constants (GHZ):           1.5058366           0.5360653           0.4596107
 Standard basis: def2TZVPP (5D, 7F)
 There are   642 symmetry adapted cartesian basis functions of A   symmetry.
 There are   568 symmetry adapted basis functions of A   symmetry.
   568 basis functions,   850 primitive gaussians,   642 cartesian basis functions
    49 alpha electrons       49 beta electrons
       nuclear repulsion energy       834.1758522927 Hartrees.
 NAtoms=   26 NActive=   26 NUniq=   26 SFac= 1.00D+00 NAtFMM=   60 NAOKFM=F Big=F
 Integral buffers will be    131072 words long.
 Raffenetti 2 integral format.
 Two-electron integral symmetry is turned on.
 Nuclear repulsion after empirical dispersion term =      834.1574821237 Hartrees.
 One-electron integrals computed using PRISM.
   1 Symmetry operations used in ECPInt.
 ECPInt:  NShTT=   23436 NPrTT=   62434 LenC2=   21801 LenP2D=   45387.
 LDataN:  DoStor=T MaxTD1= 6 Len=  172
 NBasis=   568 RedAO= T EigKep=  4.12D-05  NBF=   568
[...]
 0225,-0.00028064,0.00075494,-0.00074451,-0.00011471,-0.00015128,0.0000
 7128,0.00104769,0.00148593,-0.00325597,0.00022015,0.00042369,-0.000582
 28,-0.15674063,0.19553516,-0.04467971,0.07574850,-0.17479925,-0.012266
 91,0.01246353,-0.02170379,-0.01358579,0.02640385,-0.03359373,0.0003739
 2,-0.00150922,0.00450599,0.00110288,-0.00056023,0.00034985,-0.00265907
 ,0.01521100,-0.00848743,0.00093423,-0.00031288,0.00011981,-0.00085362,
 -0.00056304,0.00159768,0.00088729,-0.00072081,-0.00104686,0.00046354,-
 0.00015474,0.00033600,0.00033184,0.00065863,-0.00003381,0.00123285,0.0
 0010647,-0.00208535,-0.00023199,-0.00049277,0.00014055,-0.00033940,0.0
 0023042,-0.00006108,0.00021196,-0.00006192,-0.00061103,-0.00023943,0.0
 0006799,0.00017316,0.00561848,-0.00378241,-0.01022263,-0.00151129,0.00
 141062,-0.00149527,-0.17815459,-0.01660499,0.55724489,0.00883550,-0.00
 375956,-0.01244244,0.00123254,0.00012065,-0.00793475,-0.00207246,0.001
 90455,-0.00187488,0.00003279,0.00054875,0.00061392,-0.00039536,0.00014
 961,0.00025479,-0.00020201,0.00096645,-0.00010962,-0.00031993,0.000781
 67,0.00012631,-0.00000471,-0.00017131,0.00008912,0.00048405,0.00012902
 ,-0.00030879,0.00032859,-0.00016139,0.00040267,0.00002932,-0.00004703,
 -0.00008579,0.00003206,-0.00024890,0.00028076,-0.00013253,-0.00017215,
 0.00002905,-0.00007249,-0.00010947,0.00004986,0.00005906,-0.00023927,0
 .00006509,0.00001313,0.00002426,0.00003857,0.00059370,-0.00006219,-0.0
 0186465,-0.00006238,0.00027066,-0.00025682,-0.19954276,0.08840092,0.24
 149521,0.19261141,-0.01288836,0.00443983,0.02271387,0.00091096,0.00236
 471,0.00320451,0.00160495,-0.00213351,0.00074632,-0.00014488,-0.000319
 51,-0.00067978,-0.00034596,-0.00056998,-0.00077733,-0.00030724,-0.0008
 2853,0.00136671,0.00038698,-0.00030661,0.00001830,-0.00005939,0.000049
 94,0.00017921,0.00004306,0.00009144,0.00034875,-0.00014213,0.00008461,
 -0.00019308,0.00000947,0.00008927,-0.00009481,-0.00023943,0.00022370,-
 0.00012904,-0.00000661,0.00001523,0.00004534,-0.00002450,-0.00004066,-
 0.00003670,0.00004944,0.00000985,-0.00025073,-0.00002029,0.00003018,0.
 00000059,-0.00028216,0.00016443,0.00129234,0.00018725,0.00002090,0.000
 24794,0.09931226,-0.05856438,-0.10621356,-0.08742231,0.05768251,0.0184
 9992,-0.00675544,-0.03561471,-0.00037496,-0.00081580,-0.00060461,-0.00
 250245,0.00498496,-0.00251042,0.00005778,0.00003868,-0.00154020,-0.000
 48409,-0.00013270,-0.00023073,0.00042230,-0.00035037,0.00076883,-0.000
 13559,0.00023296,0.00008987,-0.00008855,-0.00016090,0.00019815,0.00002
 896,0.00022410,0.00024396,-0.00002067,0.00006042,0.00001624,0.00010011
 ,0.00001946,-0.00003160,0.00017305,-0.00014293,-0.00006928,0.00004539,
 0.00004232,-0.00007988,0.00007019,-0.00013338,0.00004207,-0.00028381,0
 .00006143,0.00053528,0.00006347,-0.00000766,-0.00000487,0.00088598,-0.
 00073461,-0.00134180,-0.00021478,0.00024252,-0.00039627,0.20256748,-0.
 07438797,-0.31536129,-0.22221833,0.07942570,0.35543601,-0.02160309,0.0
 2239817,0.04292025,-0.10161015,0.01718871,0.04486052,-0.00901366,0.000
 84427,-0.00514989,-0.00127806,-0.00439830,-0.00866872,0.00640501,0.001
 59597,-0.00448029,0.00314869,-0.00014399,0.00002231,0.00151777,0.00049
 580,0.00211815,-0.00014242,-0.00000729,0.00006699,-0.00045228,0.000211
 68,0.00120380,-0.00065956,0.00175272,-0.00207742,-0.00005625,-0.000151
 13,-0.00000452,0.00012674,-0.00004355,-0.00003462,0.00033888,0.0005414
 7,-0.00025415,0.00002301,-0.00026986,0.00005425,-0.00196279,0.00047263
 ,0.00100402,0.00001926,0.00008143,0.00020904,0.00074842,-0.00091771,0.
 00097314,0.00005347,-0.00000161,-0.00017942,-0.00359222,0.00208709,0.0
 0560801,-0.00043055,-0.00059622,0.00210179,0.65431132,0.00486520,-0.00
 152513,-0.00327718,0.00410571,-0.09074245,-0.05526134,0.00060241,-0.00
 036669,0.00115534,-0.00200238,0.01123108,0.01034962,0.01175010,-0.0097
 6566,-0.03934976,0.00120295,0.00126881,0.00070197,-0.00031609,0.000307
 77,-0.00007921,-0.00018083,0.00075715,0.00051016,-0.00065226,-0.000332
 09,-0.00441820,0.00223971,-0.00064953,0.00345396,0.00019164,0.00003975
 ,-0.00000653,-0.00012538,0.00004873,-0.00002115,-0.00013344,-0.0001494
 6,-0.00001029,-0.00001126,0.00072852,0.00014097,0.00038323,-0.00002444
 ,-0.00036622,-0.00005577,-0.00003513,0.00000260,-0.00003157,0.00081724
 ,-0.00099006,-0.00004777,0.00000169,0.00002474,0.00293624,0.00148765,-
 0.00231509,0.00000101,-0.00232029,-0.00069992,-0.05618185,0.09884272,0
 .00964333,-0.00542299,-0.01625944,0.00081999,-0.05387140,-0.19676163,0
 .00079493,0.00005055,0.00181040,0.01257823,-0.01774796,-0.04761307,0.0
 0601138,-0.01563836,-0.02094608,-0.00045183,0.00057167,0.00069849,-0.0
 0071187,0.00011720,-0.00083255,-0.00015615,0.00044025,0.00020942,0.000
 10575,-0.00304435,0.00038093,-0.00526487,0.00466494,-0.00491035,0.0001
 9896,0.00009683,-0.00005596,0.00014722,-0.00019361,0.00003449,0.000170
 81,0.00045429,0.00014559,-0.00005102,0.00061669,0.00034886,0.00085219,
 -0.00030721,-0.00004231,-0.00004533,0.00000017,-0.00005115,0.00082303,
 0.00027206,0.00030609,-0.00020603,-0.00004861,0.00019436,-0.00220951,0
 .00018784,0.00379107,0.00158034,0.00058906,-0.00064969,-0.05595865,0.0
 9675715,0.31491536,-0.00045827,0.00205314,0.00159768,-0.01237554,0.000
 24098,0.00257021,-0.00037941,-0.00011903,-0.00028405,0.00251918,-0.001
 13039,-0.00188644,0.00064486,-0.00071393,-0.00145676,0.00042200,0.0000
 6737,-0.00004853,0.00001678,0.00008966,0.00020020,0.00000281,0.0000734
 3,0.00002636,-0.00046836,-0.00001566,0.00040331,-0.00092502,0.00026707
 ,-0.00037025,0.00000595,-0.00000782,-0.00000994,-0.00000616,0.00000878
 ,-0.00000148,-0.00006141,-0.00016674,0.00003930,0.00005412,0.00019295,
 -0.00008927,0.00002358,-0.00004761,-0.00010738,-0.00001279,0.00000694,
 0.00002463,0.00003913,0.00004726,-0.00011057,-0.00001542,-0.00000093,0
 .00002652,0.00093762,-0.00037722,0.00034541,-0.00044455,-0.00037167,0.
 00013801,-0.53076112,0.03259310,0.03083355,0.54293241,0.00025694,-0.00
 121589,-0.00075080,0.01621043,-0.00171380,-0.00390841,0.00055959,0.000
 58318,-0.00017959,-0.00099002,0.00141050,0.00059157,0.00083939,-0.0001
 3363,0.00000650,0.00009337,0.00011446,-0.00007270,0.00007858,-0.000012
 82,-0.00016326,-0.00002277,-0.00002865,0.00006293,-0.00075715,0.000683
 19,0.00122436,0.00008916,-0.00015052,-0.00024805,-0.00002594,-0.000000
 60,0.00000924,0.00000973,-0.00000529,0.00000296,0.00018412,-0.00001597
 ,-0.00018411,0.00013626,-0.00013070,-0.00022877,0.00002072,-0.00003226
 ,0.00004080,0.00000227,0.00000738,-0.00001804,0.00007055,-0.00024420,0
 .00010951,0.00000878,0.00001441,-0.00000880,0.00075650,-0.00014702,-0.
 00071998,-0.00068556,0.00008132,-0.00048710,0.01547969,-0.00920017,-0.
 01268644,-0.03386231,0.01259394,0.00071440,-0.00256489,-0.00824094,0.0
 4395852,-0.00341484,-0.00611810,0.00213164,-0.00020339,0.00109769,0.00
 495977,0.00086781,-0.00248098,-0.00021421,-0.00092333,0.00027347,-0.00
 028265,0.00010982,0.00003326,-0.00019609,-0.00012546,-0.00057641,-0.00
 002539,0.00000607,0.00002780,0.00005385,0.00063634,-0.00040217,-0.0000
 8265,-0.00024185,0.00063005,0.00001546,0.00002109,0.00000222,0.0000094
 1,-0.00002227,0.00001553,-0.00020236,-0.00036108,-0.00000317,0.0000334
 3,-0.00000741,-0.00001108,0.00024989,-0.00002125,-0.00004181,0.0000298
 1,-0.00003646,-0.00005990,-0.00042150,0.00024607,-0.00006799,0.0000371
 3,-0.00000366,-0.00000334,-0.00212742,0.00113738,0.00092084,0.00135541
 ,-0.00142551,0.00064181,-0.01537031,-0.01171648,-0.03933179,-0.0316823
 9,0.01715031,0.05023172,0.00559796,0.00307099,-0.00431813,-0.04965926,
 0.00264596,0.00098334,0.00062353,-0.00091745,-0.00024002,-0.21441909,-
 0.02792181,0.02340121,0.00171243,0.00005631,0.00081241,-0.00022099,-0.
 00023407,0.00021594,0.00056214,-0.00014620,-0.00016442,0.00003446,0.00
 011718,0.00005240,-0.03822706,-0.00751359,0.00650276,-0.02108961,0.000
 88484,0.00688780,0.00000560,-0.00002118,0.00004684,-0.00002603,0.00004
 046,-0.00003492,0.00079590,-0.00542442,0.00065813,0.00130867,0.0001274
 5,0.00067191,-0.00077641,0.00042622,0.00055511,0.00010187,-0.00003678,
 -0.00006557,-0.00140070,0.00019558,0.00060663,0.00007367,-0.00002005,-
 0.00039543,-0.00463643,0.00179982,-0.00344331,-0.00023435,0.00024102,0
 .00114976,0.00264471,-0.00049658,0.00158840,-0.00148874,-0.00012921,-0
 .00087478,0.38387551,-0.00169608,-0.00128172,0.00300074,0.02208903,0.0
 0365848,-0.00503314,-0.00063215,0.00004708,0.00052647,0.01952580,-0.09
 584283,-0.01353934,-0.00025385,0.00214816,-0.00175792,0.00092278,0.000
 43969,0.00005865,-0.00025502,-0.00000908,0.00000571,-0.00010669,0.0001
 6700,-0.00005276,-0.03585371,-0.00560659,0.00363680,0.02132721,0.00394
 699,-0.00135724,0.00006519,0.00003218,0.00000408,-0.00001851,0.0000181
 0,0.00000067,-0.00164434,-0.00687564,0.00085848,0.00028842,0.00207415,
 -0.00038646,0.00030749,-0.00004583,-0.00022285,-0.00003332,-0.00003679
 ,0.00002114,0.00126921,0.00064243,-0.00071070,0.00008305,-0.00001758,0
 .00015937,0.00206077,-0.00020202,0.00122040,-0.00019853,-0.00015080,-0
 .00038351,-0.00008900,0.00196544,0.00043497,-0.00043932,-0.00202149,-0
 .00060934,-0.09156095,0.52675885,0.00105019,0.00231049,-0.00262728,-0.
 02015951,-0.00066690,-0.00190869,-0.00060871,0.00076365,-0.00170592,0.
 03636620,-0.00261242,-0.07059733,0.00041701,-0.00069080,0.00087840,-0.
 00012276,-0.00025369,-0.00001282,0.00020495,-0.00007382,0.00007105,-0.
 00010330,-0.00002535,0.00010425,0.01257255,-0.00200332,-0.00215992,0.0
 3064973,0.00251108,0.00192014,0.00001111,0.00001432,-0.00001432,0.0001
 4622,-0.00010090,-0.00000094,0.00021505,0.00241478,0.00129305,-0.00051
 406,-0.00176026,0.00084717,-0.00011880,-0.00002616,0.00032944,-0.00000
 237,0.00001905,0.00002739,0.00162414,-0.00060954,0.00055114,0.00004293
 ,-0.00000277,0.00016779,-0.00214507,0.00040661,0.00001068,0.00072375,-
 0.00028828,0.00051887,-0.00889899,0.00208729,0.00397861,0.00151930,-0.
 00056642,0.00539971,-0.08760223,0.16930787,0.12522538,0.00025521,0.000
 47209,-0.00065770,-0.00410598,0.00067149,0.00222640,0.00015785,-0.0000
 3754,0.00005163,-0.02037255,0.04020552,0.01786358,0.00009046,-0.000308
 37,0.00022376,-0.00017612,-0.00011321,-0.00001192,-0.00005174,0.000062
 71,0.00003133,0.00002572,-0.00003621,0.00000672,-0.00381776,0.00120113
 ,0.00453145,-0.00488511,-0.00052042,-0.00037954,-0.00001275,-0.0000048
 9,-0.00000934,-0.00000619,-0.00000730,0.00000187,0.00051599,0.00078330
 ,-0.00016292,0.00006509,-0.00038664,-0.00033931,0.00007385,-0.00006323
 ,-0.00007264,-0.00001357,0.00001708,0.00000712,-0.00024233,-0.00015189
 ,0.00007487,-0.00006466,-0.00000190,-0.00000774,-0.00017724,-0.0001295
 7,-0.00016796,-0.00015406,0.00012245,-0.00004765,0.00106385,-0.0012105
 1,-0.00004113,0.00024249,0.00113216,-0.00165875,-0.06935538,0.07439209
 ,0.03871442,0.09949067,0.00042951,0.00069408,-0.00023356,-0.00008900,-
 0.00117934,-0.00051332,0.00001180,0.00001969,-0.00020008,0.00270827,0.
 00286818,0.00021940,-0.00000410,0.00005916,0.00011836,-0.00015916,-0.0
 0012906,-0.00004445,0.00010939,-0.00000090,0.00002012,0.00001579,-0.00
 007220,-0.00000244,-0.00785006,0.00282950,0.00383805,-0.00198942,-0.00
 002898,0.00169102,-0.00002941,-0.00001565,-0.00000214,0.00001242,-0.00
 000901,-0.00000424,0.00075146,-0.00106647,-0.00101261,0.00029578,-0.00
 028506,-0.00041994,-0.00013099,0.00001331,0.00009272,0.00001410,0.0000
 1739,-0.00000640,-0.00031187,-0.00025510,0.00013314,0.00001228,0.00001
 077,-0.00004044,-0.00058662,-0.00001840,-0.00009401,0.00028516,-0.0000
 4155,0.00013763,-0.00123648,0.00006295,-0.00060341,0.00127309,-0.00042
 349,0.00229808,0.12145443,-0.42621271,-0.16622655,-0.11742816,0.425899
 18,0.00011447,-0.00022364,-0.00074395,-0.00386688,0.00130345,0.0022623
 5,0.00013100,-0.00003025,-0.00000659,0.00649406,-0.00714660,-0.0068668
 9,0.00011145,-0.00037325,-0.00005499,-0.00008029,0.00000695,0.00005554
 ,-0.00002244,0.00000013,-0.00000268,0.00000112,0.00002688,0.00000557,0
 .00082503,-0.00064962,0.00225254,0.00425695,0.00004848,-0.00058996,0.0
 0000809,-0.00000012,0.00000337,-0.00000375,0.00000722,-0.00000145,-0.0
 0015509,-0.00087611,-0.00076433,0.00045673,0.00032476,-0.00091655,0.00
 002933,-0.00000169,-0.00003566,-0.00000033,-0.00000703,0.00000589,0.00
 024505,0.00007685,-0.00008742,0.00004105,-0.00001339,0.00004403,-0.000
 28061,0.00019060,-0.00050336,-0.00028219,0.00015755,0.00005791,0.00106
 712,-0.00142537,-0.00076865,-0.00137379,0.00242690,-0.00185520,0.05235
 177,-0.15536627,-0.06521479,-0.05879410,0.16108283,0.07615777,-0.00046
 376,-0.00133034,0.00044324,0.00012190,0.00012755,0.00062238,0.00017981
 ,-0.00085408,0.00081603,-0.00223020,-0.00174015,-0.00151569,-0.0000466
 6,0.00039385,-0.00027332,0.00055660,0.00022648,0.00025529,0.00009788,-
 0.00008483,-0.00018425,0.00000558,0.00029436,-0.00008490,-0.10215265,0
 .02569045,0.06238840,0.00017107,-0.00147505,-0.00007390,0.00007087,0.0
 0000827,0.00004592,-0.00006981,0.00007192,-0.00000335,-0.01098169,0.02
 572122,0.03297858,0.00561212,-0.00069793,0.00246765,-0.00023564,0.0002
 4596,0.00010692,0.00004744,-0.00005221,-0.00005263,-0.00054450,0.00146
 794,0.00025427,0.00005944,0.00021543,-0.00021428,0.00028102,0.00069010
 ,-0.00053207,-0.00021861,-0.00006549,0.00008282,0.00112417,0.00055495,
 -0.00087508,-0.00046265,0.00040381,-0.00026707,0.00401192,-0.00682346,
 -0.00235533,-0.00075441,0.00138807,-0.00226679,0.12046170,-0.00103561,
 0.00006881,-0.00017356,-0.00020383,0.00094470,-0.00169387,-0.00034941,
 0.00059076,-0.00039471,0.01582397,-0.03222263,-0.03604585,0.00015277,0
 .00008603,0.00057911,0.00008516,0.00005487,-0.00017798,-0.00028346,0.0
 0003435,0.00006969,-0.00006220,0.00004048,0.00008442,0.04391952,-0.127
 92056,-0.06904395,-0.00284243,-0.00666551,0.00226903,0.00004327,0.0000
 4946,-0.00002504,0.00005015,-0.00004722,0.00001097,0.00718813,-0.00173
 321,-0.00426989,-0.00126109,0.00226888,-0.00622652,0.00042871,-0.00016
 876,-0.00018611,-0.00006362,-0.00001007,0.00004549,0.00096572,-0.00028
 321,-0.00011824,-0.00018518,-0.00015752,0.00019024,0.00080277,-0.00032
 637,0.00076446,-0.00031666,-0.00005698,-0.00033191,0.00082514,-0.00247
 852,0.00437892,0.00032758,0.00000881,-0.00088796,0.00218989,-0.0047589
 4,-0.00344547,0.00127609,-0.00206558,0.00005501,-0.02781259,0.68219515
 ,-0.00023643,0.00038623,-0.00022480,-0.00036139,-0.00121412,-0.0022990
 2,-0.00018875,0.00079851,-0.00100036,-0.00092635,-0.00643080,0.0024962
 2,0.00020113,-0.00017390,0.00058666,0.00004156,-0.00028006,-0.00028053
 ,-0.00006071,-0.00006154,0.00005381,-0.00002031,-0.00013931,0.00013951
 ,0.05796390,-0.02518851,-0.16043805,0.00033471,0.00135492,0.00131841,-
 0.00000480,0.00003761,-0.00003252,0.00009538,-0.00007503,0.00001266,0.
 00881232,-0.00758726,-0.00401356,0.02340697,-0.02858806,-0.03077585,0.
 00017212,-0.00013075,0.00007294,-0.00003777,0.00001820,0.00002401,0.00
 052493,-0.00090468,0.00056266,-0.00020169,-0.00000700,0.00004513,0.000
 12944,-0.00033253,0.00085842,0.00017739,-0.00025205,-0.00016342,-0.000
 76059,0.00374618,0.00161511,-0.00017537,-0.00098695,-0.00038362,0.0002
 5968,-0.00024946,0.00275988,-0.00095727,-0.00025424,-0.00211738,-0.116
 84328,-0.04977705,0.26214131,0.00015503,0.00028806,-0.00004160,0.00006
 009,-0.00014839,0.00004811,-0.00000875,-0.00000322,0.00003299,-0.00338
 650,-0.00023910,0.00263087,-0.00000026,-0.00000949,-0.00001862,-0.0000
 4699,-0.00008052,0.00000197,-0.00000869,0.00006990,0.00004982,0.000004
 52,-0.00004388,-0.00001066,-0.00100582,0.02140892,-0.00390122,0.000366
 79,0.00051871,-0.00009717,-0.00002236,-0.00001468,-0.00001167,-0.00000
 579,-0.00000956,-0.00000200,-0.00079117,0.00131326,0.00013366,0.000964
 10,-0.00065919,0.00075701,0.00002978,-0.00006322,-0.00005567,-0.000008
 98,0.00002419,0.00000745,-0.00008618,-0.00009965,-0.00003752,0.0000185
 7,0.00003764,0.00002505,-0.00004452,-0.00014442,0.00005951,0.00003458,
 0.00004880,-0.00001613,0.00003684,0.00001945,-0.00017666,0.00001850,0.
 00014090,-0.00014317,0.00018568,-0.00272611,-0.00162643,0.00220867,0.0
 0105372,0.00099307,-0.01464096,-0.03966280,0.02865519,0.01597384,0.000
 00181,-0.00023688,0.00008792,0.00007566,0.00011136,0.00021795,0.000041
 22,-0.00012939,0.00009397,0.00164868,-0.00125078,-0.00427357,-0.000000
 97,0.00012138,-0.00004571,0.00010482,0.00005889,0.00003432,0.00005951,
 -0.00001038,-0.00003686,-0.00000513,0.00004602,-0.00000848,-0.00336229
 ,-0.02104068,0.00985953,-0.00042140,-0.00087588,0.00038451,0.00000760,
 -0.00000615,0.00000864,-0.00001201,0.00001370,-0.00000222,-0.00008202,
 0.00047497,0.00083550,-0.00155440,0.00227218,0.00073842,-0.00009277,0.
 00005317,0.00004851,0.00001643,-0.00000423,-0.00001177,-0.00012440,0.0
 0020763,-0.00000893,0.00004287,0.00001685,-0.00003083,-0.00008064,0.00
 016418,-0.00018020,0.00001162,-0.00001512,0.00005402,0.00006219,0.0000
 3006,-0.00006828,0.00001128,-0.00002070,0.00009221,0.00117216,0.001163
 47,-0.00048247,0.00006374,-0.00067070,0.00040572,-0.01656423,-0.507447
 22,0.11629168,0.01898066,0.52697422,0.00004180,0.00008448,0.00000967,0
 .00016951,-0.00060821,-0.00067182,-0.00004836,-0.00004489,0.00005413,0
 .00299710,-0.00351159,-0.00476377,0.00002536,0.00003864,0.00018956,0.0
 0001072,-0.00000202,0.00001798,0.00000340,0.00003058,0.00002505,-0.000
 00201,0.00001249,-0.00001402,-0.00000271,-0.03538640,0.00403005,-0.000
 41225,-0.00134391,0.00030622,-0.00000223,-0.00000915,0.00000315,-0.000
 00588,0.00000536,-0.00000315,0.00056895,0.00014015,0.00012972,-0.00067
 087,-0.00084572,0.00024762,-0.00000837,0.00000326,-0.00003116,0.000002
 34,-0.00000227,0.00000715,0.00000547,0.00007931,-0.00013187,0.00003123
 ,-0.00004049,0.00003389,-0.00009289,-0.00000277,-0.00004407,0.00009604
 ,0.00000467,0.00004976,-0.00037185,0.00100681,-0.00020611,-0.00012828,
 -0.00041569,0.00030240,0.00039469,0.00043368,0.00015907,-0.00042517,0.
 00002649,-0.00031511,0.02508043,0.16435077,-0.07095759,-0.02725618,-0.
 12400359,0.07157325\\-0.00001398,0.00000590,-0.00000267,-0.00000026,0.
 00000445,-0.00002271,0.00001002,-0.00001633,0.00000735,0.00000159,-0.0
 0000483,0.00001959,0.00000038,0.00000009,-0.00000083,0.00000323,-0.000
 00212,-0.00000176,-0.00000592,0.00001156,0.00000978,-0.00000043,0.0000
 0309,-0.00000223,0.00000495,-0.00000328,-0.00001567,-0.00000205,-0.000
 00139,0.00000155,0.00000103,-0.00000101,-0.00000202,0.00000214,-0.0000
 0016,-0.00000256,-0.00000284,0.00000087,0.00000550,-0.00000126,-0.0000
 0024,0.00000350,0.00000550,-0.00000196,-0.00000486,-0.00000158,-0.0000
 0064,0.00000097,-0.00000156,0.00001118,-0.00000811,-0.00000113,0.00000
 292,0.00000543,0.00000292,-0.00000472,0.00000157,0.00000147,-0.0000025
 6,-0.00000287,-0.00000590,0.00000740,0.00000360,0.00000511,-0.00000680
 ,0.00000264,0.00000067,0.00000258,-0.00000606,0.00000234,-0.00000242,-
 0.00000144,-0.00000374,0.00000022,0.00000996,-0.00000070,-0.00000178,0
 .00000236\\\@
 The archive entry for this job was punched.


 I MET A TRAVELLER FROM AN ANTIQUE LAND
 WHO SAID... TWO VAST AND TRUNKLESS LEGS OF STONE
 STAND IN THE DESERT..... NEAR THEM,  ON THE SAND,
 HALF SUNK,  A SHATTERED VISAGE LIES,  WHOSE FROWN,
 AND WRINKLED LIP,  AND SNEER OF COLD COMMAND
 TELL THAT ITS SCULPTOR WELL THOSE PASSIONS READ
 WHICH YET SURVIVE,  STAMPED ON THESE LIFELESS THINGS
 THE HAND THAT MOCKED THEM,  AND THE HEART THAT FED-
 AND ON THE PEDESTAL THESE WORDS APPEAR 
 MY NAME IS OZYMANDIAS, KING OF KINGS--   
 LOOK ON MY WORKS YE MIGHTY AND DESPAIR. 
 NOTHING BESIDE REMAINS,  ROUND THE DECAY 
 OF THAT COLOSSAL WRECK,  BOUNDLESS AND BARE
 THE LONE AND LEVEL SANDS STRETCH FAR AWAY.
                                    SHELLEY
 Job cpu time:       0 days 10 hours 36 minutes 18.8 seconds.
 Elapsed time:       0 days  0 hours 39 minutes 52.3 seconds.
 File lengths (MBytes):  RWF=    704 Int=      0 D2E=      0 Chk=     27 Scr=      1
 Normal termination of Gaussian 16 at Wed Oct 11 15:36:49 2023.
