 Entering Gaussian System, Link 0=/opt/software/gaussian/g16.c01/g16
 Initial command:
 /opt/software/gaussian/g16.c01/l1.exe "/scratch/arhender/13209926/Gau-180056.inp" -scrdir="/scratch/arhender/13209926/"
 Entering Link 1 = /opt/software/gaussian/g16.c01/l1.exe PID=    180062.
  
 Copyright (c) 1988-2019, Gaussian, Inc.  All Rights Reserved.
  
 This is part of the Gaussian(R) 16 program.  It is based on
 the Gaussian(R) 09 system (copyright 2009, Gaussian, Inc.),
 the Gaussian(R) 03 system (copyright 2003, Gaussian, Inc.),
 the Gaussian(R) 98 system (copyright 1998, Gaussian, Inc.),
 the Gaussian(R) 94 system (copyright 1995, Gaussian, Inc.),
 the Gaussian 92(TM) system (copyright 1992, Gaussian, Inc.),
 the Gaussian 90(TM) system (copyright 1990, Gaussian, Inc.),
 the Gaussian 88(TM) system (copyright 1988, Gaussian, Inc.),
 the Gaussian 86(TM) system (copyright 1986, Carnegie Mellon
 University), and the Gaussian 82(TM) system (copyright 1983,
 Carnegie Mellon University). Gaussian is a federally registered
 trademark of Gaussian, Inc.
  
 This software contains proprietary and confidential information,
 including trade secrets, belonging to Gaussian, Inc.
  
 This software is provided under written license and may be
 used, copied, transmitted, or stored only in accord with that
 written license.
  
 The following legend is applicable only to US Government
 contracts under FAR:
  
                    RESTRICTED RIGHTS LEGEND
  
 Use, reproduction and disclosure by the US Government is
 subject to restrictions as set forth in subparagraphs (a)
 and (c) of the Commercial Computer Software - Restricted
 Rights clause in FAR 52.227-19.
  
 Gaussian, Inc.
 340 Quinnipiac St., Bldg. 40, Wallingford CT 06492
  
  
 ---------------------------------------------------------------
 Warning -- This program may not be used in any manner that
 competes with the business of Gaussian, Inc. or will provide
 assistance to any competitor of Gaussian, Inc.  The licensee
 of this program is prohibited from giving any competitor of
 Gaussian, Inc. access to this program.  By using this program,
 the user acknowledges that Gaussian, Inc. is engaged in the
 business of creating and licensing software in the field of
 computational chemistry and represents and warrants to the
 licensee that it is not a competitor of Gaussian, Inc. and that
 it will not use this program in any manner prohibited above.
 ---------------------------------------------------------------
  

 Cite this work as:
 Gaussian 16, Revision C.01,
 M. J. Frisch, G. W. Trucks, H. B. Schlegel, G. E. Scuseria, 
 M. A. Robb, J. R. Cheeseman, G. Scalmani, V. Barone, 
 G. A. Petersson, H. Nakatsuji, X. Li, M. Caricato, A. V. Marenich, 
 J. Bloino, B. G. Janesko, R. Gomperts, B. Mennucci, H. P. Hratchian, 
 J. V. Ortiz, A. F. Izmaylov, J. L. Sonnenberg, D. Williams-Young, 
 F. Ding, F. Lipparini, F. Egidi, J. Goings, B. Peng, A. Petrone, 
 T. Henderson, D. Ranasinghe, V. G. Zakrzewski, J. Gao, N. Rega, 
 G. Zheng, W. Liang, M. Hada, M. Ehara, K. Toyota, R. Fukuda, 
 J. Hasegawa, M. Ishida, T. Nakajima, Y. Honda, O. Kitao, H. Nakai, 
 T. Vreven, K. Throssell, J. A. Montgomery, Jr., J. E. Peralta, 
 F. Ogliaro, M. J. Bearpark, J. J. Heyd, E. N. Brothers, K. N. Kudin, 
 V. N. Staroverov, T. A. Keith, R. Kobayashi, J. Normand, 
 K. Raghavachari, A. P. Rendell, J. C. Burant, S. S. Iyengar, 
 J. Tomasi, M. Cossi, J. M. Millam, M. Klene, C. Adamo, R. Cammi, 
 J. W. Ochterski, R. L. Martin, K. Morokuma, O. Farkas, 
 J. B. Foresman, and D. J. Fox, Gaussian, Inc., Wallingford CT, 2019.
 
 ******************************************
 Gaussian 16:  ES64L-G16RevC.01  3-Jul-2019
                27-Sep-2023 
 ******************************************
 %chk=MannitolConformerOpt_17.chk
 %mem=8GB
 %nprocs=16
 Will use up to   16 processors via shared memory.
 ---------------------------------------------
 # opt freq wb97xd/def2tzvpp geom=connectivity
 ---------------------------------------------
 1/18=20,19=15,26=3,38=1,57=2/1,3;
 2/9=110,12=2,17=6,18=5,40=1/2;
 3/5=44,7=202,11=2,25=1,30=1,71=1,74=-58/1,2,3;
 4//1;
 5/5=2,38=5/2;
 6/7=2,8=2,9=2,10=2,28=1/1;
 7//1,2,3,16;
 1/18=20,19=15,26=3/3(2);
 2/9=110/2;
 99//99;
 2/9=110/2;
 3/5=44,7=202,11=2,25=1,30=1,71=1,74=-58/1,2,3;
 4/5=5,16=3,69=1/1;
 5/5=2,38=5/2;
 7//1,2,3,16;
 1/18=20,19=15,26=3/3(-5);
 2/9=110/2;
 6/7=2,8=2,9=2,10=2,19=2,28=1/1;
 99/9=1/99;
 --------------------------------
 Mannitol Conformer Optimziations
 --------------------------------
 Symbolic Z-matrix:
 Charge =  0 Multiplicity = 1
 C                     0.        0.        0. 
 C                     1.5394    0.        0. 
 C                    -0.6262    1.0632   -0.9186 
 C                     2.1033   -0.73      1.2307 
 H                     1.906     1.0334    0. 
 H                    -0.3944    0.1493    1.0118 
 C                    -0.1817    1.0084   -2.3836 
 H                    -0.4382    2.0655   -0.5164 
 C                     3.6307   -0.8507    1.1782 
 H                     1.6744   -1.7355    1.3181 
 H                     0.8725    1.2731   -2.4983 
 H                    -0.3724    0.0243   -2.8225 
 H                     4.099     0.1359    1.1026 
 H                     3.9588   -1.4801    0.3459 
 O                    -0.9641    1.9606   -3.1171 
 H                    -0.6503    1.9215   -4.0386 
 O                    -2.0575    0.867    -0.8906 
 H                    -2.3913    1.4485   -1.6062 
 O                    -0.4488   -1.3044   -0.4328 
 H                    -1.4226   -1.2033   -0.5034 
 O                     1.9985   -0.6476   -1.1967 
 H                     1.4021   -1.4225   -1.2956 
 O                     1.7539   -0.0139    2.4246 
 H                     2.3068   -0.4238    3.1223 
 O                     4.0761   -1.4424    2.4047 
 H                     5.0417   -1.543     2.328 
 

 GradGradGradGradGradGradGradGradGradGradGradGradGradGradGradGradGradGrad
 Berny optimization.
 Initialization pass.
                           ----------------------------
                           !    Initial Parameters    !
                           ! (Angstroms and Degrees)  !
 --------------------------                            --------------------------
 ! Name  Definition              Value          Derivative Info.                !
 --------------------------------------------------------------------------------
 ! R1    R(1,2)                  1.5394         estimate D2E/DX2                !
 ! R2    R(1,3)                  1.5383         estimate D2E/DX2                !
 ! R3    R(1,6)                  1.0962         estimate D2E/DX2                !
 ! R4    R(1,19)                 1.4458         estimate D2E/DX2                !
 ! R5    R(2,4)                  1.538          estimate D2E/DX2                !
 ! R6    R(2,5)                  1.0965         estimate D2E/DX2                !
 ! R7    R(2,21)                 1.4361         estimate D2E/DX2                !
 ! R8    R(3,7)                  1.5319         estimate D2E/DX2                !
 ! R9    R(3,8)                  1.0962         estimate D2E/DX2                !
 ! R10   R(3,17)                 1.445          estimate D2E/DX2                !
 ! R11   R(4,9)                  1.5331         estimate D2E/DX2                !
 ! R12   R(4,10)                 1.0966         estimate D2E/DX2                !
 ! R13   R(4,23)                 1.4354         estimate D2E/DX2                !
 ! R14   R(7,11)                 1.093          estimate D2E/DX2                !
 ! R15   R(7,12)                 1.0943         estimate D2E/DX2                !
 ! R16   R(7,15)                 1.4342         estimate D2E/DX2                !
 ! R17   R(9,13)                 1.0947         estimate D2E/DX2                !
 ! R18   R(9,14)                 1.0939         estimate D2E/DX2                !
 ! R19   R(9,25)                 1.4328         estimate D2E/DX2                !
 ! R20   R(15,16)                0.9742         estimate D2E/DX2                !
 ! R21   R(17,18)                0.9806         estimate D2E/DX2                !
 ! R22   R(19,20)                0.9816         estimate D2E/DX2                !
 ! R23   R(21,22)                0.9828         estimate D2E/DX2                !
 ! R24   R(23,24)                0.9801         estimate D2E/DX2                !
 ! R25   R(25,26)                0.9739         estimate D2E/DX2                !
 ! A1    A(2,1,3)              114.0212         estimate D2E/DX2                !
 ! A2    A(2,1,6)              111.0879         estimate D2E/DX2                !
 ! A3    A(2,1,19)             108.085          estimate D2E/DX2                !
 ! A4    A(3,1,6)              108.095          estimate D2E/DX2                !
 ! A5    A(3,1,19)             108.5692         estimate D2E/DX2                !
 ! A6    A(6,1,19)             106.7092         estimate D2E/DX2                !
 ! A7    A(1,2,4)              111.5086         estimate D2E/DX2                !
 ! A8    A(1,2,5)              109.5322         estimate D2E/DX2                !
 ! A9    A(1,2,21)             108.6445         estimate D2E/DX2                !
 ! A10   A(4,2,5)              108.9499         estimate D2E/DX2                !
 ! A11   A(4,2,21)             109.6066         estimate D2E/DX2                !
 ! A12   A(5,2,21)             108.5493         estimate D2E/DX2                !
 ! A13   A(1,3,7)              115.355          estimate D2E/DX2                !
 ! A14   A(1,3,8)              110.0616         estimate D2E/DX2                !
 ! A15   A(1,3,17)             107.326          estimate D2E/DX2                !
 ! A16   A(7,3,8)              109.5002         estimate D2E/DX2                !
 ! A17   A(7,3,17)             107.523          estimate D2E/DX2                !
 ! A18   A(8,3,17)             106.6734         estimate D2E/DX2                !
 ! A19   A(2,4,9)              112.0399         estimate D2E/DX2                !
 ! A20   A(2,4,10)             110.8283         estimate D2E/DX2                !
 ! A21   A(2,4,23)             109.8482         estimate D2E/DX2                !
 ! A22   A(9,4,10)             108.675          estimate D2E/DX2                !
 ! A23   A(9,4,23)             108.0765         estimate D2E/DX2                !
 ! A24   A(10,4,23)            107.2139         estimate D2E/DX2                !
 ! A25   A(3,7,11)             111.8121         estimate D2E/DX2                !
 ! A26   A(3,7,12)             111.4178         estimate D2E/DX2                !
 ! A27   A(3,7,15)             107.8819         estimate D2E/DX2                !
 ! A28   A(11,7,12)            110.1085         estimate D2E/DX2                !
 ! A29   A(11,7,15)            108.1632         estimate D2E/DX2                !
 ! A30   A(12,7,15)            107.2704         estimate D2E/DX2                !
 ! A31   A(4,9,13)             110.9536         estimate D2E/DX2                !
 ! A32   A(4,9,14)             111.7279         estimate D2E/DX2                !
 ! A33   A(4,9,25)             108.2353         estimate D2E/DX2                !
 ! A34   A(13,9,14)            109.7375         estimate D2E/DX2                !
 ! A35   A(13,9,25)            107.3571         estimate D2E/DX2                !
 ! A36   A(14,9,25)            108.6919         estimate D2E/DX2                !
 ! A37   A(7,15,16)            106.3433         estimate D2E/DX2                !
 ! A38   A(3,17,18)            104.0351         estimate D2E/DX2                !
 ! A39   A(1,19,20)            103.6843         estimate D2E/DX2                !
 ! A40   A(2,21,22)            104.2062         estimate D2E/DX2                !
 ! A41   A(4,23,24)            104.25           estimate D2E/DX2                !
 ! A42   A(9,25,26)            106.4677         estimate D2E/DX2                !
 ! D1    D(3,1,2,4)            161.5015         estimate D2E/DX2                !
 ! D2    D(3,1,2,5)             40.8269         estimate D2E/DX2                !
 ! D3    D(3,1,2,21)           -77.5934         estimate D2E/DX2                !
 ! D4    D(6,1,2,4)             39.0686         estimate D2E/DX2                !
 ! D5    D(6,1,2,5)            -81.6061         estimate D2E/DX2                !
 ! D6    D(6,1,2,21)           159.9737         estimate D2E/DX2                !
 ! D7    D(19,1,2,4)           -77.6812         estimate D2E/DX2                !
 ! D8    D(19,1,2,5)           161.6442         estimate D2E/DX2                !
 ! D9    D(19,1,2,21)           43.2239         estimate D2E/DX2                !
 ! D10   D(2,1,3,7)             55.7557         estimate D2E/DX2                !
 ! D11   D(2,1,3,8)            -68.7375         estimate D2E/DX2                !
 ! D12   D(2,1,3,17)           175.5476         estimate D2E/DX2                !
 ! D13   D(6,1,3,7)            179.8139         estimate D2E/DX2                !
 ! D14   D(6,1,3,8)             55.3207         estimate D2E/DX2                !
 ! D15   D(6,1,3,17)           -60.3942         estimate D2E/DX2                !
 ! D16   D(19,1,3,7)           -64.7913         estimate D2E/DX2                !
 ! D17   D(19,1,3,8)           170.7155         estimate D2E/DX2                !
 ! D18   D(19,1,3,17)           55.0007         estimate D2E/DX2                !
 ! D19   D(2,1,19,20)         -174.051          estimate D2E/DX2                !
 ! D20   D(3,1,19,20)          -49.8947         estimate D2E/DX2                !
 ! D21   D(6,1,19,20)           66.397          estimate D2E/DX2                !
 ! D22   D(1,2,4,9)            174.727          estimate D2E/DX2                !
 ! D23   D(1,2,4,10)            53.1523         estimate D2E/DX2                !
 ! D24   D(1,2,4,23)           -65.1389         estimate D2E/DX2                !
 ! D25   D(5,2,4,9)            -64.258          estimate D2E/DX2                !
 ! D26   D(5,2,4,10)           174.1673         estimate D2E/DX2                !
 ! D27   D(5,2,4,23)            55.8761         estimate D2E/DX2                !
 ! D28   D(21,2,4,9)            54.3855         estimate D2E/DX2                !
 ! D29   D(21,2,4,10)          -67.1891         estimate D2E/DX2                !
 ! D30   D(21,2,4,23)          174.5196         estimate D2E/DX2                !
 ! D31   D(1,2,21,22)          -41.7507         estimate D2E/DX2                !
 ! D32   D(4,2,21,22)           80.3191         estimate D2E/DX2                !
 ! D33   D(5,2,21,22)         -160.7897         estimate D2E/DX2                !
 ! D34   D(1,3,7,11)           -67.4532         estimate D2E/DX2                !
 ! D35   D(1,3,7,12)            56.2414         estimate D2E/DX2                !
 ! D36   D(1,3,7,15)           173.7351         estimate D2E/DX2                !
 ! D37   D(8,3,7,11)            57.3322         estimate D2E/DX2                !
 ! D38   D(8,3,7,12)          -178.9731         estimate D2E/DX2                !
 ! D39   D(8,3,7,15)           -61.4795         estimate D2E/DX2                !
 ! D40   D(17,3,7,11)          172.8631         estimate D2E/DX2                !
 ! D41   D(17,3,7,12)          -63.4423         estimate D2E/DX2                !
 ! D42   D(17,3,7,15)           54.0513         estimate D2E/DX2                !
 ! D43   D(1,3,17,18)         -169.9604         estimate D2E/DX2                !
 ! D44   D(7,3,17,18)          -45.2862         estimate D2E/DX2                !
 ! D45   D(8,3,17,18)           72.0999         estimate D2E/DX2                !
 ! D46   D(2,4,9,13)            57.8702         estimate D2E/DX2                !
 ! D47   D(2,4,9,14)           -64.9421         estimate D2E/DX2                !
 ! D48   D(2,4,9,25)           175.4193         estimate D2E/DX2                !
 ! D49   D(10,4,9,13)         -179.3268         estimate D2E/DX2                !
 ! D50   D(10,4,9,14)           57.861          estimate D2E/DX2                !
 ! D51   D(10,4,9,25)          -61.7777         estimate D2E/DX2                !
 ! D52   D(23,4,9,13)          -63.2914         estimate D2E/DX2                !
 ! D53   D(23,4,9,14)          173.8964         estimate D2E/DX2                !
 ! D54   D(23,4,9,25)           54.2577         estimate D2E/DX2                !
 ! D55   D(2,4,23,24)         -167.9092         estimate D2E/DX2                !
 ! D56   D(9,4,23,24)          -45.3966         estimate D2E/DX2                !
 ! D57   D(10,4,23,24)          71.5875         estimate D2E/DX2                !
 ! D58   D(3,7,15,16)          178.7608         estimate D2E/DX2                !
 ! D59   D(11,7,15,16)          57.6465         estimate D2E/DX2                !
 ! D60   D(12,7,15,16)         -61.0983         estimate D2E/DX2                !
 ! D61   D(4,9,25,26)          177.5565         estimate D2E/DX2                !
 ! D62   D(13,9,25,26)         -62.6113         estimate D2E/DX2                !
 ! D63   D(14,9,25,26)          56.0265         estimate D2E/DX2                !
 --------------------------------------------------------------------------------
 Trust Radius=3.00D-01 FncErr=1.00D-07 GrdErr=1.00D-06 EigMax=2.50D+02 EigMin=1.00D-04
 Number of steps in this run=    140 maximum allowed number of steps=    156.
 GradGradGradGradGradGradGradGradGradGradGradGradGradGradGradGradGradGrad

                          Input orientation:                          
 ---------------------------------------------------------------------
 Center     Atomic      Atomic             Coordinates (Angstroms)
 Number     Number       Type             X           Y           Z
 ---------------------------------------------------------------------
      1          6           0        0.000000    0.000000    0.000000
      2          6           0        1.539400    0.000000    0.000000
      3          6           0       -0.626200    1.063200   -0.918600
      4          6           0        2.103300   -0.730000    1.230700
      5          1           0        1.906000    1.033400    0.000000
      6          1           0       -0.394400    0.149300    1.011800
      7          6           0       -0.181700    1.008400   -2.383600
      8          1           0       -0.438200    2.065500   -0.516400
      9          6           0        3.630700   -0.850700    1.178200
     10          1           0        1.674400   -1.735500    1.318100
     11          1           0        0.872500    1.273100   -2.498300
     12          1           0       -0.372400    0.024300   -2.822500
     13          1           0        4.099000    0.135900    1.102600
     14          1           0        3.958800   -1.480100    0.345900
     15          8           0       -0.964100    1.960600   -3.117100
     16          1           0       -0.650300    1.921500   -4.038600
     17          8           0       -2.057500    0.867000   -0.890600
     18          1           0       -2.391300    1.448500   -1.606200
     19          8           0       -0.448800   -1.304400   -0.432800
     20          1           0       -1.422600   -1.203300   -0.503400
     21          8           0        1.998500   -0.647600   -1.196700
     22          1           0        1.402100   -1.422500   -1.295600
     23          8           0        1.753900   -0.013900    2.424600
     24          1           0        2.306800   -0.423800    3.122300
     25          8           0        4.076100   -1.442400    2.404700
     26          1           0        5.041700   -1.543000    2.328000
 ---------------------------------------------------------------------
                    Distance matrix (angstroms):
                    1          2          3          4          5
     1  C    0.000000
     2  C    1.539400   0.000000
     3  C    1.538293   2.581481   0.000000
     4  C    2.543893   1.538020   3.909633   0.000000
     5  H    2.168122   1.096499   2.693836   2.159428   0.000000
     6  H    1.096167   2.187604   2.148346   2.656989   2.664059
     7  C    2.594501   3.108151   1.531930   4.615888   3.168701
     8  H    2.173702   2.905832   1.096227   4.162499   2.612886
     9  C    3.910732   2.546641   5.116716   1.533061   2.812931
    10  H    2.748265   2.183477   4.257735   1.096642   3.075359
    11  H    2.936587   2.882194   2.187604   4.408256   2.714237
    12  H    2.847065   3.409117   2.183704   4.809001   3.765089
    13  H    4.246881   2.790295   5.222322   2.179223   2.613519
    14  H    4.240571   2.857243   5.393474   2.188242   3.263636
    15  O    3.806541   4.452839   2.398522   5.962519   4.337452
    16  H    4.519440   4.979683   3.235994   6.509861   4.861448
    17  O    2.403781   3.805594   1.444956   4.935846   4.065734
    18  H    3.224337   4.486472   1.933088   5.744153   4.606406
    19  O    1.445751   2.416964   2.423428   3.100062   3.346298
    20  H    1.930060   3.236477   2.437964   3.957662   4.041759
    21  O    2.417743   1.436053   3.145350   2.431058   2.065529
    22  H    2.380750   1.928973   3.230299   2.711721   2.822045
    23  O    2.992498   2.434109   4.242877   1.435366   2.645497
    24  H    3.905085   3.243034   5.209849   1.926998   3.468837
    25  O    4.947493   3.781263   6.279648   2.403691   4.076948
    26  H    5.763608   4.479569   7.032623   3.240252   4.678679
                    6          7          8          9         10
     6  H    0.000000
     7  C    3.508851   0.000000
     8  H    2.451354   2.160946   0.000000
     9  C    4.150797   5.538688   5.285058   0.000000
    10  H    2.815355   4.967563   4.719753   2.151640   0.000000
    11  H    3.897276   1.092959   2.504747   5.063087   4.925406
    12  H    3.836400   1.094282   3.080410   5.726782   4.942758
    13  H    4.494337   5.589207   5.189480   1.094714   3.070385
    14  H    4.695606   5.548562   5.713882   1.093854   2.495773
    15  O    4.544577   1.434175   2.655412   6.889499   6.347743
    16  H    5.358425   1.947399   3.531517   7.295687   6.890001
    17  O    2.626808   2.401597   2.049039   6.291744   5.057513
    18  H    3.539697   2.383353   2.320119   7.021658   5.934585
    19  O    2.050140   3.037434   3.370953   4.409477   2.785584
    20  H    2.276522   3.156993   3.413834   5.337410   3.632149
    21  O    3.352386   2.984014   3.709613   2.888854   2.759128
    22  H    3.319949   3.098619   4.019950   3.378358   2.646421
    23  O    2.576399   5.283032   4.216478   2.403357   2.048065
    24  H    3.475505   6.209570   5.193436   2.390498   2.318539
    25  O    4.945609   6.860255   6.420054   1.432757   2.652314
    26  H    5.843582   7.482829   7.151307   1.947368   3.520748
                   11         12         13         14         15
    11  H    0.000000
    12  H    1.792870   0.000000
    13  H    4.966891   5.950822   0.000000
    14  H    5.019445   5.573264   1.789890   0.000000
    15  O    2.056373   2.046010   6.838887   6.932945   0.000000
    16  H    2.260944   2.270572   7.223306   7.213773   0.974249
    17  O    3.366677   2.698508   6.512284   6.575232   2.710865
    18  H    3.388067   2.753850   7.154335   7.260245   2.140553
    19  O    3.557475   2.735315   5.011427   4.479306   4.258078
    20  H    3.921692   2.826331   5.904300   5.455034   4.129396
    21  O    2.578978   2.952261   3.211348   2.629724   4.389492
    22  H    2.998870   2.752000   3.931061   3.038841   4.512442
    23  O    5.164124   5.661684   2.696223   3.366351   6.480479
    24  H    6.043826   6.536020   2.757614   3.399010   7.437356
    25  O    6.455726   7.018830   2.046221   2.062483   8.214274
    26  H    6.971787   7.635218   2.282322   2.259502   8.831419
                   16         17         18         19         20
    16  H    0.000000
    17  O    3.605841   0.000000
    18  H    3.028429   0.980637   0.000000
    19  O    4.842399   2.740889   3.567721   0.000000
    20  H    4.781052   2.199810   3.030939   0.981576   0.000000
    21  O    4.657554   4.340374   4.881769   2.646546   3.534599
    22  H    4.787351   4.168293   4.767494   2.045532   2.941863
    23  O    7.162325   5.127700   5.963945   3.831711   4.480849
    24  H    8.094650   6.067672   6.923609   4.583397   5.259443
    25  O    8.670109   7.335760   8.140755   5.342768   6.224943
    26  H    9.216031   8.158807   8.926169   6.150166   7.065366
                   21         22         23         24         25
    21  O    0.000000
    22  H    0.982825   0.000000
    23  O    3.684456   3.993470   0.000000
    24  H    4.335769   4.618844   0.980052   0.000000
    25  O    4.232991   4.565402   2.726467   2.164005   0.000000
    26  H    4.741974   5.137284   3.627273   3.059934   0.973851
                   26
    26  H    0.000000
 Stoichiometry    C6H14O6
 Framework group  C1[X(C6H14O6)]
 Deg. of freedom    72
 Full point group                 C1      NOp   1
 Largest Abelian subgroup         C1      NOp   1
 Largest concise Abelian subgroup C1      NOp   1
                         Standard orientation:                         
 ---------------------------------------------------------------------
 Center     Atomic      Atomic             Coordinates (Angstroms)
 Number     Number       Type             X           Y           Z
 ---------------------------------------------------------------------
      1          6           0        0.543926   -0.737907    0.124493
      2          6           0       -0.538203    0.311866   -0.186512
      3          6           0        1.918791   -0.420427   -0.488124
      4          6           0       -1.951549   -0.251517    0.038342
      5          1           0       -0.445770    0.635576   -1.230054
      6          1           0        0.239035   -1.732728   -0.220404
      7          6           0        2.503889    0.945195   -0.114567
      8          1           0        1.874721   -0.513502   -1.579504
      9          6           0       -3.033308    0.819680   -0.142242
     10          1           0       -2.045389   -0.679341    1.043720
     11          1           0        1.924246    1.766466   -0.543620
     12          1           0        2.578974    1.064441    0.970604
     13          1           0       -2.980946    1.264435   -1.141167
     14          1           0       -2.956726    1.604381    0.615978
     15          8           0        3.835195    1.013500   -0.643542
     16          1           0        4.177614    1.895485   -0.411137
     17          8           0        2.840945   -1.430860   -0.022768
     18          1           0        3.720111   -1.096110   -0.299638
     19          8           0        0.688105   -0.821956    1.560580
     20          1           0        1.451047   -1.427423    1.682323
     21          8           0       -0.332000    1.449859    0.664783
     22          1           0       -0.113462    1.059871    1.540052
     23          8           0       -2.209905   -1.307776   -0.898591
     24          1           0       -3.173754   -1.467844   -0.821938
     25          8           0       -4.313868    0.188410   -0.022012
     26          1           0       -4.978763    0.895544   -0.101147
 ---------------------------------------------------------------------
 Rotational constants (GHZ):           1.9567932           0.4139684           0.3853330
 Standard basis: def2TZVPP (5D, 7F)
 There are   642 symmetry adapted cartesian basis functions of A   symmetry.
 There are   568 symmetry adapted basis functions of A   symmetry.
   568 basis functions,   850 primitive gaussians,   642 cartesian basis functions
    49 alpha electrons       49 beta electrons
       nuclear repulsion energy       809.6620846433 Hartrees.
 NAtoms=   26 NActive=   26 NUniq=   26 SFac= 1.00D+00 NAtFMM=   60 NAOKFM=F Big=F
 Integral buffers will be    131072 words long.
 Raffenetti 2 integral format.
 Two-electron integral symmetry is turned on.
 Nuclear repulsion after empirical dispersion term =      809.6447070590 Hartrees.
 One-electron integrals computed using PRISM.
   1 Symmetry operations used in ECPInt.
 ECPInt:  NShTT=   23436 NPrTT=   62434 LenC2=   21414 LenP2D=   44275.
 LDataN:  DoStor=T MaxTD1= 6 Len=  172
 NBasis=   568 RedAO= T EigKep=  5.32D-05  NBF=   568
 NBsUse=   568 1.00D-06 EigRej= -1.00D+00 NBFU=   568
 ExpMin= 9.52D-02 ExpMax= 2.70D+04 ExpMxC= 9.22D+02 IAcc=3 IRadAn=         5 AccDes= 0.00D+00
 Harris functional with IExCor= 4639 and IRadAn=       5 diagonalized for initial guess.
 HarFok:  IExCor= 4639 AccDes= 0.00D+00 IRadAn=         5 IDoV= 1 UseB2=F ITyADJ=14
 ICtDFT=  3500011 ScaDFX=  1.000000  1.000000  1.000000  1.000000
 FoFCou: FMM=F IPFlag=           0 FMFlag=      100000 FMFlg1=           0
         NFxFlg=           0 DoJE=T BraDBF=F KetDBF=T FulRan=T
         wScrn=  0.000000 ICntrl=       500 IOpCl=  0 I1Cent=   200000004 NGrid=           0
         NMat0=    1 NMatS0=      1 NMatT0=    0 NMatD0=    1 NMtDS0=    0 NMtDT0=    0
 Petite list used in FoFCou.
 Requested convergence on RMS density matrix=1.00D-08 within 128 cycles.
 Requested convergence on MAX density matrix=1.00D-06.
 Requested convergence on             energy=1.00D-06.
 No special actions if energy rises.
 Integral accuracy reduced to 1.0D-05 until final iterations.
 Initial convergence to 1.0D-05 achieved.  Increase integral accuracy.
 SCF Done:  E(RwB97XD) =  -688.468955490     A.U. after   13 cycles
            NFock= 13  Conv=0.88D-08     -V/T= 2.0050

 **********************************************************************

            Population analysis using the SCF Density.

 **********************************************************************

 Orbital symmetries:
       Occupied  (A) (A) (A) (A) (A) (A) (A) (A) (A) (A) (A) (A)
                 (A) (A) (A) (A) (A) (A) (A) (A) (A) (A) (A) (A)
                 (A) (A) (A) (A) (A) (A) (A) (A) (A) (A) (A) (A)
                 (A) (A) (A) (A) (A) (A) (A) (A) (A) (A) (A) (A)
                 (A)
       Virtual   (A) (A) (A) (A) (A) (A) (A) (A) (A) (A) (A) (A)
                 (A) (A) (A) (A) (A) (A) (A) (A) (A) (A) (A) (A)
                 (A) (A) (A) (A) (A) (A) (A) (A) (A) (A) (A) (A)
                 (A) (A) (A) (A) (A) (A) (A) (A) (A) (A) (A) (A)
                 (A) (A) (A) (A) (A) (A) (A) (A) (A) (A) (A) (A)
                 (A) (A) (A) (A) (A) (A) (A) (A) (A) (A) (A) (A)
                 (A) (A) (A) (A) (A) (A) (A) (A) (A) (A) (A) (A)
                 (A) (A) (A) (A) (A) (A) (A) (A) (A) (A) (A) (A)
                 (A) (A) (A) (A) (A) (A) (A) (A) (A) (A) (A) (A)
                 (A) (A) (A) (A) (A) (A) (A) (A) (A) (A) (A) (A)
                 (A) (A) (A) (A) (A) (A) (A) (A) (A) (A) (A) (A)
                 (A) (A) (A) (A) (A) (A) (A) (A) (A) (A) (A) (A)
                 (A) (A) (A) (A) (A) (A) (A) (A) (A) (A) (A) (A)
                 (A) (A) (A) (A) (A) (A) (A) (A) (A) (A) (A) (A)
                 (A) (A) (A) (A) (A) (A) (A) (A) (A) (A) (A) (A)
                 (A) (A) (A) (A) (A) (A) (A) (A) (A) (A) (A) (A)
                 (A) (A) (A) (A) (A) (A) (A) (A) (A) (A) (A) (A)
                 (A) (A) (A) (A) (A) (A) (A) (A) (A) (A) (A) (A)
                 (A) (A) (A) (A) (A) (A) (A) (A) (A) (A) (A) (A)
                 (A) (A) (A) (A) (A) (A) (A) (A) (A) (A) (A) (A)
                 (A) (A) (A) (A) (A) (A) (A) (A) (A) (A) (A) (A)
                 (A) (A) (A) (A) (A) (A) (A) (A) (A) (A) (A) (A)
                 (A) (A) (A) (A) (A) (A) (A) (A) (A) (A) (A) (A)
                 (A) (A) (A) (A) (A) (A) (A) (A) (A) (A) (A) (A)
                 (A) (A) (A) (A) (A) (A) (A) (A) (A) (A) (A) (A)
                 (A) (A) (A) (A) (A) (A) (A) (A) (A) (A) (A) (A)
                 (A) (A) (A) (A) (A) (A) (A) (A) (A) (A) (A) (A)
                 (A) (A) (A) (A) (A) (A) (A) (A) (A) (A) (A) (A)
                 (A) (A) (A) (A) (A) (A) (A) (A) (A) (A) (A) (A)
                 (A) (A) (A) (A) (A) (A) (A) (A) (A) (A) (A) (A)
                 (A) (A) (A) (A) (A) (A) (A) (A) (A) (A) (A) (A)
                 (A) (A) (A) (A) (A) (A) (A) (A) (A) (A) (A) (A)
                 (A) (A) (A) (A) (A) (A) (A) (A) (A) (A) (A) (A)
                 (A) (A) (A) (A) (A) (A) (A) (A) (A) (A) (A) (A)
                 (A) (A) (A) (A) (A) (A) (A) (A) (A) (A) (A) (A)
                 (A) (A) (A) (A) (A) (A) (A) (A) (A) (A) (A) (A)
                 (A) (A) (A) (A) (A) (A) (A) (A) (A) (A) (A) (A)
                 (A) (A) (A) (A) (A) (A) (A) (A) (A) (A) (A) (A)
                 (A) (A) (A) (A) (A) (A) (A) (A) (A) (A) (A) (A)
                 (A) (A) (A) (A) (A) (A) (A) (A) (A) (A) (A) (A)
                 (A) (A) (A) (A) (A) (A) (A) (A) (A) (A) (A) (A)
                 (A) (A) (A) (A) (A) (A) (A) (A) (A) (A) (A) (A)
                 (A) (A) (A) (A) (A) (A) (A) (A) (A) (A) (A) (A)
                 (A) (A) (A)
 The electronic state is 1-A.
 Alpha  occ. eigenvalues --  -19.26284 -19.26155 -19.25863 -19.25458 -19.25457
 Alpha  occ. eigenvalues --  -19.24579 -10.34920 -10.34466 -10.34421 -10.33777
 Alpha  occ. eigenvalues --  -10.33374 -10.33245  -1.15129  -1.14079  -1.13517
 Alpha  occ. eigenvalues --   -1.11840  -1.10857  -1.10397  -0.88145  -0.85039
 Alpha  occ. eigenvalues --   -0.80251  -0.74702  -0.69201  -0.68584  -0.63194
 Alpha  occ. eigenvalues --   -0.62346  -0.60392  -0.60093  -0.58645  -0.56412
 Alpha  occ. eigenvalues --   -0.56299  -0.55387  -0.53540  -0.52201  -0.51501
 Alpha  occ. eigenvalues --   -0.49777  -0.47215  -0.46318  -0.45419  -0.44466
 Alpha  occ. eigenvalues --   -0.43698  -0.42639  -0.42356  -0.37971  -0.37589
 Alpha  occ. eigenvalues --   -0.37109  -0.36628  -0.36340  -0.35366
 Alpha virt. eigenvalues --    0.09374   0.09734   0.11247   0.12868   0.13629
 Alpha virt. eigenvalues --    0.15025   0.16723   0.17005   0.18124   0.19224
 Alpha virt. eigenvalues --    0.19756   0.20295   0.21136   0.21606   0.21659
 Alpha virt. eigenvalues --    0.22581   0.23198   0.24782   0.25929   0.26243
 Alpha virt. eigenvalues --    0.26518   0.29698   0.30207   0.32063   0.32863
 Alpha virt. eigenvalues --    0.35197   0.36194   0.36686   0.38301   0.38985
 Alpha virt. eigenvalues --    0.39441   0.40365   0.40649   0.41039   0.42004
 Alpha virt. eigenvalues --    0.42215   0.43017   0.43740   0.44689   0.44993
 Alpha virt. eigenvalues --    0.46240   0.46704   0.47926   0.48302   0.48527
 Alpha virt. eigenvalues --    0.48991   0.49584   0.50577   0.50946   0.51281
 Alpha virt. eigenvalues --    0.52126   0.52996   0.53214   0.54297   0.55049
 Alpha virt. eigenvalues --    0.55460   0.56210   0.57159   0.58006   0.58331
 Alpha virt. eigenvalues --    0.59637   0.60796   0.61395   0.62884   0.64523
 Alpha virt. eigenvalues --    0.65035   0.65740   0.66692   0.68011   0.68410
 Alpha virt. eigenvalues --    0.68814   0.69847   0.70966   0.72001   0.72469
 Alpha virt. eigenvalues --    0.73960   0.74393   0.75783   0.76580   0.80726
 Alpha virt. eigenvalues --    0.81509   0.82323   0.83524   0.84805   0.86047
 Alpha virt. eigenvalues --    0.87013   0.88856   0.89215   0.89978   0.91094
 Alpha virt. eigenvalues --    0.92073   0.93031   0.94296   0.95104   0.95494
 Alpha virt. eigenvalues --    0.96475   0.97398   0.97549   0.99390   1.00511
 Alpha virt. eigenvalues --    1.02099   1.02517   1.03364   1.04706   1.05634
 Alpha virt. eigenvalues --    1.08416   1.09953   1.10211   1.10803   1.11627
 Alpha virt. eigenvalues --    1.12546   1.13152   1.15710   1.16485   1.17470
 Alpha virt. eigenvalues --    1.19109   1.20361   1.21607   1.22409   1.24252
 Alpha virt. eigenvalues --    1.25198   1.26352   1.28200   1.29190   1.29915
 Alpha virt. eigenvalues --    1.30830   1.32107   1.32737   1.34110   1.34717
 Alpha virt. eigenvalues --    1.36074   1.37566   1.39135   1.39697   1.40035
 Alpha virt. eigenvalues --    1.41202   1.42653   1.43827   1.44465   1.45480
 Alpha virt. eigenvalues --    1.46055   1.49210   1.49564   1.50535   1.51029
 Alpha virt. eigenvalues --    1.52260   1.53417   1.55220   1.56382   1.57543
 Alpha virt. eigenvalues --    1.57987   1.58254   1.59483   1.62336   1.63694
 Alpha virt. eigenvalues --    1.66094   1.66741   1.68415   1.70953   1.72020
 Alpha virt. eigenvalues --    1.73541   1.75879   1.76382   1.78925   1.80207
 Alpha virt. eigenvalues --    1.88577   1.89245   1.90419   1.91046   1.92914
 Alpha virt. eigenvalues --    1.94242   1.94773   1.95672   1.97393   1.99157
 Alpha virt. eigenvalues --    2.00188   2.02460   2.02974   2.03592   2.04769
 Alpha virt. eigenvalues --    2.05395   2.06866   2.07188   2.07670   2.09876
 Alpha virt. eigenvalues --    2.10654   2.12616   2.13849   2.15356   2.15542
 Alpha virt. eigenvalues --    2.16730   2.19408   2.20025   2.22169   2.23324
 Alpha virt. eigenvalues --    2.26740   2.27991   2.28911   2.30092   2.31731
 Alpha virt. eigenvalues --    2.33135   2.35051   2.36944   2.39836   2.42003
 Alpha virt. eigenvalues --    2.43199   2.46148   2.47121   2.50289   2.51117
 Alpha virt. eigenvalues --    2.54941   2.55248   2.58231   2.61335   2.62934
 Alpha virt. eigenvalues --    2.65227   2.65870   2.69231   2.69990   2.70788
 Alpha virt. eigenvalues --    2.71801   2.72681   2.75704   2.76395   2.78728
 Alpha virt. eigenvalues --    2.79089   2.79909   2.81105   2.82881   2.83561
 Alpha virt. eigenvalues --    2.85332   2.86421   2.87211   2.88102   2.89992
 Alpha virt. eigenvalues --    2.90555   2.92236   2.94364   2.97433   2.97995
 Alpha virt. eigenvalues --    2.99533   3.01210   3.01633   3.02247   3.04782
 Alpha virt. eigenvalues --    3.04941   3.05486   3.07423   3.09387   3.09713
 Alpha virt. eigenvalues --    3.12472   3.13924   3.14398   3.14566   3.16111
 Alpha virt. eigenvalues --    3.16754   3.17711   3.19121   3.20127   3.21108
 Alpha virt. eigenvalues --    3.21973   3.24399   3.24802   3.25250   3.26253
 Alpha virt. eigenvalues --    3.27831   3.30147   3.30353   3.31044   3.31607
 Alpha virt. eigenvalues --    3.31958   3.33929   3.34843   3.35673   3.37406
 Alpha virt. eigenvalues --    3.38685   3.39844   3.40329   3.41143   3.41326
 Alpha virt. eigenvalues --    3.42881   3.43138   3.44339   3.44660   3.45531
 Alpha virt. eigenvalues --    3.48925   3.49658   3.50663   3.52123   3.53031
 Alpha virt. eigenvalues --    3.54788   3.55108   3.57507   3.58041   3.58683
 Alpha virt. eigenvalues --    3.59840   3.61289   3.62626   3.63859   3.65003
 Alpha virt. eigenvalues --    3.67360   3.69132   3.70695   3.71202   3.72405
 Alpha virt. eigenvalues --    3.73140   3.74265   3.74762   3.76855   3.77655
 Alpha virt. eigenvalues --    3.79803   3.80181   3.80443   3.81817   3.84264
 Alpha virt. eigenvalues --    3.86043   3.87759   3.88209   3.89077   3.91043
 Alpha virt. eigenvalues --    3.91836   3.92993   3.93583   3.95191   3.97040
 Alpha virt. eigenvalues --    3.97421   3.98026   3.99172   3.99953   4.00978
 Alpha virt. eigenvalues --    4.02113   4.02960   4.03606   4.04915   4.05831
 Alpha virt. eigenvalues --    4.06605   4.07961   4.08803   4.09374   4.11169
 Alpha virt. eigenvalues --    4.12742   4.13535   4.13796   4.14578   4.16108
 Alpha virt. eigenvalues --    4.17459   4.18305   4.18415   4.20291   4.22215
 Alpha virt. eigenvalues --    4.22541   4.22939   4.25068   4.26534   4.28642
 Alpha virt. eigenvalues --    4.29338   4.31231   4.31917   4.33745   4.34392
 Alpha virt. eigenvalues --    4.35002   4.35711   4.37527   4.38811   4.39657
 Alpha virt. eigenvalues --    4.41526   4.41755   4.43685   4.45768   4.47308
 Alpha virt. eigenvalues --    4.48880   4.52067   4.52871   4.53506   4.55530
 Alpha virt. eigenvalues --    4.57355   4.57994   4.59068   4.60144   4.60333
 Alpha virt. eigenvalues --    4.63449   4.65620   4.67046   4.69535   4.72490
 Alpha virt. eigenvalues --    4.73801   4.74529   4.76315   4.77077   4.77950
 Alpha virt. eigenvalues --    4.80248   4.82079   4.83970   4.86496   4.87713
 Alpha virt. eigenvalues --    4.89447   4.90641   4.92259   4.95058   4.96392
 Alpha virt. eigenvalues --    4.97540   5.00106   5.01809   5.02639   5.03993
 Alpha virt. eigenvalues --    5.04763   5.05702   5.06504   5.10056   5.10541
 Alpha virt. eigenvalues --    5.11803   5.15126   5.17498   5.18061   5.19122
 Alpha virt. eigenvalues --    5.21180   5.22789   5.25412   5.26233   5.29289
 Alpha virt. eigenvalues --    5.32886   5.35583   5.37634   5.42253   5.45025
 Alpha virt. eigenvalues --    5.47384   5.49895   5.55176   5.56896   5.58659
 Alpha virt. eigenvalues --    5.58877   5.61407   5.62883   5.64460   5.65927
 Alpha virt. eigenvalues --    5.69411   5.70919   5.71680   5.72683   5.73410
 Alpha virt. eigenvalues --    5.75622   5.79817   5.83219   5.84682   5.85930
 Alpha virt. eigenvalues --    5.88049   5.88843   5.91749   5.92329   5.95682
 Alpha virt. eigenvalues --    6.00375   6.02279   6.03469   6.11464   6.13122
 Alpha virt. eigenvalues --    6.14311   6.15191   6.18168   6.19735   6.53135
 Alpha virt. eigenvalues --    6.54515   6.55091   6.56435   6.56577   6.56767
 Alpha virt. eigenvalues --    6.72466   6.73623   6.74557   6.74699   6.75065
 Alpha virt. eigenvalues --    6.77010   6.78111   6.78403   6.79740   6.79997
 Alpha virt. eigenvalues --    6.80739   6.82484   6.82603   6.84738   6.87734
 Alpha virt. eigenvalues --    6.88058   6.90288   6.92059   6.96080   6.97237
 Alpha virt. eigenvalues --    7.02749   7.04090   7.05242   7.06521   7.15269
 Alpha virt. eigenvalues --    7.16367   7.17812   7.21075   7.22730   7.24157
 Alpha virt. eigenvalues --    7.40988   7.41752   7.42546   7.43524   7.44414
 Alpha virt. eigenvalues --    7.46985   7.49641   7.50077   7.54900   7.57825
 Alpha virt. eigenvalues --    7.58756   7.66808  23.13787  23.14763  23.16057
 Alpha virt. eigenvalues --   23.21537  23.41669  23.45915  44.11440  44.16412
 Alpha virt. eigenvalues --   44.20345  44.25827  44.32943  44.35474
          Condensed to atoms (all electrons):
               1          2          3          4          5          6
     1  C    5.208504   0.135963   0.088929   0.020361  -0.043971   0.440495
     2  C    0.135963   5.126798   0.064995   0.145222   0.386440  -0.045167
     3  C    0.088929   0.064995   5.016972  -0.021829   0.004174  -0.028094
     4  C    0.020361   0.145222  -0.021829   4.966537  -0.015422  -0.003322
     5  H   -0.043971   0.386440   0.004174  -0.015422   0.588567   0.002158
     6  H    0.440495  -0.045167  -0.028094  -0.003322   0.002158   0.533573
     7  C    0.016609   0.001411   0.251686   0.003524  -0.004216   0.007397
     8  H   -0.032753  -0.010893   0.436236  -0.000420   0.003229  -0.005153
     9  C   -0.000248  -0.000914  -0.000420   0.291374  -0.014812   0.000732
    10  H   -0.018956  -0.010334   0.001439   0.387952   0.008974  -0.001586
    11  H   -0.022074   0.009336  -0.018021  -0.000213  -0.001344  -0.000751
    12  H    0.024429  -0.014514  -0.048273  -0.000021   0.000669   0.000564
    13  H   -0.001008   0.017093   0.000387  -0.053587   0.007092  -0.000067
    14  H   -0.000739  -0.019873  -0.000141  -0.019393   0.001220  -0.000153
    15  O    0.007914  -0.001082  -0.073449  -0.000003  -0.000140  -0.000085
    16  H   -0.001690   0.000088   0.011260  -0.000008  -0.000003   0.000032
    17  O   -0.073564   0.006101   0.282246  -0.000110  -0.000011   0.002094
    18  H    0.009069  -0.001251  -0.042153   0.000037  -0.000032  -0.000357
    19  O    0.219899  -0.053541  -0.015428  -0.002880   0.002687  -0.032581
    20  H   -0.044765   0.009352  -0.000948   0.000065  -0.000256  -0.005437
    21  O    0.001799   0.225288  -0.030506  -0.021566  -0.026230   0.002892
    22  H   -0.007120  -0.072747   0.000713   0.023468   0.007547   0.001499
    23  O   -0.010636  -0.070335  -0.001171   0.302990   0.012734   0.017152
    24  H    0.000567   0.009719   0.000006  -0.042180  -0.000486  -0.000822
    25  O   -0.000199   0.007343   0.000002  -0.076561  -0.000393  -0.000019
    26  H    0.000030  -0.001820  -0.000001   0.011055  -0.000047   0.000005
               7          8          9         10         11         12
     1  C    0.016609  -0.032753  -0.000248  -0.018956  -0.022074   0.024429
     2  C    0.001411  -0.010893  -0.000914  -0.010334   0.009336  -0.014514
     3  C    0.251686   0.436236  -0.000420   0.001439  -0.018021  -0.048273
     4  C    0.003524  -0.000420   0.291374   0.387952  -0.000213  -0.000021
     5  H   -0.004216   0.003229  -0.014812   0.008974  -0.001344   0.000669
     6  H    0.007397  -0.005153   0.000732  -0.001586  -0.000751   0.000564
     7  C    4.775622  -0.046091   0.000148  -0.000210   0.426709   0.410797
     8  H   -0.046091   0.607546   0.000018  -0.000072  -0.004559   0.009300
     9  C    0.000148   0.000018   4.743072  -0.032072   0.000066  -0.000021
    10  H   -0.000210  -0.000072  -0.032072   0.623052  -0.000008  -0.000048
    11  H    0.426709  -0.004559   0.000066  -0.000008   0.588118  -0.030639
    12  H    0.410797   0.009300  -0.000021  -0.000048  -0.030639   0.597709
    13  H   -0.000105  -0.000004   0.405874   0.010873   0.000011   0.000001
    14  H    0.000030   0.000004   0.431764  -0.006476  -0.000014  -0.000003
    15  O    0.271303   0.004929   0.000000   0.000000  -0.043932  -0.049764
    16  H   -0.031695  -0.000112   0.000000  -0.000000  -0.005697  -0.004717
    17  O   -0.036280  -0.039059   0.000007  -0.000009   0.005037   0.000651
    18  H   -0.005551  -0.004137  -0.000002   0.000002   0.001675  -0.001942
    19  O   -0.020883   0.004445   0.000160   0.010275   0.001448   0.015018
    20  H   -0.001472   0.001660   0.000033  -0.000545   0.000097   0.000486
    21  O    0.019028  -0.000123  -0.009562  -0.002545   0.003470   0.000164
    22  H   -0.000172   0.000017  -0.005648   0.001629  -0.001643   0.001130
    23  O   -0.000018   0.000308  -0.030578  -0.046339  -0.000022  -0.000002
    24  H    0.000012  -0.000019  -0.005001  -0.005564   0.000002   0.000000
    25  O   -0.000000  -0.000000   0.286517   0.008272   0.000000  -0.000000
    26  H   -0.000000   0.000000  -0.030107  -0.000448  -0.000000  -0.000000
              13         14         15         16         17         18
     1  C   -0.001008  -0.000739   0.007914  -0.001690  -0.073564   0.009069
     2  C    0.017093  -0.019873  -0.001082   0.000088   0.006101  -0.001251
     3  C    0.000387  -0.000141  -0.073449   0.011260   0.282246  -0.042153
     4  C   -0.053587  -0.019393  -0.000003  -0.000008  -0.000110   0.000037
     5  H    0.007092   0.001220  -0.000140  -0.000003  -0.000011  -0.000032
     6  H   -0.000067  -0.000153  -0.000085   0.000032   0.002094  -0.000357
     7  C   -0.000105   0.000030   0.271303  -0.031695  -0.036280  -0.005551
     8  H   -0.000004   0.000004   0.004929  -0.000112  -0.039059  -0.004137
     9  C    0.405874   0.431764   0.000000   0.000000   0.000007  -0.000002
    10  H    0.010873  -0.006476   0.000000  -0.000000  -0.000009   0.000002
    11  H    0.000011  -0.000014  -0.043932  -0.005697   0.005037   0.001675
    12  H    0.000001  -0.000003  -0.049764  -0.004717   0.000651  -0.001942
    13  H    0.626287  -0.037593  -0.000000  -0.000000  -0.000000   0.000000
    14  H   -0.037593   0.589327  -0.000000  -0.000000  -0.000000  -0.000000
    15  O   -0.000000  -0.000000   7.905017   0.326941  -0.011103   0.025373
    16  H   -0.000000  -0.000000   0.326941   0.524000   0.000031  -0.001552
    17  O   -0.000000  -0.000000  -0.011103   0.000031   7.911490   0.333005
    18  H    0.000000  -0.000000   0.025373  -0.001552   0.333005   0.480140
    19  O   -0.000026  -0.000001   0.000163   0.000084  -0.010514  -0.000084
    20  H    0.000001   0.000003  -0.000030  -0.000004   0.026540  -0.001205
    21  O    0.000536   0.014531   0.000452   0.000066   0.000084   0.000046
    22  H   -0.000066   0.001029  -0.000029  -0.000003  -0.000007   0.000005
    23  O    0.000964   0.004864  -0.000000  -0.000000   0.000012  -0.000000
    24  H   -0.002349   0.001479   0.000000   0.000000  -0.000001   0.000000
    25  O   -0.051563  -0.045546  -0.000000  -0.000000  -0.000000   0.000000
    26  H   -0.006110  -0.005095  -0.000000   0.000000   0.000000  -0.000000
              19         20         21         22         23         24
     1  C    0.219899  -0.044765   0.001799  -0.007120  -0.010636   0.000567
     2  C   -0.053541   0.009352   0.225288  -0.072747  -0.070335   0.009719
     3  C   -0.015428  -0.000948  -0.030506   0.000713  -0.001171   0.000006
     4  C   -0.002880   0.000065  -0.021566   0.023468   0.302990  -0.042180
     5  H    0.002687  -0.000256  -0.026230   0.007547   0.012734  -0.000486
     6  H   -0.032581  -0.005437   0.002892   0.001499   0.017152  -0.000822
     7  C   -0.020883  -0.001472   0.019028  -0.000172  -0.000018   0.000012
     8  H    0.004445   0.001660  -0.000123   0.000017   0.000308  -0.000019
     9  C    0.000160   0.000033  -0.009562  -0.005648  -0.030578  -0.005001
    10  H    0.010275  -0.000545  -0.002545   0.001629  -0.046339  -0.005564
    11  H    0.001448   0.000097   0.003470  -0.001643  -0.000022   0.000002
    12  H    0.015018   0.000486   0.000164   0.001130  -0.000002   0.000000
    13  H   -0.000026   0.000001   0.000536  -0.000066   0.000964  -0.002349
    14  H   -0.000001   0.000003   0.014531   0.001029   0.004864   0.001479
    15  O    0.000163  -0.000030   0.000452  -0.000029  -0.000000   0.000000
    16  H    0.000084  -0.000004   0.000066  -0.000003  -0.000000   0.000000
    17  O   -0.010514   0.026540   0.000084  -0.000007   0.000012  -0.000001
    18  H   -0.000084  -0.001205   0.000046   0.000005  -0.000000   0.000000
    19  O    7.943789   0.330530  -0.017182   0.028356   0.000370  -0.000046
    20  H    0.330530   0.478865   0.000450  -0.001515  -0.000005  -0.000006
    21  O   -0.017182   0.000450   7.906339   0.327382   0.002581  -0.000299
    22  H    0.028356  -0.001515   0.327382   0.488338  -0.000052   0.000013
    23  O    0.000370  -0.000005   0.002581  -0.000052   7.876470   0.328855
    24  H   -0.000046  -0.000006  -0.000299   0.000013   0.328855   0.490118
    25  O    0.000002  -0.000001   0.000254  -0.000045  -0.011063   0.023259
    26  H    0.000000   0.000000   0.000092   0.000003   0.000224  -0.001453
              25         26
     1  C   -0.000199   0.000030
     2  C    0.007343  -0.001820
     3  C    0.000002  -0.000001
     4  C   -0.076561   0.011055
     5  H   -0.000393  -0.000047
     6  H   -0.000019   0.000005
     7  C   -0.000000  -0.000000
     8  H   -0.000000   0.000000
     9  C    0.286517  -0.030107
    10  H    0.008272  -0.000448
    11  H    0.000000  -0.000000
    12  H   -0.000000  -0.000000
    13  H   -0.051563  -0.006110
    14  H   -0.045546  -0.005095
    15  O   -0.000000  -0.000000
    16  H   -0.000000   0.000000
    17  O   -0.000000   0.000000
    18  H    0.000000  -0.000000
    19  O    0.000002   0.000000
    20  H   -0.000001   0.000000
    21  O    0.000254   0.000092
    22  H   -0.000045   0.000003
    23  O   -0.011063   0.000224
    24  H    0.023259  -0.001453
    25  O    7.887274   0.326898
    26  H    0.326898   0.526787
 Mulliken charges:
               1
     1  C    0.083152
     2  C    0.157321
     3  C    0.121388
     4  C    0.104929
     5  H    0.081873
     6  H    0.115001
     7  C   -0.037585
     8  H    0.075702
     9  C   -0.030379
    10  H    0.072743
    11  H    0.092947
    12  H    0.089027
    13  H    0.083357
    14  H    0.090775
    15  O   -0.362477
    16  H    0.182977
    17  O   -0.396639
    18  H    0.208914
    19  O   -0.404062
    20  H    0.208108
    21  O   -0.397439
    22  H    0.207917
    23  O   -0.377300
    24  H    0.204195
    25  O   -0.354431
    26  H    0.179987
 Sum of Mulliken charges =  -0.00000
 Mulliken charges with hydrogens summed into heavy atoms:
               1
     1  C    0.198153
     2  C    0.239193
     3  C    0.197090
     4  C    0.177672
     7  C    0.144388
     9  C    0.143753
    15  O   -0.179500
    17  O   -0.187726
    19  O   -0.195954
    21  O   -0.189522
    23  O   -0.173105
    25  O   -0.174444
 Electronic spatial extent (au):  <R**2>=           2895.5419
 Charge=              0.0000 electrons
 Dipole moment (field-independent basis, Debye):
    X=             -0.1443    Y=              2.7843    Z=              0.1230  Tot=              2.7908
 Quadrupole moment (field-independent basis, Debye-Ang):
   XX=            -60.0568   YY=            -71.4449   ZZ=            -73.1623
   XY=             -0.3954   XZ=              2.5548   YZ=             -1.4514
 Traceless Quadrupole moment (field-independent basis, Debye-Ang):
   XX=              8.1645   YY=             -3.2236   ZZ=             -4.9410
   XY=             -0.3954   XZ=              2.5548   YZ=             -1.4514
 Octapole moment (field-independent basis, Debye-Ang**2):
  XXX=            -30.7576  YYY=              7.2137  ZZZ=              7.4880  XYY=              6.4833
  XXY=             52.5945  XXZ=              2.9595  XZZ=              2.6840  YZZ=              1.8616
  YYZ=              2.4598  XYZ=              2.5906
 Hexadecapole moment (field-independent basis, Debye-Ang**3):
 XXXX=          -2267.8496 YYYY=           -481.4595 ZZZZ=           -267.0787 XXXY=            -56.5501
 XXXZ=             71.8099 YYYX=             58.9062 YYYZ=            -13.9543 ZZZX=              9.3220
 ZZZY=              2.5664 XXYY=           -407.1653 XXZZ=           -511.6981 YYZZ=           -118.9007
 XXYZ=              5.8916 YYXZ=              5.0739 ZZXY=            -13.1674
 N-N= 8.096447070590D+02 E-N=-3.236920735059D+03  KE= 6.850187774749D+02
   1 Symmetry operations used in ECPInt.
 ECPInt:  NShTT=   23436 NPrTT=   62434 LenC2=   21414 LenP2D=   44275.
 LDataN:  DoStor=T MaxTD1= 7 Len=  274
 Calling FoFJK, ICntrl=      2127 FMM=F ISym2X=0 I1Cent= 0 IOpClX= 0 NMat=1 NMatS=1 NMatT=0.
 ***** Axes restored to original set *****
 -------------------------------------------------------------------
 Center     Atomic                   Forces (Hartrees/Bohr)
 Number     Number              X              Y              Z
 -------------------------------------------------------------------
      1        6          -0.012325672   -0.006321780   -0.006625627
      2        6          -0.004468206   -0.014163077   -0.004901738
      3        6          -0.012913720    0.000855641   -0.007273790
      4        6           0.009105507    0.004580374    0.015243197
      5        1          -0.000255467   -0.003583735   -0.001104177
      6        1           0.005578565    0.004875502   -0.001400265
      7        6           0.001142032    0.005398461   -0.005162960
      8        1           0.005964436   -0.001715818   -0.000020609
      9        6           0.003834546   -0.004824730    0.001643617
     10        1           0.000204947   -0.000320403   -0.006563161
     11        1           0.000154136   -0.004680752    0.004477733
     12        1           0.004019036   -0.002075666    0.006871214
     13        1          -0.004625061    0.002293719   -0.005044931
     14        1          -0.004522576    0.003708771   -0.001998589
     15        8           0.006431103   -0.000982371   -0.010725400
     16        1          -0.009027056    0.002563231    0.017214236
     17        8           0.008510545    0.010547180   -0.010861942
     18        1           0.003467616   -0.013560596    0.013505341
     19        8          -0.011726548    0.014357688    0.004555801
     20        1           0.019743144   -0.004717611   -0.001469226
     21        8          -0.012832424   -0.006919029    0.012109423
     22        1           0.011300702    0.015310258   -0.000340181
     23        8           0.011330913   -0.010402232   -0.000199544
     24        1          -0.011456767    0.010005834   -0.011657366
     25        8           0.011926541   -0.001420858   -0.005166458
     26        1          -0.018560272    0.001191996    0.004895401
 -------------------------------------------------------------------
 Cartesian Forces:  Max     0.019743144 RMS     0.008284949

 GradGradGradGradGradGradGradGradGradGradGradGradGradGradGradGradGradGrad
 Berny optimization.
 FormGI is forming the generalized inverse of G from B-inverse, IUseBI=4.
 Internal  Forces:  Max     0.019966538 RMS     0.006149348
 Search for a local minimum.
 Step number   1 out of a maximum of  140
 All quantities printed in internal units (Hartrees-Bohrs-Radians)
 Mixed Optimization -- RFO/linear search
 Second derivative matrix not updated -- first step.
 ITU=  0
     Eigenvalues ---    0.00245   0.00259   0.00263   0.00329   0.00344
     Eigenvalues ---    0.01087   0.01097   0.01215   0.01224   0.01240
     Eigenvalues ---    0.01258   0.03830   0.03944   0.04200   0.04300
     Eigenvalues ---    0.04742   0.04811   0.04819   0.04819   0.05263
     Eigenvalues ---    0.05325   0.05522   0.05578   0.07206   0.07402
     Eigenvalues ---    0.07625   0.07856   0.11352   0.11355   0.13596
     Eigenvalues ---    0.13628   0.16000   0.16000   0.16000   0.16000
     Eigenvalues ---    0.16000   0.16000   0.16507   0.16607   0.16956
     Eigenvalues ---    0.17109   0.19410   0.19572   0.19663   0.19696
     Eigenvalues ---    0.22030   0.22034   0.28572   0.28671   0.28695
     Eigenvalues ---    0.29143   0.29246   0.34056   0.34072   0.34103
     Eigenvalues ---    0.34110   0.34273   0.34322   0.34371   0.34473
     Eigenvalues ---    0.38807   0.38913   0.40132   0.40228   0.40395
     Eigenvalues ---    0.40596   0.50840   0.51080   0.51261   0.51375
     Eigenvalues ---    0.52518   0.52598
 RFO step:  Lambda=-1.77455196D-02 EMin= 2.44761061D-03
 Linear search not attempted -- first point.
 Iteration  1 RMS(Cart)=  0.07274527 RMS(Int)=  0.00202490
 Iteration  2 RMS(Cart)=  0.00253360 RMS(Int)=  0.00053371
 Iteration  3 RMS(Cart)=  0.00000372 RMS(Int)=  0.00053370
 Iteration  4 RMS(Cart)=  0.00000000 RMS(Int)=  0.00053370
 Variable       Old X    -DE/DX   Delta X   Delta X   Delta X     New X
                                 (Linear)    (Quad)   (Total)
    R1        2.90904  -0.00902   0.00000  -0.02973  -0.02973   2.87931
    R2        2.90695  -0.01047   0.00000  -0.03438  -0.03438   2.87257
    R3        2.07145  -0.00264   0.00000  -0.00734  -0.00734   2.06411
    R4        2.73207  -0.01211   0.00000  -0.02984  -0.02984   2.70223
    R5        2.90644  -0.01037   0.00000  -0.03405  -0.03405   2.87239
    R6        2.07208  -0.00346   0.00000  -0.00966  -0.00966   2.06242
    R7        2.71375  -0.01408   0.00000  -0.03360  -0.03360   2.68014
    R8        2.89493  -0.01134   0.00000  -0.03654  -0.03654   2.85838
    R9        2.07157  -0.00055   0.00000  -0.00154  -0.00154   2.07003
   R10        2.73057  -0.01141   0.00000  -0.02803  -0.02803   2.70254
   R11        2.89707  -0.01179   0.00000  -0.03812  -0.03812   2.85894
   R12        2.07235  -0.00031   0.00000  -0.00086  -0.00086   2.07149
   R13        2.71245  -0.01003   0.00000  -0.02387  -0.02387   2.68857
   R14        2.06539  -0.00145   0.00000  -0.00401  -0.00401   2.06138
   R15        2.06789  -0.00159   0.00000  -0.00440  -0.00440   2.06349
   R16        2.71020  -0.00085   0.00000  -0.00203  -0.00203   2.70817
   R17        2.06871   0.00044   0.00000   0.00121   0.00121   2.06992
   R18        2.06709  -0.00197   0.00000  -0.00545  -0.00545   2.06163
   R19        2.70752  -0.00220   0.00000  -0.00519  -0.00519   2.70233
   R20        1.84106  -0.01929   0.00000  -0.03553  -0.03553   1.80553
   R21        1.85313  -0.01908   0.00000  -0.03597  -0.03597   1.81717
   R22        1.85491  -0.01997   0.00000  -0.03778  -0.03778   1.81713
   R23        1.85727  -0.01889   0.00000  -0.03591  -0.03591   1.82136
   R24        1.85203  -0.01895   0.00000  -0.03565  -0.03565   1.81638
   R25        1.84031  -0.01891   0.00000  -0.03478  -0.03478   1.80553
    A1        1.99005   0.00305   0.00000   0.00744   0.00755   1.99760
    A2        1.93885  -0.00157   0.00000  -0.02788  -0.02781   1.91104
    A3        1.88644  -0.00661   0.00000  -0.03339  -0.03339   1.85304
    A4        1.88661  -0.00248   0.00000  -0.01385  -0.01443   1.87218
    A5        1.89489   0.00422   0.00000   0.02952   0.02948   1.92437
    A6        1.86243   0.00366   0.00000   0.04249   0.04211   1.90454
    A7        1.94619  -0.00374   0.00000  -0.01064  -0.01097   1.93522
    A8        1.91170   0.00029   0.00000  -0.00429  -0.00431   1.90738
    A9        1.89620   0.00458   0.00000   0.03445   0.03444   1.93064
   A10        1.90153   0.00069   0.00000  -0.00942  -0.00949   1.89204
   A11        1.91300   0.00070   0.00000   0.01113   0.01102   1.92402
   A12        1.89454  -0.00252   0.00000  -0.02163  -0.02155   1.87299
   A13        2.01333   0.00195   0.00000   0.00043   0.00056   2.01389
   A14        1.92094  -0.00005   0.00000  -0.01304  -0.01290   1.90804
   A15        1.87319  -0.00764   0.00000  -0.04283  -0.04266   1.83053
   A16        1.91114  -0.00261   0.00000  -0.01197  -0.01254   1.89860
   A17        1.87663   0.00517   0.00000   0.02911   0.02888   1.90551
   A18        1.86180   0.00341   0.00000   0.04289   0.04258   1.90439
   A19        1.95547   0.00054   0.00000  -0.00669  -0.00650   1.94897
   A20        1.93432  -0.00083   0.00000  -0.02228  -0.02207   1.91225
   A21        1.91721  -0.00703   0.00000  -0.04398  -0.04376   1.87346
   A22        1.89674  -0.00090   0.00000   0.00362   0.00281   1.89954
   A23        1.88629   0.00520   0.00000   0.03005   0.02951   1.91580
   A24        1.87124   0.00334   0.00000   0.04322   0.04239   1.91363
   A25        1.95149  -0.00014   0.00000  -0.01639  -0.01609   1.93540
   A26        1.94461  -0.00265   0.00000  -0.03306  -0.03275   1.91185
   A27        1.88290  -0.01386   0.00000  -0.05375  -0.05345   1.82945
   A28        1.92176  -0.00087   0.00000  -0.00858  -0.01088   1.91088
   A29        1.88780   0.00841   0.00000   0.05482   0.05388   1.94169
   A30        1.87222   0.00965   0.00000   0.06246   0.06117   1.93339
   A31        1.93651  -0.00262   0.00000  -0.03049  -0.03022   1.90629
   A32        1.95002  -0.00093   0.00000  -0.02095  -0.02076   1.92926
   A33        1.88906  -0.01226   0.00000  -0.04864  -0.04844   1.84063
   A34        1.91528  -0.00011   0.00000  -0.00146  -0.00347   1.91181
   A35        1.87374   0.00876   0.00000   0.05793   0.05685   1.93059
   A36        1.89703   0.00764   0.00000   0.04808   0.04709   1.94413
   A37        1.85604   0.00624   0.00000   0.03508   0.03508   1.89112
   A38        1.81576   0.00629   0.00000   0.03540   0.03540   1.85115
   A39        1.80963   0.00628   0.00000   0.03534   0.03534   1.84497
   A40        1.81874   0.00312   0.00000   0.01755   0.01755   1.83629
   A41        1.81951   0.00525   0.00000   0.02956   0.02956   1.84906
   A42        1.85821   0.00631   0.00000   0.03553   0.03553   1.89374
    D1        2.81873  -0.00252   0.00000  -0.03166  -0.03162   2.78711
    D2        0.71256  -0.00117   0.00000  -0.01010  -0.01007   0.70250
    D3       -1.35426  -0.00097   0.00000  -0.00170  -0.00166  -1.35592
    D4        0.68188  -0.00029   0.00000   0.00270   0.00284   0.68471
    D5       -1.42429   0.00106   0.00000   0.02426   0.02439  -1.39990
    D6        2.79207   0.00126   0.00000   0.03265   0.03280   2.82486
    D7       -1.35579   0.00010   0.00000  -0.01316  -0.01333  -1.36913
    D8        2.82122   0.00145   0.00000   0.00840   0.00822   2.82944
    D9        0.75440   0.00165   0.00000   0.01680   0.01662   0.77102
   D10        0.97312  -0.00198   0.00000  -0.00256  -0.00263   0.97049
   D11       -1.19970   0.00007   0.00000   0.02401   0.02413  -1.17557
   D12        3.06388   0.00030   0.00000   0.00376   0.00370   3.06759
   D13        3.13834  -0.00378   0.00000  -0.04406  -0.04402   3.09432
   D14        0.96553  -0.00172   0.00000  -0.01749  -0.01727   0.94826
   D15       -1.05408  -0.00149   0.00000  -0.03774  -0.03769  -1.09177
   D16       -1.13082   0.00143   0.00000   0.01403   0.01386  -1.11697
   D17        2.97955   0.00348   0.00000   0.04059   0.04061   3.02016
   D18        0.95994   0.00371   0.00000   0.02034   0.02019   0.98013
   D19       -3.03776  -0.00065   0.00000   0.03098   0.03078  -3.00699
   D20       -0.87083   0.00157   0.00000   0.03751   0.03685  -0.83398
   D21        1.15885   0.00271   0.00000   0.05834   0.05919   1.21804
   D22        3.04956   0.00083   0.00000   0.02470   0.02454   3.07410
   D23        0.92768   0.00220   0.00000   0.04050   0.04058   0.96826
   D24       -1.13689   0.00298   0.00000   0.02842   0.02832  -1.10856
   D25       -1.12151  -0.00074   0.00000   0.00628   0.00622  -1.11529
   D26        3.03979   0.00063   0.00000   0.02208   0.02226   3.06205
   D27        0.97522   0.00142   0.00000   0.01000   0.01001   0.98523
   D28        0.94921  -0.00297   0.00000  -0.01902  -0.01910   0.93011
   D29       -1.17267  -0.00160   0.00000  -0.00321  -0.00306  -1.17573
   D30        3.04594  -0.00082   0.00000  -0.01530  -0.01531   3.03063
   D31       -0.72869   0.00186   0.00000   0.02660   0.02627  -0.70242
   D32        1.40183   0.00059   0.00000   0.04220   0.04242   1.44426
   D33       -2.80631   0.00034   0.00000   0.02445   0.02456  -2.78175
   D34       -1.17728   0.00008   0.00000   0.01577   0.01563  -1.16165
   D35        0.98160  -0.00312   0.00000  -0.03210  -0.03224   0.94936
   D36        3.03225  -0.00136   0.00000  -0.00778  -0.00774   3.02451
   D37        1.00064  -0.00065   0.00000  -0.01126  -0.01123   0.98941
   D38       -3.12367  -0.00386   0.00000  -0.05913  -0.05909   3.10042
   D39       -1.07302  -0.00209   0.00000  -0.03481  -0.03460  -1.10762
   D40        3.01703   0.00483   0.00000   0.04899   0.04891   3.06594
   D41       -1.10728   0.00163   0.00000   0.00112   0.00105  -1.10623
   D42        0.94337   0.00339   0.00000   0.02544   0.02554   0.96892
   D43       -2.96637   0.00000   0.00000   0.03289   0.03270  -2.93367
   D44       -0.79039   0.00087   0.00000   0.02513   0.02444  -0.76595
   D45        1.25838   0.00217   0.00000   0.04771   0.04860   1.30698
   D46        1.01003  -0.00269   0.00000  -0.02434  -0.02447   0.98556
   D47       -1.13345  -0.00000   0.00000   0.01446   0.01436  -1.11909
   D48        3.06164  -0.00096   0.00000  -0.00082  -0.00088   3.06077
   D49       -3.12984  -0.00401   0.00000  -0.05446  -0.05454   3.09880
   D50        1.00986  -0.00133   0.00000  -0.01566  -0.01572   0.99415
   D51       -1.07822  -0.00228   0.00000  -0.03094  -0.03095  -1.10917
   D52       -1.10464   0.00225   0.00000   0.01456   0.01466  -1.08998
   D53        3.03506   0.00493   0.00000   0.05336   0.05349   3.08855
   D54        0.94698   0.00397   0.00000   0.03808   0.03825   0.98523
   D55       -2.93057  -0.00060   0.00000   0.00638   0.00618  -2.92439
   D56       -0.79232  -0.00095   0.00000  -0.00987  -0.01063  -0.80295
   D57        1.24944   0.00242   0.00000   0.03246   0.03342   1.28285
   D58        3.11997   0.00117   0.00000   0.02132   0.02148   3.14145
   D59        1.00612   0.00452   0.00000   0.04053   0.04250   1.04862
   D60       -1.06637  -0.00420   0.00000  -0.01267  -0.01480  -1.08117
   D61        3.09894   0.00073   0.00000   0.01454   0.01467   3.11361
   D62       -1.09277  -0.00421   0.00000  -0.01600  -0.01785  -1.11062
   D63        0.97785   0.00466   0.00000   0.04049   0.04222   1.02007
         Item               Value     Threshold  Converged?
 Maximum Force            0.019967     0.000450     NO 
 RMS     Force            0.006149     0.000300     NO 
 Maximum Displacement     0.239664     0.001800     NO 
 RMS     Displacement     0.073060     0.001200     NO 
 Predicted change in Energy=-9.919080D-03
 GradGradGradGradGradGradGradGradGradGradGradGradGradGradGradGradGradGrad

                          Input orientation:                          
 ---------------------------------------------------------------------
 Center     Atomic      Atomic             Coordinates (Angstroms)
 Number     Number       Type             X           Y           Z
 ---------------------------------------------------------------------
      1          6           0        0.034284   -0.001684   -0.020925
      2          6           0        1.557559   -0.032887   -0.035891
      3          6           0       -0.582194    1.060099   -0.917178
      4          6           0        2.097277   -0.732213    1.201063
      5          1           0        1.938931    0.989631   -0.047659
      6          1           0       -0.316430    0.188746    0.995840
      7          6           0       -0.163225    1.005813   -2.369573
      8          1           0       -0.345642    2.052679   -0.518739
      9          6           0        3.604462   -0.856684    1.159480
     10          1           0        1.661244   -1.735199    1.275327
     11          1           0        0.895856    1.243527   -2.478035
     12          1           0       -0.355091    0.007406   -2.767982
     13          1           0        4.045415    0.138987    1.041144
     14          1           0        3.913161   -1.493473    0.329167
     15          8           0       -0.984166    1.980907   -3.024578
     16          1           0       -0.759143    1.988780   -3.953115
     17          8           0       -1.992878    0.843205   -0.826748
     18          1           0       -2.388810    1.372911   -1.524838
     19          8           0       -0.394753   -1.303508   -0.428310
     20          1           0       -1.348300   -1.241582   -0.535836
     21          8           0        2.032452   -0.674034   -1.208452
     22          1           0        1.440265   -1.422084   -1.345154
     23          8           0        1.709418    0.042656    2.329474
     24          1           0        2.218594   -0.296975    3.070602
     25          8           0        3.974894   -1.425002    2.418339
     26          1           0        4.922519   -1.546521    2.429074
 ---------------------------------------------------------------------
                    Distance matrix (angstroms):
                    1          2          3          4          5
     1  C    0.000000
     2  C    1.523668   0.000000
     3  C    1.520098   2.559263   0.000000
     4  C    2.506565   1.520002   3.857316   0.000000
     5  H    2.147347   1.091387   2.667789   2.132868   0.000000
     6  H    1.092280   2.150680   2.118850   2.591575   2.610931
     7  C    2.563241   3.079946   1.512592   4.569468   3.132188
     8  H    2.147690   2.864420   1.095411   4.084261   2.563447
     9  C    3.856236   2.509456   5.051204   1.512888   2.764066
    10  H    2.707831   2.151258   4.201641   1.096185   3.041727
    11  H    2.886216   2.833929   2.157441   4.345425   2.656915
    12  H    2.774530   3.335292   2.141312   4.723818   3.691539
    13  H    4.151741   2.716427   5.108643   2.140048   2.519199
    14  H    4.170573   2.795611   5.318113   2.153406   3.194587
    15  O    3.740299   4.409987   2.334653   5.891719   4.288259
    16  H    4.478123   4.979848   3.179728   6.490646   4.850823
    17  O    2.339353   3.741469   1.430122   4.829422   4.010927
    18  H    3.165857   4.446016   1.931570   5.655710   4.588932
    19  O    1.429959   2.362201   2.420902   3.031740   3.293852
    20  H    1.927178   3.186675   2.455621   3.892078   4.002813
    21  O    2.419701   1.418271   3.150942   2.411089   2.030755
    22  H    2.397478   1.912536   3.230285   2.718604   2.783618
    23  O    2.886593   2.371438   4.102124   1.422732   2.569085
    24  H    3.796834   3.187006   5.058503   1.923363   3.384836
    25  O    4.848119   3.715473   6.169964   2.342470   4.007087
    26  H    5.681889   4.437353   6.949370   3.186394   4.633365
                    6          7          8          9         10
     6  H    0.000000
     7  C    3.466565   0.000000
     8  H    2.401884   2.134196   0.000000
     9  C    4.061170   5.488039   5.184991   0.000000
    10  H    2.773243   4.911938   4.646966   2.135722   0.000000
    11  H    3.827533   1.090836   2.456600   4.997895   4.852459
    12  H    3.768386   1.091952   3.040120   5.643551   4.842585
    13  H    4.362364   5.486075   5.037542   1.095355   3.041659
    14  H    4.600408   5.490587   5.606384   1.090970   2.454542
    15  O    4.452131   1.433103   2.586908   6.827428   6.268718
    16  H    5.284720   1.956770   3.459769   7.299064   6.860241
    17  O    2.561370   2.398829   2.066660   6.177778   4.941609
    18  H    3.471429   2.408645   2.376732   6.935126   5.822733
    19  O    2.064258   3.025735   3.357765   4.326021   2.704785
    20  H    2.335941   3.133333   3.443511   5.249009   3.547017
    21  O    3.334748   2.998514   3.683205   2.848101   2.726358
    22  H    3.340809   3.084688   3.993295   3.358068   2.648357
    23  O    2.429811   5.149321   4.046700   2.401852   2.067442
    24  H    3.311633   6.079952   4.997954   2.426168   2.366883
    25  O    4.800329   6.779159   6.275964   1.430011   2.599168
    26  H    5.701921   7.443535   7.028326   1.955765   3.464483
                   11         12         13         14         15
    11  H    0.000000
    12  H    1.782395   0.000000
    13  H    4.850191   5.821615   0.000000
    14  H    4.947290   5.482968   1.785869   0.000000
    15  O    2.092109   2.087171   6.724541   6.877698   0.000000
    16  H    2.338863   2.343852   7.172735   7.231490   0.955446
    17  O    3.351386   2.673817   6.359711   6.455811   2.672512
    18  H    3.422624   2.747003   7.036056   7.167170   2.142873
    19  O    3.514887   2.682188   4.894403   4.378125   4.227931
    20  H    3.870935   2.743886   5.786622   5.338037   4.087892
    21  O    2.565294   2.932040   3.126292   2.563751   4.409876
    22  H    2.947080   2.700219   3.862404   2.987250   4.503185
    23  O    5.021565   5.499773   2.669449   3.349239   6.299054
    24  H    5.908481   6.387923   2.765147   3.437823   7.252423
    25  O    6.369930   6.906410   2.085115   2.091205   8.112820
    26  H    6.933838   7.568173   2.352998   2.330499   8.779180
                   16         17         18         19         20
    16  H    0.000000
    17  O    3.550861   0.000000
    18  H    2.988585   0.961603   0.000000
    19  O    4.836961   2.705759   3.513098   0.000000
    20  H    4.739213   2.201464   2.982676   0.961586   0.000000
    21  O    4.734633   4.318680   4.882381   2.626059   3.493424
    22  H    4.824194   4.145690   4.744059   2.054740   2.909239
    23  O    7.025106   4.930477   5.781070   3.720896   4.382796
    24  H    7.963930   5.850285   6.718241   4.481638   5.159593
    25  O    8.640627   7.161680   7.992102   5.216512   6.090746
    26  H    9.247268   8.008363   8.809770   6.041282   6.943115
                   21         22         23         24         25
    21  O    0.000000
    22  H    0.963822   0.000000
    23  O    3.624213   3.964946   0.000000
    24  H    4.299666   4.622831   0.961187   0.000000
    25  O    4.182183   4.537426   2.700797   2.186889   0.000000
    26  H    4.727083   5.136767   3.586004   3.046988   0.955445
                   26
    26  H    0.000000
 Stoichiometry    C6H14O6
 Framework group  C1[X(C6H14O6)]
 Deg. of freedom    72
 Full point group                 C1      NOp   1
 Largest Abelian subgroup         C1      NOp   1
 Largest concise Abelian subgroup C1      NOp   1
                         Standard orientation:                         
 ---------------------------------------------------------------------
 Center     Atomic      Atomic             Coordinates (Angstroms)
 Number     Number       Type             X           Y           Z
 ---------------------------------------------------------------------
      1          6           0        0.534038   -0.697498    0.148899
      2          6           0       -0.536691    0.341446   -0.160451
      3          6           0        1.891130   -0.406292   -0.470940
      4          6           0       -1.927506   -0.235767    0.046583
      5          1           0       -0.445012    0.654432   -1.201969
      6          1           0        0.211914   -1.673865   -0.219909
      7          6           0        2.483802    0.942906   -0.129854
      8          1           0        1.818424   -0.494330   -1.560384
      9          6           0       -3.002460    0.807636   -0.164642
     10          1           0       -2.013052   -0.630778    1.065538
     11          1           0        1.889809    1.749216   -0.562241
     12          1           0        2.523114    1.060853    0.954998
     13          1           0       -2.895411    1.238063   -1.166179
     14          1           0       -2.920766    1.598086    0.582841
     15          8           0        3.804174    0.914504   -0.686267
     16          1           0        4.227804    1.750063   -0.498502
     17          8           0        2.750353   -1.435983    0.025769
     18          1           0        3.645886   -1.165791   -0.197159
     19          8           0        0.640968   -0.747048    1.573993
     20          1           0        1.398700   -1.309477    1.758824
     21          8           0       -0.359794    1.495803    0.644324
     22          1           0       -0.116421    1.162103    1.515166
     23          8           0       -2.091934   -1.292731   -0.891478
     24          1           0       -3.028350   -1.509398   -0.883650
     25          8           0       -4.242989    0.105884   -0.048187
     26          1           0       -4.956739    0.732806   -0.150186
 ---------------------------------------------------------------------
 Rotational constants (GHZ):           1.9907657           0.4273114           0.3989697
 Standard basis: def2TZVPP (5D, 7F)
 There are   642 symmetry adapted cartesian basis functions of A   symmetry.
 There are   568 symmetry adapted basis functions of A   symmetry.
   568 basis functions,   850 primitive gaussians,   642 cartesian basis functions
    49 alpha electrons       49 beta electrons
       nuclear repulsion energy       819.6580955858 Hartrees.
 NAtoms=   26 NActive=   26 NUniq=   26 SFac= 1.00D+00 NAtFMM=   60 NAOKFM=F Big=F
 Integral buffers will be    131072 words long.
 Raffenetti 2 integral format.
 Two-electron integral symmetry is turned on.
 Nuclear repulsion after empirical dispersion term =      819.6404024085 Hartrees.
 One-electron integrals computed using PRISM.
   1 Symmetry operations used in ECPInt.
 ECPInt:  NShTT=   23436 NPrTT=   62434 LenC2=   21498 LenP2D=   44550.
 LDataN:  DoStor=T MaxTD1= 6 Len=  172
[...]
 0.00105418,0.00003187,0.00035452,0.00001255,-0.00014080,0.00004397,0.0
 0068450,0.00808915,-0.00146432,0.00107615,0.00140686,0.00127139,0.6311
 3649,-0.00536712,-0.19749498,-0.03989468,-0.01078096,-0.00992109,-0.00
 267259,-0.01499165,-0.04912169,-0.01062022,0.00014766,-0.00196395,0.00
 045081,0.00008096,0.00116718,-0.00009112,-0.00894303,-0.02300794,-0.01
 087126,0.00011463,0.00041285,-0.00380276,0.00402006,-0.00453523,0.0052
 6497,0.00046576,0.00035458,-0.00025810,-0.00002745,0.00125226,-0.00044
 595,0.00014835,-0.00038988,0.00009013,-0.00000661,-0.00011928,0.001573
 06,0.00030929,0.00011385,-0.00000242,-0.00013809,0.00007299,0.00008043
 ,0.00073779,0.00003917,0.00201923,0.00002105,-0.00000261,0.00007660,-0
 .00019518,0.00107636,0.00031558,-0.00117108,0.00013727,-0.00088423,0.0
 0699280,0.32474267,-0.01486927,-0.05037612,-0.08596208,-0.00095119,-0.
 00791454,-0.00258753,0.00352605,0.01314864,0.00875609,0.00066912,0.000
 00512,-0.00047524,-0.00065635,0.00042754,0.00060701,-0.01472242,-0.036
 91219,-0.00346872,0.00197331,-0.00269799,-0.00064242,-0.00170440,0.003
 62353,-0.00109012,0.00022023,-0.00035249,-0.00005407,-0.00034223,-0.00
 046980,-0.00011378,0.00023749,0.00084300,-0.00000895,0.00007753,0.0018
 5466,0.00146443,-0.00015171,-0.00002388,-0.00006691,-0.00016646,0.0001
 4798,0.00004386,-0.00048744,0.00191440,0.00048926,-0.00000421,-0.00053
 040,0.00037083,-0.00049050,0.00274379,0.00231776,0.00037271,-0.0000057
 0,0.00017082,0.12256262,0.06472028,0.10462561,-0.01633986,-0.00350226,
 -0.00305049,-0.00074598,-0.00197166,-0.00075544,0.00296153,0.00154230,
 0.00014801,0.00006801,-0.00012339,0.00005613,-0.00024534,0.00033446,-0
 .00000193,0.00057308,0.00131809,0.00038504,-0.00023285,-0.00074671,0.0
 0066733,-0.00123420,0.00033275,-0.00032218,-0.00012073,0.00009751,-0.0
 0006309,-0.00005307,0.00013967,-0.00005670,-0.00005563,0.00014559,0.00
 016681,-0.00005581,-0.00005787,0.00050250,0.00004813,0.00003088,0.0000
 0703,-0.00001419,0.00000056,0.00000428,-0.00060861,0.00052491,-0.00047
 689,-0.00003751,-0.00000420,0.00000513,-0.00160491,-0.00004345,0.00063
 192,-0.00025900,-0.00023373,-0.00046979,-0.49874840,0.03021386,-0.0965
 7573,0.51582767,-0.04343264,-0.00161172,-0.00941500,-0.00170321,-0.007
 78051,-0.00203950,-0.00624161,-0.00346986,0.00050052,0.00037040,-0.000
 40216,0.00025431,-0.00195470,0.00014497,0.00008070,-0.00006977,-0.0002
 6989,-0.00086583,0.00016239,-0.00007672,0.00069197,0.00059781,0.000853
 30,-0.00022209,-0.00004100,0.00008089,-0.00007091,-0.00002028,0.000213
 28,-0.00021874,0.00021220,0.00022767,-0.00040446,-0.00018736,-0.000020
 24,0.00016531,0.00007531,0.00001633,0.00000449,-0.00001499,0.00001792,
 0.00000530,0.00033913,0.00020379,-0.00060507,0.00013507,-0.00002603,0.
 00010908,0.00010051,0.00276807,-0.00140857,0.00103450,0.00125687,0.001
 16669,0.07736847,-0.04606478,0.00509534,-0.02756784,0.05356481,-0.0142
 3311,-0.00223989,-0.00248898,0.00145786,-0.00180794,-0.00177776,0.0015
 9318,0.00144969,0.00226163,-0.00007675,0.00008717,0.00021008,-0.000141
 67,0.00021867,0.00019437,-0.00091396,-0.00032530,-0.00051223,-0.000067
 55,0.00132182,0.00014015,-0.00023474,-0.00035731,-0.00020490,-0.000034
 68,-0.00009436,0.00000465,0.00002680,-0.00007678,0.00005048,-0.0001325
 0,-0.00047928,-0.00001959,0.00039743,-0.00021117,-0.00079151,-0.000020
 17,0.00002887,-0.00001235,-0.00000718,0.00000622,-0.00001086,-0.000018
 12,-0.00066588,0.00003892,0.00008568,0.00018695,-0.00010559,-0.0002941
 7,-0.00179754,-0.00249400,0.00014014,0.00076640,-0.00022128,-0.0877918
 4,-0.00443114,-0.02601773,0.09983236,0.00648631,0.03034151,-0.01814158
 ,0.01759158,0.03955001,-0.10151602,-0.00680719,0.02975209,0.00257903,-
 0.00174382,0.00112513,0.00547699,-0.00433645,-0.00014737,0.00686143,-0
 .00395978,-0.01144633,-0.00839098,0.00004444,-0.00095382,-0.00073816,0
 .00035106,-0.00090251,-0.00027523,0.00030531,0.00007664,-0.00223278,0.
 00153353,0.00171379,-0.00037085,0.00048634,-0.00031617,-0.00061094,0.0
 0014254,-0.00035741,0.00004534,0.00085062,0.00014602,0.00015693,-0.000
 27231,0.00018888,0.00053413,-0.00129972,-0.00234626,-0.00078209,0.0013
 4613,-0.00081723,-0.00005461,-0.00010492,0.00024052,-0.00087411,0.0006
 1174,-0.00078174,0.00018401,-0.00010136,-0.00003060,-0.00542379,0.0011
 7075,0.00388178,0.00105589,0.00124289,0.00240026,0.35461582,0.00521423
 ,-0.00779156,-0.01361867,0.02329607,-0.11529208,-0.07657335,-0.0021143
 3,0.00034670,-0.00083098,-0.00308891,0.00507019,0.00078772,0.01394077,
 -0.01496414,-0.03506408,0.00212123,0.00134322,0.00087577,-0.00115233,-
 0.00256551,0.00072882,0.00014891,0.00059407,0.00000279,0.00232971,-0.0
 0095889,-0.00173125,-0.00033978,0.00254740,-0.00178790,0.00167226,-0.0
 0000602,0.00013578,0.00012343,0.00002290,0.00041131,0.00018079,0.00050
 770,0.00058245,-0.00104631,0.00076143,0.00111003,0.00181565,-0.0003429
 3,0.00068669,-0.00007917,-0.00006449,-0.00023983,0.00151724,0.00056575
 ,0.00045792,-0.00006600,0.00007215,0.00004940,-0.00679206,0.00256924,0
 .00227990,-0.00044591,0.00037546,0.00195277,0.21761326,0.40674040,0.01
 226041,-0.01057739,-0.01617844,0.05849581,-0.04794923,-0.18368270,0.00
 024919,0.00148511,-0.00222002,0.01614886,-0.02666690,-0.03323198,0.002
 87330,-0.01059859,-0.00833662,0.00192790,0.00006736,0.00149213,0.00166
 218,0.00004041,-0.00155951,-0.00026189,0.00054576,0.00033247,0.0005470
 6,-0.00039092,0.00080485,0.00093643,0.00079717,0.00219922,-0.00163790,
 -0.00118966,-0.00034978,0.00106105,0.00100725,0.00052768,-0.00038684,-
 0.00064100,-0.00021299,-0.00098972,0.00007105,-0.00176143,-0.00250930,
 0.00169659,0.00059274,0.00025362,-0.00036344,0.00043190,0.00071020,-0.
 00047590,0.00227705,0.00059427,-0.00005883,-0.00052042,-0.00234959,-0.
 00063981,0.00390079,-0.00059920,-0.00030749,0.00010375,-0.03290630,0.1
 7184981,0.29417593,0.00077867,0.00689302,0.00463974,0.01151895,0.01081
 560,0.00275732,-0.00021401,0.00021131,-0.00001407,-0.00054597,0.000002
 78,-0.00047631,-0.00126020,0.00316187,0.00314587,-0.00003889,-0.001316
 26,-0.00058354,0.00042091,0.00128463,-0.00011021,0.00013850,-0.0005663
 0,0.00007094,-0.00035831,-0.00015800,-0.00082192,0.00033295,-0.0000788
 5,-0.00012477,-0.00015373,-0.00039570,0.00009715,-0.00027952,0.0000944
 4,-0.00077681,-0.00003383,0.00022494,0.00020903,-0.00052759,-0.0000028
 5,-0.00013357,-0.00019098,-0.00069764,0.00034268,0.00008370,0.00009637
 ,-0.00008122,-0.00016411,-0.00074644,-0.00004623,-0.00016043,0.0000444
 9,-0.00010132,0.00205075,-0.00108785,-0.00099637,-0.00048980,-0.000442
 75,-0.00217474,-0.23470754,-0.25484910,-0.05178910,0.22396810,-0.00073
 783,-0.00001018,-0.00018133,-0.01112879,-0.02232626,-0.00898139,0.0008
 7038,-0.00105799,-0.00028611,-0.00035144,0.00201289,0.00006109,0.00157
 924,-0.00103532,-0.00432059,-0.00112330,-0.00057320,-0.00003170,0.0004
 2516,-0.00120623,0.00018839,-0.00004802,0.00013411,0.00018260,-0.00014
 596,-0.00006006,0.00021625,-0.00031715,-0.00029116,0.00009759,-0.00017
 403,-0.00038164,-0.00005513,0.00064466,0.00028082,0.00050408,-0.000030
 67,-0.00010725,-0.00015333,0.00007998,0.00017370,-0.00001427,-0.000638
 60,0.00091182,-0.00029538,0.00004298,-0.00007309,0.00017842,-0.0007296
 3,0.00010484,0.00000795,0.00010138,-0.00002199,-0.00005845,-0.00113209
 ,-0.00077459,0.00196788,0.00000742,-0.00012275,-0.00001266,-0.22477052
 ,-0.28217716,-0.08096342,0.23722225,0.30696612,0.00060413,-0.00343473,
 0.00047112,-0.02205294,-0.03370522,-0.01343358,-0.00012778,-0.00021911
 ,0.00062266,-0.00040464,-0.00337974,-0.00112107,0.00167366,-0.00048741
 ,-0.00343502,-0.00036920,0.00016275,-0.00001068,0.00008803,0.00141351,
 0.00041877,0.00002120,0.00009240,-0.00026205,-0.00019988,0.00020806,-0
 .00024941,0.00011923,0.00095598,-0.00077728,0.00015416,0.00008923,0.00
 011636,-0.00090524,-0.00015237,-0.00047149,0.00019962,0.00012565,0.000
 13891,-0.00029385,0.00001219,-0.00008403,0.00023696,-0.00071550,-0.000
 28262,-0.00002668,0.00019220,-0.00009127,0.00001090,0.00039927,-0.0005
 2732,-0.00007495,0.00007751,0.00020300,-0.00194347,0.00047442,-0.00229
 772,-0.00036395,0.00090299,0.00142243,-0.02198866,-0.05489241,-0.04470
 243,0.04522930,0.09070116,0.06456720,-0.00178348,0.00069666,0.00159800
 ,0.00499417,-0.00834633,-0.00725245,0.00089899,-0.00032283,-0.00068554
 ,-0.09163488,0.02881745,0.00451993,-0.00005978,-0.00000657,-0.00010623
 ,-0.00007077,-0.00055453,-0.00263542,-0.00036649,0.00009989,0.00021235
 ,0.00000629,-0.00002647,0.00005268,-0.01569440,0.02927191,0.03694154,0
 .00755882,-0.00098488,-0.00641251,0.00004396,0.00001932,-0.00001358,0.
 00000251,-0.00001040,-0.00000468,0.00413556,0.00010760,-0.00022012,-0.
 00910624,0.00200354,-0.00070360,0.00000126,0.00020861,-0.00044122,-0.0
 0003889,0.00000349,0.00001813,-0.00001137,0.00000115,-0.00012155,0.000
 08692,-0.00002783,0.00007674,0.00015454,-0.00089824,-0.00106597,0.0001
 8197,0.00003568,0.00023490,0.00127407,0.00039166,-0.00568993,-0.000237
 21,0.00022240,0.00014231,0.26415418,0.00062818,-0.00033100,-0.00085396
 ,-0.00352585,0.00731961,0.00421124,-0.00033582,-0.00047448,0.00015802,
 0.04052110,-0.13532142,-0.05096565,-0.00034265,0.00248919,-0.00083356,
 -0.00029375,0.00013632,0.00066187,0.00009710,-0.00009602,0.00004942,-0
 .00002440,0.00023254,-0.00006432,0.00910896,-0.00753950,-0.01322280,0.
 01300413,-0.02095768,-0.03747096,-0.00000928,-0.00003109,0.00000998,0.
 00001186,0.00003604,0.00008489,0.00151471,0.00195062,0.00069928,0.0020
 7747,0.00163775,0.00066060,-0.00006134,0.00015221,-0.00003573,-0.00000
 569,-0.00003368,0.00000936,-0.00008941,0.00039647,-0.00002336,-0.00002
 995,-0.00004306,-0.00003043,-0.00026260,0.00110822,0.00015590,0.000089
 28,0.00007617,0.00003620,0.00042535,0.00154775,0.00452679,0.00022125,-
 0.00036594,0.00111215,-0.16453600,0.22932085,0.00053190,-0.00077860,-0
 .00036091,0.01169720,-0.02616388,-0.03388536,0.00080066,-0.00066002,0.
 00026293,0.03876977,-0.07883467,-0.17414880,0.00130266,-0.00079666,0.0
 0238851,-0.00076065,0.00006842,-0.00158041,0.00036642,-0.00034145,0.00
 035782,0.00002918,0.00008803,-0.00000411,0.00977496,-0.01254054,-0.021
 14307,0.00189324,-0.01455824,-0.00846803,-0.00008058,-0.00023811,0.000
 11017,0.00010903,0.00008804,0.00011637,-0.00092917,0.00089816,0.000564
 95,0.00293956,-0.00078142,0.00122673,-0.00054184,0.00059024,-0.0004691
 2,0.00004677,-0.00006681,0.00010657,-0.00094939,0.00040617,-0.00007998
 ,0.00009488,-0.00008237,-0.00003698,-0.00144686,-0.00040051,-0.0003173
 1,0.00027526,0.00008544,-0.00011892,-0.00369521,0.00165514,-0.01196183
 ,0.00126016,0.00084559,-0.00022600,0.16941032,-0.01003217,0.57037161,-
 0.00046731,0.00033740,-0.00007691,-0.00193310,0.00149843,0.00166079,0.
 00013276,-0.00005435,-0.00008450,0.00714034,-0.00385011,0.01155589,-0.
 00004693,-0.00000064,-0.00011587,0.00031637,-0.00006288,-0.00034653,-0
 .00004026,0.00006428,-0.00001333,0.00000467,0.00000703,-0.00000596,0.0
 0109890,0.00004666,0.00637394,-0.00022441,0.00083505,0.00004245,-0.000
 00154,0.00000820,-0.00001014,-0.00000240,-0.00000542,-0.00000739,-0.00
 037881,0.00008319,-0.00022893,0.00005231,0.00008811,-0.00083304,0.0000
 0971,-0.00004891,0.00002962,0.00000486,0.00001363,-0.00001366,-0.00000
 900,-0.00003295,0.00006692,0.00000227,0.00000506,-0.00002400,-0.000012
 18,-0.00030363,-0.00004911,0.00000888,0.00000881,-0.00008147,0.0002172
 8,0.00039980,0.00189038,-0.00005368,-0.00003270,0.00008662,-0.16498688
 ,0.10160611,-0.22576392,0.15888060,0.00016127,-0.00001928,-0.00025060,
 0.00116358,-0.00280327,-0.00067719,-0.00000820,0.00002082,-0.00002047,
 -0.01282746,0.00632593,-0.02438360,0.00006449,0.00027003,-0.00008692,-
 0.00014430,-0.00007736,0.00006307,0.00001771,0.00001036,-0.00001880,-0
 .00001170,0.00001114,-0.00001454,0.00103130,0.00180653,-0.00276049,-0.
 00048135,-0.00077264,-0.00118300,-0.00000329,-0.00001462,0.00000130,0.
 00000673,0.00000218,-0.00000326,-0.00025741,-0.00042596,0.00061830,0.0
 0014664,-0.00047071,0.00040269,-0.00001496,-0.00002255,0.00002209,0.00
 000678,0.00000538,0.00000257,0.00000225,-0.00003262,0.00001475,-0.0000
 0062,0.00001457,-0.00000168,-0.00007986,-0.00003349,0.00018658,-0.0000
 2720,0.00003510,-0.00004112,0.00027125,0.00050369,-0.00165844,0.000094
 56,0.00013300,0.00012537,0.11161649,-0.08255868,0.13849519,-0.09907947
 ,0.07957078,0.00024869,-0.00023052,0.00042467,0.00225554,-0.00493301,-
 0.00258412,-0.00016384,0.00015490,0.00002938,-0.01700409,0.00955874,-0
 .03484108,0.00018430,-0.00011065,0.00031882,-0.00042625,0.00003657,-0.
 00012701,0.00000697,0.00001271,-0.00009626,-0.00001505,0.00002599,-0.0
 0000430,-0.00005354,0.00110944,-0.00058987,-0.00053329,0.00030552,0.00
 090911,0.00000954,-0.00000945,-0.00001826,0.00001955,0.00001007,0.0000
 0503,0.00034323,-0.00003435,-0.00020491,-0.00111909,0.00052273,-0.0002
 7891,0.00005680,-0.00007722,0.00014115,-0.00000499,0.00000135,-0.00001
 230,0.00021037,-0.00006029,0.00007490,-0.00001994,0.00001518,-0.000016
 96,0.00020395,0.00017848,0.00025186,-0.00006596,-0.00001437,-0.0000118
 6,-0.00039860,0.00022470,-0.00170770,0.00002115,0.00015238,-0.00025576
 ,-0.19116252,0.10215326,-0.32796534,0.20867094,-0.10986710,0.36603609,
 0.00044321,0.00213060,-0.00242712,-0.00849378,0.00032012,0.00502712,-0
 .00019696,-0.00090178,0.00037939,-0.02084758,0.02385902,-0.04415881,-0
 .00018237,0.00011133,-0.00007516,0.00024644,-0.00002734,-0.00005693,0.
 00007235,-0.00016975,0.00039545,0.00001822,0.00000307,0.00000150,-0.10
 080835,0.01948687,-0.04873023,0.00314621,-0.00038710,0.00008142,-0.000
 02899,-0.00003812,0.00005607,-0.00001647,-0.00000433,-0.00000094,0.006
 51778,0.00070649,0.00784663,0.00496864,-0.00439792,0.00130252,-0.00020
 781,0.00032938,-0.00046188,0.00000360,-0.00002409,0.00006550,-0.000839
 33,0.00040860,-0.00049752,-0.00004538,-0.00004567,0.00010444,-0.000656
 98,-0.00050582,-0.00031660,0.00014142,-0.00000624,0.00007034,0.0007731
 5,-0.00061626,-0.00064202,0.00017518,0.00017908,0.00023409,-0.00044113
 ,0.00064506,-0.00427118,0.00039767,-0.00104624,-0.00114118,0.66444414,
 -0.00052473,-0.00025857,0.00041956,0.00111796,0.00001628,-0.00152981,-
 0.00018634,0.00019273,-0.00011380,0.00690852,-0.00292122,0.00497967,-0
 .00032118,0.00066459,-0.00041659,-0.00012478,0.00000442,0.00002240,-0.
 00012430,0.00004879,-0.00017104,-0.00001409,0.00006077,0.00001496,-0.0
 0090068,-0.08973204,0.05713157,0.00092542,0.00086493,-0.00075497,0.000
 02554,0.00001901,-0.00005064,0.00002963,0.00001657,0.00001355,0.012813
 35,-0.01005985,0.03702105,-0.00435106,0.01338007,-0.00805005,0.0001565
 2,-0.00011254,0.00020762,-0.00002720,-0.00000591,-0.00004118,0.0003907
 3,-0.00005372,0.00015223,-0.00002539,0.00000742,-0.00003920,0.00058108
 ,0.00044749,0.00019852,-0.00005801,-0.00000942,0.00000116,-0.00054691,
 0.00073042,0.00046566,0.00000131,-0.00016592,-0.00007148,0.00201471,0.
 00153632,0.00238915,-0.00108144,-0.00186946,0.00058895,-0.00981368,0.0
 9520957,0.00069445,0.00045444,-0.00077122,0.00021810,-0.00125036,0.001
 04444,0.00022884,-0.00049497,0.00017076,-0.00711819,0.00479383,-0.0129
 5966,0.00015224,-0.00018333,0.00003869,-0.00021815,0.00003511,0.000031
 46,0.00034010,-0.00023577,0.00028839,-0.00000053,0.00000648,-0.0000109
 4,-0.00959522,0.06007355,-0.20285540,0.00006237,-0.00060874,0.00065703
 ,-0.00006782,-0.00012687,0.00007677,0.00002347,0.00003247,0.00003962,-
 0.00675559,0.01328037,-0.01844776,-0.01396029,0.01817563,-0.03615420,-
 0.00038126,0.00037458,-0.00034429,0.00005160,-0.00004160,0.00008396,-0
 .00070186,0.00025473,-0.00017647,0.00005493,-0.00004658,0.00002268,-0.
 00090522,-0.00018341,0.00008169,0.00013973,0.00002761,0.00002443,-0.00
 232445,0.00110942,-0.00056267,0.00052792,0.00022515,0.00029204,0.00167
 243,0.00002633,0.00433558,-0.00167975,-0.00035738,-0.00020944,0.088238
 98,-0.10726772,0.30218375,-0.00006191,0.00017411,-0.00016087,-0.000589
 67,0.00007066,0.00066200,-0.00008402,-0.00001365,0.00000297,-0.0006445
 8,0.00185826,-0.00244285,-0.00005219,0.00008551,-0.00008358,0.00000530
 ,-0.00000599,-0.00002159,-0.00003803,0.00003266,-0.00003295,0.00000123
 ,0.00000703,0.00000200,-0.00930937,-0.00296743,0.00497409,0.00059561,0
 .00009183,0.00006948,0.00000764,0.00001320,-0.00001195,-0.00000228,-0.
 00000302,-0.00000543,0.00130973,-0.00028995,0.00163347,0.00059548,-0.0
 0070381,0.00092746,0.00004631,-0.00005061,0.00005127,-0.00000459,0.000
 00666,-0.00001301,0.00006208,-0.00001190,0.00001072,-0.00001498,0.0000
 0438,-0.00000481,0.00010277,-0.00000627,0.00002913,-0.00002068,-0.0000
 0078,-0.00001630,0.00034462,-0.00017487,0.00015111,-0.00005191,-0.0000
 1421,-0.00004898,0.00093829,-0.00043383,-0.00086318,-0.00011012,-0.000
 60101,-0.00012270,-0.54858289,-0.00686499,-0.04869685,0.55555814,0.000
 14206,-0.00016466,0.00032475,0.00100444,0.00057475,-0.00023600,0.00008
 530,0.00007676,-0.00000508,0.00107387,-0.00205168,0.00270831,-0.000011
 96,-0.00006183,-0.00008382,-0.00001368,0.00000168,0.00001644,0.0000343
 3,0.00000910,0.00000084,0.00000323,-0.00002534,-0.00000500,0.01850319,
 -0.00169904,0.00306403,0.00007358,0.00015587,0.00003962,-0.00000854,0.
 00000085,0.00000950,-0.00000790,-0.00000861,-0.00000327,0.00085006,0.0
 0014490,-0.00032282,-0.00095710,0.00044455,-0.00029432,-0.00002501,-0.
 00001217,-0.00000693,0.00000933,0.00000735,0.00000674,-0.00001069,-0.0
 0004383,0.00001249,0.00001555,0.00000548,0.00000107,-0.00005117,-0.000
 06461,-0.00002994,0.00000495,0.00001945,-0.00000188,-0.00004382,-0.000
 13569,-0.00007191,-0.00002706,0.00003344,0.00001316,0.00020354,-0.0001
 8752,0.00066588,-0.00044926,0.00039112,0.00028600,-0.03019529,-0.00801
 075,0.01192701,0.00979804,0.01060044,0.00000508,0.00034977,-0.00048745
 ,-0.00179573,0.00005021,0.00072122,-0.00014229,-0.00007343,0.00007428,
 -0.00043780,0.00251125,-0.00761829,0.00000658,0.00002463,0.00001980,-0
 .00000987,0.00001137,0.00000956,-0.00003753,0.00002303,-0.00000636,0.0
 0000307,0.00000703,-0.00000054,-0.04167153,0.00009235,-0.00611815,0.00
 031867,-0.00015658,-0.00000260,0.00000567,0.00001462,-0.00000483,-0.00
 000536,-0.00000699,-0.00000672,0.00046265,0.00088771,0.00106049,-0.000
 58824,-0.00080128,-0.00039537,0.00004317,-0.00003557,0.00001901,-0.000
 01019,0.00000653,-0.00000735,0.00000250,0.00002083,-0.00004597,-0.0000
 2984,0.00000515,0.00000913,0.00005430,-0.00004579,0.00002255,-0.000020
 21,-0.00000403,-0.00000483,0.00033755,-0.00016195,0.00015002,-0.000071
 08,0.00002524,-0.00002474,0.00163601,-0.00102236,0.00092491,-0.0010430
 2,0.00139268,0.00073306,-0.00102390,0.01490043,-0.03687926,0.04401135,
 -0.01801485,0.04785844\\-0.00000361,-0.00000138,-0.00000165,-0.0000022
 1,-0.00000974,-0.00001034,-0.00000301,-0.00002482,-0.00000297,0.,-0.00
 000627,0.00001110,0.00000247,-0.00000145,-0.00000108,-0.00000306,0.000
 00447,0.00000020,0.00000075,0.00000584,0.00000773,0.00000528,0.0000062
 1,-0.00000803,-0.00000118,-0.00000127,0.00000691,-0.00000321,0.0000004
 8,-0.00000032,0.00000389,-0.00000021,0.00000117,0.00000275,-0.00000406
 ,-0.00000121,0.00000150,0.00000065,0.00000155,0.00000147,-0.00000096,0
 .00000032,0.00000571,0.00000716,0.00000662,-0.00000453,-0.00001212,-0.
 00000758,0.00000590,0.00000688,-0.00002334,-0.00000636,0.00000475,0.00
 000953,-0.00000544,0.00001375,0.00000004,0.00000642,-0.00000184,0.0000
 0395,0.00000574,0.00000127,0.00000709,-0.00000365,0.00000370,0.0000063
 4,-0.00000217,0.00000408,-0.00000586,0.00000047,0.00000314,0.00000014,
 -0.00000604,0.00001058,0.00000100,0.00000214,-0.00000882,-0.00000133\\
 \@
 The archive entry for this job was punched.


 Cherishing children is the mark of a civilized society.
 -- Joan Ganz Cooney
 Job cpu time:       0 days  9 hours 19 minutes 49.6 seconds.
 Elapsed time:       0 days  0 hours 35 minutes 15.6 seconds.
 File lengths (MBytes):  RWF=    704 Int=      0 D2E=      0 Chk=     27 Scr=      1
 Normal termination of Gaussian 16 at Wed Sep 27 12:09:43 2023.
