 Entering Gaussian System, Link 0=/opt/software/gaussian/g16.c01/g16
 Initial command:
 /opt/software/gaussian/g16.c01/l1.exe "/scratch/arhender/14836889/Gau-52733.inp" -scrdir="/scratch/arhender/14836889/"
 Entering Link 1 = /opt/software/gaussian/g16.c01/l1.exe PID=     52734.
  
 Copyright (c) 1988-2019, Gaussian, Inc.  All Rights Reserved.
  
 This is part of the Gaussian(R) 16 program.  It is based on
 the Gaussian(R) 09 system (copyright 2009, Gaussian, Inc.),
 the Gaussian(R) 03 system (copyright 2003, Gaussian, Inc.),
 the Gaussian(R) 98 system (copyright 1998, Gaussian, Inc.),
 the Gaussian(R) 94 system (copyright 1995, Gaussian, Inc.),
 the Gaussian 92(TM) system (copyright 1992, Gaussian, Inc.),
 the Gaussian 90(TM) system (copyright 1990, Gaussian, Inc.),
 the Gaussian 88(TM) system (copyright 1988, Gaussian, Inc.),
 the Gaussian 86(TM) system (copyright 1986, Carnegie Mellon
 University), and the Gaussian 82(TM) system (copyright 1983,
 Carnegie Mellon University). Gaussian is a federally registered
 trademark of Gaussian, Inc.
  
 This software contains proprietary and confidential information,
 including trade secrets, belonging to Gaussian, Inc.
  
 This software is provided under written license and may be
 used, copied, transmitted, or stored only in accord with that
 written license.
  
 The following legend is applicable only to US Government
 contracts under FAR:
  
                    RESTRICTED RIGHTS LEGEND
  
 Use, reproduction and disclosure by the US Government is
 subject to restrictions as set forth in subparagraphs (a)
 and (c) of the Commercial Computer Software - Restricted
 Rights clause in FAR 52.227-19.
  
 Gaussian, Inc.
 340 Quinnipiac St., Bldg. 40, Wallingford CT 06492
  
  
 ---------------------------------------------------------------
 Warning -- This program may not be used in any manner that
 competes with the business of Gaussian, Inc. or will provide
 assistance to any competitor of Gaussian, Inc.  The licensee
 of this program is prohibited from giving any competitor of
 Gaussian, Inc. access to this program.  By using this program,
 the user acknowledges that Gaussian, Inc. is engaged in the
 business of creating and licensing software in the field of
 computational chemistry and represents and warrants to the
 licensee that it is not a competitor of Gaussian, Inc. and that
 it will not use this program in any manner prohibited above.
 ---------------------------------------------------------------
  

 Cite this work as:
 Gaussian 16, Revision C.01,
 M. J. Frisch, G. W. Trucks, H. B. Schlegel, G. E. Scuseria, 
 M. A. Robb, J. R. Cheeseman, G. Scalmani, V. Barone, 
 G. A. Petersson, H. Nakatsuji, X. Li, M. Caricato, A. V. Marenich, 
 J. Bloino, B. G. Janesko, R. Gomperts, B. Mennucci, H. P. Hratchian, 
 J. V. Ortiz, A. F. Izmaylov, J. L. Sonnenberg, D. Williams-Young, 
 F. Ding, F. Lipparini, F. Egidi, J. Goings, B. Peng, A. Petrone, 
 T. Henderson, D. Ranasinghe, V. G. Zakrzewski, J. Gao, N. Rega, 
 G. Zheng, W. Liang, M. Hada, M. Ehara, K. Toyota, R. Fukuda, 
 J. Hasegawa, M. Ishida, T. Nakajima, Y. Honda, O. Kitao, H. Nakai, 
 T. Vreven, K. Throssell, J. A. Montgomery, Jr., J. E. Peralta, 
 F. Ogliaro, M. J. Bearpark, J. J. Heyd, E. N. Brothers, K. N. Kudin, 
 V. N. Staroverov, T. A. Keith, R. Kobayashi, J. Normand, 
 K. Raghavachari, A. P. Rendell, J. C. Burant, S. S. Iyengar, 
 J. Tomasi, M. Cossi, J. M. Millam, M. Klene, C. Adamo, R. Cammi, 
 J. W. Ochterski, R. L. Martin, K. Morokuma, O. Farkas, 
 J. B. Foresman, and D. J. Fox, Gaussian, Inc., Wallingford CT, 2019.
 
 ******************************************
 Gaussian 16:  ES64L-G16RevC.01  3-Jul-2019
                11-Oct-2023 
 ******************************************
 %chk=MannitolConformerOpt_36.chk
 %mem=8GB
 %nprocs=16
 Will use up to   16 processors via shared memory.
 ---------------------------------------------
 # opt freq wb97xd/Def2TZVPP geom=connectivity
 ---------------------------------------------
 1/18=20,19=15,26=3,38=1,57=2/1,3;
 2/9=110,12=2,17=6,18=5,40=1/2;
 3/5=44,7=202,11=2,25=1,30=1,71=1,74=-58/1,2,3;
 4//1;
 5/5=2,38=5/2;
 6/7=2,8=2,9=2,10=2,28=1/1;
 7//1,2,3,16;
 1/18=20,19=15,26=3/3(2);
 2/9=110/2;
 99//99;
 2/9=110/2;
 3/5=44,7=202,11=2,25=1,30=1,71=1,74=-58/1,2,3;
 4/5=5,16=3,69=1/1;
 5/5=2,38=5/2;
 7//1,2,3,16;
 1/18=20,19=15,26=3/3(-5);
 2/9=110/2;
 6/7=2,8=2,9=2,10=2,19=2,28=1/1;
 99/9=1/99;
 -------------------
 Title Card Required
 -------------------
 Symbolic Z-matrix:
 Charge =  0 Multiplicity = 1
 C                     0.        0.        0. 
 C                     1.5377    0.        0. 
 C                    -0.6278    0.9354   -1.0601 
 C                     2.1665   -0.7171    1.2081 
 H                     1.893     1.0382    0. 
 H                    -0.3536    0.3274    0.986 
 C                    -0.2609    0.6554   -2.5245 
 H                    -0.3776    1.9746   -0.8206 
 C                     1.8356   -2.2071    1.3408 
 H                     1.9057   -0.1974    2.1371 
 H                     0.8024    0.7867   -2.7368 
 H                    -0.8135    1.3402   -3.1767 
 H                     2.0677   -2.7541    0.422 
 H                     0.7938   -2.3709    1.6248 
 O                    -0.6706   -0.663    -2.8852 
 H                    -0.104    -1.2649   -2.3556 
 O                    -2.0618    0.7961   -0.9302 
 H                    -2.3496    0.264    -1.7013 
 O                    -0.5109   -1.332    -0.176 
 H                    -1.4804   -1.2229   -0.2476 
 O                     2.0549   -0.5929   -1.2023 
 H                     3.016    -0.6913   -1.0335 
 O                     3.6013   -0.6048    1.0632 
 H                     3.9555   -1.2354    1.7267 
 O                     2.666    -2.7474    2.3803 
 H                     2.4299   -3.6901    2.4532 
 

 GradGradGradGradGradGradGradGradGradGradGradGradGradGradGradGradGradGrad
 Berny optimization.
 Initialization pass.
                           ----------------------------
                           !    Initial Parameters    !
                           ! (Angstroms and Degrees)  !
 --------------------------                            --------------------------
 ! Name  Definition              Value          Derivative Info.                !
 --------------------------------------------------------------------------------
 ! R1    R(1,2)                  1.5377         estimate D2E/DX2                !
 ! R2    R(1,3)                  1.5469         estimate D2E/DX2                !
 ! R3    R(1,6)                  1.0975         estimate D2E/DX2                !
 ! R4    R(1,19)                 1.4374         estimate D2E/DX2                !
 ! R5    R(2,4)                  1.5392         estimate D2E/DX2                !
 ! R6    R(2,5)                  1.0973         estimate D2E/DX2                !
 ! R7    R(2,21)                 1.4369         estimate D2E/DX2                !
 ! R8    R(3,7)                  1.5354         estimate D2E/DX2                !
 ! R9    R(3,8)                  1.0954         estimate D2E/DX2                !
 ! R10   R(3,17)                 1.4466         estimate D2E/DX2                !
 ! R11   R(4,9)                  1.5321         estimate D2E/DX2                !
 ! R12   R(4,10)                 1.096          estimate D2E/DX2                !
 ! R13   R(4,23)                 1.4465         estimate D2E/DX2                !
 ! R14   R(7,11)                 1.0922         estimate D2E/DX2                !
 ! R15   R(7,12)                 1.0953         estimate D2E/DX2                !
 ! R16   R(7,15)                 1.4269         estimate D2E/DX2                !
 ! R17   R(9,13)                 1.0942         estimate D2E/DX2                !
 ! R18   R(9,14)                 1.0922         estimate D2E/DX2                !
 ! R19   R(9,25)                 1.436          estimate D2E/DX2                !
 ! R20   R(15,16)                0.9817         estimate D2E/DX2                !
 ! R21   R(17,18)                0.9801         estimate D2E/DX2                !
 ! R22   R(19,20)                0.9782         estimate D2E/DX2                !
 ! R23   R(21,22)                0.9808         estimate D2E/DX2                !
 ! R24   R(23,24)                0.9815         estimate D2E/DX2                !
 ! R25   R(25,26)                0.9745         estimate D2E/DX2                !
 ! A1    A(2,1,3)              113.9439         estimate D2E/DX2                !
 ! A2    A(2,1,6)              108.7959         estimate D2E/DX2                !
 ! A3    A(2,1,19)             110.8195         estimate D2E/DX2                !
 ! A4    A(3,1,6)              107.7309         estimate D2E/DX2                !
 ! A5    A(3,1,19)             109.4013         estimate D2E/DX2                !
 ! A6    A(6,1,19)             105.7792         estimate D2E/DX2                !
 ! A7    A(1,2,4)              114.1122         estimate D2E/DX2                !
 ! A8    A(1,2,5)              108.8923         estimate D2E/DX2                !
 ! A9    A(1,2,21)             111.0973         estimate D2E/DX2                !
 ! A10   A(4,2,5)              107.9699         estimate D2E/DX2                !
 ! A11   A(4,2,21)             108.5099         estimate D2E/DX2                !
 ! A12   A(5,2,21)             105.894          estimate D2E/DX2                !
 ! A13   A(1,3,7)              116.5102         estimate D2E/DX2                !
 ! A14   A(1,3,8)              109.3376         estimate D2E/DX2                !
 ! A15   A(1,3,17)             106.412          estimate D2E/DX2                !
 ! A16   A(7,3,8)              109.0841         estimate D2E/DX2                !
 ! A17   A(7,3,17)             107.7559         estimate D2E/DX2                !
 ! A18   A(8,3,17)             107.3461         estimate D2E/DX2                !
 ! A19   A(2,4,9)              115.6486         estimate D2E/DX2                !
 ! A20   A(2,4,10)             110.3148         estimate D2E/DX2                !
 ! A21   A(2,4,23)             106.8839         estimate D2E/DX2                !
 ! A22   A(9,4,10)             109.6552         estimate D2E/DX2                !
 ! A23   A(9,4,23)             107.363          estimate D2E/DX2                !
 ! A24   A(10,4,23)            106.5076         estimate D2E/DX2                !
 ! A25   A(3,7,11)             113.3345         estimate D2E/DX2                !
 ! A26   A(3,7,12)             109.4716         estimate D2E/DX2                !
 ! A27   A(3,7,15)             109.936          estimate D2E/DX2                !
 ! A28   A(11,7,12)            107.4734         estimate D2E/DX2                !
 ! A29   A(11,7,15)            109.9657         estimate D2E/DX2                !
 ! A30   A(12,7,15)            106.3967         estimate D2E/DX2                !
 ! A31   A(4,9,13)             111.5701         estimate D2E/DX2                !
 ! A32   A(4,9,14)             111.9876         estimate D2E/DX2                !
 ! A33   A(4,9,25)             107.6818         estimate D2E/DX2                !
 ! A34   A(13,9,14)            110.2252         estimate D2E/DX2                !
 ! A35   A(13,9,25)            107.2833         estimate D2E/DX2                !
 ! A36   A(14,9,25)            107.8752         estimate D2E/DX2                !
 ! A37   A(7,15,16)            105.331          estimate D2E/DX2                !
 ! A38   A(3,17,18)            105.8264         estimate D2E/DX2                !
 ! A39   A(1,19,20)            104.9433         estimate D2E/DX2                !
 ! A40   A(2,21,22)            104.4847         estimate D2E/DX2                !
 ! A41   A(4,23,24)            103.9081         estimate D2E/DX2                !
 ! A42   A(9,25,26)            106.1418         estimate D2E/DX2                !
 ! D1    D(3,1,2,4)            169.2682         estimate D2E/DX2                !
 ! D2    D(3,1,2,5)             48.5758         estimate D2E/DX2                !
 ! D3    D(3,1,2,21)           -67.6739         estimate D2E/DX2                !
 ! D4    D(6,1,2,4)             49.0611         estimate D2E/DX2                !
 ! D5    D(6,1,2,5)            -71.6313         estimate D2E/DX2                !
 ! D6    D(6,1,2,21)           172.119          estimate D2E/DX2                !
 ! D7    D(19,1,2,4)           -66.8346         estimate D2E/DX2                !
 ! D8    D(19,1,2,5)           172.473          estimate D2E/DX2                !
 ! D9    D(19,1,2,21)           56.2233         estimate D2E/DX2                !
 ! D10   D(2,1,3,7)             59.0909         estimate D2E/DX2                !
 ! D11   D(2,1,3,8)            -65.1217         estimate D2E/DX2                !
 ! D12   D(2,1,3,17)           179.2359         estimate D2E/DX2                !
 ! D13   D(6,1,3,7)            179.8946         estimate D2E/DX2                !
 ! D14   D(6,1,3,8)             55.682          estimate D2E/DX2                !
 ! D15   D(6,1,3,17)           -59.9604         estimate D2E/DX2                !
 ! D16   D(19,1,3,7)           -65.5682         estimate D2E/DX2                !
 ! D17   D(19,1,3,8)           170.2193         estimate D2E/DX2                !
 ! D18   D(19,1,3,17)           54.5768         estimate D2E/DX2                !
 ! D19   D(2,1,19,20)         -174.8236         estimate D2E/DX2                !
 ! D20   D(3,1,19,20)          -48.3644         estimate D2E/DX2                !
 ! D21   D(6,1,19,20)           67.4237         estimate D2E/DX2                !
 ! D22   D(1,2,4,9)             61.4839         estimate D2E/DX2                !
 ! D23   D(1,2,4,10)           -63.66           estimate D2E/DX2                !
 ! D24   D(1,2,4,23)          -179.0641         estimate D2E/DX2                !
 ! D25   D(5,2,4,9)           -177.3111         estimate D2E/DX2                !
 ! D26   D(5,2,4,10)            57.5451         estimate D2E/DX2                !
 ! D27   D(5,2,4,23)           -57.8591         estimate D2E/DX2                !
 ! D28   D(21,2,4,9)           -62.9684         estimate D2E/DX2                !
 ! D29   D(21,2,4,10)          171.8878         estimate D2E/DX2                !
 ! D30   D(21,2,4,23)           56.4837         estimate D2E/DX2                !
 ! D31   D(1,2,21,22)         -170.1215         estimate D2E/DX2                !
 ! D32   D(4,2,21,22)          -43.8986         estimate D2E/DX2                !
 ! D33   D(5,2,21,22)           71.7983         estimate D2E/DX2                !
 ! D34   D(1,3,7,11)           -63.5484         estimate D2E/DX2                !
 ! D35   D(1,3,7,12)           176.4934         estimate D2E/DX2                !
 ! D36   D(1,3,7,15)            59.9589         estimate D2E/DX2                !
 ! D37   D(8,3,7,11)            60.7937         estimate D2E/DX2                !
 ! D38   D(8,3,7,12)           -59.1645         estimate D2E/DX2                !
 ! D39   D(8,3,7,15)          -175.6989         estimate D2E/DX2                !
 ! D40   D(17,3,7,11)          177.0282         estimate D2E/DX2                !
 ! D41   D(17,3,7,12)           57.0701         estimate D2E/DX2                !
 ! D42   D(17,3,7,15)          -59.4644         estimate D2E/DX2                !
 ! D43   D(1,3,17,18)         -105.9108         estimate D2E/DX2                !
 ! D44   D(7,3,17,18)           19.7446         estimate D2E/DX2                !
 ! D45   D(8,3,17,18)          137.1114         estimate D2E/DX2                !
 ! D46   D(2,4,9,13)            53.5012         estimate D2E/DX2                !
 ! D47   D(2,4,9,14)           -70.5911         estimate D2E/DX2                !
 ! D48   D(2,4,9,25)           170.9745         estimate D2E/DX2                !
 ! D49   D(10,4,9,13)          178.9836         estimate D2E/DX2                !
 ! D50   D(10,4,9,14)           54.8914         estimate D2E/DX2                !
 ! D51   D(10,4,9,25)          -63.5431         estimate D2E/DX2                !
 ! D52   D(23,4,9,13)          -65.688          estimate D2E/DX2                !
 ! D53   D(23,4,9,14)          170.2198         estimate D2E/DX2                !
 ! D54   D(23,4,9,25)           51.7853         estimate D2E/DX2                !
 ! D55   D(2,4,23,24)         -167.704          estimate D2E/DX2                !
 ! D56   D(9,4,23,24)          -43.0341         estimate D2E/DX2                !
 ! D57   D(10,4,23,24)          74.3679         estimate D2E/DX2                !
 ! D58   D(3,7,15,16)          -66.9524         estimate D2E/DX2                !
 ! D59   D(11,7,15,16)          58.5024         estimate D2E/DX2                !
 ! D60   D(12,7,15,16)         174.6004         estimate D2E/DX2                !
 ! D61   D(4,9,25,26)          179.3036         estimate D2E/DX2                !
 ! D62   D(13,9,25,26)         -60.4774         estimate D2E/DX2                !
 ! D63   D(14,9,25,26)          58.2583         estimate D2E/DX2                !
 --------------------------------------------------------------------------------
 Trust Radius=3.00D-01 FncErr=1.00D-07 GrdErr=1.00D-06 EigMax=2.50D+02 EigMin=1.00D-04
 Number of steps in this run=    140 maximum allowed number of steps=    156.
 GradGradGradGradGradGradGradGradGradGradGradGradGradGradGradGradGradGrad

                          Input orientation:                          
 ---------------------------------------------------------------------
 Center     Atomic      Atomic             Coordinates (Angstroms)
 Number     Number       Type             X           Y           Z
 ---------------------------------------------------------------------
      1          6           0        0.000000    0.000000    0.000000
      2          6           0        1.537700    0.000000    0.000000
      3          6           0       -0.627800    0.935400   -1.060100
      4          6           0        2.166500   -0.717100    1.208100
      5          1           0        1.893000    1.038200    0.000000
      6          1           0       -0.353600    0.327400    0.986000
      7          6           0       -0.260900    0.655400   -2.524500
      8          1           0       -0.377600    1.974600   -0.820600
      9          6           0        1.835600   -2.207100    1.340800
     10          1           0        1.905700   -0.197400    2.137100
     11          1           0        0.802400    0.786700   -2.736800
     12          1           0       -0.813500    1.340200   -3.176700
     13          1           0        2.067700   -2.754100    0.422000
     14          1           0        0.793800   -2.370900    1.624800
     15          8           0       -0.670600   -0.663000   -2.885200
     16          1           0       -0.104000   -1.264900   -2.355600
     17          8           0       -2.061800    0.796100   -0.930200
     18          1           0       -2.349600    0.264000   -1.701300
     19          8           0       -0.510900   -1.332000   -0.176000
     20          1           0       -1.480400   -1.222900   -0.247600
     21          8           0        2.054900   -0.592900   -1.202300
     22          1           0        3.016000   -0.691300   -1.033500
     23          8           0        3.601300   -0.604800    1.063200
     24          1           0        3.955500   -1.235400    1.726700
     25          8           0        2.666000   -2.747400    2.380300
     26          1           0        2.429900   -3.690100    2.453200
 ---------------------------------------------------------------------
                    Distance matrix (angstroms):
                    1          2          3          4          5
     1  C    0.000000
     2  C    1.537700   0.000000
     3  C    1.546906   2.586151   0.000000
     4  C    2.582143   1.539197   3.960253   0.000000
     5  H    2.159006   1.097314   2.736569   2.148345   0.000000
     6  H    1.097461   2.157870   2.152063   2.737008   2.554338
     7  C    2.621205   3.168219   1.535410   4.659220   3.340497
     8  H    2.171408   2.870680   1.095398   4.222951   2.589566
     9  C    3.168353   2.599573   4.659181   1.532059   3.511839
    10  H    2.870166   2.177519   4.233668   1.095968   2.468616
    11  H    2.958516   2.941027   2.208825   4.436713   2.956812
    12  H    3.542505   4.173212   2.162948   5.686770   4.184229
    13  H    3.469659   2.836204   4.803619   2.185654   3.819705
    14  H    2.981822   2.968927   4.490129   2.189292   3.933215
    15  O    3.035400   3.693310   2.426459   4.980679   4.217879
    16  H    2.675750   3.137515   2.606532   4.260893   3.852419
    17  O    2.397930   3.802032   1.446594   4.973995   4.069930
    18  H    2.912857   4.251496   1.956147   5.460982   4.636104
    19  O    1.437435   2.449890   2.436473   3.076086   3.380467
    20  H    1.936072   3.265841   2.458728   3.959138   4.068625
    21  O    2.453502   1.436855   3.090761   2.416176   2.032787
    22  H    3.262250   1.931680   3.990506   2.397308   2.306604
    23  O    3.803359   2.398879   4.976536   1.446464   2.597717
    24  H    4.489286   3.217680   5.786645   1.933417   3.522024
    25  O    4.507948   3.806192   6.020672   2.397013   4.538075
    26  H    5.053656   4.520072   6.564149   3.233942   5.353809
                    6          7          8          9         10
     6  H    0.000000
     7  C    3.527008   0.000000
     8  H    2.444923   2.158051   0.000000
     9  C    3.367814   5.246881   5.201588   0.000000
    10  H    2.589379   5.210752   4.321925   2.162846   0.000000
    11  H    3.925116   1.092208   2.544667   5.163057   5.093194
    12  H    4.308752   1.095300   2.478645   6.325257   6.163987
    13  H    3.959347   5.072369   5.466640   1.094200   3.082941
    14  H    3.000902   5.242859   5.122063   1.092169   2.494569
    15  O    4.008437   1.426933   3.362344   5.150181   5.663709
    16  H    3.709988   1.934088   3.595197   4.279388   5.036150
    17  O    2.609492   2.409321   2.058496   5.419075   5.112380
    18  H    3.348077   2.278930   2.755099   5.733813   5.749242
    19  O    2.031895   3.086699   3.371481   2.927891   3.532379
    20  H    2.279227   3.193660   3.430525   3.806248   4.266628
    21  O    3.381787   2.944384   3.557360   3.020115   3.366047
    22  H    4.058366   3.843794   4.320749   3.054226   3.395498
    23  O    4.064012   5.419989   5.102318   2.400442   2.047998
    24  H    4.643202   6.279001   5.963941   2.363704   2.333999
    25  O    4.529509   6.648523   6.465798   1.435983   2.672022
    26  H    5.103024   7.134513   7.119596   1.946770   3.545935
                   11         12         13         14         15
    11  H    0.000000
    12  H    1.763805   0.000000
    13  H    4.910832   6.165651   0.000000
    14  H    5.384614   6.277745   1.793430   0.000000
    15  O    2.072048   2.029336   4.775831   5.039989   0.000000
    16  H    2.275069   2.822081   3.827409   4.227631   0.981731
    17  O    3.386375   2.626987   5.611162   4.971153   2.808280
    18  H    3.358657   2.386339   5.755855   5.280777   2.253883
    19  O    3.573702   4.029444   3.004854   2.454473   2.795144
    20  H    3.930113   3.948907   3.921983   3.161609   2.815350
    21  O    2.413865   3.982819   2.703572   3.569895   3.203969
    22  H    3.160022   4.835842   2.696831   3.850427   4.125605
    23  O    4.920377   6.422635   2.717086   3.364010   5.817420
    24  H    5.826986   7.308927   2.751814   3.360966   6.557291
    25  O    6.492117   7.726296   2.047669   2.053696   6.572908
    26  H    7.044615   8.217015   2.265625   2.259061   6.875678
                   16         17         18         19         20
    16  H    0.000000
    17  O    3.180011   0.000000
    18  H    2.794345   0.980079   0.000000
    19  O    2.218271   2.739145   2.873077   0.000000
    20  H    2.517917   2.209147   2.253802   0.978243   0.000000
    21  O    2.538215   4.353226   4.514742   2.860575   3.715737
    22  H    3.436767   5.292172   5.490739   3.685760   4.595416
    23  O    5.084602   6.164971   6.618949   4.355987   5.284309
    24  H    5.757220   6.884331   7.331689   4.855752   5.783340
    25  O    5.683261   6.772584   7.133318   4.316332   5.140291
    26  H    5.952042   7.193661   7.465815   4.595828   5.354609
                   21         22         23         24         25
    21  O    0.000000
    22  H    0.980760   0.000000
    23  O    2.742988   2.178580   0.000000
    24  H    3.550229   2.966043   0.981502   0.000000
    25  O    4.224966   4.000510   2.683332   2.091924   0.000000
    26  H    4.805825   4.636097   3.580971   2.980069   0.974547
                   26
    26  H    0.000000
 Stoichiometry    C6H14O6
 Framework group  C1[X(C6H14O6)]
 Deg. of freedom    72
 Full point group                 C1      NOp   1
 Largest Abelian subgroup         C1      NOp   1
 Largest concise Abelian subgroup C1      NOp   1
                         Standard orientation:                         
 ---------------------------------------------------------------------
 Center     Atomic      Atomic             Coordinates (Angstroms)
 Number     Number       Type             X           Y           Z
 ---------------------------------------------------------------------
      1          6           0        0.633370   -0.475455   -0.655116
      2          6           0       -0.413624    0.647371   -0.567999
      3          6           0        2.081660    0.030628   -0.853242
      4          6           0       -1.870512    0.155065   -0.633115
      5          1           0       -0.255007    1.346324   -1.398903
      6          1           0        0.386613   -1.123819   -1.505501
      7          6           0        2.635472    0.965325    0.231708
      8          1           0        2.163125    0.524823   -1.827425
      9          6           0       -2.302657   -0.788502    0.493889
     10          1           0       -2.070780   -0.313561   -1.603387
     11          1           0        2.094310    1.911181    0.305321
     12          1           0        3.681944    1.201482    0.010781
     13          1           0       -2.099729   -0.357860    1.479100
     14          1           0       -1.833309   -1.770868    0.407269
     15          8           0        2.630346    0.301463    1.494799
     16          1           0        1.682648    0.176372    1.718441
     17          8           0        2.923436   -1.145109   -0.894335
     18          1           0        3.394154   -1.166998   -0.034974
     19          8           0        0.576918   -1.318020    0.508119
     20          1           0        1.323699   -1.941363    0.404569
     21          8           0       -0.246033    1.418794    0.632572
     22          1           0       -1.043477    1.988407    0.671475
     23          8           0       -2.713911    1.328001   -0.561295
     24          1           0       -3.611420    0.963858   -0.402477
     25          8           0       -3.723641   -0.968336    0.391362
     26          1           0       -3.971959   -1.578915    1.109186
 ---------------------------------------------------------------------
 Rotational constants (GHZ):           1.7602766           0.4892539           0.4596154
 Standard basis: def2TZVPP (5D, 7F)
 There are   642 symmetry adapted cartesian basis functions of A   symmetry.
 There are   568 symmetry adapted basis functions of A   symmetry.
   568 basis functions,   850 primitive gaussians,   642 cartesian basis functions
    49 alpha electrons       49 beta electrons
       nuclear repulsion energy       832.4586138687 Hartrees.
 NAtoms=   26 NActive=   26 NUniq=   26 SFac= 1.00D+00 NAtFMM=   60 NAOKFM=F Big=F
 Integral buffers will be    131072 words long.
 Raffenetti 2 integral format.
 Two-electron integral symmetry is turned on.
 Nuclear repulsion after empirical dispersion term =      832.4400042693 Hartrees.
 One-electron integrals computed using PRISM.
   1 Symmetry operations used in ECPInt.
 ECPInt:  NShTT=   23436 NPrTT=   62434 LenC2=   21830 LenP2D=   45412.
 LDataN:  DoStor=T MaxTD1= 6 Len=  172
 NBasis=   568 RedAO= T EigKep=  4.63D-05  NBF=   568
 NBsUse=   568 1.00D-06 EigRej= -1.00D+00 NBFU=   568
 ExpMin= 9.52D-02 ExpMax= 2.70D+04 ExpMxC= 9.22D+02 IAcc=3 IRadAn=         5 AccDes= 0.00D+00
 Harris functional with IExCor= 4639 and IRadAn=       5 diagonalized for initial guess.
 HarFok:  IExCor= 4639 AccDes= 0.00D+00 IRadAn=         5 IDoV= 1 UseB2=F ITyADJ=14
 ICtDFT=  3500011 ScaDFX=  1.000000  1.000000  1.000000  1.000000
 FoFCou: FMM=F IPFlag=           0 FMFlag=      100000 FMFlg1=           0
         NFxFlg=           0 DoJE=T BraDBF=F KetDBF=T FulRan=T
         wScrn=  0.000000 ICntrl=       500 IOpCl=  0 I1Cent=   200000004 NGrid=           0
         NMat0=    1 NMatS0=      1 NMatT0=    0 NMatD0=    1 NMtDS0=    0 NMtDT0=    0
 Petite list used in FoFCou.
 Requested convergence on RMS density matrix=1.00D-08 within 128 cycles.
 Requested convergence on MAX density matrix=1.00D-06.
 Requested convergence on             energy=1.00D-06.
 No special actions if energy rises.
 Integral accuracy reduced to 1.0D-05 until final iterations.
 Initial convergence to 1.0D-05 achieved.  Increase integral accuracy.
 SCF Done:  E(RwB97XD) =  -688.468316206     A.U. after   13 cycles
            NFock= 13  Conv=0.91D-08     -V/T= 2.0050

 **********************************************************************

            Population analysis using the SCF Density.

 **********************************************************************

 Orbital symmetries:
       Occupied  (A) (A) (A) (A) (A) (A) (A) (A) (A) (A) (A) (A)
                 (A) (A) (A) (A) (A) (A) (A) (A) (A) (A) (A) (A)
                 (A) (A) (A) (A) (A) (A) (A) (A) (A) (A) (A) (A)
                 (A) (A) (A) (A) (A) (A) (A) (A) (A) (A) (A) (A)
                 (A)
       Virtual   (A) (A) (A) (A) (A) (A) (A) (A) (A) (A) (A) (A)
                 (A) (A) (A) (A) (A) (A) (A) (A) (A) (A) (A) (A)
                 (A) (A) (A) (A) (A) (A) (A) (A) (A) (A) (A) (A)
                 (A) (A) (A) (A) (A) (A) (A) (A) (A) (A) (A) (A)
                 (A) (A) (A) (A) (A) (A) (A) (A) (A) (A) (A) (A)
                 (A) (A) (A) (A) (A) (A) (A) (A) (A) (A) (A) (A)
                 (A) (A) (A) (A) (A) (A) (A) (A) (A) (A) (A) (A)
                 (A) (A) (A) (A) (A) (A) (A) (A) (A) (A) (A) (A)
                 (A) (A) (A) (A) (A) (A) (A) (A) (A) (A) (A) (A)
                 (A) (A) (A) (A) (A) (A) (A) (A) (A) (A) (A) (A)
                 (A) (A) (A) (A) (A) (A) (A) (A) (A) (A) (A) (A)
                 (A) (A) (A) (A) (A) (A) (A) (A) (A) (A) (A) (A)
                 (A) (A) (A) (A) (A) (A) (A) (A) (A) (A) (A) (A)
                 (A) (A) (A) (A) (A) (A) (A) (A) (A) (A) (A) (A)
                 (A) (A) (A) (A) (A) (A) (A) (A) (A) (A) (A) (A)
                 (A) (A) (A) (A) (A) (A) (A) (A) (A) (A) (A) (A)
                 (A) (A) (A) (A) (A) (A) (A) (A) (A) (A) (A) (A)
                 (A) (A) (A) (A) (A) (A) (A) (A) (A) (A) (A) (A)
                 (A) (A) (A) (A) (A) (A) (A) (A) (A) (A) (A) (A)
                 (A) (A) (A) (A) (A) (A) (A) (A) (A) (A) (A) (A)
                 (A) (A) (A) (A) (A) (A) (A) (A) (A) (A) (A) (A)
                 (A) (A) (A) (A) (A) (A) (A) (A) (A) (A) (A) (A)
                 (A) (A) (A) (A) (A) (A) (A) (A) (A) (A) (A) (A)
                 (A) (A) (A) (A) (A) (A) (A) (A) (A) (A) (A) (A)
                 (A) (A) (A) (A) (A) (A) (A) (A) (A) (A) (A) (A)
                 (A) (A) (A) (A) (A) (A) (A) (A) (A) (A) (A) (A)
                 (A) (A) (A) (A) (A) (A) (A) (A) (A) (A) (A) (A)
                 (A) (A) (A) (A) (A) (A) (A) (A) (A) (A) (A) (A)
                 (A) (A) (A) (A) (A) (A) (A) (A) (A) (A) (A) (A)
                 (A) (A) (A) (A) (A) (A) (A) (A) (A) (A) (A) (A)
                 (A) (A) (A) (A) (A) (A) (A) (A) (A) (A) (A) (A)
                 (A) (A) (A) (A) (A) (A) (A) (A) (A) (A) (A) (A)
                 (A) (A) (A) (A) (A) (A) (A) (A) (A) (A) (A) (A)
                 (A) (A) (A) (A) (A) (A) (A) (A) (A) (A) (A) (A)
                 (A) (A) (A) (A) (A) (A) (A) (A) (A) (A) (A) (A)
                 (A) (A) (A) (A) (A) (A) (A) (A) (A) (A) (A) (A)
                 (A) (A) (A) (A) (A) (A) (A) (A) (A) (A) (A) (A)
                 (A) (A) (A) (A) (A) (A) (A) (A) (A) (A) (A) (A)
                 (A) (A) (A) (A) (A) (A) (A) (A) (A) (A) (A) (A)
                 (A) (A) (A) (A) (A) (A) (A) (A) (A) (A) (A) (A)
                 (A) (A) (A) (A) (A) (A) (A) (A) (A) (A) (A) (A)
                 (A) (A) (A) (A) (A) (A) (A) (A) (A) (A) (A) (A)
                 (A) (A) (A) (A) (A) (A) (A) (A) (A) (A) (A) (A)
                 (A) (A) (A)
 The electronic state is 1-A.
 Alpha  occ. eigenvalues --  -19.26513 -19.25960 -19.25880 -19.25870 -19.25800
 Alpha  occ. eigenvalues --  -19.24542 -10.35610 -10.35360 -10.35007 -10.34688
 Alpha  occ. eigenvalues --  -10.33506 -10.33043  -1.15568  -1.14741  -1.13094
 Alpha  occ. eigenvalues --   -1.11807  -1.10999  -1.10586  -0.89035  -0.85091
 Alpha  occ. eigenvalues --   -0.80254  -0.75515  -0.70975  -0.67330  -0.63495
 Alpha  occ. eigenvalues --   -0.62702  -0.60601  -0.59996  -0.58356  -0.58264
 Alpha  occ. eigenvalues --   -0.57139  -0.55160  -0.53345  -0.52274  -0.51296
 Alpha  occ. eigenvalues --   -0.49654  -0.49183  -0.46321  -0.45226  -0.44665
 Alpha  occ. eigenvalues --   -0.43724  -0.42798  -0.42494  -0.38857  -0.38060
 Alpha  occ. eigenvalues --   -0.37810  -0.37133  -0.36452  -0.34689
 Alpha virt. eigenvalues --    0.09052   0.09836   0.11522   0.13059   0.14143
 Alpha virt. eigenvalues --    0.14957   0.16323   0.16802   0.17835   0.18381
 Alpha virt. eigenvalues --    0.19202   0.19476   0.20495   0.20781   0.21023
 Alpha virt. eigenvalues --    0.22289   0.23583   0.24108   0.24899   0.26765
 Alpha virt. eigenvalues --    0.27298   0.29424   0.29924   0.30919   0.33391
 Alpha virt. eigenvalues --    0.35250   0.35336   0.37051   0.37552   0.38565
 Alpha virt. eigenvalues --    0.39610   0.39805   0.40241   0.40969   0.41354
 Alpha virt. eigenvalues --    0.41993   0.43053   0.43699   0.44266   0.44596
 Alpha virt. eigenvalues --    0.45027   0.45942   0.46259   0.47014   0.47772
 Alpha virt. eigenvalues --    0.48518   0.48987   0.49913   0.50781   0.51180
 Alpha virt. eigenvalues --    0.51380   0.52217   0.52974   0.54261   0.54905
 Alpha virt. eigenvalues --    0.56253   0.56515   0.57625   0.58205   0.59606
 Alpha virt. eigenvalues --    0.59931   0.60981   0.62687   0.63397   0.64395
 Alpha virt. eigenvalues --    0.65558   0.66017   0.66376   0.67981   0.69259
 Alpha virt. eigenvalues --    0.69663   0.70584   0.71252   0.72163   0.73370
 Alpha virt. eigenvalues --    0.73494   0.75795   0.76017   0.78032   0.79088
 Alpha virt. eigenvalues --    0.81704   0.82665   0.83561   0.84061   0.85513
 Alpha virt. eigenvalues --    0.86315   0.87699   0.89478   0.90397   0.91446
 Alpha virt. eigenvalues --    0.93156   0.94027   0.94589   0.95763   0.97227
 Alpha virt. eigenvalues --    0.97578   0.98056   0.98527   0.99609   1.01712
 Alpha virt. eigenvalues --    1.03814   1.04778   1.05073   1.06258   1.06793
 Alpha virt. eigenvalues --    1.07786   1.09187   1.10500   1.11753   1.12011
 Alpha virt. eigenvalues --    1.13877   1.14427   1.15164   1.17485   1.18214
 Alpha virt. eigenvalues --    1.20305   1.20892   1.21699   1.23732   1.24650
 Alpha virt. eigenvalues --    1.26658   1.28011   1.28432   1.29262   1.30362
 Alpha virt. eigenvalues --    1.31592   1.31894   1.32428   1.33572   1.34540
 Alpha virt. eigenvalues --    1.36284   1.37368   1.39329   1.40304   1.41570
 Alpha virt. eigenvalues --    1.41753   1.43566   1.44542   1.45251   1.47612
 Alpha virt. eigenvalues --    1.48225   1.48458   1.49256   1.50477   1.51567
 Alpha virt. eigenvalues --    1.53037   1.53654   1.54395   1.55664   1.57802
 Alpha virt. eigenvalues --    1.58005   1.60322   1.61613   1.62727   1.63825
 Alpha virt. eigenvalues --    1.66303   1.67375   1.68735   1.70435   1.73191
 Alpha virt. eigenvalues --    1.74108   1.76117   1.78789   1.79720   1.82485
 Alpha virt. eigenvalues --    1.85654   1.87714   1.91052   1.91328   1.93056
 Alpha virt. eigenvalues --    1.94153   1.94978   1.96873   1.98337   2.00113
 Alpha virt. eigenvalues --    2.01121   2.02503   2.03611   2.04228   2.05067
 Alpha virt. eigenvalues --    2.05721   2.06149   2.08010   2.10399   2.11889
 Alpha virt. eigenvalues --    2.13010   2.13810   2.15467   2.18162   2.18708
 Alpha virt. eigenvalues --    2.19809   2.20261   2.22288   2.23005   2.27113
 Alpha virt. eigenvalues --    2.28214   2.29011   2.31138   2.32587   2.33261
 Alpha virt. eigenvalues --    2.35566   2.36097   2.37594   2.39911   2.43389
 Alpha virt. eigenvalues --    2.45080   2.46296   2.47664   2.50498   2.54707
 Alpha virt. eigenvalues --    2.56596   2.57870   2.58611   2.62241   2.64613
 Alpha virt. eigenvalues --    2.65518   2.67026   2.68164   2.68962   2.70419
 Alpha virt. eigenvalues --    2.72079   2.73226   2.74777   2.76170   2.77580
 Alpha virt. eigenvalues --    2.78746   2.79627   2.80838   2.81869   2.84087
 Alpha virt. eigenvalues --    2.85080   2.86364   2.87404   2.88725   2.91046
 Alpha virt. eigenvalues --    2.93381   2.94912   2.96168   2.98154   2.99129
 Alpha virt. eigenvalues --    3.00371   3.00944   3.01517   3.02457   3.03626
 Alpha virt. eigenvalues --    3.06030   3.06494   3.07624   3.09361   3.10018
 Alpha virt. eigenvalues --    3.12033   3.13163   3.14191   3.15869   3.16711
 Alpha virt. eigenvalues --    3.17307   3.18926   3.20376   3.21636   3.22935
 Alpha virt. eigenvalues --    3.23160   3.23461   3.24611   3.26484   3.27568
 Alpha virt. eigenvalues --    3.29834   3.30182   3.30688   3.32395   3.33122
 Alpha virt. eigenvalues --    3.33851   3.34677   3.35058   3.37759   3.38175
 Alpha virt. eigenvalues --    3.38895   3.39787   3.40919   3.41267   3.43123
 Alpha virt. eigenvalues --    3.43718   3.44912   3.45956   3.46321   3.47579
 Alpha virt. eigenvalues --    3.49450   3.50106   3.51814   3.52415   3.53589
 Alpha virt. eigenvalues --    3.54456   3.54970   3.56771   3.58357   3.58940
 Alpha virt. eigenvalues --    3.60336   3.62343   3.63379   3.65027   3.66066
 Alpha virt. eigenvalues --    3.67344   3.69283   3.69462   3.70415   3.71486
 Alpha virt. eigenvalues --    3.71998   3.73165   3.75137   3.76797   3.77481
 Alpha virt. eigenvalues --    3.78413   3.79319   3.80356   3.82586   3.84118
 Alpha virt. eigenvalues --    3.84261   3.86924   3.88268   3.90642   3.91093
 Alpha virt. eigenvalues --    3.91793   3.92859   3.93931   3.94627   3.95221
 Alpha virt. eigenvalues --    3.97418   3.98248   3.99300   3.99895   4.00844
 Alpha virt. eigenvalues --    4.01863   4.03092   4.04593   4.05792   4.06581
 Alpha virt. eigenvalues --    4.07648   4.08304   4.09025   4.11854   4.13076
 Alpha virt. eigenvalues --    4.14237   4.14560   4.15379   4.16235   4.16800
 Alpha virt. eigenvalues --    4.19470   4.21005   4.21525   4.22141   4.23052
 Alpha virt. eigenvalues --    4.24786   4.25519   4.26300   4.26497   4.27287
 Alpha virt. eigenvalues --    4.29066   4.30252   4.32725   4.34128   4.34888
 Alpha virt. eigenvalues --    4.35750   4.36170   4.37240   4.39092   4.39826
 Alpha virt. eigenvalues --    4.40913   4.42118   4.44279   4.45482   4.46490
 Alpha virt. eigenvalues --    4.47054   4.48878   4.51113   4.53423   4.54733
 Alpha virt. eigenvalues --    4.55543   4.55803   4.57194   4.59415   4.62793
 Alpha virt. eigenvalues --    4.63779   4.64491   4.65647   4.68131   4.68448
 Alpha virt. eigenvalues --    4.71056   4.76885   4.77407   4.78835   4.80651
 Alpha virt. eigenvalues --    4.81573   4.83510   4.86597   4.88179   4.89005
 Alpha virt. eigenvalues --    4.92042   4.92919   4.93858   4.95109   4.95809
 Alpha virt. eigenvalues --    4.96672   4.98875   5.01198   5.02851   5.02960
 Alpha virt. eigenvalues --    5.04338   5.06345   5.09512   5.09774   5.12491
 Alpha virt. eigenvalues --    5.12982   5.14544   5.15946   5.16730   5.18982
 Alpha virt. eigenvalues --    5.20145   5.23518   5.24085   5.25978   5.26453
 Alpha virt. eigenvalues --    5.30148   5.30921   5.33907   5.40081   5.41636
 Alpha virt. eigenvalues --    5.43518   5.48408   5.54835   5.56136   5.58488
 Alpha virt. eigenvalues --    5.60031   5.60955   5.61672   5.65278   5.68150
 Alpha virt. eigenvalues --    5.69803   5.70355   5.71126   5.72874   5.74559
 Alpha virt. eigenvalues --    5.76468   5.78896   5.81904   5.83163   5.85914
 Alpha virt. eigenvalues --    5.86493   5.87668   5.91459   5.94245   5.97248
 Alpha virt. eigenvalues --    6.00317   6.02804   6.04692   6.11850   6.14063
 Alpha virt. eigenvalues --    6.14681   6.16455   6.18622   6.21243   6.52457
 Alpha virt. eigenvalues --    6.53176   6.55544   6.56819   6.57106   6.58747
 Alpha virt. eigenvalues --    6.71240   6.72350   6.74769   6.75155   6.76348
 Alpha virt. eigenvalues --    6.76971   6.78082   6.78476   6.79809   6.80118
 Alpha virt. eigenvalues --    6.81720   6.82525   6.85232   6.86665   6.87437
 Alpha virt. eigenvalues --    6.91164   6.92636   6.94532   6.96151   7.01666
 Alpha virt. eigenvalues --    7.02620   7.04890   7.05610   7.06768   7.16480
 Alpha virt. eigenvalues --    7.19086   7.20299   7.21976   7.22693   7.28951
 Alpha virt. eigenvalues --    7.37526   7.41100   7.42785   7.44589   7.45864
 Alpha virt. eigenvalues --    7.48369   7.49563   7.56549   7.57231   7.60463
 Alpha virt. eigenvalues --    7.61205   7.68071  23.11157  23.13455  23.18792
 Alpha virt. eigenvalues --   23.21611  23.44210  23.46558  44.12876  44.15159
 Alpha virt. eigenvalues --   44.24976  44.26582  44.33949  44.38955
          Condensed to atoms (all electrons):
               1          2          3          4          5          6
     1  C    5.203475   0.111728   0.193359   0.029371  -0.040584   0.416276
     2  C    0.111728   5.120307   0.021508   0.165045   0.434687  -0.027295
     3  C    0.193359   0.021508   4.862919  -0.015399  -0.007037  -0.017711
     4  C    0.029371   0.165045  -0.015399   4.911145  -0.026780  -0.008284
     5  H   -0.040584   0.434687  -0.007037  -0.026780   0.579517   0.003023
     6  H    0.416276  -0.027295  -0.017711  -0.008284   0.003023   0.567015
     7  C   -0.014091   0.015156   0.312082   0.002651   0.000771   0.003574
     8  H   -0.050566  -0.009037   0.441847  -0.000659   0.003040  -0.002649
     9  C    0.010358  -0.005197   0.003243   0.278118   0.007541   0.002118
    10  H   -0.012367  -0.033543  -0.000161   0.433172  -0.004114   0.004180
    11  H   -0.008712  -0.004176  -0.037955  -0.000164  -0.001695  -0.000588
    12  H    0.015484  -0.000653  -0.052107   0.000028  -0.000114  -0.000353
    13  H   -0.009527   0.012813   0.000050  -0.031806   0.000765   0.000312
    14  H    0.002673  -0.019006  -0.000732  -0.013516  -0.000703  -0.001007
    15  O   -0.006031  -0.004762  -0.046436  -0.000098   0.000022  -0.000739
    16  H    0.001035  -0.003876   0.004431  -0.000532   0.000475   0.000788
    17  O   -0.067385   0.004341   0.270617  -0.000363   0.000249   0.003890
    18  H   -0.001691  -0.002080  -0.056284  -0.000046   0.000049  -0.000830
    19  O    0.199915  -0.031689   0.005282  -0.005804   0.002338  -0.032412
    20  H   -0.053548   0.008024   0.011516   0.001677  -0.000403  -0.006393
    21  O   -0.028823   0.230067  -0.010391  -0.007736  -0.036721   0.002762
    22  H    0.004083  -0.041231   0.002444   0.002396  -0.006723  -0.000346
    23  O    0.004567  -0.065595  -0.000088   0.275320   0.001650   0.000124
    24  H   -0.001030   0.008514   0.000002  -0.041452  -0.000369  -0.000002
    25  O   -0.000194   0.006585  -0.000020  -0.072004  -0.000084  -0.000010
    26  H    0.000087  -0.001716  -0.000003   0.011116   0.000039   0.000002
               7          8          9         10         11         12
     1  C   -0.014091  -0.050566   0.010358  -0.012367  -0.008712   0.015484
     2  C    0.015156  -0.009037  -0.005197  -0.033543  -0.004176  -0.000653
     3  C    0.312082   0.441847   0.003243  -0.000161  -0.037955  -0.052107
     4  C    0.002651  -0.000659   0.278118   0.433172  -0.000164   0.000028
     5  H    0.000771   0.003040   0.007541  -0.004114  -0.001695  -0.000114
     6  H    0.003574  -0.002649   0.002118   0.004180  -0.000588  -0.000353
     7  C    4.744474  -0.035205  -0.000539   0.000063   0.430701   0.422664
     8  H   -0.035205   0.588773   0.000133   0.000055   0.001704  -0.005774
     9  C   -0.000539   0.000133   4.789809  -0.045162   0.000215  -0.000004
    10  H    0.000063   0.000055  -0.045162   0.615378  -0.000046  -0.000002
    11  H    0.430701   0.001704   0.000215  -0.000046   0.574198  -0.023685
    12  H    0.422664  -0.005774  -0.000004  -0.000002  -0.023685   0.575370
    13  H    0.000205   0.000001   0.402124   0.009483  -0.000077  -0.000000
    14  H    0.000114  -0.000063   0.417975  -0.005205  -0.000008   0.000003
    15  O    0.245273   0.005119  -0.000013   0.000002  -0.033043  -0.035744
    16  H   -0.040666  -0.000055   0.000209   0.000003  -0.009559   0.007392
    17  O   -0.040175  -0.023506   0.000023  -0.000003   0.004038   0.001042
    18  H   -0.010257   0.006105   0.000033   0.000001   0.002396  -0.001101
    19  O   -0.022369   0.005056  -0.010307   0.000145   0.000201  -0.000898
    20  H   -0.003674   0.001611  -0.001600  -0.000014  -0.000170  -0.000266
    21  O   -0.011983   0.000334  -0.023845   0.004184   0.012920   0.000887
    22  H   -0.001936   0.000049  -0.002609   0.001770   0.000360  -0.000049
    23  O   -0.000019  -0.000002  -0.032725  -0.039601  -0.000019  -0.000001
    24  H    0.000002  -0.000001  -0.007075  -0.003658   0.000003   0.000000
    25  O    0.000001  -0.000000   0.265958   0.005639   0.000000  -0.000000
    26  H    0.000000   0.000000  -0.031729  -0.000125  -0.000000  -0.000000
              13         14         15         16         17         18
     1  C   -0.009527   0.002673  -0.006031   0.001035  -0.067385  -0.001691
     2  C    0.012813  -0.019006  -0.004762  -0.003876   0.004341  -0.002080
     3  C    0.000050  -0.000732  -0.046436   0.004431   0.270617  -0.056284
     4  C   -0.031806  -0.013516  -0.000098  -0.000532  -0.000363  -0.000046
     5  H    0.000765  -0.000703   0.000022   0.000475   0.000249   0.000049
     6  H    0.000312  -0.001007  -0.000739   0.000788   0.003890  -0.000830
     7  C    0.000205   0.000114   0.245273  -0.040666  -0.040175  -0.010257
     8  H    0.000001  -0.000063   0.005119  -0.000055  -0.023506   0.006105
     9  C    0.402124   0.417975  -0.000013   0.000209   0.000023   0.000033
    10  H    0.009483  -0.005205   0.000002   0.000003  -0.000003   0.000001
    11  H   -0.000077  -0.000008  -0.033043  -0.009559   0.004038   0.002396
    12  H   -0.000000   0.000003  -0.035744   0.007392   0.001042  -0.001101
    13  H    0.586134  -0.028580  -0.000034   0.000176   0.000002  -0.000002
    14  H   -0.028580   0.585064   0.000024  -0.000028  -0.000061  -0.000001
    15  O   -0.000034   0.000024   7.949221   0.322130  -0.009136   0.027557
    16  H    0.000176  -0.000028   0.322130   0.470055   0.000100  -0.001836
    17  O    0.000002  -0.000061  -0.009136   0.000100   7.903079   0.329703
    18  H   -0.000002  -0.000001   0.027557  -0.001836   0.329703   0.505534
    19  O    0.000735   0.013313  -0.014100   0.023272  -0.010914   0.001038
    20  H   -0.000029   0.000291   0.003644  -0.002413   0.029517   0.000415
    21  O    0.018170   0.001263  -0.002086   0.010346   0.000019   0.000051
    22  H    0.000252   0.000207   0.000167  -0.000461   0.000013  -0.000005
    23  O   -0.000677   0.004953  -0.000000   0.000003   0.000000  -0.000000
    24  H   -0.001919   0.001882  -0.000000   0.000001  -0.000000   0.000000
    25  O   -0.049505  -0.042690   0.000000   0.000002  -0.000000   0.000000
    26  H   -0.004968  -0.005665   0.000000   0.000001  -0.000000   0.000000
              19         20         21         22         23         24
     1  C    0.199915  -0.053548  -0.028823   0.004083   0.004567  -0.001030
     2  C   -0.031689   0.008024   0.230067  -0.041231  -0.065595   0.008514
     3  C    0.005282   0.011516  -0.010391   0.002444  -0.000088   0.000002
     4  C   -0.005804   0.001677  -0.007736   0.002396   0.275320  -0.041452
     5  H    0.002338  -0.000403  -0.036721  -0.006723   0.001650  -0.000369
     6  H   -0.032412  -0.006393   0.002762  -0.000346   0.000124  -0.000002
     7  C   -0.022369  -0.003674  -0.011983  -0.001936  -0.000019   0.000002
     8  H    0.005056   0.001611   0.000334   0.000049  -0.000002  -0.000001
     9  C   -0.010307  -0.001600  -0.023845  -0.002609  -0.032725  -0.007075
    10  H    0.000145  -0.000014   0.004184   0.001770  -0.039601  -0.003658
    11  H    0.000201  -0.000170   0.012920   0.000360  -0.000019   0.000003
    12  H   -0.000898  -0.000266   0.000887  -0.000049  -0.000001   0.000000
    13  H    0.000735  -0.000029   0.018170   0.000252  -0.000677  -0.001919
    14  H    0.013313   0.000291   0.001263   0.000207   0.004953   0.001882
    15  O   -0.014100   0.003644  -0.002086   0.000167  -0.000000  -0.000000
    16  H    0.023272  -0.002413   0.010346  -0.000461   0.000003   0.000001
    17  O   -0.010914   0.029517   0.000019   0.000013   0.000000  -0.000000
    18  H    0.001038   0.000415   0.000051  -0.000005  -0.000000   0.000000
    19  O    7.954648   0.314149  -0.000984   0.000040   0.000037   0.000005
    20  H    0.314149   0.510040  -0.000256   0.000100   0.000010  -0.000005
    21  O   -0.000984  -0.000256   7.916323   0.325564  -0.013704   0.000189
    22  H    0.000040   0.000100   0.325564   0.492297   0.028629  -0.001369
    23  O    0.000037   0.000010  -0.013704   0.028629   7.917595   0.332075
    24  H    0.000005  -0.000005   0.000189  -0.001369   0.332075   0.474168
    25  O    0.000363  -0.000023   0.000209  -0.000058  -0.012972   0.027877
    26  H    0.000029  -0.000004   0.000081  -0.000010   0.000147  -0.001665
              25         26
     1  C   -0.000194   0.000087
     2  C    0.006585  -0.001716
     3  C   -0.000020  -0.000003
     4  C   -0.072004   0.011116
     5  H   -0.000084   0.000039
     6  H   -0.000010   0.000002
     7  C    0.000001   0.000000
     8  H   -0.000000   0.000000
     9  C    0.265958  -0.031729
    10  H    0.005639  -0.000125
    11  H    0.000000  -0.000000
    12  H   -0.000000  -0.000000
    13  H   -0.049505  -0.004968
    14  H   -0.042690  -0.005665
    15  O    0.000000   0.000000
    16  H    0.000002   0.000001
    17  O   -0.000000  -0.000000
    18  H    0.000000   0.000000
    19  O    0.000363   0.000029
    20  H   -0.000023  -0.000004
    21  O    0.000209   0.000081
    22  H   -0.000058  -0.000010
    23  O   -0.012972   0.000147
    24  H    0.027877  -0.001665
    25  O    7.907842   0.326951
    26  H    0.326951   0.522981
 Mulliken charges:
               1
     1  C    0.102138
     2  C    0.111080
     3  C    0.115025
     4  C    0.114605
     5  H    0.091160
     6  H    0.094556
     7  C    0.003183
     8  H    0.073690
     9  C   -0.017053
    10  H    0.069926
    11  H    0.093163
    12  H    0.097880
    13  H    0.095903
    14  H    0.089503
    15  O   -0.400937
    16  H    0.219008
    17  O   -0.395091
    18  H    0.201252
    19  O   -0.391087
    20  H    0.187804
    21  O   -0.386845
    22  H    0.196426
    23  O   -0.399705
    24  H    0.213830
    25  O   -0.363866
    26  H    0.184451
 Sum of Mulliken charges =  -0.00000
 Mulliken charges with hydrogens summed into heavy atoms:
               1
     1  C    0.196695
     2  C    0.202240
     3  C    0.188715
     4  C    0.184530
     7  C    0.194227
     9  C    0.168353
    15  O   -0.181929
    17  O   -0.193839
    19  O   -0.203283
    21  O   -0.190419
    23  O   -0.185876
    25  O   -0.179415
 Electronic spatial extent (au):  <R**2>=           2539.1668
 Charge=             -0.0000 electrons
 Dipole moment (field-independent basis, Debye):
    X=             -1.4959    Y=             -0.8580    Z=             -0.3003  Tot=              1.7504
 Quadrupole moment (field-independent basis, Debye-Ang):
   XX=            -73.5134   YY=            -69.8656   ZZ=            -73.1900
   XY=              5.0949   XZ=             -6.5290   YZ=             -4.2658
 Traceless Quadrupole moment (field-independent basis, Debye-Ang):
   XX=             -1.3237   YY=              2.3240   ZZ=             -1.0003
   XY=              5.0949   XZ=             -6.5290   YZ=             -4.2658
 Octapole moment (field-independent basis, Debye-Ang**2):
  XXX=            -21.5415  YYY=            -10.1978  ZZZ=              5.5531  XYY=             -3.6114
  XXY=             -9.0659  XXZ=             21.3407  XZZ=            -22.7020  YZZ=             -3.3719
  YYZ=             13.2500  XYZ=             -5.2454
 Hexadecapole moment (field-independent basis, Debye-Ang**3):
 XXXX=          -2156.4549 YYYY=           -456.5366 ZZZZ=           -338.2243 XXXY=             34.2111
 XXXZ=            -69.1342 YYYX=              3.2685 YYYZ=             -7.0791 ZZZX=            -22.7805
 ZZZY=             -8.4841 XXYY=           -417.0513 XXZZ=           -450.6176 YYZZ=           -137.2404
 XXYZ=            -66.5113 YYXZ=            -16.0319 ZZXY=             17.4241
 N-N= 8.324400042693D+02 E-N=-3.282234712332D+03  KE= 6.850213818730D+02
   1 Symmetry operations used in ECPInt.
 ECPInt:  NShTT=   23436 NPrTT=   62434 LenC2=   21830 LenP2D=   45412.
 LDataN:  DoStor=T MaxTD1= 7 Len=  274
 Calling FoFJK, ICntrl=      2127 FMM=F ISym2X=0 I1Cent= 0 IOpClX= 0 NMat=1 NMatS=1 NMatT=0.
 ***** Axes restored to original set *****
 -------------------------------------------------------------------
 Center     Atomic                   Forces (Hartrees/Bohr)
 Number     Number              X              Y              Z
 -------------------------------------------------------------------
      1        6          -0.002125493   -0.010248557   -0.005804300
      2        6           0.006990331   -0.013118213   -0.008465887
      3        6          -0.012492909   -0.000475998   -0.003205096
      4        6           0.014715503   -0.004298261    0.003764310
      5        1          -0.004840927    0.000761809    0.007082343
      6        1           0.005003223    0.006630017   -0.001649007
      7        6          -0.000044244   -0.009131123   -0.001157906
      8        1           0.000052110   -0.001977555    0.000813291
      9        6          -0.001252933   -0.005795017    0.006293937
     10        1          -0.005869843   -0.000752942   -0.001699617
     11        1          -0.000603795    0.001522278    0.005253529
     12        1          -0.000504627   -0.001042563    0.004004485
     13        1          -0.004804481    0.006568247   -0.002983505
     14        1          -0.000177902    0.004511718   -0.005950785
     15        8           0.013835273   -0.002067017    0.007726937
     16        1          -0.013232641    0.009703728   -0.010403694
     17        8           0.007576826   -0.007816970   -0.013871829
     18        1           0.005544539    0.009598218    0.014315119
     19        8          -0.006281855    0.009822588    0.000463283
     20        1           0.017519403   -0.001486136    0.001007265
     21        8           0.009351676    0.000620445    0.012356034
     22        1          -0.018134063    0.000500285   -0.004061562
     23        8          -0.008706771   -0.010810528    0.010657880
     24        1          -0.003911875    0.011781450   -0.015078199
     25        8          -0.005342074   -0.011375587    0.000003916
     26        1           0.007737548    0.018375683    0.000589054
 -------------------------------------------------------------------
 Cartesian Forces:  Max     0.018375683 RMS     0.007946659

 GradGradGradGradGradGradGradGradGradGradGradGradGradGradGradGradGradGrad
 Berny optimization.
 FormGI is forming the generalized inverse of G from B-inverse, IUseBI=4.
 Internal  Forces:  Max     0.019604724 RMS     0.005993078
 Search for a local minimum.
 Step number   1 out of a maximum of  140
 All quantities printed in internal units (Hartrees-Bohrs-Radians)
 Mixed Optimization -- RFO/linear search
 Second derivative matrix not updated -- first step.
 ITU=  0
     Eigenvalues ---    0.00230   0.00247   0.00267   0.00298   0.00342
     Eigenvalues ---    0.01075   0.01077   0.01197   0.01204   0.01216
     Eigenvalues ---    0.01336   0.03734   0.03773   0.03885   0.03900
     Eigenvalues ---    0.04634   0.04636   0.04768   0.04836   0.04869
     Eigenvalues ---    0.05344   0.05489   0.05665   0.07554   0.07599
     Eigenvalues ---    0.07920   0.07922   0.11352   0.11550   0.13577
     Eigenvalues ---    0.13816   0.16000   0.16000   0.16000   0.16000
     Eigenvalues ---    0.16000   0.16000   0.17115   0.17285   0.17303
     Eigenvalues ---    0.17326   0.19339   0.19399   0.20021   0.20086
     Eigenvalues ---    0.21973   0.22032   0.27916   0.28590   0.28724
     Eigenvalues ---    0.28929   0.29234   0.33965   0.33981   0.34132
     Eigenvalues ---    0.34196   0.34207   0.34332   0.34559   0.34563
     Eigenvalues ---    0.38695   0.38712   0.39939   0.40020   0.40141
     Eigenvalues ---    0.41433   0.51050   0.51094   0.51238   0.51370
     Eigenvalues ---    0.51728   0.52459
 RFO step:  Lambda=-1.82524542D-02 EMin= 2.30000000D-03
 Linear search not attempted -- first point.
 Iteration  1 RMS(Cart)=  0.10518900 RMS(Int)=  0.00465560
 Iteration  2 RMS(Cart)=  0.00608148 RMS(Int)=  0.00053081
 Iteration  3 RMS(Cart)=  0.00002346 RMS(Int)=  0.00053048
 Iteration  4 RMS(Cart)=  0.00000000 RMS(Int)=  0.00053048
 Variable       Old X    -DE/DX   Delta X   Delta X   Delta X     New X
                                 (Linear)    (Quad)   (Total)
    R1        2.90583  -0.01425   0.00000  -0.04665  -0.04665   2.85918
    R2        2.92323  -0.00345   0.00000  -0.01161  -0.01161   2.91162
    R3        2.07390  -0.00112   0.00000  -0.00312  -0.00312   2.07078
    R4        2.71636  -0.01190   0.00000  -0.02849  -0.02849   2.68787
    R5        2.90866  -0.01039   0.00000  -0.03415  -0.03415   2.87451
    R6        2.07362  -0.00085   0.00000  -0.00236  -0.00236   2.07126
    R7        2.71526  -0.01057   0.00000  -0.02525  -0.02525   2.69001
    R8        2.90150  -0.00512   0.00000  -0.01664  -0.01664   2.88486
    R9        2.07000  -0.00169   0.00000  -0.00468  -0.00468   2.06532
   R10        2.73367  -0.01314   0.00000  -0.03243  -0.03243   2.70124
   R11        2.89517  -0.01129   0.00000  -0.03636  -0.03636   2.85881
   R12        2.07108  -0.00040   0.00000  -0.00111  -0.00111   2.06997
   R13        2.73342  -0.01200   0.00000  -0.02960  -0.02960   2.70382
   R14        2.06397  -0.00142   0.00000  -0.00392  -0.00392   2.06006
   R15        2.06982  -0.00278   0.00000  -0.00772  -0.00772   2.06210
   R16        2.69651  -0.00655   0.00000  -0.01515  -0.01515   2.68136
   R17        2.06774  -0.00180   0.00000  -0.00497  -0.00497   2.06277
   R18        2.06390  -0.00205   0.00000  -0.00564  -0.00564   2.05826
   R19        2.71362  -0.00082   0.00000  -0.00195  -0.00195   2.71166
   R20        1.85520  -0.01920   0.00000  -0.03631  -0.03631   1.81889
   R21        1.85208  -0.01810   0.00000  -0.03403  -0.03403   1.81805
   R22        1.84861  -0.01760   0.00000  -0.03287  -0.03287   1.81574
   R23        1.85337  -0.01852   0.00000  -0.03490  -0.03490   1.81847
   R24        1.85477  -0.01917   0.00000  -0.03623  -0.03623   1.81854
   R25        1.84163  -0.01960   0.00000  -0.03612  -0.03612   1.80551
    A1        1.98870   0.00030   0.00000  -0.00652  -0.00655   1.98215
    A2        1.89885  -0.00010   0.00000  -0.02273  -0.02300   1.87584
    A3        1.93416  -0.00712   0.00000  -0.03327  -0.03305   1.90112
    A4        1.88026  -0.00326   0.00000  -0.02594  -0.02700   1.85325
    A5        1.90941   0.00699   0.00000   0.04377   0.04367   1.95308
    A6        1.84620   0.00347   0.00000   0.04844   0.04834   1.89453
    A7        1.99163   0.00336   0.00000   0.00593   0.00587   1.99750
    A8        1.90053  -0.00153   0.00000  -0.02603  -0.02610   1.87443
    A9        1.93901  -0.00604   0.00000  -0.02815  -0.02805   1.91096
   A10        1.88443  -0.00344   0.00000  -0.02724  -0.02787   1.85657
   A11        1.89386   0.00303   0.00000   0.02180   0.02179   1.91565
   A12        1.84820   0.00481   0.00000   0.05775   0.05782   1.90602
   A13        2.03349   0.00219   0.00000   0.01524   0.01461   2.04809
   A14        1.90830  -0.00258   0.00000  -0.03553  -0.03552   1.87278
   A15        1.85724  -0.00018   0.00000   0.01441   0.01373   1.87097
   A16        1.90388  -0.00127   0.00000  -0.01940  -0.01943   1.88445
   A17        1.88070   0.00164   0.00000   0.02647   0.02596   1.90665
   A18        1.87354   0.00020   0.00000   0.00012   0.00044   1.87398
   A19        2.01845   0.00106   0.00000  -0.00515  -0.00507   2.01338
   A20        1.92536   0.00049   0.00000  -0.00849  -0.00831   1.91705
   A21        1.86548  -0.00774   0.00000  -0.04493  -0.04470   1.82077
   A22        1.91384  -0.00247   0.00000  -0.01070  -0.01134   1.90251
   A23        1.87384   0.00550   0.00000   0.02866   0.02824   1.90208
   A24        1.85891   0.00346   0.00000   0.04594   0.04569   1.90460
   A25        1.97806  -0.00783   0.00000  -0.04121  -0.04211   1.93595
   A26        1.91064  -0.00397   0.00000  -0.03059  -0.03085   1.87979
   A27        1.91875   0.01088   0.00000   0.04829   0.04854   1.96729
   A28        1.87576   0.00385   0.00000   0.01335   0.01234   1.88810
   A29        1.91926   0.00096   0.00000   0.03000   0.03042   1.94968
   A30        1.85697  -0.00394   0.00000  -0.02028  -0.01966   1.83731
   A31        1.94727  -0.00270   0.00000  -0.03453  -0.03426   1.91301
   A32        1.95455  -0.00072   0.00000  -0.02078  -0.02048   1.93407
   A33        1.87940  -0.01430   0.00000  -0.05480  -0.05443   1.82497
   A34        1.92379  -0.00080   0.00000  -0.00909  -0.01182   1.91197
   A35        1.87245   0.00997   0.00000   0.06480   0.06339   1.93583
   A36        1.88278   0.00918   0.00000   0.06092   0.05984   1.94262
   A37        1.83837   0.00488   0.00000   0.02740   0.02740   1.86577
   A38        1.84702  -0.00038   0.00000  -0.00215  -0.00215   1.84487
   A39        1.83161  -0.00083   0.00000  -0.00465  -0.00465   1.82695
   A40        1.82360   0.00248   0.00000   0.01391   0.01391   1.83752
   A41        1.81354   0.00602   0.00000   0.03379   0.03379   1.84733
   A42        1.85252   0.00659   0.00000   0.03696   0.03696   1.88949
    D1        2.95429  -0.00480   0.00000  -0.06930  -0.06926   2.88503
    D2        0.84781  -0.00152   0.00000  -0.01950  -0.01942   0.82838
    D3       -1.18113  -0.00299   0.00000  -0.05798  -0.05806  -1.23920
    D4        0.85628  -0.00077   0.00000  -0.01583  -0.01572   0.84055
    D5       -1.25020   0.00251   0.00000   0.03397   0.03411  -1.21609
    D6        3.00404   0.00104   0.00000  -0.00451  -0.00453   2.99952
    D7       -1.16648  -0.00091   0.00000  -0.04230  -0.04236  -1.20884
    D8        3.01022   0.00237   0.00000   0.00750   0.00748   3.01770
    D9        0.98128   0.00090   0.00000  -0.03098  -0.03116   0.95012
   D10        1.03133  -0.00308   0.00000  -0.05665  -0.05683   0.97450
   D11       -1.13659  -0.00086   0.00000  -0.01212  -0.01234  -1.14892
   D12        3.12826   0.00027   0.00000  -0.00231  -0.00239   3.12586
   D13        3.13975  -0.00532   0.00000  -0.10793  -0.10766   3.03210
   D14        0.97183  -0.00310   0.00000  -0.06340  -0.06317   0.90867
   D15       -1.04651  -0.00197   0.00000  -0.05359  -0.05323  -1.09973
   D16       -1.14438   0.00061   0.00000  -0.04229  -0.04243  -1.18681
   D17        2.97089   0.00283   0.00000   0.00224   0.00206   2.97294
   D18        0.95254   0.00396   0.00000   0.01205   0.01200   0.96454
   D19       -3.05125  -0.00053   0.00000   0.00122   0.00102  -3.05023
   D20       -0.84412  -0.00015   0.00000   0.00099   0.00002  -0.84410
   D21        1.17677   0.00127   0.00000   0.01751   0.01868   1.19545
   D22        1.07310  -0.00182   0.00000  -0.00383  -0.00403   1.06907
   D23       -1.11108   0.00029   0.00000   0.02202   0.02205  -1.08902
   D24       -3.12526   0.00023   0.00000  -0.00309  -0.00312  -3.12837
   D25       -3.09466  -0.00405   0.00000  -0.05274  -0.05266   3.13586
   D26        1.00435  -0.00194   0.00000  -0.02689  -0.02658   0.97777
   D27       -1.00983  -0.00200   0.00000  -0.05200  -0.05175  -1.06158
   D28       -1.09901   0.00134   0.00000   0.01190   0.01162  -1.08738
   D29        3.00001   0.00345   0.00000   0.03775   0.03770   3.03771
   D30        0.98583   0.00339   0.00000   0.01264   0.01253   0.99836
   D31       -2.96918  -0.00095   0.00000   0.01258   0.01234  -2.95684
   D32       -0.76617   0.00133   0.00000   0.01629   0.01569  -0.75049
   D33        1.25312   0.00124   0.00000   0.02453   0.02538   1.27849
   D34       -1.10913   0.00065   0.00000   0.06283   0.06349  -1.04564
   D35        3.08039   0.00368   0.00000   0.09437   0.09404  -3.10876
   D36        1.04648   0.00449   0.00000   0.10888   0.10893   1.15541
   D37        1.06105  -0.00224   0.00000   0.01009   0.01069   1.07174
   D38       -1.03261   0.00079   0.00000   0.04163   0.04123  -0.99138
   D39       -3.06652   0.00160   0.00000   0.05615   0.05613  -3.01040
   D40        3.08973  -0.00178   0.00000   0.01438   0.01474   3.10446
   D41        0.99606   0.00125   0.00000   0.04592   0.04528   1.04134
   D42       -1.03785   0.00206   0.00000   0.06044   0.06017  -0.97768
   D43       -1.84849  -0.00201   0.00000  -0.02020  -0.02039  -1.86889
   D44        0.34461   0.00150   0.00000   0.02257   0.02272   0.36733
   D45        2.39304   0.00097   0.00000   0.01361   0.01365   2.40670
   D46        0.93377  -0.00350   0.00000  -0.03814  -0.03827   0.89550
   D47       -1.23205   0.00012   0.00000   0.01549   0.01526  -1.21678
   D48        2.98407  -0.00167   0.00000  -0.01244  -0.01246   2.97161
   D49        3.12385  -0.00410   0.00000  -0.06271  -0.06262   3.06123
   D50        0.95804  -0.00047   0.00000  -0.00909  -0.00909   0.94895
   D51       -1.10904  -0.00226   0.00000  -0.03702  -0.03681  -1.14585
   D52       -1.14647   0.00170   0.00000   0.00157   0.00159  -1.14488
   D53        2.97090   0.00533   0.00000   0.05519   0.05512   3.02602
   D54        0.90382   0.00354   0.00000   0.02726   0.02740   0.93123
   D55       -2.92699   0.00059   0.00000   0.03958   0.03937  -2.88762
   D56       -0.75109   0.00052   0.00000   0.02365   0.02293  -0.72816
   D57        1.29796   0.00214   0.00000   0.04870   0.04964   1.34761
   D58       -1.16854   0.00099   0.00000   0.01818   0.01747  -1.15107
   D59        1.02106  -0.00067   0.00000   0.02073   0.02152   1.04258
   D60        3.04735   0.00219   0.00000   0.04050   0.04043   3.08778
   D61        3.12944   0.00107   0.00000   0.02070   0.02082  -3.13292
   D62       -1.05553  -0.00445   0.00000  -0.01442  -0.01679  -1.07232
   D63        1.01680   0.00486   0.00000   0.04215   0.04440   1.06120
         Item               Value     Threshold  Converged?
 Maximum Force            0.019605     0.000450     NO 
 RMS     Force            0.005993     0.000300     NO 
 Maximum Displacement     0.429017     0.001800     NO 
 RMS     Displacement     0.105341     0.001200     NO 
 Predicted change in Energy=-1.063011D-02
 GradGradGradGradGradGradGradGradGradGradGradGradGradGradGradGradGradGrad

                          Input orientation:                          
 ---------------------------------------------------------------------
 Center     Atomic      Atomic             Coordinates (Angstroms)
 Number     Number       Type             X           Y           Z
 ---------------------------------------------------------------------
      1          6           0       -0.003222   -0.074176   -0.006819
      2          6           0        1.509765   -0.075715   -0.015655
      3          6           0       -0.624344    0.887718   -1.037798
      4          6           0        2.145772   -0.730625    1.201066
      5          1           0        1.838577    0.969854   -0.011021
      6          1           0       -0.326229    0.283030    0.977493
      7          6           0       -0.215479    0.710126   -2.497870
      8          1           0       -0.359883    1.903944   -0.734777
      9          6           0        1.815052   -2.193881    1.396332
     10          1           0        1.870857   -0.178857    2.106509
     11          1           0        0.860649    0.835511   -2.618791
     12          1           0       -0.716121    1.485972   -3.079396
     13          1           0        2.008745   -2.739829    0.471158
     14          1           0        0.771686   -2.320037    1.682320
     15          8           0       -0.665804   -0.518049   -3.047518
     16          1           0       -0.199749   -1.220264   -2.582626
     17          8           0       -2.044306    0.765524   -0.927992
     18          1           0       -2.325553    0.283508   -1.711665
     19          8           0       -0.466931   -1.407789   -0.178742
     20          1           0       -1.421812   -1.326465   -0.248174
     21          8           0        1.977142   -0.708354   -1.202103
     22          1           0        2.922614   -0.828948   -1.069653
     23          8           0        3.553043   -0.597076    0.979846
     24          1           0        3.975064   -1.196462    1.603315
     25          8           0        2.698060   -2.627055    2.441195
     26          1           0        2.537709   -3.554907    2.603166
 ---------------------------------------------------------------------
                    Distance matrix (angstroms):
                    1          2          3          4          5
     1  C    0.000000
     2  C    1.513013   0.000000
     3  C    1.540763   2.554878   0.000000
     4  C    2.551095   1.521125   3.912172   0.000000
     5  H    2.117130   1.096062   2.669643   2.110723   0.000000
     6  H    1.095811   2.117998   2.125069   2.681096   2.476949
     7  C    2.620214   3.123365   1.526604   4.618810   3.235896
     8  H    2.137777   2.816341   1.092921   4.119072   2.495912
     9  C    3.125396   2.563890   4.622975   1.512819   3.462718
    10  H    2.826533   2.155135   4.153345   1.095379   2.409256
    11  H    2.897620   2.833373   2.169670   4.323845   2.788342
    12  H    3.518951   4.096333   2.129425   5.605898   4.025889
    13  H    3.373748   2.753810   4.729609   2.142065   3.744756
    14  H    2.915058   2.909444   4.431437   2.155446   3.850850
    15  O    3.143547   3.757787   2.452932   5.099080   4.207861
    16  H    2.826114   3.289646   2.647709   4.478564   3.945192
    17  O    2.391586   3.764501   1.429434   4.932353   3.994918
    18  H    2.903043   4.208938   1.926987   5.431870   4.550081
    19  O    1.422359   2.389214   2.456036   3.031276   3.316125
    20  H    1.907584   3.195713   2.482352   3.896534   3.994929
    21  O    2.398484   1.423493   3.056497   2.409181   2.062585
    22  H    3.203094   1.916877   3.940669   2.401941   2.351920
    23  O    3.727459   2.331914   4.870940   1.430799   2.525169
    24  H    4.436080   3.155128   5.698581   1.930056   3.444354
    25  O    4.450493   3.735972   5.957800   2.332249   4.437322
    26  H    5.038237   4.474334   6.556837   3.177430   5.272212
                    6          7          8          9         10
     6  H    0.000000
     7  C    3.503259   0.000000
     8  H    2.358042   2.134140   0.000000
     9  C    3.300849   5.265086   5.105306   0.000000
    10  H    2.513007   5.132582   4.169793   2.137238   0.000000
    11  H    3.827162   1.090135   2.486112   5.119504   4.937401
    12  H    4.249404   1.091215   2.408079   6.322998   6.029737
    13  H    3.853071   5.066013   5.350636   1.091570   3.041704
    14  H    2.911728   5.256461   4.996482   1.089182   2.443924
    15  O    4.117979   1.418915   3.362798   5.358253   5.754451
    16  H    3.866566   1.932314   3.633299   4.565026   5.230672
    17  O    2.610644   2.410849   2.042208   5.390288   5.042673
    18  H    3.350950   2.291840   2.728366   5.739487   5.692283
    19  O    2.053179   3.150738   3.359794   2.882056   3.492549
    20  H    2.300659   3.265590   3.435115   3.732841   4.207517
    21  O    3.322499   2.915251   3.536126   2.997487   3.352399
    22  H    3.997786   3.775737   4.284348   3.028337   3.408346
    23  O    3.977857   5.291980   4.950356   2.396635   2.067372
    24  H    4.591478   6.165667   5.819876   2.388166   2.390902
    25  O    4.444924   6.634746   6.322007   1.434949   2.605754
    26  H    5.057145   7.196605   7.024027   1.957312   3.476934
                   11         12         13         14         15
    11  H    0.000000
    12  H    1.766765   0.000000
    13  H    4.863020   6.155381   0.000000
    14  H    5.335256   6.274808   1.781419   0.000000
    15  O    2.084704   2.004906   4.946776   5.261645   0.000000
    16  H    2.313431   2.799488   4.063510   4.510316   0.962516
    17  O    3.361913   2.629003   5.538261   4.925874   2.835528
    18  H    3.358491   2.430406   5.717641   5.281143   2.276348
    19  O    3.570533   4.104844   2.885424   2.414523   3.010160
    20  H    3.937460   4.052606   3.779385   3.086329   3.010218
    21  O    2.374254   3.948793   2.632050   3.517178   3.229077
    22  H    3.069520   4.757974   2.619298   3.797789   4.109180
    23  O    4.717147   6.248383   2.689798   3.346343   5.833059
    24  H    5.626248   7.150555   2.744116   3.395629   6.605160
    25  O    6.400695   7.684435   2.090196   2.093100   6.774176
    26  H    7.025463   8.263739   2.342993   2.343437   7.170442
                   16         17         18         19         20
    16  H    0.000000
    17  O    3.175462   0.000000
    18  H    2.745714   0.962072   0.000000
    19  O    2.425945   2.787970   2.943606   0.000000
    20  H    2.637116   2.286060   2.355965   0.960849   0.000000
    21  O    2.628070   4.291794   4.444843   2.740432   3.583982
    22  H    3.491614   5.218497   5.403054   3.552154   4.449313
    23  O    5.211815   6.068512   6.525147   4.261428   5.175830
    24  H    5.911998   6.818336   7.271669   4.790793   5.707116
    25  O    5.967841   6.734319   7.138229   4.285772   5.088966
    26  H    6.311630   7.220115   7.550001   4.623525   5.364130
                   21         22         23         24         25
    21  O    0.000000
    22  H    0.962291   0.000000
    23  O    2.693835   2.156769   0.000000
    24  H    3.478549   2.896114   0.962329   0.000000
    25  O    4.180281   3.950907   2.643360   2.092696   0.000000
    26  H    4.785098   4.590055   3.523469   2.937338   0.955435
                   26
    26  H    0.000000
 Stoichiometry    C6H14O6
 Framework group  C1[X(C6H14O6)]
 Deg. of freedom    72
 Full point group                 C1      NOp   1
 Largest Abelian subgroup         C1      NOp   1
 Largest concise Abelian subgroup C1      NOp   1
                         Standard orientation:                         
 ---------------------------------------------------------------------
 Center     Atomic      Atomic             Coordinates (Angstroms)
 Number     Number       Type             X           Y           Z
 ---------------------------------------------------------------------
      1          6           0        0.590015   -0.566504   -0.558369
      2          6           0       -0.417925    0.561875   -0.553157
      3          6           0        2.030117   -0.104822   -0.853168
      4          6           0       -1.869010    0.110125   -0.617165
      5          1           0       -0.241518    1.163033   -1.452513
      6          1           0        0.315777   -1.249018   -1.370631
      7          6           0        2.618551    0.976535    0.049568
      8          1           0        2.048331    0.267038   -1.880721
      9          6           0       -2.331068   -0.750929    0.537699
     10          1           0       -2.050868   -0.424449   -1.555788
     11          1           0        2.022991    1.888457    0.003719
     12          1           0        3.620609    1.205539   -0.316750
     13          1           0       -2.080036   -0.263350    1.481507
     14          1           0       -1.862881   -1.733603    0.499339
     15          8           0        2.800889    0.535399    1.385784
     16          1           0        1.924415    0.373027    1.748918
     17          8           0        2.864181   -1.264658   -0.804195
     18          1           0        3.367490   -1.189158    0.012238
     19          8           0        0.500424   -1.270826    0.674112
     20          1           0        1.215039   -1.912249    0.640459
     21          8           0       -0.216831    1.373017    0.599206
     22          1           0       -0.980292    1.957747    0.634151
     23          8           0       -2.619269    1.328440   -0.618598
     24          1           0       -3.527981    1.077630   -0.425165
     25          8           0       -3.753331   -0.844228    0.371739
     26          1           0       -4.103671   -1.375476    1.084405
 ---------------------------------------------------------------------
 Rotational constants (GHZ):           1.8060944           0.4920758           0.4601935
 Standard basis: def2TZVPP (5D, 7F)
 There are   642 symmetry adapted cartesian basis functions of A   symmetry.
 There are   568 symmetry adapted basis functions of A   symmetry.
   568 basis functions,   850 primitive gaussians,   642 cartesian basis functions
    49 alpha electrons       49 beta electrons
       nuclear repulsion energy       837.2889767780 Hartrees.
 NAtoms=   26 NActive=   26 NUniq=   26 SFac= 1.00D+00 NAtFMM=   60 NAOKFM=F Big=F
 Integral buffers will be    131072 words long.
 Raffenetti 2 integral format.
 Two-electron integral symmetry is turned on.
 Nuclear repulsion after empirical dispersion term =      837.2700453230 Hartrees.
 One-electron integrals computed using PRISM.
   1 Symmetry operations used in ECPInt.
 ECPInt:  NShTT=   23436 NPrTT=   62434 LenC2=   21842 LenP2D=   45500.
 LDataN:  DoStor=T MaxTD1= 6 Len=  172
 NBasis=   568 RedAO= T EigKep=  4.16D-05  NBF=   568
[...]
 570,-0.00052608,0.00123483,0.01310317,-0.00450912,0.00083659,-0.000481
 75,0.00168518,0.64232907,-0.01749314,-0.21981718,-0.01734253,-0.008212
 72,-0.00911624,-0.00027598,-0.01229465,-0.04387702,-0.00132122,0.00083
 273,-0.00091787,0.00045632,0.00029176,0.00132150,-0.00035000,-0.013620
 44,-0.03210620,-0.01034441,0.00185469,-0.00321860,-0.00271853,0.003003
 40,-0.00306810,0.00505132,-0.00114610,-0.00075104,0.00103492,0.0001752
 4,0.00045669,0.00057455,0.00014522,0.00012323,0.00011396,-0.00017435,0
 .00054268,0.00106663,-0.00033947,0.00026372,0.00050504,0.00078368,-0.0
 0032208,-0.00105721,-0.00011900,0.00453235,0.00223709,-0.00067291,-0.0
 0137555,0.00090537,-0.00191996,0.00145267,0.00085710,0.00025626,-0.001
 46406,-0.00010610,0.01423177,0.35295021,-0.01235405,-0.02279903,-0.071
 56195,0.00157090,-0.00154060,0.00022809,0.00573690,0.02130488,0.009121
 94,0.00113952,-0.00013568,-0.00069634,0.00012034,0.00027676,0.00049356
 ,-0.01424193,-0.03244107,0.00425229,0.00024340,-0.00386619,0.00032602,
 -0.00217003,0.00394704,-0.00242070,0.00134421,0.00070032,-0.00308273,0
 .00004287,0.00011563,0.00041681,0.00033365,0.00043434,-0.00007321,-0.0
 0014263,0.00011410,0.00041622,-0.00025653,0.00027611,0.00000603,-0.002
 20535,0.00006229,0.00067903,0.00244698,0.00380067,-0.00529057,-0.00327
 683,-0.00054098,0.00251174,0.00022854,0.00488673,0.00125825,0.00133290
 ,-0.00117768,0.00109021,0.07107297,0.01829688,0.06999409,-0.02154866,-
 0.00470475,-0.00105107,-0.00034375,-0.00278440,-0.00117954,0.00221450,
 0.00218092,0.00089256,-0.00018013,-0.00005389,0.00015120,-0.00042088,0
 .00034768,0.00001368,0.00079786,0.00156803,0.00044601,-0.00084661,-0.0
 0059512,-0.00016220,-0.00105724,0.00026602,-0.00045835,-0.00032124,0.0
 0010098,-0.00005706,-0.00000218,-0.00001066,-0.00003968,-0.00011069,0.
 00007824,0.00023161,0.00009867,0.00007064,-0.00031814,0.00001504,0.000
 00142,-0.00003196,-0.00007944,0.00012660,-0.00023799,0.00005684,0.0005
 5309,-0.00062764,-0.00056349,-0.00018985,0.00072092,-0.00307170,0.0007
 7030,-0.00004031,0.00071011,0.00077703,-0.00148846,-0.50680575,0.03318
 261,-0.04916036,0.52989079,-0.04668515,-0.00177019,-0.00472155,-0.0013
 6166,-0.00813561,-0.00086154,-0.00600243,-0.00338869,0.00144734,0.0002
 8614,-0.00029962,0.00013327,-0.00207869,0.00005702,0.00018111,-0.00030
 323,-0.00044495,-0.00104591,0.00015089,0.00059417,0.00088992,0.0002647
 7,0.00062035,-0.00026015,0.00003098,-0.00025442,-0.00015060,-0.0000083
 1,0.00001606,0.00000519,0.00026404,-0.00007780,-0.00043568,-0.00002349
 ,-0.00010489,0.00012437,-0.00011249,0.00016165,0.00006998,0.00015164,0
 .00005571,-0.00005836,0.00040605,-0.00102712,-0.00051594,0.00007985,0.
 00043745,-0.00011022,0.00172671,0.00382102,-0.00238442,0.00115499,-0.0
 0029602,0.00242648,0.08231979,-0.05070143,0.00564722,-0.03155815,0.060
 10580,-0.00584560,-0.00319186,0.00064997,0.00093555,-0.00012357,-0.000
 76155,0.00287911,0.00184918,0.00089950,0.00004976,0.00002711,0.0000088
 8,0.00021230,0.00020007,0.00021352,-0.00090660,-0.00007559,0.00009309,
 0.00025118,0.00104801,-0.00003287,-0.00034850,-0.00064725,-0.00005944,
 -0.00033001,0.00009803,-0.00031678,-0.00008645,-0.00004509,-0.00005415
 ,-0.00022024,-0.00022807,0.00012381,0.00002076,-0.00008207,-0.00005617
 ,0.00009308,0.00002023,-0.00005417,-0.00036796,0.00008301,-0.00006143,
 -0.00134363,-0.00106009,0.00069882,0.00137130,-0.00006102,0.00004290,-
 0.00056632,-0.00327984,-0.00179121,-0.00143207,0.00342287,-0.00310337,
 -0.04767775,0.00193345,-0.01059486,0.05275017,-0.00062325,0.01440771,-
 0.01463023,0.02410438,0.04047786,-0.10394177,0.02883695,0.03993160,0.0
 0318186,-0.00082098,0.00120939,-0.00094322,-0.00503954,-0.00500234,0.0
 0609725,0.00205294,-0.00474866,-0.00871217,0.00004976,0.00053350,-0.00
 150991,-0.00004790,-0.00162167,-0.00013705,-0.00009478,0.00014854,0.00
 031123,0.00088506,0.00055511,-0.00013263,0.00107993,-0.00225484,-0.000
 98469,0.00071400,0.00001002,-0.00034734,-0.00000714,-0.00027730,-0.000
 29255,-0.00018213,-0.00023581,0.00017060,0.00021105,-0.00057813,-0.003
 42404,0.00175463,-0.00407912,-0.00222132,0.00212887,0.00173309,-0.0005
 6272,-0.00009561,-0.00072505,0.00022859,0.00003550,-0.00005867,0.00117
 330,0.00034301,0.00100555,0.00101913,0.00107113,0.00049178,0.62920322,
 0.00291108,-0.00481003,-0.00837149,0.01234076,-0.11494411,-0.07637131,
 -0.00166681,-0.00010236,-0.00046852,0.00030411,0.00533729,-0.00120167,
 0.01374673,-0.02003694,-0.03855930,0.00075891,0.00066524,0.00046557,-0
 .00006790,-0.00480954,0.00073278,-0.00015343,0.00060056,0.00009557,-0.
 00219908,-0.00215135,-0.00161413,0.00080900,0.00082543,0.00228424,0.00
 207684,0.00015957,-0.00014248,0.00100298,0.00044960,0.00018453,0.00012
 533,0.00214948,0.00121908,-0.00018562,0.00021178,0.00087081,-0.0005349
 1,0.00194801,0.00088320,0.00154263,-0.00162569,-0.00019694,0.00115767,
 0.00089202,0.00021443,0.00004588,-0.00024266,-0.00011005,-0.00076275,0
 .00299617,0.00186440,-0.00007517,0.00044846,0.00060533,-0.11412580,0.1
 5130017,0.00777366,-0.00599615,-0.00916154,-0.00209406,-0.06504290,-0.
 17660367,-0.00083831,0.00084761,-0.00140904,0.01145462,-0.02503636,-0.
 04766233,0.00369500,-0.01611288,-0.01035770,0.00040906,0.00005640,0.00
 122084,0.00054056,0.00023159,-0.00277711,-0.00017542,0.00040958,0.0002
 5689,0.00067196,-0.00323566,0.00176888,-0.00483900,0.00361502,-0.00609
 345,-0.00109962,-0.00115239,0.00009023,-0.00105221,0.00005056,0.000467
 21,-0.00005646,0.00090773,-0.00096364,-0.00018233,-0.00008342,-0.00056
 476,-0.00430165,0.00253801,0.00071020,0.00255094,0.00056348,-0.0018653
 7,0.00048693,-0.00025070,0.00194707,0.00062801,-0.00001690,-0.00064799
 ,0.00031560,0.00029136,0.00214874,-0.00048730,0.00008354,-0.00022308,0
 .01133300,0.12085390,0.29006057,0.00006694,0.00141863,0.00152276,-0.01
 452230,0.00363681,0.00413336,-0.00021762,-0.00010843,-0.00002524,0.003
 30277,-0.00054593,-0.00193788,0.00065137,-0.00117889,-0.00128547,-0.00
 027184,-0.00011620,-0.00033028,-0.00010290,-0.00025108,0.00003875,0.00
 003763,0.00000516,-0.00000325,-0.00010226,-0.00047929,0.00085579,-0.00
 134655,0.00020526,-0.00022568,-0.00003708,0.00026221,-0.00018693,0.000
 20633,-0.00000058,0.00003733,-0.00005258,-0.00048097,0.00024306,-0.000
 06848,-0.00022109,-0.00008020,0.00039187,-0.00018960,0.00017887,-0.000
 61578,0.00016819,-0.00012552,0.00030413,-0.00000952,-0.00000218,-0.000
 07687,0.00000619,-0.00001449,0.00086364,0.00041572,-0.00013478,0.00000
 261,0.00001425,-0.00000041,-0.50541045,0.08196369,-0.02510115,0.520339
 12,-0.00071012,-0.00247079,-0.00277820,0.02495871,-0.00543115,-0.00338
 271,-0.00024467,0.00006837,-0.00019403,0.00010062,0.00230428,-0.000153
 26,0.00091059,-0.00054489,0.00000572,0.00076152,0.00023955,0.00005818,
 0.00047856,-0.00018247,0.00013704,0.00005536,-0.00001900,-0.00003268,0
 .00022733,0.00061013,0.00115887,0.00005387,-0.00028155,-0.00008273,0.0
 0026141,-0.00020931,0.00010419,-0.00000494,0.00003828,0.00004697,-0.00
 041361,-0.00075483,0.00002934,0.00002156,-0.00022386,-0.00038025,-0.00
 056656,-0.00004623,-0.00042494,0.00056373,-0.00003221,0.00088991,-0.00
 019419,-0.00000799,0.00012168,0.00010091,0.00001481,-0.00001943,-0.000
 93691,0.00022943,0.00081598,-0.00001414,0.00000381,0.00007266,0.059736
 73,-0.02398708,-0.01423437,-0.08491792,0.03384278,0.00078330,-0.003729
 33,-0.00639416,0.04010900,-0.00830090,-0.00121233,-0.00021914,0.000134
 75,-0.00018209,0.00629987,-0.00105080,-0.00436953,-0.00020003,-0.00085
 555,0.00015737,0.00197272,-0.00014049,-0.00023664,-0.00022615,-0.00058
 025,-0.00022595,-0.00005932,0.00004369,0.00002470,-0.00021471,0.000540
 94,-0.00060281,-0.00049920,0.00007312,0.00098342,-0.00019693,0.0001179
 7,0.00015751,-0.00006894,0.00001668,-0.00000798,0.00031059,0.00039200,
 -0.00005952,-0.00016936,-0.00028944,0.00046278,-0.00073344,0.00065720,
 -0.00095200,0.00072828,0.00052003,0.00149630,0.00007844,0.00011773,0.0
 0002028,0.00002287,-0.00005349,-0.00000698,-0.00075488,0.00021184,0.00
 015486,-0.00002923,-0.00007506,0.00000372,-0.06815033,-0.00658563,-0.0
 4054175,0.02306952,0.01762222,0.04793575,0.00139873,0.00315474,-0.0051
 7528,-0.04249193,0.00254720,-0.00074093,-0.00004427,-0.00154176,0.0013
 5817,-0.21190646,-0.01538584,0.05187128,0.00153394,-0.00031976,0.00102
 813,0.00085564,-0.00030069,-0.00005287,-0.00046874,0.00030377,0.000506
 02,0.00001119,0.00020029,-0.00005866,-0.03948717,-0.00555903,0.0093741
 1,-0.02710838,0.00441688,0.01084460,0.00001475,-0.00005117,0.00008655,
 -0.00005860,0.00001332,-0.00026672,0.00146742,0.00042376,-0.00105671,0
 .00086352,-0.00556190,0.00200277,0.00023690,-0.00026053,-0.00068975,-0
 .00017609,0.00011307,0.00050053,-0.00166533,0.00047629,-0.00107040,0.0
 0003984,0.00007225,0.00029047,-0.00091054,-0.00065542,-0.00077954,0.00
 022967,-0.00002175,0.00017488,-0.00011099,0.00070640,0.00021795,-0.002
 23590,0.00031458,-0.00054217,0.44570616,0.00012840,-0.00269115,0.00430
 195,0.02242233,0.00069873,-0.00501165,0.00022635,0.00076058,-0.0005317
 8,0.02084703,-0.08272543,0.01213626,-0.00018618,0.00161423,-0.00185757
 ,-0.00047977,0.00012378,0.00035717,0.00005206,-0.00032551,-0.00032077,
 -0.00005471,0.00002905,0.00000651,-0.03602412,-0.00135609,0.01292156,0
 .02016636,0.00571590,-0.00217838,0.00002377,0.00000879,-0.00002267,-0.
 00000537,0.00001455,0.00009241,0.00064128,0.00354193,-0.00029774,-0.00
 179400,-0.00679355,0.00308379,-0.00001598,0.00040094,0.00022697,0.0000
 6211,-0.00016952,-0.00004866,0.00097441,0.00004838,0.00041898,0.000026
 01,-0.00011335,-0.00005760,0.00086034,0.00142956,-0.00028396,0.0000774
 0,0.00006217,0.00006827,-0.00073615,0.00324266,-0.00017146,-0.00049749
 ,-0.00328613,0.00028591,-0.13855970,0.29865415,-0.00063174,0.00253777,
 -0.00579054,-0.03036039,-0.00081693,0.00058201,-0.00052002,-0.00081019
 ,0.00082345,0.02121413,0.01452224,-0.09363412,0.00050821,-0.00089886,0
 .00162079,-0.00042391,0.00026938,0.00044508,0.00021738,-0.00019263,0.0
 0007962,-0.00002406,0.00014827,-0.00002223,0.01163859,0.00426638,-0.00
 367816,0.03273537,0.00143507,-0.00124353,-0.00003159,-0.00014288,0.000
 08897,-0.00012284,0.00002910,-0.00004585,-0.00043687,0.00139137,0.0006
 6848,-0.00012921,0.00232473,0.00098810,-0.00042386,0.00017563,-0.00018
 246,0.00057822,0.00015430,0.00041567,-0.00108409,0.00014082,-0.0003086
 3,0.00007442,0.00007513,-0.00001284,-0.00032127,-0.00029752,0.00078293
 ,-0.00004154,0.00002335,-0.00007359,-0.00864977,0.00238903,0.00056289,
 -0.00016455,-0.00025398,0.00237793,0.07822921,-0.23935978,0.31724754,-
 0.00017742,0.00128201,-0.00189178,-0.00778693,-0.00026474,0.00281807,-
 0.00033613,-0.00027131,0.00023155,-0.02830789,0.02779905,-0.02719696,0
 .00021712,-0.00014353,0.00039609,0.00007410,0.00000741,-0.00000939,-0.
 00003963,0.00003984,0.00004955,0.00000699,0.00002608,-0.00000341,-0.00
 332389,-0.00007033,-0.00238446,-0.00005359,0.00036053,0.00006836,0.000
 00194,0.00003357,-0.00004232,0.00003198,-0.00001052,0.00000221,-0.0000
 4114,-0.00029897,0.00015640,0.00035719,0.00083646,-0.00051306,0.000070
 00,-0.00007742,0.00006212,-0.00009605,0.00002034,-0.00011555,-0.000181
 25,-0.00002392,-0.00008311,-0.00005048,0.00004711,-0.00001393,0.000157
 69,-0.00028147,0.00024501,-0.00006686,0.00000141,-0.00005387,0.0010553
 8,-0.00009638,0.00115826,-0.00032476,-0.00030480,-0.00091157,-0.131265
 28,0.11841257,-0.10744082,0.16840734,0.00017756,0.00098227,-0.00054193
 ,-0.00187277,-0.00059513,-0.00100513,-0.00000634,-0.00010833,0.0001389
 2,0.00227646,0.00157771,-0.00128487,-0.00003498,0.00010487,0.00008042,
 0.00001548,-0.00000595,0.00002716,0.00004044,0.00006579,0.00007146,0.0
 0001901,-0.00001839,0.00000572,-0.00636551,0.00220404,-0.00156912,-0.0
 0006743,-0.00021967,0.00067726,-0.00002656,-0.00003423,0.00002302,-0.0
 0002068,-0.00000217,-0.00001920,0.00013515,-0.00034744,0.00007087,0.00
 086453,-0.00043461,0.00046421,-0.00009153,-0.00009254,-0.00008063,0.00
 010683,0.00009034,0.00007926,-0.00027736,-0.00005163,-0.00007840,0.000
 01173,0.00003715,-0.00000129,-0.00000092,-0.00049126,0.00020636,-0.000
 00501,0.00003549,-0.00002080,-0.00163780,-0.00009389,-0.00078731,0.000
 61603,0.00047892,0.00133596,0.15183456,-0.21820948,0.20929328,-0.14852
 550,0.21709416,0.00017726,-0.00022672,0.00032862,0.00077622,0.00024221
 ,-0.00148184,-0.00002549,0.00009711,-0.00001135,0.00435355,-0.00685160
 ,0.00659260,0.00003687,-0.00002521,-0.00013422,-0.00004676,0.00001629,
 0.00006707,-0.00000632,-0.00001309,-0.00001496,-0.00000560,0.00000025,
 -0.00000192,0.00343568,0.00025155,0.00275853,0.00201532,-0.00073909,-0
 .00048274,0.00000220,0.00001427,-0.00001111,0.00001139,-0.00000439,0.0
 0001902,-0.00070576,-0.00019655,-0.00058187,-0.00040989,0.00057503,-0.
 00102013,0.00003976,-0.00000403,0.00001140,-0.00004507,0.00000852,-0.0
 0000428,0.00015462,-0.00001101,0.00004431,-0.00001764,-0.00000516,-0.0
 0000189,0.00006922,0.00013861,-0.00005830,-0.00000513,0.00000558,0.000
 02856,-0.00107031,-0.00003726,0.00028826,0.00003789,0.00117696,0.00056
 385,-0.14380362,0.21311575,-0.22156810,0.13589109,-0.20675714,0.217444
 96,-0.00071228,-0.00205995,0.00064694,0.00045587,-0.00131784,0.0016345
 2,0.00026591,-0.00011711,0.00012497,-0.00271483,0.00138172,-0.00057556
 ,-0.00005485,0.00025149,-0.00031488,0.00016133,-0.00009511,0.00006125,
 -0.00020257,-0.00001288,0.00013883,-0.00004976,0.00013640,-0.00006618,
 -0.14454889,0.00563948,-0.07536713,0.00041264,0.00024590,0.00033298,0.
 00005125,-0.00001325,0.00002203,-0.00002289,0.00002252,-0.00009388,-0.
 00462502,0.00341114,-0.01099187,-0.02378311,0.01578088,-0.03413249,0.0
 0014729,0.00007277,-0.00036871,-0.00014302,-0.00004455,0.00032249,-0.0
 0020724,0.00048149,-0.00033115,0.00010883,-0.00009212,0.00019853,-0.00
 119559,0.00168043,-0.00232125,0.00039551,0.00018580,0.00002276,0.00086
 715,0.00042439,-0.00101279,-0.00073768,-0.00013601,-0.00027166,0.00503
 781,-0.00479197,0.00352202,-0.00006308,0.00223592,0.00082620,0.2022757
 4,-0.00157498,-0.00020840,-0.00022626,-0.00457101,-0.00791041,-0.00271
 467,-0.00042150,0.00035369,-0.00026042,0.02818795,-0.02026105,0.039416
 94,0.00121167,-0.00121474,0.00236478,0.00002544,0.00012190,-0.00005119
 ,-0.00010313,-0.00021754,-0.00021274,-0.00004348,0.00005773,0.00001107
 ,0.03611279,-0.10207239,0.04226954,0.00064097,0.00266326,-0.00104293,0
 .00006869,0.00010861,-0.00013616,0.00008292,-0.00000326,0.00009601,-0.
 01117701,0.01011337,-0.00560464,0.00550243,0.00077360,0.00311229,0.000
 19189,0.00024521,0.00033572,-0.00017737,-0.00016737,-0.00025154,0.0007
 3266,-0.00002141,0.00029373,-0.00008311,-0.00003750,-0.00007970,0.0006
 3099,0.00077105,0.00031295,-0.00016146,0.00002469,-0.00001085,-0.00018
 713,0.00132343,0.00170697,0.00028607,-0.00031100,-0.00052853,0.0026610
 4,-0.00169476,0.00412306,0.00150162,-0.00130552,-0.00058999,0.02035565
 ,0.65516617,0.00040848,-0.00087186,-0.00018364,0.00177164,0.00102494,0
 .00116040,0.00038804,-0.00024316,0.00024476,-0.00887653,0.01262338,-0.
 01483672,-0.00048306,0.00054059,-0.00080986,-0.00007579,0.00011703,0.0
 0013171,0.00003664,-0.00004287,0.00009670,-0.00001340,0.00006793,-0.00
 003978,-0.08101641,0.00797679,-0.14324672,0.00050136,0.00064030,0.0011
 4188,-0.00001945,-0.00010452,0.00011246,-0.00009286,0.00003973,-0.0000
 8891,-0.02920020,0.01573699,-0.02515564,-0.00627044,0.00220745,0.00568
 684,-0.00017038,0.00011247,-0.00029444,0.00023358,-0.00007069,0.000393
 02,-0.00062469,0.00027406,-0.00027210,0.00015520,-0.00004676,0.0001066
 9,-0.00103893,0.00037242,-0.00012358,0.00024587,0.00023227,-0.00000640
 ,-0.00013996,0.00160238,-0.00076345,-0.00050007,-0.00052784,0.00054209
 ,-0.00160864,0.00329664,-0.00012681,-0.00031837,-0.00033229,-0.0027454
 1,0.13477379,-0.12695489,0.20587917,0.00026308,0.00013868,0.00003061,0
 .00064175,0.00101534,0.00010511,0.00000414,-0.00000504,-0.00000271,-0.
 00516349,0.00030254,-0.00310982,-0.00010907,0.00019554,-0.00028968,-0.
 00002072,-0.00000405,0.00002723,0.00003527,0.00000620,-0.00001512,0.00
 000962,-0.00001920,0.00000692,-0.00014662,0.03117037,-0.00646469,-0.00
 006577,-0.00016001,0.00013873,-0.00001304,-0.00000561,0.00000700,-0.00
 000099,-0.00000224,0.00000755,0.00089612,-0.00073516,-0.00051874,-0.00
 084969,0.00117728,-0.00011446,-0.00004207,-0.00001522,0.00004462,0.000
 03951,0.00000769,-0.00003465,-0.00003175,-0.00006013,0.00003801,-0.000
 00184,0.00001722,-0.00002754,-0.00007565,-0.00026688,0.00017954,-0.000
 01212,0.00004692,-0.00007321,0.00005337,-0.00004856,0.00000474,-0.0000
 4336,-0.00010159,-0.00012753,0.00053412,-0.00177498,0.00208899,0.00173
 466,0.00059873,-0.00168567,-0.03111850,-0.07969260,-0.00806539,0.03348
 302,-0.00007907,-0.00018015,0.00004973,-0.00050610,-0.00050516,-0.0002
 2117,0.00007882,-0.00003691,0.00002811,0.00159031,-0.00022621,0.002385
 68,0.00012703,0.00000297,0.00008635,0.00002863,-0.00002266,-0.00001680
 ,-0.00002383,0.00002212,0.00003188,-0.00000770,0.00001485,-0.00001033,
 -0.00477801,-0.01030429,-0.00303281,0.00001312,0.00056356,-0.00007997,
 0.00000050,-0.00001094,0.00000771,-0.00000912,0.00000391,-0.00001970,-
 0.00133278,0.00201003,-0.00080562,-0.00043631,0.00018373,-0.00070499,-
 0.00000050,-0.00001199,-0.00007659,0.00000944,0.00000660,0.00007342,-0
 .00008746,0.00006228,-0.00006473,0.00002662,-0.00000558,0.00003229,-0.
 00020495,0.00015736,-0.00027748,0.00005164,0.00005691,0.00002112,-0.00
 002899,0.00025376,-0.00003525,-0.00000120,-0.00004189,0.00011943,0.000
 97941,0.00101953,-0.00052612,0.00000089,-0.00066049,-0.00018092,-0.043
 62517,-0.53629735,0.08232951,0.04821477,0.54394602,0.00018864,0.000155
 47,0.00008543,0.00053690,0.00191141,0.00052668,-0.00003835,0.00000334,
 -0.00001588,-0.00385378,0.00166427,-0.00502773,-0.00024483,0.00011898,
 -0.00046454,-0.00002189,-0.00002989,-0.00002543,0.00001120,0.00007048,
 0.00002594,0.00001003,-0.00002691,0.00000451,0.00208690,0.03196100,-0.
 00656348,-0.00011389,-0.00008620,0.00011464,-0.00001356,0.00000768,-0.
 00000448,0.00000828,-0.00001251,0.00000585,0.00094840,0.00018526,-0.00
 001294,-0.00005097,-0.00054631,0.00075134,0.00002498,-0.00010047,-0.00
 000354,-0.00004759,0.00006146,-0.00004210,0.00004286,-0.00005781,0.000
 00412,-0.00003064,0.00002008,-0.00000494,0.00009913,-0.00023335,0.0000
 2143,-0.00003605,-0.00002694,0.00001858,0.00016252,-0.00060648,0.00011
 312,0.00000073,0.00022469,-0.00008880,-0.00063938,-0.00017015,0.000003
 40,-0.00010011,0.00000419,-0.00002908,-0.01677973,0.04462142,-0.026802
 26,0.01785019,-0.07911274,0.03741016\\-0.00000511,-0.00004088,-0.00000
 051,0.00001045,0.00000084,-0.00001362,-0.00002785,0.00000973,-0.000000
 18,0.00000409,-0.00001058,0.00000465,0.00000436,0.00000493,0.00000425,
 0.00000136,0.00000484,0.00001054,0.00001576,0.00004347,0.00001173,-0.0
 0000122,0.00000463,-0.00000522,0.00001264,-0.00000128,-0.00001186,-0.0
 0000380,0.00000153,0.00001054,-0.00000240,-0.00000540,0.00000215,0.000
 00289,-0.00000748,-0.00000420,-0.00000077,-0.00000498,-0.00000008,-0.0
 0000684,0.00000057,0.00000164,-0.00000792,-0.00002869,-0.00002074,0.00
 000569,-0.00000461,-0.00000008,0.00001935,0.00000242,0.00000754,0.0000
 0328,0.00000134,-0.00000851,0.00001746,0.00002108,0.00000496,-0.000004
 67,-0.00000161,-0.00000666,-0.00000348,0.00000345,0.00001245,0.0000034
 4,-0.00000334,-0.00000138,-0.00002115,0.00000007,-0.00000910,-0.000004
 25,0.00000319,0.00000509,-0.00000656,0.00001070,0.00000679,-0.00000474
 ,-0.00000396,-0.00000019\\\@
 The archive entry for this job was punched.


 A MAN IS NEVER SO BRILLIANT AS WHEN HE TAKES THE WORDS RIGHT OUT
 OF YOUR MOUTH. -- ARNOT SHEPPARD, JR.
 Job cpu time:       0 days 11 hours  0 minutes 56.9 seconds.
 Elapsed time:       0 days  0 hours 41 minutes 25.0 seconds.
 File lengths (MBytes):  RWF=    704 Int=      0 D2E=      0 Chk=     27 Scr=      1
 Normal termination of Gaussian 16 at Wed Oct 11 15:32:04 2023.
