 Entering Gaussian System, Link 0=/opt/software/gaussian/g16.c01/g16
 Initial command:
 /opt/software/gaussian/g16.c01/l1.exe "/scratch/arhender/13209915/Gau-108116.inp" -scrdir="/scratch/arhender/13209915/"
 Entering Link 1 = /opt/software/gaussian/g16.c01/l1.exe PID=    108117.
  
 Copyright (c) 1988-2019, Gaussian, Inc.  All Rights Reserved.
  
 This is part of the Gaussian(R) 16 program.  It is based on
 the Gaussian(R) 09 system (copyright 2009, Gaussian, Inc.),
 the Gaussian(R) 03 system (copyright 2003, Gaussian, Inc.),
 the Gaussian(R) 98 system (copyright 1998, Gaussian, Inc.),
 the Gaussian(R) 94 system (copyright 1995, Gaussian, Inc.),
 the Gaussian 92(TM) system (copyright 1992, Gaussian, Inc.),
 the Gaussian 90(TM) system (copyright 1990, Gaussian, Inc.),
 the Gaussian 88(TM) system (copyright 1988, Gaussian, Inc.),
 the Gaussian 86(TM) system (copyright 1986, Carnegie Mellon
 University), and the Gaussian 82(TM) system (copyright 1983,
 Carnegie Mellon University). Gaussian is a federally registered
 trademark of Gaussian, Inc.
  
 This software contains proprietary and confidential information,
 including trade secrets, belonging to Gaussian, Inc.
  
 This software is provided under written license and may be
 used, copied, transmitted, or stored only in accord with that
 written license.
  
 The following legend is applicable only to US Government
 contracts under FAR:
  
                    RESTRICTED RIGHTS LEGEND
  
 Use, reproduction and disclosure by the US Government is
 subject to restrictions as set forth in subparagraphs (a)
 and (c) of the Commercial Computer Software - Restricted
 Rights clause in FAR 52.227-19.
  
 Gaussian, Inc.
 340 Quinnipiac St., Bldg. 40, Wallingford CT 06492
  
  
 ---------------------------------------------------------------
 Warning -- This program may not be used in any manner that
 competes with the business of Gaussian, Inc. or will provide
 assistance to any competitor of Gaussian, Inc.  The licensee
 of this program is prohibited from giving any competitor of
 Gaussian, Inc. access to this program.  By using this program,
 the user acknowledges that Gaussian, Inc. is engaged in the
 business of creating and licensing software in the field of
 computational chemistry and represents and warrants to the
 licensee that it is not a competitor of Gaussian, Inc. and that
 it will not use this program in any manner prohibited above.
 ---------------------------------------------------------------
  

 Cite this work as:
 Gaussian 16, Revision C.01,
 M. J. Frisch, G. W. Trucks, H. B. Schlegel, G. E. Scuseria, 
 M. A. Robb, J. R. Cheeseman, G. Scalmani, V. Barone, 
 G. A. Petersson, H. Nakatsuji, X. Li, M. Caricato, A. V. Marenich, 
 J. Bloino, B. G. Janesko, R. Gomperts, B. Mennucci, H. P. Hratchian, 
 J. V. Ortiz, A. F. Izmaylov, J. L. Sonnenberg, D. Williams-Young, 
 F. Ding, F. Lipparini, F. Egidi, J. Goings, B. Peng, A. Petrone, 
 T. Henderson, D. Ranasinghe, V. G. Zakrzewski, J. Gao, N. Rega, 
 G. Zheng, W. Liang, M. Hada, M. Ehara, K. Toyota, R. Fukuda, 
 J. Hasegawa, M. Ishida, T. Nakajima, Y. Honda, O. Kitao, H. Nakai, 
 T. Vreven, K. Throssell, J. A. Montgomery, Jr., J. E. Peralta, 
 F. Ogliaro, M. J. Bearpark, J. J. Heyd, E. N. Brothers, K. N. Kudin, 
 V. N. Staroverov, T. A. Keith, R. Kobayashi, J. Normand, 
 K. Raghavachari, A. P. Rendell, J. C. Burant, S. S. Iyengar, 
 J. Tomasi, M. Cossi, J. M. Millam, M. Klene, C. Adamo, R. Cammi, 
 J. W. Ochterski, R. L. Martin, K. Morokuma, O. Farkas, 
 J. B. Foresman, and D. J. Fox, Gaussian, Inc., Wallingford CT, 2019.
 
 ******************************************
 Gaussian 16:  ES64L-G16RevC.01  3-Jul-2019
                27-Sep-2023 
 ******************************************
 %chk=MannitolConformerOpt_11.chk
 %mem=8GB
 %nprocs=16
 Will use up to   16 processors via shared memory.
 ---------------------------------------------
 # opt freq wb97xd/def2tzvpp geom=connectivity
 ---------------------------------------------
 1/18=20,19=15,26=3,38=1,57=2/1,3;
 2/9=110,12=2,17=6,18=5,40=1/2;
 3/5=44,7=202,11=2,25=1,30=1,71=1,74=-58/1,2,3;
 4//1;
 5/5=2,38=5/2;
 6/7=2,8=2,9=2,10=2,28=1/1;
 7//1,2,3,16;
 1/18=20,19=15,26=3/3(2);
 2/9=110/2;
 99//99;
 2/9=110/2;
 3/5=44,7=202,11=2,25=1,30=1,71=1,74=-58/1,2,3;
 4/5=5,16=3,69=1/1;
 5/5=2,38=5/2;
 7//1,2,3,16;
 1/18=20,19=15,26=3/3(-5);
 2/9=110/2;
 6/7=2,8=2,9=2,10=2,19=2,28=1/1;
 99/9=1/99;
 --------------------------------
 Mannitol Conformer Optimziations
 --------------------------------
 Symbolic Z-matrix:
 Charge =  0 Multiplicity = 1
 C                     0.        0.        0. 
 C                     1.5407    0.        0. 
 C                    -0.6605    0.7997   -1.1387 
 C                     2.1896   -0.7855    1.168 
 H                     1.9098    1.0314    0. 
 H                    -0.372     0.4199    0.9395 
 C                    -0.2987    0.3798   -2.5663 
 H                    -0.4608    1.8699   -1.0117 
 C                     1.9535   -0.1849    2.5552 
 H                     3.2714   -0.8162    0.9904 
 H                    -0.4536   -0.6923   -2.7206 
 H                     0.7255    0.6567   -2.826 
 H                     2.1741    0.8867    2.5657 
 H                     2.6008   -0.6745    3.2906 
 O                    -1.1808    1.0722   -3.4633 
 H                    -0.9101    0.8155   -4.3635 
 O                    -2.0898    0.625    -0.9923 
 H                    -2.4586    0.989    -1.826 
 O                    -0.4799   -1.3628   -0.0428 
 H                    -1.4477   -1.2597   -0.1838 
 O                     2.0096   -0.6208   -1.2123 
 H                     1.8484   -1.5796   -1.0921 
 O                     1.7527   -2.1578    1.1639 
 H                     0.8147   -2.1566    0.8652 
 O                     0.6126   -0.381     2.9887 
 H                     0.4774   -1.348     3.0016 
 

 GradGradGradGradGradGradGradGradGradGradGradGradGradGradGradGradGradGrad
 Berny optimization.
 Initialization pass.
                           ----------------------------
                           !    Initial Parameters    !
                           ! (Angstroms and Degrees)  !
 --------------------------                            --------------------------
 ! Name  Definition              Value          Derivative Info.                !
 --------------------------------------------------------------------------------
 ! R1    R(1,2)                  1.5407         estimate D2E/DX2                !
 ! R2    R(1,3)                  1.5403         estimate D2E/DX2                !
 ! R3    R(1,6)                  1.0942         estimate D2E/DX2                !
 ! R4    R(1,19)                 1.4455         estimate D2E/DX2                !
 ! R5    R(2,4)                  1.5499         estimate D2E/DX2                !
 ! R6    R(2,5)                  1.0955         estimate D2E/DX2                !
 ! R7    R(2,21)                 1.4405         estimate D2E/DX2                !
 ! R8    R(3,7)                  1.5314         estimate D2E/DX2                !
 ! R9    R(3,8)                  1.0961         estimate D2E/DX2                !
 ! R10   R(3,17)                 1.4474         estimate D2E/DX2                !
 ! R11   R(4,9)                  1.53           estimate D2E/DX2                !
 ! R12   R(4,10)                 1.0967         estimate D2E/DX2                !
 ! R13   R(4,23)                 1.4402         estimate D2E/DX2                !
 ! R14   R(7,11)                 1.0942         estimate D2E/DX2                !
 ! R15   R(7,12)                 1.0923         estimate D2E/DX2                !
 ! R16   R(7,15)                 1.436          estimate D2E/DX2                !
 ! R17   R(9,13)                 1.0941         estimate D2E/DX2                !
 ! R18   R(9,14)                 1.0952         estimate D2E/DX2                !
 ! R19   R(9,25)                 1.4228         estimate D2E/DX2                !
 ! R20   R(15,16)                0.9744         estimate D2E/DX2                !
 ! R21   R(17,18)                0.9816         estimate D2E/DX2                !
 ! R22   R(19,20)                0.9834         estimate D2E/DX2                !
 ! R23   R(21,22)                0.9797         estimate D2E/DX2                !
 ! R24   R(23,24)                0.9844         estimate D2E/DX2                !
 ! R25   R(25,26)                0.9765         estimate D2E/DX2                !
 ! A1    A(2,1,3)              115.3928         estimate D2E/DX2                !
 ! A2    A(2,1,6)              109.8746         estimate D2E/DX2                !
 ! A3    A(2,1,19)             109.3905         estimate D2E/DX2                !
 ! A4    A(3,1,6)              106.8415         estimate D2E/DX2                !
 ! A5    A(3,1,19)             108.9803         estimate D2E/DX2                !
 ! A6    A(6,1,19)             105.923          estimate D2E/DX2                !
 ! A7    A(1,2,4)              114.7501         estimate D2E/DX2                !
 ! A8    A(1,2,5)              109.6904         estimate D2E/DX2                !
 ! A9    A(1,2,21)             108.9971         estimate D2E/DX2                !
 ! A10   A(4,2,5)              109.6393         estimate D2E/DX2                !
 ! A11   A(4,2,21)             106.2314         estimate D2E/DX2                !
 ! A12   A(5,2,21)             107.2231         estimate D2E/DX2                !
 ! A13   A(1,3,7)              116.4553         estimate D2E/DX2                !
 ! A14   A(1,3,8)              110.0693         estimate D2E/DX2                !
 ! A15   A(1,3,17)             106.6201         estimate D2E/DX2                !
 ! A16   A(7,3,8)              109.4322         estimate D2E/DX2                !
 ! A17   A(7,3,17)             107.1275         estimate D2E/DX2                !
 ! A18   A(8,3,17)             106.6222         estimate D2E/DX2                !
 ! A19   A(2,4,9)              114.8161         estimate D2E/DX2                !
 ! A20   A(2,4,10)             107.7656         estimate D2E/DX2                !
 ! A21   A(2,4,23)             110.7172         estimate D2E/DX2                !
 ! A22   A(9,4,10)             108.0614         estimate D2E/DX2                !
 ! A23   A(9,4,23)             109.2581         estimate D2E/DX2                !
 ! A24   A(10,4,23)            105.7897         estimate D2E/DX2                !
 ! A25   A(3,7,11)             111.5106         estimate D2E/DX2                !
 ! A26   A(3,7,12)             111.9411         estimate D2E/DX2                !
 ! A27   A(3,7,15)             107.7564         estimate D2E/DX2                !
 ! A28   A(11,7,12)            110.341          estimate D2E/DX2                !
 ! A29   A(11,7,15)            107.3012         estimate D2E/DX2                !
 ! A30   A(12,7,15)            107.7721         estimate D2E/DX2                !
 ! A31   A(4,9,13)             111.2271         estimate D2E/DX2                !
 ! A32   A(4,9,14)             110.0057         estimate D2E/DX2                !
 ! A33   A(4,9,25)             111.5663         estimate D2E/DX2                !
 ! A34   A(13,9,14)            108.1932         estimate D2E/DX2                !
 ! A35   A(13,9,25)            108.7888         estimate D2E/DX2                !
 ! A36   A(14,9,25)            106.906          estimate D2E/DX2                !
 ! A37   A(7,15,16)            106.224          estimate D2E/DX2                !
 ! A38   A(3,17,18)            103.9074         estimate D2E/DX2                !
 ! A39   A(1,19,20)            103.4225         estimate D2E/DX2                !
 ! A40   A(2,21,22)            105.3653         estimate D2E/DX2                !
 ! A41   A(4,23,24)            106.784          estimate D2E/DX2                !
 ! A42   A(9,25,26)            105.7235         estimate D2E/DX2                !
 ! D1    D(3,1,2,4)            178.8414         estimate D2E/DX2                !
 ! D2    D(3,1,2,5)             54.9199         estimate D2E/DX2                !
 ! D3    D(3,1,2,21)           -62.1963         estimate D2E/DX2                !
 ! D4    D(6,1,2,4)             58.0033         estimate D2E/DX2                !
 ! D5    D(6,1,2,5)            -65.9182         estimate D2E/DX2                !
 ! D6    D(6,1,2,21)           176.9655         estimate D2E/DX2                !
 ! D7    D(19,1,2,4)           -57.8773         estimate D2E/DX2                !
 ! D8    D(19,1,2,5)           178.2012         estimate D2E/DX2                !
 ! D9    D(19,1,2,21)           61.0849         estimate D2E/DX2                !
 ! D10   D(2,1,3,7)             58.1086         estimate D2E/DX2                !
 ! D11   D(2,1,3,8)            -67.161          estimate D2E/DX2                !
 ! D12   D(2,1,3,17)           177.569          estimate D2E/DX2                !
 ! D13   D(6,1,3,7)           -179.4204         estimate D2E/DX2                !
 ! D14   D(6,1,3,8)             55.31           estimate D2E/DX2                !
 ! D15   D(6,1,3,17)           -59.96           estimate D2E/DX2                !
 ! D16   D(19,1,3,7)           -65.3891         estimate D2E/DX2                !
 ! D17   D(19,1,3,8)           169.3412         estimate D2E/DX2                !
 ! D18   D(19,1,3,17)           54.0713         estimate D2E/DX2                !
 ! D19   D(2,1,19,20)         -171.3318         estimate D2E/DX2                !
 ! D20   D(3,1,19,20)          -44.3326         estimate D2E/DX2                !
 ! D21   D(6,1,19,20)           70.2959         estimate D2E/DX2                !
 ! D22   D(1,2,4,9)            -66.3976         estimate D2E/DX2                !
 ! D23   D(1,2,4,10)           173.149          estimate D2E/DX2                !
 ! D24   D(1,2,4,23)            57.8928         estimate D2E/DX2                !
 ! D25   D(5,2,4,9)             57.5511         estimate D2E/DX2                !
 ! D26   D(5,2,4,10)           -62.9024         estimate D2E/DX2                !
 ! D27   D(5,2,4,23)          -178.1585         estimate D2E/DX2                !
 ! D28   D(21,2,4,9)           173.1025         estimate D2E/DX2                !
 ! D29   D(21,2,4,10)           52.6491         estimate D2E/DX2                !
 ! D30   D(21,2,4,23)          -62.6071         estimate D2E/DX2                !
 ! D31   D(1,2,21,22)          -74.0332         estimate D2E/DX2                !
 ! D32   D(4,2,21,22)           50.1184         estimate D2E/DX2                !
 ! D33   D(5,2,21,22)          167.2947         estimate D2E/DX2                !
 ! D34   D(1,3,7,11)            52.4945         estimate D2E/DX2                !
 ! D35   D(1,3,7,12)           -71.67           estimate D2E/DX2                !
 ! D36   D(1,3,7,15)           170.0016         estimate D2E/DX2                !
 ! D37   D(8,3,7,11)           178.0857         estimate D2E/DX2                !
 ! D38   D(8,3,7,12)            53.9212         estimate D2E/DX2                !
 ! D39   D(8,3,7,15)           -64.4072         estimate D2E/DX2                !
 ! D40   D(17,3,7,11)          -66.6918         estimate D2E/DX2                !
 ! D41   D(17,3,7,12)          169.1437         estimate D2E/DX2                !
 ! D42   D(17,3,7,15)           50.8153         estimate D2E/DX2                !
 ! D43   D(1,3,17,18)         -168.9158         estimate D2E/DX2                !
 ! D44   D(7,3,17,18)          -43.5717         estimate D2E/DX2                !
 ! D45   D(8,3,17,18)           73.5133         estimate D2E/DX2                !
 ! D46   D(2,4,9,13)           -48.8559         estimate D2E/DX2                !
 ! D47   D(2,4,9,14)          -168.7153         estimate D2E/DX2                !
 ! D48   D(2,4,9,25)            72.816          estimate D2E/DX2                !
 ! D49   D(10,4,9,13)           71.4344         estimate D2E/DX2                !
 ! D50   D(10,4,9,14)          -48.4251         estimate D2E/DX2                !
 ! D51   D(10,4,9,25)         -166.8937         estimate D2E/DX2                !
 ! D52   D(23,4,9,13)         -173.9135         estimate D2E/DX2                !
 ! D53   D(23,4,9,14)           66.227          estimate D2E/DX2                !
 ! D54   D(23,4,9,25)          -52.2416         estimate D2E/DX2                !
 ! D55   D(2,4,23,24)          -35.3545         estimate D2E/DX2                !
 ! D56   D(9,4,23,24)           92.0515         estimate D2E/DX2                !
 ! D57   D(10,4,23,24)        -151.8392         estimate D2E/DX2                !
 ! D58   D(3,7,15,16)          177.9268         estimate D2E/DX2                !
 ! D59   D(11,7,15,16)         -61.874          estimate D2E/DX2                !
 ! D60   D(12,7,15,16)          56.9529         estimate D2E/DX2                !
 ! D61   D(4,9,25,26)           59.4505         estimate D2E/DX2                !
 ! D62   D(13,9,25,26)        -177.4769         estimate D2E/DX2                !
 ! D63   D(14,9,25,26)         -60.8553         estimate D2E/DX2                !
 --------------------------------------------------------------------------------
 Trust Radius=3.00D-01 FncErr=1.00D-07 GrdErr=1.00D-06 EigMax=2.50D+02 EigMin=1.00D-04
 Number of steps in this run=    140 maximum allowed number of steps=    156.
 GradGradGradGradGradGradGradGradGradGradGradGradGradGradGradGradGradGrad

                          Input orientation:                          
 ---------------------------------------------------------------------
 Center     Atomic      Atomic             Coordinates (Angstroms)
 Number     Number       Type             X           Y           Z
 ---------------------------------------------------------------------
      1          6           0        0.000000    0.000000    0.000000
      2          6           0        1.540700    0.000000    0.000000
      3          6           0       -0.660500    0.799700   -1.138700
      4          6           0        2.189600   -0.785500    1.168000
      5          1           0        1.909800    1.031400    0.000000
      6          1           0       -0.372000    0.419900    0.939500
      7          6           0       -0.298700    0.379800   -2.566300
      8          1           0       -0.460800    1.869900   -1.011700
      9          6           0        1.953500   -0.184900    2.555200
     10          1           0        3.271400   -0.816200    0.990400
     11          1           0       -0.453600   -0.692300   -2.720600
     12          1           0        0.725500    0.656700   -2.826000
     13          1           0        2.174100    0.886700    2.565700
     14          1           0        2.600800   -0.674500    3.290600
     15          8           0       -1.180800    1.072200   -3.463300
     16          1           0       -0.910100    0.815500   -4.363500
     17          8           0       -2.089800    0.625000   -0.992300
     18          1           0       -2.458600    0.989000   -1.826000
     19          8           0       -0.479900   -1.362800   -0.042800
     20          1           0       -1.447700   -1.259700   -0.183800
     21          8           0        2.009600   -0.620800   -1.212300
     22          1           0        1.848400   -1.579600   -1.092100
     23          8           0        1.752700   -2.157800    1.163900
     24          1           0        0.814700   -2.156600    0.865200
     25          8           0        0.612600   -0.381000    2.988700
     26          1           0        0.477400   -1.348000    3.001600
 ---------------------------------------------------------------------
                    Distance matrix (angstroms):
                    1          2          3          4          5
     1  C    0.000000
     2  C    1.540700   0.000000
     3  C    1.540266   2.604120   0.000000
     4  C    2.602995   1.549937   3.994596   0.000000
     5  H    2.170512   1.095455   2.820774   2.177989   0.000000
     6  H    1.094240   2.171957   2.132228   2.840246   2.542283
     7  C    2.611391   3.180179   1.531423   4.636222   3.447891
     8  H    2.175408   2.919943   1.096055   4.338993   2.710418
     9  C    3.221707   2.594926   4.631126   1.529963   2.830255
    10  H    3.514133   2.154622   4.754370   1.096711   2.499694
    11  H    2.843712   3.443570   2.184326   4.702808   3.994805
    12  H    2.990632   3.013649   2.188247   4.491722   3.086947
    13  H    3.477897   2.787517   4.665309   2.179463   2.583333
    14  H    4.248195   3.522330   5.694562   2.164910   3.770361
    15  O    3.812919   4.533279   2.397652   6.021593   4.641974
    16  H    4.531385   5.070660   3.234484   6.539788   5.199864
    17  O    2.396361   3.815208   1.447360   4.996966   4.140848
    18  H    3.218247   4.506306   1.934265   5.806776   4.734870
    19  O    1.445462   2.437597   2.431053   2.987565   3.383000
    20  H    1.927813   3.248255   2.402633   3.909243   4.068873
    21  O    2.427665   1.440462   3.025338   2.392771   2.051681
    22  H    2.665408   1.944864   3.458008   2.419724   2.830861
    23  O    3.013755   2.460835   4.457837   1.440176   3.398579
    24  H    2.462363   2.434455   3.864135   1.965185   3.480109
    25  O    3.074535   3.152595   4.477752   2.442437   3.551046
    26  H    3.324848   3.457935   4.800991   2.571016   4.089366
                    6          7          8          9         10
     6  H    0.000000
     7  C    3.506795   0.000000
     8  H    2.432605   2.159504   0.000000
     9  C    2.895552   5.623260   4.772193   0.000000
    10  H    3.847713   5.179396   5.015262   2.141028   0.000000
    11  H    3.826223   1.094167   3.079815   5.821138   5.259515
    12  H    3.929322   1.092293   2.484119   5.583331   4.818293
    13  H    3.056968   5.719188   4.550513   1.094121   2.566224
    14  H    3.944987   6.619813   5.861497   1.095225   2.400147
    15  O    4.523749   1.436011   2.676764   6.901194   6.574464
    16  H    5.344891   1.947709   3.542343   7.554430   6.986532
    17  O    2.593213   2.397006   2.050315   5.439574   5.894966
    18  H    3.510807   2.363120   2.330295   6.327684   6.635040
    19  O    2.038277   3.072058   3.374831   3.749465   3.929189
    20  H    2.289102   3.111988   3.384344   4.497274   4.883169
    21  O    3.374214   2.857055   3.513788   3.793048   2.546018
    22  H    3.613250   3.259226   4.151857   3.906281   2.635245
    23  O    3.348021   4.956011   5.084799   2.422472   2.033825
    24  H    2.837627   4.410009   4.621943   2.835589   2.801379
    25  O    2.410415   5.680432   4.714015   1.422811   3.354373
    26  H    2.845911   5.881253   5.228927   1.931566   3.483414
                   11         12         13         14         15
    11  H    0.000000
    12  H    1.794767   0.000000
    13  H    6.110893   5.587644   0.000000
    14  H    6.742715   6.534649   1.773386   0.000000
    15  O    2.047897   2.052504   6.902073   7.935151   0.000000
    16  H    2.276175   2.250402   7.584931   8.551711   0.974440
    17  O    2.720193   3.359966   5.559559   6.483337   2.670601
    18  H    2.765340   3.353940   6.384309   7.385415   2.078568
    19  O    2.760593   3.643840   4.348360   4.590863   4.256795
    20  H    2.783080   3.921302   5.028342   5.366961   4.032879
    21  O    2.889193   2.425891   4.070983   4.541862   4.255808
    22  H    2.956098   3.044397   4.423598   4.537992   4.672332
    23  O    4.701573   4.989574   3.378106   2.728059   6.359977
    24  H    4.075625   4.641936   3.741837   3.356984   5.757003
    25  O    5.816339   5.907648   2.055304   2.032296   6.852472
    26  H    5.834405   6.167763   2.839487   2.246319   7.099431
                   16         17         18         19         20
    16  H    0.000000
    17  O    3.576726   0.000000
    18  H    2.977727   0.981614   0.000000
    19  O    4.857830   2.728494   3.553311   0.000000
    20  H    4.697378   2.148967   2.962329   0.983437   0.000000
    21  O    4.529643   4.290163   4.788830   2.848843   3.663186
    22  H    4.903864   4.514382   5.068191   2.563009   3.433893
    23  O    6.817857   5.211332   6.047884   2.659446   3.586842
    24  H    6.256806   4.429867   5.277485   1.769342   2.650148
    25  O    7.602965   4.915624   5.872862   3.368602   3.883517
    26  H    7.800679   5.141447   6.114523   3.191397   3.722980
                   21         22         23         24         25
    21  O    0.000000
    22  H    0.979659   0.000000
    23  O    2.841600   2.330882   0.000000
    24  H    2.846484   2.287463   0.984412   0.000000
    25  O    4.433680   4.429083   2.790473   2.775401   0.000000
    26  H    4.542401   4.323385   2.378930   2.309071   0.976491
                   26
    26  H    0.000000
 Stoichiometry    C6H14O6
 Framework group  C1[X(C6H14O6)]
 Deg. of freedom    72
 Full point group                 C1      NOp   1
 Largest Abelian subgroup         C1      NOp   1
 Largest concise Abelian subgroup C1      NOp   1
                         Standard orientation:                         
 ---------------------------------------------------------------------
 Center     Atomic      Atomic             Coordinates (Angstroms)
 Number     Number       Type             X           Y           Z
 ---------------------------------------------------------------------
      1          6           0        0.153942   -0.470116   -0.097478
      2          6           0       -0.616051    0.758797   -0.617708
      3          6           0        1.643277   -0.529406   -0.485784
      4          6           0       -2.119511    0.789265   -0.242227
      5          1           0       -0.506697    0.829617   -1.705388
      6          1           0       -0.309010   -1.386649   -0.475635
      7          6           0        2.510579    0.653713   -0.046154
      8          1           0        1.744464   -0.673597   -1.567591
      9          6           0       -2.965111   -0.310024   -0.888223
     10          1           0       -2.523635    1.758760   -0.557726
     11          1           0        2.408793    0.849415    1.025546
     12          1           0        2.290025    1.556791   -0.619660
     13          1           0       -2.778677   -0.372278   -1.964544
     14          1           0       -4.029622   -0.101493   -0.737063
     15          8           0        3.882393    0.304889   -0.288181
     16          1           0        4.410317    1.083124   -0.032876
     17          8           0        2.188078   -1.713991    0.142549
     18          1           0        3.158030   -1.617827    0.026314
     19          8           0        0.040563   -0.533383    1.342141
     20          1           0        0.668944   -1.248322    1.589422
     21          8           0       -0.035615    1.949714   -0.052251
     22          1           0       -0.326511    1.961331    0.883150
     23          8           0       -2.288742    0.740574    1.187142
     24          1           0       -1.575289    0.160255    1.538256
     25          8           0       -2.705426   -1.581051   -0.303889
     26          1           0       -2.923883   -1.486525    0.643147
 ---------------------------------------------------------------------
 Rotational constants (GHZ):           1.6821176           0.5223425           0.4646463
 Standard basis: def2TZVPP (5D, 7F)
 There are   642 symmetry adapted cartesian basis functions of A   symmetry.
 There are   568 symmetry adapted basis functions of A   symmetry.
   568 basis functions,   850 primitive gaussians,   642 cartesian basis functions
    49 alpha electrons       49 beta electrons
       nuclear repulsion energy       835.7976571434 Hartrees.
 NAtoms=   26 NActive=   26 NUniq=   26 SFac= 1.00D+00 NAtFMM=   60 NAOKFM=F Big=F
 Integral buffers will be    131072 words long.
 Raffenetti 2 integral format.
 Two-electron integral symmetry is turned on.
 Nuclear repulsion after empirical dispersion term =      835.7789155050 Hartrees.
 One-electron integrals computed using PRISM.
   1 Symmetry operations used in ECPInt.
 ECPInt:  NShTT=   23436 NPrTT=   62434 LenC2=   21870 LenP2D=   45562.
 LDataN:  DoStor=T MaxTD1= 6 Len=  172
 NBasis=   568 RedAO= T EigKep=  4.57D-05  NBF=   568
 NBsUse=   568 1.00D-06 EigRej= -1.00D+00 NBFU=   568
 ExpMin= 9.52D-02 ExpMax= 2.70D+04 ExpMxC= 9.22D+02 IAcc=3 IRadAn=         5 AccDes= 0.00D+00
 Harris functional with IExCor= 4639 and IRadAn=       5 diagonalized for initial guess.
 HarFok:  IExCor= 4639 AccDes= 0.00D+00 IRadAn=         5 IDoV= 1 UseB2=F ITyADJ=14
 ICtDFT=  3500011 ScaDFX=  1.000000  1.000000  1.000000  1.000000
 FoFCou: FMM=F IPFlag=           0 FMFlag=      100000 FMFlg1=           0
         NFxFlg=           0 DoJE=T BraDBF=F KetDBF=T FulRan=T
         wScrn=  0.000000 ICntrl=       500 IOpCl=  0 I1Cent=   200000004 NGrid=           0
         NMat0=    1 NMatS0=      1 NMatT0=    0 NMatD0=    1 NMtDS0=    0 NMtDT0=    0
 Petite list used in FoFCou.
 Requested convergence on RMS density matrix=1.00D-08 within 128 cycles.
 Requested convergence on MAX density matrix=1.00D-06.
 Requested convergence on             energy=1.00D-06.
 No special actions if energy rises.
 Integral accuracy reduced to 1.0D-05 until final iterations.
 Initial convergence to 1.0D-05 achieved.  Increase integral accuracy.
 SCF Done:  E(RwB97XD) =  -688.469999523     A.U. after   13 cycles
            NFock= 13  Conv=0.76D-08     -V/T= 2.0050

 **********************************************************************

            Population analysis using the SCF Density.

 **********************************************************************

 Orbital symmetries:
       Occupied  (A) (A) (A) (A) (A) (A) (A) (A) (A) (A) (A) (A)
                 (A) (A) (A) (A) (A) (A) (A) (A) (A) (A) (A) (A)
                 (A) (A) (A) (A) (A) (A) (A) (A) (A) (A) (A) (A)
                 (A) (A) (A) (A) (A) (A) (A) (A) (A) (A) (A) (A)
                 (A)
       Virtual   (A) (A) (A) (A) (A) (A) (A) (A) (A) (A) (A) (A)
                 (A) (A) (A) (A) (A) (A) (A) (A) (A) (A) (A) (A)
                 (A) (A) (A) (A) (A) (A) (A) (A) (A) (A) (A) (A)
                 (A) (A) (A) (A) (A) (A) (A) (A) (A) (A) (A) (A)
                 (A) (A) (A) (A) (A) (A) (A) (A) (A) (A) (A) (A)
                 (A) (A) (A) (A) (A) (A) (A) (A) (A) (A) (A) (A)
                 (A) (A) (A) (A) (A) (A) (A) (A) (A) (A) (A) (A)
                 (A) (A) (A) (A) (A) (A) (A) (A) (A) (A) (A) (A)
                 (A) (A) (A) (A) (A) (A) (A) (A) (A) (A) (A) (A)
                 (A) (A) (A) (A) (A) (A) (A) (A) (A) (A) (A) (A)
                 (A) (A) (A) (A) (A) (A) (A) (A) (A) (A) (A) (A)
                 (A) (A) (A) (A) (A) (A) (A) (A) (A) (A) (A) (A)
                 (A) (A) (A) (A) (A) (A) (A) (A) (A) (A) (A) (A)
                 (A) (A) (A) (A) (A) (A) (A) (A) (A) (A) (A) (A)
                 (A) (A) (A) (A) (A) (A) (A) (A) (A) (A) (A) (A)
                 (A) (A) (A) (A) (A) (A) (A) (A) (A) (A) (A) (A)
                 (A) (A) (A) (A) (A) (A) (A) (A) (A) (A) (A) (A)
                 (A) (A) (A) (A) (A) (A) (A) (A) (A) (A) (A) (A)
                 (A) (A) (A) (A) (A) (A) (A) (A) (A) (A) (A) (A)
                 (A) (A) (A) (A) (A) (A) (A) (A) (A) (A) (A) (A)
                 (A) (A) (A) (A) (A) (A) (A) (A) (A) (A) (A) (A)
                 (A) (A) (A) (A) (A) (A) (A) (A) (A) (A) (A) (A)
                 (A) (A) (A) (A) (A) (A) (A) (A) (A) (A) (A) (A)
                 (A) (A) (A) (A) (A) (A) (A) (A) (A) (A) (A) (A)
                 (A) (A) (A) (A) (A) (A) (A) (A) (A) (A) (A) (A)
                 (A) (A) (A) (A) (A) (A) (A) (A) (A) (A) (A) (A)
                 (A) (A) (A) (A) (A) (A) (A) (A) (A) (A) (A) (A)
                 (A) (A) (A) (A) (A) (A) (A) (A) (A) (A) (A) (A)
                 (A) (A) (A) (A) (A) (A) (A) (A) (A) (A) (A) (A)
                 (A) (A) (A) (A) (A) (A) (A) (A) (A) (A) (A) (A)
                 (A) (A) (A) (A) (A) (A) (A) (A) (A) (A) (A) (A)
                 (A) (A) (A) (A) (A) (A) (A) (A) (A) (A) (A) (A)
                 (A) (A) (A) (A) (A) (A) (A) (A) (A) (A) (A) (A)
                 (A) (A) (A) (A) (A) (A) (A) (A) (A) (A) (A) (A)
                 (A) (A) (A) (A) (A) (A) (A) (A) (A) (A) (A) (A)
                 (A) (A) (A) (A) (A) (A) (A) (A) (A) (A) (A) (A)
                 (A) (A) (A) (A) (A) (A) (A) (A) (A) (A) (A) (A)
                 (A) (A) (A) (A) (A) (A) (A) (A) (A) (A) (A) (A)
                 (A) (A) (A) (A) (A) (A) (A) (A) (A) (A) (A) (A)
                 (A) (A) (A) (A) (A) (A) (A) (A) (A) (A) (A) (A)
                 (A) (A) (A) (A) (A) (A) (A) (A) (A) (A) (A) (A)
                 (A) (A) (A) (A) (A) (A) (A) (A) (A) (A) (A) (A)
                 (A) (A) (A) (A) (A) (A) (A) (A) (A) (A) (A) (A)
                 (A) (A) (A)
 The electronic state is 1-A.
 Alpha  occ. eigenvalues --  -19.27259 -19.26457 -19.25936 -19.25370 -19.25081
 Alpha  occ. eigenvalues --  -19.24873 -10.35500 -10.35072 -10.35016 -10.34353
 Alpha  occ. eigenvalues --  -10.33467 -10.33268  -1.16053  -1.14424  -1.13138
 Alpha  occ. eigenvalues --   -1.12251  -1.11145  -1.10290  -0.88636  -0.85287
 Alpha  occ. eigenvalues --   -0.80583  -0.75125  -0.71113  -0.68232  -0.64137
 Alpha  occ. eigenvalues --   -0.61780  -0.60902  -0.60082  -0.59365  -0.57264
 Alpha  occ. eigenvalues --   -0.56498  -0.55059  -0.53130  -0.52679  -0.51158
 Alpha  occ. eigenvalues --   -0.50568  -0.48843  -0.47483  -0.45602  -0.44701
 Alpha  occ. eigenvalues --   -0.43924  -0.42891  -0.41407  -0.38980  -0.38116
 Alpha  occ. eigenvalues --   -0.37523  -0.37082  -0.36789  -0.34788
 Alpha virt. eigenvalues --    0.09064   0.10263   0.11679   0.12903   0.13524
 Alpha virt. eigenvalues --    0.14233   0.16392   0.17588   0.18180   0.18677
 Alpha virt. eigenvalues --    0.19712   0.19973   0.20474   0.21183   0.21979
 Alpha virt. eigenvalues --    0.22900   0.23311   0.24157   0.25803   0.25977
 Alpha virt. eigenvalues --    0.26705   0.27930   0.30581   0.31832   0.34278
 Alpha virt. eigenvalues --    0.34759   0.36484   0.37159   0.37539   0.37599
 Alpha virt. eigenvalues --    0.38990   0.39418   0.39726   0.40921   0.42022
 Alpha virt. eigenvalues --    0.42214   0.42349   0.43336   0.43952   0.44667
 Alpha virt. eigenvalues --    0.45849   0.45904   0.46305   0.47191   0.48099
 Alpha virt. eigenvalues --    0.48410   0.49226   0.50105   0.50187   0.51113
 Alpha virt. eigenvalues --    0.51376   0.51983   0.53248   0.54208   0.55172
 Alpha virt. eigenvalues --    0.56400   0.57075   0.57258   0.58365   0.58876
 Alpha virt. eigenvalues --    0.59346   0.61834   0.62371   0.62559   0.64618
 Alpha virt. eigenvalues --    0.65087   0.66221   0.66628   0.67156   0.68415
 Alpha virt. eigenvalues --    0.69150   0.71688   0.72618   0.73682   0.74394
 Alpha virt. eigenvalues --    0.74972   0.75020   0.75984   0.80340   0.80498
 Alpha virt. eigenvalues --    0.81523   0.83438   0.83650   0.85903   0.86682
 Alpha virt. eigenvalues --    0.86982   0.88285   0.89678   0.90209   0.90860
 Alpha virt. eigenvalues --    0.92051   0.93236   0.93769   0.95078   0.96183
 Alpha virt. eigenvalues --    0.96257   0.97257   0.98469   0.99870   1.01288
 Alpha virt. eigenvalues --    1.02601   1.04835   1.06244   1.07110   1.07998
 Alpha virt. eigenvalues --    1.08639   1.09898   1.11008   1.11871   1.13292
 Alpha virt. eigenvalues --    1.14436   1.14852   1.15404   1.16658   1.17437
 Alpha virt. eigenvalues --    1.17839   1.19563   1.23309   1.24286   1.25425
 Alpha virt. eigenvalues --    1.26718   1.28557   1.29901   1.30707   1.30894
 Alpha virt. eigenvalues --    1.31702   1.32863   1.33466   1.34038   1.34547
 Alpha virt. eigenvalues --    1.36068   1.37582   1.38772   1.38898   1.40161
 Alpha virt. eigenvalues --    1.41263   1.43283   1.44675   1.45347   1.45867
 Alpha virt. eigenvalues --    1.47685   1.49277   1.50275   1.51191   1.52292
 Alpha virt. eigenvalues --    1.52915   1.53679   1.55943   1.57220   1.57747
 Alpha virt. eigenvalues --    1.59195   1.60738   1.61198   1.62753   1.63292
 Alpha virt. eigenvalues --    1.65271   1.66454   1.69844   1.70093   1.73128
 Alpha virt. eigenvalues --    1.74581   1.75884   1.80432   1.81435   1.84954
 Alpha virt. eigenvalues --    1.85881   1.88341   1.90620   1.92025   1.93595
 Alpha virt. eigenvalues --    1.94043   1.95801   1.96263   1.99020   1.99278
 Alpha virt. eigenvalues --    2.01405   2.02397   2.02933   2.04760   2.05096
 Alpha virt. eigenvalues --    2.06238   2.07430   2.08416   2.08774   2.11454
 Alpha virt. eigenvalues --    2.12788   2.14205   2.15865   2.17343   2.18168
 Alpha virt. eigenvalues --    2.19977   2.20645   2.22318   2.23891   2.26798
 Alpha virt. eigenvalues --    2.28392   2.29919   2.30206   2.31421   2.34524
 Alpha virt. eigenvalues --    2.35111   2.35746   2.38866   2.40707   2.42048
 Alpha virt. eigenvalues --    2.43219   2.46203   2.47782   2.48415   2.52039
 Alpha virt. eigenvalues --    2.56185   2.57238   2.59256   2.62100   2.65921
 Alpha virt. eigenvalues --    2.66235   2.67647   2.68807   2.69902   2.70644
 Alpha virt. eigenvalues --    2.73077   2.74672   2.75116   2.76898   2.77749
 Alpha virt. eigenvalues --    2.78782   2.79957   2.82043   2.82744   2.83720
 Alpha virt. eigenvalues --    2.85137   2.86095   2.88222   2.89185   2.89640
 Alpha virt. eigenvalues --    2.92262   2.93615   2.94751   2.97095   2.99390
 Alpha virt. eigenvalues --    2.99699   3.01996   3.02613   3.04467   3.05169
 Alpha virt. eigenvalues --    3.05861   3.08095   3.09076   3.09300   3.11109
 Alpha virt. eigenvalues --    3.12022   3.13292   3.14583   3.14612   3.17209
 Alpha virt. eigenvalues --    3.18138   3.18541   3.19989   3.20898   3.21118
 Alpha virt. eigenvalues --    3.23019   3.24195   3.24980   3.25926   3.27136
 Alpha virt. eigenvalues --    3.27723   3.28813   3.29671   3.31316   3.32050
 Alpha virt. eigenvalues --    3.33713   3.35333   3.35794   3.36508   3.37782
 Alpha virt. eigenvalues --    3.39163   3.40058   3.41943   3.42198   3.42608
 Alpha virt. eigenvalues --    3.43151   3.44108   3.45972   3.47188   3.48852
 Alpha virt. eigenvalues --    3.49266   3.51538   3.51937   3.52928   3.53624
 Alpha virt. eigenvalues --    3.54302   3.56450   3.57652   3.58868   3.60888
 Alpha virt. eigenvalues --    3.61495   3.62431   3.64567   3.65991   3.67465
 Alpha virt. eigenvalues --    3.67571   3.68893   3.69731   3.70418   3.70981
 Alpha virt. eigenvalues --    3.73655   3.74332   3.75284   3.76605   3.78218
 Alpha virt. eigenvalues --    3.78713   3.80539   3.81316   3.82750   3.83280
 Alpha virt. eigenvalues --    3.84196   3.85702   3.87600   3.88979   3.89733
 Alpha virt. eigenvalues --    3.90391   3.91313   3.91809   3.94257   3.96558
 Alpha virt. eigenvalues --    3.96695   3.98345   3.99523   3.99862   4.01030
 Alpha virt. eigenvalues --    4.02531   4.03662   4.04523   4.05315   4.06706
 Alpha virt. eigenvalues --    4.07696   4.08979   4.09441   4.10503   4.11850
 Alpha virt. eigenvalues --    4.14788   4.15513   4.16137   4.17693   4.18272
 Alpha virt. eigenvalues --    4.19179   4.19690   4.21329   4.21697   4.21899
 Alpha virt. eigenvalues --    4.22632   4.24433   4.25085   4.26597   4.28035
 Alpha virt. eigenvalues --    4.29318   4.30016   4.32463   4.33216   4.33871
 Alpha virt. eigenvalues --    4.36185   4.37083   4.38113   4.39430   4.41102
 Alpha virt. eigenvalues --    4.42083   4.42746   4.44073   4.45737   4.47084
 Alpha virt. eigenvalues --    4.48722   4.49125   4.50188   4.52251   4.54184
 Alpha virt. eigenvalues --    4.55673   4.57455   4.58480   4.60050   4.61222
 Alpha virt. eigenvalues --    4.64305   4.64655   4.66194   4.67741   4.68796
 Alpha virt. eigenvalues --    4.73737   4.75629   4.76367   4.79471   4.82106
 Alpha virt. eigenvalues --    4.82950   4.84157   4.86244   4.87856   4.90362
 Alpha virt. eigenvalues --    4.91548   4.93909   4.94728   4.95647   4.96858
 Alpha virt. eigenvalues --    4.98783   5.01329   5.02011   5.02658   5.04590
 Alpha virt. eigenvalues --    5.05275   5.06870   5.08918   5.10398   5.12686
 Alpha virt. eigenvalues --    5.13631   5.14771   5.15090   5.16828   5.20230
 Alpha virt. eigenvalues --    5.22221   5.22317   5.24923   5.26008   5.30116
 Alpha virt. eigenvalues --    5.32631   5.33435   5.35022   5.36078   5.42477
 Alpha virt. eigenvalues --    5.43357   5.49032   5.54730   5.56692   5.59372
 Alpha virt. eigenvalues --    5.59916   5.61448   5.63780   5.64897   5.65263
 Alpha virt. eigenvalues --    5.66703   5.69916   5.71265   5.73075   5.74199
 Alpha virt. eigenvalues --    5.75684   5.76062   5.78360   5.82792   5.85511
 Alpha virt. eigenvalues --    5.86230   5.88335   5.91355   5.92722   5.97973
 Alpha virt. eigenvalues --    6.00314   6.00637   6.02471   6.10410   6.13634
 Alpha virt. eigenvalues --    6.14534   6.16218   6.18260   6.21829   6.52837
 Alpha virt. eigenvalues --    6.53734   6.55223   6.56129   6.57135   6.57333
 Alpha virt. eigenvalues --    6.70053   6.72954   6.74697   6.76144   6.76693
 Alpha virt. eigenvalues --    6.77659   6.78425   6.79964   6.80479   6.81060
 Alpha virt. eigenvalues --    6.82442   6.83477   6.87111   6.88082   6.89511
 Alpha virt. eigenvalues --    6.90942   6.91822   6.96261   6.98090   7.01474
 Alpha virt. eigenvalues --    7.03277   7.04621   7.05699   7.07698   7.16239
 Alpha virt. eigenvalues --    7.17272   7.19008   7.21737   7.23720   7.25851
 Alpha virt. eigenvalues --    7.40868   7.42563   7.45039   7.46035   7.48700
 Alpha virt. eigenvalues --    7.49601   7.52795   7.54432   7.58766   7.61499
 Alpha virt. eigenvalues --    7.66703   7.75664  23.08903  23.15658  23.19564
 Alpha virt. eigenvalues --   23.23483  23.44765  23.45978  44.09442  44.15001
 Alpha virt. eigenvalues --   44.24807  44.27516  44.37554  44.38061
          Condensed to atoms (all electrons):
               1          2          3          4          5          6
     1  C    5.266275   0.139881   0.110847   0.028535  -0.054069   0.423267
     2  C    0.139881   4.892573   0.039895   0.322475   0.409018  -0.018982
     3  C    0.110847   0.039895   4.972012  -0.015533   0.006332  -0.019199
     4  C    0.028535   0.322475  -0.015533   4.815494  -0.017010  -0.008092
     5  H   -0.054069   0.409018   0.006332  -0.017010   0.578448   0.004044
     6  H    0.423267  -0.018982  -0.019199  -0.008092   0.004044   0.517819
     7  C    0.004737   0.002654   0.266656   0.001896  -0.001391   0.007506
     8  H   -0.023765  -0.012193   0.421357   0.000461   0.002153  -0.006393
     9  C    0.000166  -0.031242   0.001634   0.293816  -0.005864  -0.005118
    10  H    0.011887  -0.047093  -0.000289   0.423963  -0.003822  -0.000633
    11  H    0.020531  -0.010121  -0.051178   0.000177   0.000255   0.000493
    12  H   -0.019582   0.003337  -0.009875  -0.000164   0.000199  -0.000761
    13  H   -0.002960   0.003305  -0.000523  -0.037414  -0.000108  -0.001168
    14  H    0.001917   0.007003   0.000051  -0.042896  -0.000555   0.000849
    15  O    0.007335  -0.000295  -0.074190  -0.000019  -0.000054  -0.000051
    16  H   -0.001766   0.000058   0.011448  -0.000005   0.000002   0.000032
    17  O   -0.073183   0.003795   0.279812  -0.000123   0.000069   0.002819
    18  H    0.007362  -0.000855  -0.039507   0.000000  -0.000004  -0.000234
    19  O    0.191374  -0.015057  -0.011661  -0.015767   0.002873  -0.033962
    20  H   -0.043701   0.001811   0.006204   0.001324  -0.000271  -0.004840
    21  O   -0.038946   0.252300  -0.018759  -0.027352  -0.020919   0.003162
    22  H   -0.005970  -0.042068  -0.001263  -0.009796   0.008224   0.000520
    23  O   -0.010395  -0.027390   0.002487   0.261226   0.003990   0.000692
    24  H   -0.002243  -0.004720   0.001396  -0.037327  -0.000063   0.000204
    25  O    0.015428  -0.028991   0.001721  -0.029690  -0.000822   0.018045
    26  H    0.001585  -0.003921  -0.000408  -0.003641  -0.000305  -0.003207
               7          8          9         10         11         12
     1  C    0.004737  -0.023765   0.000166   0.011887   0.020531  -0.019582
     2  C    0.002654  -0.012193  -0.031242  -0.047093  -0.010121   0.003337
     3  C    0.266656   0.421357   0.001634  -0.000289  -0.051178  -0.009875
     4  C    0.001896   0.000461   0.293816   0.423963   0.000177  -0.000164
     5  H   -0.001391   0.002153  -0.005864  -0.003822   0.000255   0.000199
     6  H    0.007506  -0.006393  -0.005118  -0.000633   0.000493  -0.000761
     7  C    4.764692  -0.044419  -0.000450  -0.000077   0.413005   0.427065
     8  H   -0.044419   0.616537  -0.000126   0.000056   0.009620  -0.005462
     9  C   -0.000450  -0.000126   4.797088  -0.032977  -0.000033   0.000057
    10  H   -0.000077   0.000056  -0.032977   0.577939   0.000024   0.000020
    11  H    0.413005   0.009620  -0.000033   0.000024   0.597664  -0.031009
    12  H    0.427065  -0.005462   0.000057   0.000020  -0.031009   0.583434
    13  H    0.000098   0.000019   0.397566   0.004512   0.000001  -0.000005
    14  H   -0.000000  -0.000003   0.428850  -0.003855   0.000000   0.000001
    15  O    0.268301   0.005871  -0.000001  -0.000000  -0.049549  -0.045137
    16  H   -0.031836  -0.000138  -0.000000   0.000000  -0.004325  -0.005878
    17  O   -0.036622  -0.037587  -0.000040   0.000003   0.001068   0.004829
    18  H   -0.006456  -0.004251  -0.000002  -0.000001  -0.001742   0.001715
    19  O   -0.017942   0.003411  -0.001395  -0.000765   0.014258   0.001190
    20  H   -0.003525   0.002103  -0.000013   0.000080   0.000582   0.000187
    21  O    0.012301   0.000257   0.006067   0.006286   0.001899   0.002631
    22  H    0.000992  -0.000042   0.001994  -0.004043   0.000126  -0.001244
    23  O   -0.000608   0.000019  -0.055227  -0.029116   0.000026  -0.000008
    24  H    0.000087  -0.000084  -0.006779   0.005577  -0.000007  -0.000007
    25  O   -0.000035  -0.000032   0.241700   0.004520  -0.000003   0.000003
    26  H    0.000052  -0.000007  -0.041048   0.000861  -0.000003  -0.000001
              13         14         15         16         17         18
     1  C   -0.002960   0.001917   0.007335  -0.001766  -0.073183   0.007362
     2  C    0.003305   0.007003  -0.000295   0.000058   0.003795  -0.000855
     3  C   -0.000523   0.000051  -0.074190   0.011448   0.279812  -0.039507
     4  C   -0.037414  -0.042896  -0.000019  -0.000005  -0.000123   0.000000
     5  H   -0.000108  -0.000555  -0.000054   0.000002   0.000069  -0.000004
     6  H   -0.001168   0.000849  -0.000051   0.000032   0.002819  -0.000234
     7  C    0.000098  -0.000000   0.268301  -0.031836  -0.036622  -0.006456
     8  H    0.000019  -0.000003   0.005871  -0.000138  -0.037587  -0.004251
     9  C    0.397566   0.428850  -0.000001  -0.000000  -0.000040  -0.000002
    10  H    0.004512  -0.003855  -0.000000   0.000000   0.000003  -0.000001
    11  H    0.000001   0.000000  -0.049549  -0.004325   0.001068  -0.001742
    12  H   -0.000005   0.000001  -0.045137  -0.005878   0.004829   0.001715
    13  H    0.615173  -0.031027  -0.000000   0.000000  -0.000001  -0.000000
    14  H   -0.031027   0.591108   0.000000  -0.000000   0.000000   0.000000
    15  O   -0.000000   0.000000   7.908704   0.327312  -0.013354   0.027941
    16  H    0.000000  -0.000000   0.327312   0.522977   0.000172  -0.001683
    17  O   -0.000001   0.000000  -0.013354   0.000172   7.916269   0.332948
    18  H   -0.000000   0.000000   0.027941  -0.001683   0.332948   0.472614
    19  O    0.000062  -0.000058   0.000102   0.000065  -0.013268   0.000231
    20  H   -0.000008  -0.000002  -0.000032  -0.000009   0.031730  -0.001533
    21  O    0.000091  -0.000314   0.000738   0.000081   0.000146   0.000049
    22  H   -0.000084  -0.000135  -0.000027  -0.000003   0.000028   0.000001
    23  O    0.004475   0.002219  -0.000000  -0.000000  -0.000006  -0.000000
    24  H   -0.000192   0.000060   0.000002  -0.000000  -0.000050   0.000009
    25  O   -0.031275  -0.037888   0.000000  -0.000000   0.000019   0.000003
    26  H    0.010580  -0.008191   0.000000   0.000000  -0.000001   0.000000
              19         20         21         22         23         24
     1  C    0.191374  -0.043701  -0.038946  -0.005970  -0.010395  -0.002243
     2  C   -0.015057   0.001811   0.252300  -0.042068  -0.027390  -0.004720
     3  C   -0.011661   0.006204  -0.018759  -0.001263   0.002487   0.001396
     4  C   -0.015767   0.001324  -0.027352  -0.009796   0.261226  -0.037327
     5  H    0.002873  -0.000271  -0.020919   0.008224   0.003990  -0.000063
     6  H   -0.033962  -0.004840   0.003162   0.000520   0.000692   0.000204
     7  C   -0.017942  -0.003525   0.012301   0.000992  -0.000608   0.000087
     8  H    0.003411   0.002103   0.000257  -0.000042   0.000019  -0.000084
     9  C   -0.001395  -0.000013   0.006067   0.001994  -0.055227  -0.006779
    10  H   -0.000765   0.000080   0.006286  -0.004043  -0.029116   0.005577
    11  H    0.014258   0.000582   0.001899   0.000126   0.000026  -0.000007
    12  H    0.001190   0.000187   0.002631  -0.001244  -0.000008  -0.000007
    13  H    0.000062  -0.000008   0.000091  -0.000084   0.004475  -0.000192
    14  H   -0.000058  -0.000002  -0.000314  -0.000135   0.002219   0.000060
    15  O    0.000102  -0.000032   0.000738  -0.000027  -0.000000   0.000002
    16  H    0.000065  -0.000009   0.000081  -0.000003  -0.000000  -0.000000
    17  O   -0.013268   0.031730   0.000146   0.000028  -0.000006  -0.000050
    18  H    0.000231  -0.001533   0.000049   0.000001  -0.000000   0.000009
    19  O    7.949811   0.318483  -0.002781   0.006321  -0.024772   0.044812
    20  H    0.318483   0.486337  -0.000288  -0.000276   0.000995  -0.002519
    21  O   -0.002781  -0.000288   7.888506   0.324121  -0.009192  -0.000230
    22  H    0.006321  -0.000276   0.324121   0.503496   0.022621  -0.000619
    23  O   -0.024772   0.000995  -0.009192   0.022621   7.931649   0.341717
    24  H    0.044812  -0.002519  -0.000230  -0.000619   0.341717   0.441461
    25  O   -0.000597   0.000122  -0.000049  -0.000068  -0.006137   0.001060
    26  H    0.002360   0.000019   0.000032  -0.000152   0.018871   0.001524
              25         26
     1  C    0.015428   0.001585
     2  C   -0.028991  -0.003921
     3  C    0.001721  -0.000408
     4  C   -0.029690  -0.003641
     5  H   -0.000822  -0.000305
     6  H    0.018045  -0.003207
     7  C   -0.000035   0.000052
     8  H   -0.000032  -0.000007
     9  C    0.241700  -0.041048
    10  H    0.004520   0.000861
    11  H   -0.000003  -0.000003
    12  H    0.000003  -0.000001
    13  H   -0.031275   0.010580
    14  H   -0.037888  -0.008191
    15  O    0.000000   0.000000
    16  H   -0.000000   0.000000
    17  O    0.000019  -0.000001
    18  H    0.000003   0.000000
    19  O   -0.000597   0.002360
    20  H    0.000122   0.000019
    21  O   -0.000049   0.000032
    22  H   -0.000068  -0.000152
    23  O   -0.006137   0.018871
    24  H    0.001060   0.001524
    25  O    7.899051   0.318911
    26  H    0.318911   0.518767
 Mulliken charges:
               1
     1  C    0.045453
     2  C    0.164822
     3  C    0.120532
     4  C    0.095463
     5  H    0.089650
     6  H    0.123188
     7  C   -0.026682
     8  H    0.072639
     9  C    0.011377
    10  H    0.086943
    11  H    0.088241
    12  H    0.094462
    13  H    0.068883
    14  H    0.092868
    15  O   -0.363597
    16  H    0.183494
    17  O   -0.399473
    18  H    0.213395
    19  O   -0.397331
    20  H    0.207040
    21  O   -0.379837
    22  H    0.197346
    23  O   -0.428134
    24  H    0.216933
    25  O   -0.364997
    26  H    0.187323
 Sum of Mulliken charges =  -0.00000
 Mulliken charges with hydrogens summed into heavy atoms:
               1
     1  C    0.168641
     2  C    0.254472
     3  C    0.193171
     4  C    0.182406
     7  C    0.156021
     9  C    0.173127
    15  O   -0.180103
    17  O   -0.186078
    19  O   -0.190290
    21  O   -0.182491
    23  O   -0.211202
    25  O   -0.177675
 Electronic spatial extent (au):  <R**2>=           2483.6668
 Charge=             -0.0000 electrons
 Dipole moment (field-independent basis, Debye):
    X=              1.4950    Y=              1.1553    Z=             -0.4313  Tot=              1.9380
 Quadrupole moment (field-independent basis, Debye-Ang):
   XX=            -67.4088   YY=            -78.1337   ZZ=            -69.1593
   XY=              3.7703   XZ=              4.3818   YZ=             -2.7616
 Traceless Quadrupole moment (field-independent basis, Debye-Ang):
   XX=              4.1585   YY=             -6.5664   ZZ=              2.4079
   XY=              3.7703   XZ=              4.3818   YZ=             -2.7616
 Octapole moment (field-independent basis, Debye-Ang**2):
  XXX=             37.3779  YYY=              3.1313  ZZZ=              6.3717  XYY=             18.0221
  XXY=             24.5207  XXZ=              6.6223  XZZ=              1.3081  YZZ=             -4.6930
  YYZ=             12.4971  XYZ=             12.6254
 Hexadecapole moment (field-independent basis, Debye-Ang**3):
 XXXX=          -1958.4697 YYYY=           -596.2108 ZZZZ=           -278.8757 XXXY=             90.4551
 XXXZ=             47.8205 YYYX=             -0.3409 YYYZ=             -3.2737 ZZZX=              3.8111
 ZZZY=             -7.8811 XXYY=           -421.7164 XXZZ=           -418.8132 YYZZ=           -130.3479
 XXYZ=            -28.7970 YYXZ=            -11.6635 ZZXY=              8.1990
 N-N= 8.357789155050D+02 E-N=-3.288893585599D+03  KE= 6.850490894376D+02
   1 Symmetry operations used in ECPInt.
 ECPInt:  NShTT=   23436 NPrTT=   62434 LenC2=   21870 LenP2D=   45562.
 LDataN:  DoStor=T MaxTD1= 7 Len=  274
 Calling FoFJK, ICntrl=      2127 FMM=F ISym2X=0 I1Cent= 0 IOpClX= 0 NMat=1 NMatS=1 NMatT=0.
 ***** Axes restored to original set *****
 -------------------------------------------------------------------
 Center     Atomic                   Forces (Hartrees/Bohr)
 Number     Number              X              Y              Z
 -------------------------------------------------------------------
      1        6          -0.008968813   -0.001120580    0.001565092
      2        6           0.002042411   -0.021576682   -0.012657590
      3        6          -0.012747392   -0.001839074   -0.007993453
      4        6          -0.007262166   -0.004761655    0.005498720
      5        1          -0.001811830   -0.003153220   -0.000418493
      6        1           0.004338869    0.003588956   -0.001147620
      7        6           0.001698048    0.004241497   -0.008280761
      8        1           0.005900111   -0.001785254    0.000671516
      9        6          -0.008068185   -0.007819082    0.004922196
     10        1          -0.003751847    0.002341115   -0.001959600
     11        1           0.004630085   -0.000079844    0.006606105
     12        1          -0.000100648   -0.004254421    0.006297322
     13        1          -0.003351787   -0.001735513   -0.000162501
     14        1           0.005610951    0.001594336   -0.004685333
     15        8           0.005391027   -0.003519551   -0.010616728
     16        1          -0.008426992    0.006662054    0.016814302
     17        8           0.008765234    0.006544708   -0.012761853
     18        1           0.004353092   -0.009832971    0.016570764
     19        8          -0.015911843    0.014969162   -0.006906660
     20        1           0.018974769   -0.006035735    0.002507066
     21        8          -0.004569350   -0.008496088    0.011533209
     22        1           0.004190587    0.018022174   -0.003154356
     23        8          -0.008347048    0.012549661   -0.006336732
     24        1           0.014297751   -0.001440451    0.006186195
     25        8           0.001331262   -0.010516647   -0.001607384
     26        1           0.001793705    0.017453105   -0.000483425
 -------------------------------------------------------------------
 Cartesian Forces:  Max     0.021576682 RMS     0.008209625

 GradGradGradGradGradGradGradGradGradGradGradGradGradGradGradGradGradGrad
 Berny optimization.
 FormGI is forming the generalized inverse of G from B-inverse, IUseBI=4.
 Internal  Forces:  Max     0.019666264 RMS     0.005743233
 Search for a local minimum.
 Step number   1 out of a maximum of  140
 All quantities printed in internal units (Hartrees-Bohrs-Radians)
 Mixed Optimization -- RFO/linear search
 Second derivative matrix not updated -- first step.
 ITU=  0
     Eigenvalues ---    0.00230   0.00230   0.00233   0.00350   0.00370
     Eigenvalues ---    0.01065   0.01090   0.01157   0.01160   0.01215
     Eigenvalues ---    0.01390   0.03706   0.03765   0.03825   0.03861
     Eigenvalues ---    0.04599   0.04662   0.04781   0.04815   0.04908
     Eigenvalues ---    0.05348   0.05497   0.05693   0.07652   0.07728
     Eigenvalues ---    0.07736   0.08005   0.11356   0.11668   0.13581
     Eigenvalues ---    0.13908   0.16000   0.16000   0.16000   0.16000
     Eigenvalues ---    0.16000   0.16000   0.16960   0.17257   0.17478
     Eigenvalues ---    0.17538   0.19319   0.19462   0.19901   0.20114
     Eigenvalues ---    0.22039   0.22039   0.27656   0.28457   0.28495
     Eigenvalues ---    0.29292   0.29427   0.34048   0.34122   0.34190
     Eigenvalues ---    0.34216   0.34327   0.34336   0.34341   0.34549
     Eigenvalues ---    0.38593   0.38846   0.39522   0.39561   0.40138
     Eigenvalues ---    0.42040   0.50537   0.50723   0.51073   0.51451
     Eigenvalues ---    0.52072   0.52480
 RFO step:  Lambda=-1.74577849D-02 EMin= 2.30000000D-03
 Linear search not attempted -- first point.
 Iteration  1 RMS(Cart)=  0.08898134 RMS(Int)=  0.00266709
 Iteration  2 RMS(Cart)=  0.00476870 RMS(Int)=  0.00057337
 Iteration  3 RMS(Cart)=  0.00000769 RMS(Int)=  0.00057334
 Iteration  4 RMS(Cart)=  0.00000000 RMS(Int)=  0.00057334
 Variable       Old X    -DE/DX   Delta X   Delta X   Delta X     New X
                                 (Linear)    (Quad)   (Total)
    R1        2.91150  -0.00788   0.00000  -0.02609  -0.02609   2.88541
    R2        2.91068  -0.01147   0.00000  -0.03792  -0.03792   2.87276
    R3        2.06781  -0.00108   0.00000  -0.00300  -0.00300   2.06481
    R4        2.73153  -0.00931   0.00000  -0.02293  -0.02293   2.70860
    R5        2.92896  -0.00609   0.00000  -0.02073  -0.02073   2.90823
    R6        2.07011  -0.00358   0.00000  -0.00996  -0.00996   2.06015
    R7        2.72208  -0.01128   0.00000  -0.02733  -0.02733   2.69475
    R8        2.89397  -0.01018   0.00000  -0.03278  -0.03278   2.86119
    R9        2.07124  -0.00059   0.00000  -0.00165  -0.00165   2.06960
   R10        2.73511  -0.01217   0.00000  -0.03017  -0.03017   2.70495
   R11        2.89121  -0.00182   0.00000  -0.00584  -0.00584   2.88537
   R12        2.07248  -0.00345   0.00000  -0.00963  -0.00963   2.06285
   R13        2.72154  -0.01239   0.00000  -0.03000  -0.03000   2.69154
   R14        2.06768  -0.00151   0.00000  -0.00418  -0.00418   2.06349
   R15        2.06413  -0.00267   0.00000  -0.00736  -0.00736   2.05677
   R16        2.71367  -0.00049   0.00000  -0.00117  -0.00117   2.71250
   R17        2.06759  -0.00238   0.00000  -0.00659  -0.00659   2.06100
   R18        2.06968  -0.00054   0.00000  -0.00151  -0.00151   2.06817
   R19        2.68872  -0.00454   0.00000  -0.01038  -0.01038   2.67835
   R20        1.84142  -0.01963   0.00000  -0.03620  -0.03620   1.80522
   R21        1.85498  -0.01936   0.00000  -0.03665  -0.03665   1.81833
   R22        1.85843  -0.01967   0.00000  -0.03748  -0.03748   1.82094
   R23        1.85129  -0.01872   0.00000  -0.03518  -0.03518   1.81610
   R24        1.86027  -0.01550   0.00000  -0.02965  -0.02965   1.83061
   R25        1.84530  -0.01754   0.00000  -0.03259  -0.03259   1.81271
    A1        2.01398   0.00254   0.00000   0.00326   0.00318   2.01717
    A2        1.91767  -0.00230   0.00000  -0.02386  -0.02390   1.89377
    A3        1.90922  -0.00193   0.00000  -0.00966  -0.00962   1.89961
    A4        1.86474  -0.00105   0.00000  -0.00918  -0.00940   1.85533
    A5        1.90207  -0.00071   0.00000  -0.00148  -0.00150   1.90056
    A6        1.84871   0.00365   0.00000   0.04519   0.04524   1.89395
    A7        2.00277  -0.00171   0.00000   0.00478   0.00231   2.00508
    A8        1.91446  -0.00196   0.00000  -0.04087  -0.04102   1.87344
    A9        1.90236   0.00433   0.00000   0.05107   0.04982   1.95218
   A10        1.91357  -0.00088   0.00000  -0.03277  -0.03309   1.88047
   A11        1.85409   0.00294   0.00000   0.04457   0.04308   1.89717
   A12        1.87140  -0.00261   0.00000  -0.02526  -0.02396   1.84744
   A13        2.03253   0.00375   0.00000   0.00845   0.00867   2.04120
   A14        1.92107  -0.00038   0.00000  -0.01348  -0.01317   1.90790
   A15        1.86087  -0.00974   0.00000  -0.05664  -0.05651   1.80436
   A16        1.90995  -0.00295   0.00000  -0.00805  -0.00859   1.90136
   A17        1.86973   0.00551   0.00000   0.02879   0.02857   1.89830
   A18        1.86091   0.00399   0.00000   0.04541   0.04486   1.90576
   A19        2.00392   0.00028   0.00000   0.00689   0.00642   2.01034
   A20        1.88086  -0.00345   0.00000  -0.04024  -0.04012   1.84074
   A21        1.93238   0.00289   0.00000   0.02538   0.02514   1.95752
   A22        1.88603   0.00127   0.00000  -0.00017  -0.00029   1.88574
   A23        1.90691  -0.00077   0.00000   0.01082   0.01034   1.91726
   A24        1.84638  -0.00035   0.00000  -0.00527  -0.00499   1.84139
   A25        1.94623  -0.00212   0.00000  -0.03128  -0.03096   1.91526
   A26        1.95374  -0.00033   0.00000  -0.01773  -0.01733   1.93641
   A27        1.88070  -0.01490   0.00000  -0.05766  -0.05731   1.82339
   A28        1.92581  -0.00114   0.00000  -0.01072  -0.01319   1.91263
   A29        1.87276   0.00973   0.00000   0.06166   0.06025   1.93301
   A30        1.88098   0.00932   0.00000   0.06176   0.06076   1.94174
   A31        1.94128  -0.00044   0.00000  -0.01380  -0.01395   1.92733
   A32        1.91996  -0.00606   0.00000  -0.02749  -0.02851   1.89145
   A33        1.94720   0.00597   0.00000   0.02835   0.02814   1.97534
   A34        1.88833   0.00112   0.00000  -0.00410  -0.00425   1.88407
   A35        1.89872  -0.00523   0.00000  -0.03919  -0.03885   1.85988
   A36        1.86586   0.00472   0.00000   0.05795   0.05802   1.92388
   A37        1.85396   0.00647   0.00000   0.03644   0.03644   1.89040
   A38        1.81353   0.00615   0.00000   0.03467   0.03467   1.84819
   A39        1.80506   0.00742   0.00000   0.04180   0.04180   1.84687
   A40        1.83897   0.00233   0.00000   0.01311   0.01311   1.85208
   A41        1.86373   0.00290   0.00000   0.01636   0.01636   1.88009
   A42        1.84522   0.00097   0.00000   0.00547   0.00547   1.85070
    D1        3.12137  -0.00436   0.00000  -0.10713  -0.10713   3.01424
    D2        0.95853  -0.00036   0.00000  -0.03464  -0.03494   0.92360
    D3       -1.08553   0.00140   0.00000  -0.01043  -0.01004  -1.09557
    D4        1.01235  -0.00300   0.00000  -0.07904  -0.07910   0.93324
    D5       -1.15049   0.00100   0.00000  -0.00654  -0.00691  -1.15740
    D6        3.08863   0.00275   0.00000   0.01767   0.01799   3.10662
    D7       -1.01015  -0.00499   0.00000  -0.11443  -0.11446  -1.12461
    D8        3.11020  -0.00099   0.00000  -0.04194  -0.04226   3.06793
    D9        1.06613   0.00076   0.00000  -0.01773  -0.01736   1.04877
   D10        1.01419  -0.00090   0.00000   0.00377   0.00369   1.01788
   D11       -1.17218   0.00048   0.00000   0.01977   0.01997  -1.15221
   D12        3.09916   0.00128   0.00000   0.00396   0.00380   3.10297
   D13       -3.13148  -0.00298   0.00000  -0.03177  -0.03182   3.11989
   D14        0.96534  -0.00159   0.00000  -0.01577  -0.01554   0.94980
   D15       -1.04650  -0.00080   0.00000  -0.03159  -0.03171  -1.07821
   D16       -1.14126   0.00038   0.00000   0.01538   0.01530  -1.12595
   D17        2.95556   0.00177   0.00000   0.03138   0.03158   2.98715
   D18        0.94372   0.00256   0.00000   0.01557   0.01541   0.95914
   D19       -2.99030  -0.00082   0.00000   0.00554   0.00548  -2.98483
   D20       -0.77375   0.00055   0.00000   0.00191   0.00183  -0.77192
   D21        1.22689   0.00086   0.00000   0.01359   0.01373   1.24062
   D22       -1.15886   0.00329   0.00000   0.05481   0.05479  -1.10407
   D23        3.02202   0.00400   0.00000   0.07976   0.07963   3.10165
   D24        1.01042   0.00484   0.00000   0.09545   0.09563   1.10605
   D25        1.00446  -0.00127   0.00000  -0.02197  -0.02178   0.98268
   D26       -1.09785  -0.00057   0.00000   0.00298   0.00306  -1.09479
   D27       -3.10945   0.00027   0.00000   0.01867   0.01906  -3.09039
   D28        3.02121  -0.00319   0.00000  -0.04387  -0.04413   2.97708
   D29        0.91890  -0.00249   0.00000  -0.01892  -0.01929   0.89961
   D30       -1.09270  -0.00165   0.00000  -0.00323  -0.00329  -1.09599
   D31       -1.29212  -0.00165   0.00000  -0.04692  -0.04813  -1.34025
   D32        0.87473   0.00062   0.00000   0.01610   0.01735   0.89208
   D33        2.91984  -0.00021   0.00000  -0.01182  -0.01186   2.90798
   D34        0.91620  -0.00370   0.00000  -0.03839  -0.03852   0.87768
   D35       -1.25088  -0.00036   0.00000   0.01257   0.01245  -1.23843
   D36        2.96709  -0.00219   0.00000  -0.01642  -0.01636   2.95073
   D37        3.10818  -0.00381   0.00000  -0.05711  -0.05711   3.05108
   D38        0.94110  -0.00046   0.00000  -0.00616  -0.00614   0.93496
   D39       -1.12412  -0.00230   0.00000  -0.03515  -0.03495  -1.15906
   D40       -1.16399   0.00234   0.00000   0.00758   0.00750  -1.15649
   D41        2.95211   0.00568   0.00000   0.05854   0.05847   3.01058
   D42        0.88689   0.00385   0.00000   0.02955   0.02966   0.91655
   D43       -2.94814  -0.00046   0.00000   0.04097   0.04065  -2.90749
   D44       -0.76047   0.00152   0.00000   0.03453   0.03379  -0.72668
   D45        1.28305   0.00281   0.00000   0.06206   0.06312   1.34617
   D46       -0.85270   0.00231   0.00000   0.03768   0.03790  -0.81480
   D47       -2.94464   0.00518   0.00000   0.06974   0.06950  -2.87514
   D48        1.27088  -0.00053   0.00000  -0.00247  -0.00235   1.26853
   D49        1.24677  -0.00099   0.00000  -0.00940  -0.00925   1.23751
   D50       -0.84518   0.00187   0.00000   0.02266   0.02235  -0.82282
   D51       -2.91284  -0.00384   0.00000  -0.04955  -0.04950  -2.96235
   D52       -3.03536  -0.00113   0.00000  -0.01010  -0.00991  -3.04527
   D53        1.15588   0.00174   0.00000   0.02196   0.02170   1.17758
   D54       -0.91179  -0.00397   0.00000  -0.05025  -0.05016  -0.96195
   D55       -0.61705  -0.00241   0.00000  -0.05332  -0.05346  -0.67051
   D56        1.60660  -0.00051   0.00000  -0.01785  -0.01766   1.58894
   D57       -2.65009   0.00040   0.00000  -0.01558  -0.01562  -2.66572
   D58        3.10541   0.00099   0.00000   0.01921   0.01931   3.12471
   D59       -1.07991  -0.00430   0.00000  -0.01532  -0.01761  -1.09751
   D60        0.99402   0.00455   0.00000   0.03805   0.04025   1.03426
   D61        1.03761  -0.00049   0.00000   0.00689   0.00771   1.04532
   D62       -3.09756  -0.00072   0.00000  -0.01891  -0.01861  -3.11617
   D63       -1.06213   0.00043   0.00000  -0.01284  -0.01395  -1.07607
         Item               Value     Threshold  Converged?
 Maximum Force            0.019666     0.000450     NO 
 RMS     Force            0.005743     0.000300     NO 
 Maximum Displacement     0.325514     0.001800     NO 
 RMS     Displacement     0.089199     0.001200     NO 
 Predicted change in Energy=-1.015817D-02
 GradGradGradGradGradGradGradGradGradGradGradGradGradGradGradGradGradGrad

                          Input orientation:                          
 ---------------------------------------------------------------------
 Center     Atomic      Atomic             Coordinates (Angstroms)
 Number     Number       Type             X           Y           Z
 ---------------------------------------------------------------------
      1          6           0        0.009825   -0.051656   -0.043015
      2          6           0        1.535964   -0.099636   -0.040593
      3          6           0       -0.618625    0.787763   -1.143667
      4          6           0        2.159718   -0.804747    1.176851
      5          1           0        1.893440    0.930253   -0.047238
      6          1           0       -0.325017    0.381843    0.902419
      7          6           0       -0.285014    0.408721   -2.571061
      8          1           0       -0.363081    1.841066   -0.986582
      9          6           0        1.887739   -0.138385    2.523449
     10          1           0        3.237208   -0.787732    1.002647
     11          1           0       -0.448139   -0.661178   -2.716219
     12          1           0        0.748189    0.655692   -2.807925
     13          1           0        2.062927    0.936142    2.458732
     14          1           0        2.585447   -0.550155    3.259262
     15          8           0       -1.199310    1.175470   -3.368878
     16          1           0       -1.024900    0.987755   -4.289154
     17          8           0       -2.023459    0.608348   -0.935946
     18          1           0       -2.452067    0.943063   -1.729751
     19          8           0       -0.495182   -1.389964   -0.134270
     20          1           0       -1.444208   -1.303420   -0.277058
     21          8           0        2.050063   -0.698025   -1.228492
     22          1           0        1.923551   -1.645212   -1.126357
     23          8           0        1.805815   -2.182979    1.238988
     24          1           0        0.881451   -2.262900    0.960454
     25          8           0        0.552226   -0.303956    2.968183
     26          1           0        0.413741   -1.250070    3.044622
 ---------------------------------------------------------------------
                    Distance matrix (angstroms):
                    1          2          3          4          5
     1  C    0.000000
     2  C    1.526895   0.000000
     3  C    1.520200   2.578080   0.000000
     4  C    2.584039   1.538968   3.954754   0.000000
     5  H    2.124186   1.090185   2.744618   2.139982   0.000000
     6  H    1.092651   2.141108   2.106525   2.767167   2.474702
     7  C    2.586483   3.158742   1.514075   4.636384   3.374513
     8  H    2.147505   2.875341   1.095183   4.247974   2.608416
     9  C    3.181323   2.588351   4.537328   1.526872   2.783963
    10  H    3.471486   2.110938   4.685754   1.091614   2.420629
    11  H    2.779796   3.378012   2.145090   4.688019   3.890899
    12  H    2.947923   2.974766   2.157632   4.472553   3.001396
    13  H    3.383742   2.756293   4.493330   2.164090   2.511702
    14  H    4.217506   3.491909   5.607306   2.140677   3.688282
    15  O    3.745559   4.492782   2.332182   5.988988   4.545164
    16  H    4.492296   5.078455   3.177915   6.575109   5.149161
    17  O    2.316716   3.737965   1.431397   4.894866   4.029332
    18  H    3.145705   4.454758   1.931094   5.724660   4.659876
    19  O    1.433327   2.408169   2.403459   3.018279   3.331140
    20  H    1.932848   3.222800   2.409490   3.918011   4.022686
    21  O    2.446573   1.425998   3.055594   2.410205   2.017717
    22  H    2.715768   1.928189   3.518853   2.463112   2.792565
    23  O    3.067841   2.459770   4.514450   1.424300   3.369609
    24  H    2.579977   2.471881   3.998011   1.951155   3.497969
    25  O    3.070043   3.172101   4.412488   2.458392   3.523477
    26  H    3.336592   3.478713   4.770777   2.595249   4.062378
                    6          7          8          9         10
     6  H    0.000000
     7  C    3.473815   0.000000
     8  H    2.387281   2.137354   0.000000
     9  C    2.791892   5.565448   4.615705   0.000000
    10  H    3.750653   5.158385   4.881566   2.134375   0.000000
    11  H    3.767969   1.091954   3.043042   5.760534   5.237152
    12  H    3.872134   1.088397   2.440763   5.509327   4.774845
    13  H    2.903727   5.575824   4.309824   1.090636   2.543789
    14  H    3.859290   6.568992   5.695519   1.094427   2.360836
    15  O    4.431502   1.435393   2.611059   6.780531   6.530473
    16  H    5.273461   1.958202   3.474640   7.494211   7.022896
    17  O    2.513085   2.394920   2.068578   5.274703   5.777698
    18  H    3.430399   2.385256   2.392190   6.171965   6.544425
    19  O    2.059850   3.036015   3.344166   3.782622   3.947910
    20  H    2.341766   3.088301   3.400008   4.505776   4.880495
    21  O    3.368665   2.912037   3.511234   3.796921   2.528901
    22  H    3.644303   3.344184   4.171613   3.948784   2.644545
    23  O    3.351422   5.060133   5.084310   2.415971   2.012823
    24  H    2.907507   4.579279   4.709814   2.822966   2.779837
    25  O    2.346754   5.647309   4.591195   1.417320   3.362514
    26  H    2.792478   5.897096   5.138987   1.918368   3.515023
                   11         12         13         14         15
    11  H    0.000000
    12  H    1.781504   0.000000
    13  H    5.969673   5.435519   0.000000
    14  H    6.702338   6.452933   1.767188   0.000000
    15  O    2.088899   2.092269   6.682851   7.825241   0.000000
    16  H    2.350693   2.334127   7.421003   8.507546   0.955282
    17  O    2.694940   3.344933   5.322577   6.339077   2.630590
    18  H    2.749988   3.389201   6.158621   7.245447   2.076090
    19  O    2.683245   3.588748   4.321846   4.659572   4.188071
    20  H    2.711850   3.879434   4.979978   5.413971   3.970418
    21  O    2.907868   2.453983   4.033149   4.521995   4.318525
    22  H    3.020083   3.082743   4.419918   4.568469   4.768376
    23  O    4.799984   5.055109   3.358988   2.712093   6.445338
    24  H    4.225073   4.768293   3.724862   3.334909   5.907204
    25  O    5.782798   5.858562   2.019802   2.068654   6.739059
    26  H    5.854649   6.164097   2.800466   2.291781   7.044016
                   16         17         18         19         20
    16  H    0.000000
    17  O    3.519243   0.000000
    18  H    2.930758   0.962220   0.000000
    19  O    4.816348   2.640372   3.437729   0.000000
    20  H    4.639204   2.103454   2.858808   0.963602   0.000000
    21  O    4.654556   4.287863   4.818050   2.855586   3.671738
    22  H    5.062525   4.549030   5.119501   2.626720   3.489976
    23  O    6.973295   5.213941   6.059300   2.794512   3.692515
    24  H    6.462144   4.503209   5.350490   1.963556   2.803699
    25  O    7.538221   4.765361   5.714142   3.449883   3.939069
    26  H    7.801398   5.023801   5.984758   3.309240   3.806361
                   21         22         23         24         25
    21  O    0.000000
    22  H    0.961040   0.000000
    23  O    2.890191   2.428562   0.000000
    24  H    2.933594   2.412942   0.968720   0.000000
    25  O    4.473353   4.521588   2.844701   2.824328   0.000000
    26  H    4.608884   4.453396   2.463433   2.363966   0.959246
                   26
    26  H    0.000000
 Stoichiometry    C6H14O6
 Framework group  C1[X(C6H14O6)]
 Deg. of freedom    72
 Full point group                 C1      NOp   1
 Largest Abelian subgroup         C1      NOp   1
 Largest concise Abelian subgroup C1      NOp   1
                         Standard orientation:                         
 ---------------------------------------------------------------------
 Center     Atomic      Atomic             Coordinates (Angstroms)
 Number     Number       Type             X           Y           Z
 ---------------------------------------------------------------------
      1          6           0        0.174763   -0.430279   -0.028555
      2          6           0       -0.603411    0.770953   -0.560434
      3          6           0        1.632857   -0.507242   -0.451695
      4          6           0       -2.114674    0.743143   -0.271072
      5          1           0       -0.472627    0.789539   -1.642586
      6          1           0       -0.300313   -1.342343   -0.397782
      7          6           0        2.517232    0.665065   -0.082913
      8          1           0        1.688068   -0.667638   -1.533662
      9          6           0       -2.879232   -0.408622   -0.919321
     10          1           0       -2.505764    1.678629   -0.675469
     11          1           0        2.401261    0.894987    0.978242
     12          1           0        2.267149    1.542831   -0.675864
     13          1           0       -2.596949   -0.510501   -1.967855
     14          1           0       -3.948523   -0.178977   -0.878684
     15          8           0        3.849918    0.210888   -0.362242
     16          1           0        4.457126    0.920451   -0.161287
     17          8           0        2.112179   -1.675543    0.222262
     18          1           0        3.071609   -1.642440    0.156944
     19          8           0        0.106399   -0.428972    1.403140
     20          1           0        0.722129   -1.109832    1.696118
     21          8           0       -0.068976    2.003529   -0.082306
     22          1           0       -0.368474    2.089365    0.826832
     23          8           0       -2.395226    0.784962    1.124697
     24          1           0       -1.730344    0.243514    1.575456
     25          8           0       -2.623516   -1.661722   -0.308462
     26          1           0       -2.895787   -1.570830    0.606830
 ---------------------------------------------------------------------
 Rotational constants (GHZ):           1.6517237           0.5302876           0.4699731
 Standard basis: def2TZVPP (5D, 7F)
 There are   642 symmetry adapted cartesian basis functions of A   symmetry.
 There are   568 symmetry adapted basis functions of A   symmetry.
   568 basis functions,   850 primitive gaussians,   642 cartesian basis functions
    49 alpha electrons       49 beta electrons
       nuclear repulsion energy       838.8675432274 Hartrees.
 NAtoms=   26 NActive=   26 NUniq=   26 SFac= 1.00D+00 NAtFMM=   60 NAOKFM=F Big=F
 Integral buffers will be    131072 words long.
 Raffenetti 2 integral format.
 Two-electron integral symmetry is turned on.
 Nuclear repulsion after empirical dispersion term =      838.8485670372 Hartrees.
 One-electron integrals computed using PRISM.
   1 Symmetry operations used in ECPInt.
 ECPInt:  NShTT=   23436 NPrTT=   62434 LenC2=   21895 LenP2D=   45655.
 LDataN:  DoStor=T MaxTD1= 6 Len=  172
[...]
 .00013214,0.00081218,0.00813297,-0.00339458,0.00121822,0.00156686,0.00
 079196,0.64825631,-0.00931310,-0.20438615,-0.01002460,-0.00645976,-0.0
 0981124,-0.00147517,-0.01452379,-0.04526276,0.00321785,-0.00038468,-0.
 00493339,0.00159672,0.00019246,0.00139317,-0.00007378,-0.01440071,-0.0
 3511165,-0.00307442,0.00029786,-0.00112047,-0.00376081,0.00391348,-0.0
 0248391,0.00551450,-0.00013030,-0.00010946,0.00021559,-0.00001509,0.00
 079230,-0.00035653,0.00012784,0.00074396,0.00167175,0.00023281,-0.0001
 3610,0.00012145,0.00022251,0.00053551,0.00042031,0.00006181,0.00015858
 ,-0.00030997,0.00073107,0.00097328,0.00188167,0.00002887,-0.00008833,0
 .00013565,0.00005258,0.00095608,0.00092953,-0.00112256,-0.00022456,-0.
 00085872,0.01894529,0.33928259,-0.01177731,-0.01424474,-0.06895575,0.0
 0181346,-0.00307002,-0.00024145,0.00809221,0.02718565,0.00392538,0.001
 14167,0.00215150,-0.00074074,-0.00025097,0.00026157,0.00067616,-0.0127
 0242,-0.02913903,0.00526574,0.00208592,-0.00241834,0.00092917,-0.00286
 762,0.00406976,-0.00335947,0.00145743,0.00005203,-0.00019263,-0.000175
 52,-0.00038831,0.00017251,0.00005158,0.00207633,0.00042472,0.00008668,
 0.00100832,-0.00029619,0.00002640,-0.00014625,0.00006207,-0.00028820,0
 .00015996,0.00009038,-0.00074772,0.00173853,-0.00057369,0.00001230,-0.
 00041008,0.00047412,-0.00014845,0.00299339,0.00158917,0.00065447,-0.00
 008811,0.00030375,0.07112399,-0.00146200,0.07378664,-0.01834038,-0.004
 37786,-0.00022590,-0.00006247,-0.00299242,-0.00064054,0.00284252,0.001
 20125,-0.00015898,-0.00022065,-0.00016422,-0.00004372,-0.00043660,0.00
 041779,-0.00009644,0.00090418,0.00157227,-0.00000040,-0.00011052,-0.00
 040068,0.00082333,-0.00123806,0.00024635,-0.00030866,-0.00027304,-0.00
 003760,-0.00007964,0.00009025,0.00001922,0.00000749,-0.00001477,0.0000
 0848,0.00044855,-0.00003771,0.00014538,0.00012834,-0.00001474,0.000023
 67,-0.00000876,0.00004735,-0.00003225,0.00004037,-0.00066031,0.0003103
 7,-0.00048315,-0.00003673,0.00001677,0.00000162,-0.00173293,-0.0001181
 9,0.00060821,-0.00024880,-0.00022939,-0.00041942,-0.51096141,0.0199368
 1,-0.05000104,0.52993351,-0.04521785,-0.00156827,-0.00421782,-0.001300
 25,-0.00836389,-0.00071082,-0.00576604,-0.00227990,0.00202220,0.000121
 88,-0.00095162,0.00018885,-0.00209926,0.00009405,-0.00001681,-0.000318
 09,-0.00028846,-0.00093761,0.00017233,0.00043753,0.00050864,0.00060019
 ,0.00056567,-0.00043123,-0.00002550,0.00004396,-0.00003176,0.00007754,
 0.00011773,0.00002640,-0.00006582,-0.00008980,-0.00004870,0.00010548,-
 0.00001524,-0.00041891,-0.00004407,0.00003326,0.00005343,0.00001547,-0
 .00000800,-0.00002589,0.00032162,-0.00016404,-0.00058381,0.00017677,0.
 00004405,0.00005145,-0.00013360,0.00222605,-0.00278777,0.00113815,0.00
 161002,0.00069538,0.06702087,-0.04872645,0.00764199,-0.01649903,0.0552
 9340,-0.00272380,-0.00238143,0.00101049,0.00084375,0.00000674,-0.00053
 865,0.00328457,0.00239412,0.00106065,0.00028417,0.00053450,0.00005616,
 0.00017993,0.00016919,0.00026228,-0.00097225,0.00004703,0.00000759,-0.
 00022891,0.00118591,-0.00038236,-0.00033976,-0.00054752,0.00004372,-0.
 00065831,-0.00017153,0.00033969,0.00000021,-0.00007007,-0.00002639,0.0
 0042026,-0.00039324,-0.00071769,-0.00010901,-0.00048373,0.00021979,0.0
 0005774,0.00002702,-0.00004502,0.00016221,-0.00001363,-0.00002079,-0.0
 0005798,-0.00058710,0.00033643,0.00002915,0.00015223,-0.00017838,-0.00
 042260,-0.00324340,-0.00135287,-0.00013567,0.00040817,-0.00055270,-0.0
 4989401,0.00355976,-0.01217928,0.05099729,-0.00066656,0.01284380,-0.01
 562386,0.02101993,0.04020106,-0.08701164,0.00947542,0.05012553,0.00363
 421,-0.00154190,0.00099901,0.00384434,-0.00380824,-0.00584905,0.005314
 17,0.00056160,-0.00452012,-0.00881652,0.00009169,-0.00092675,-0.000786
 81,0.00082467,-0.00200566,-0.00022712,0.00034169,0.00006921,-0.0005948
 6,0.00152090,-0.00078874,0.00284845,-0.00121830,0.00072004,0.00038461,
 0.00072046,0.00004277,-0.00168173,0.00004747,-0.00048681,-0.00007355,0
 .00007573,-0.00000049,0.00002647,-0.00002045,-0.00028872,-0.00154107,0
 .00121725,-0.00117538,-0.00003815,-0.00003911,0.00034253,-0.00082189,0
 .00013252,-0.00050120,0.00027869,-0.00014234,-0.00008244,0.00230563,0.
 00024582,0.00099713,0.00107350,0.00083538,0.00028926,0.11209652,0.0047
 5212,-0.00627444,-0.01199410,0.02780365,-0.12412799,-0.07238082,-0.002
 11505,0.00009227,-0.00099256,-0.00239253,0.00039951,0.00416950,0.01632
 569,-0.01748645,-0.03745190,0.00216282,0.00121730,0.00073219,-0.000579
 21,-0.00258630,0.00175667,-0.00002074,0.00038538,0.00003819,0.00040811
 ,-0.00043386,0.00093966,-0.00090441,0.00020300,-0.00013171,0.00061931,
 0.00066371,0.00024889,0.00208200,-0.00033154,-0.00000458,0.00002063,0.
 00070323,0.00068859,0.00001907,0.00041572,-0.00011668,0.00143338,0.000
 52031,0.00067978,0.00002385,-0.00018701,-0.00005924,0.00096879,0.00041
 031,0.00046500,-0.00002603,-0.00000473,-0.00009577,-0.00012904,0.00412
 159,0.00236805,-0.00005772,0.00050454,0.00047924,0.01493471,0.64843383
 ,0.01269486,-0.01147265,-0.01473765,0.04983993,-0.02513110,-0.18283216
 ,-0.00033323,0.00121661,-0.00204741,0.01585072,-0.02342850,-0.05185564
 ,0.00251675,-0.00744264,-0.00645199,0.00246618,0.00005619,0.00169494,0
 .00181011,0.00053911,-0.00225393,-0.00011377,0.00032173,0.00023121,-0.
 00711037,0.00779527,-0.00245382,0.00122960,-0.00140427,0.00233606,0.00
 101807,0.00078578,0.00014110,-0.00261737,-0.00101586,-0.00010433,0.000
 08826,-0.00010591,0.00084293,0.00035847,-0.00126378,-0.00316454,-0.002
 94308,0.00152419,0.00050753,0.00035023,-0.00017225,0.00048842,0.000538
 65,-0.00005497,0.00223371,0.00052070,-0.00017981,-0.00059298,-0.001104
 65,0.00080767,0.00310240,-0.00043798,0.00006751,-0.00014550,-0.0990259
 9,0.02136517,0.30050935,0.00019715,0.00454437,0.00180818,0.00056886,0.
 01690411,0.00038999,-0.00009865,0.00016987,0.00011910,0.00181427,-0.00
 031736,0.00034666,-0.00027303,-0.00014213,0.00053431,-0.00031834,-0.00
 070608,-0.00010127,0.00010281,0.00119593,-0.00040975,0.00003554,-0.000
 22805,0.00000892,0.00031235,-0.00044213,-0.00021586,-0.00059639,-0.000
 27514,-0.00057569,-0.00041203,-0.00024784,-0.00035610,-0.00017638,-0.0
 0003685,0.00007031,0.00001831,0.00006988,-0.00000284,-0.00005820,0.000
 07535,0.00006785,0.00000795,-0.00059543,0.00029965,0.00001587,0.000088
 90,-0.00012314,0.00009711,-0.00034859,-0.00000831,-0.00011116,0.000038
 06,-0.00001412,0.00057283,-0.00121916,-0.00111376,-0.00017076,-0.00025
 822,-0.00048607,-0.01748240,-0.06565438,0.02147580,0.01831977,0.000103
 07,0.00019550,0.00068197,-0.00181856,-0.02256650,-0.00181865,0.0003699
 9,-0.00044956,0.00009414,-0.00019174,0.00312615,0.00204912,0.00209710,
 0.00056858,-0.00231992,-0.00069338,0.00001898,0.00003483,0.00015903,-0
 .00034173,0.00029816,-0.00000404,0.00006080,0.00002530,0.00040447,-0.0
 0139539,0.00012934,-0.00028747,-0.00004476,-0.00031910,0.00013531,0.00
 015636,0.00007178,0.00010903,-0.00018499,0.00008585,0.00004509,-0.0000
 3516,-0.00026937,-0.00001605,0.00018992,0.00038970,-0.00035136,0.00027
 645,-0.00031559,0.00002257,0.00001336,0.00007440,-0.00041435,0.0000841
 6,-0.00009907,0.00004475,-0.00000491,0.00001386,-0.00046821,-0.0004075
 5,0.00043529,0.00011247,0.00013633,0.00017640,-0.04613542,-0.51133561,
 0.03734063,0.04798123,0.53246383,0.00034773,-0.00105881,-0.00004913,-0
 .00283844,-0.04268177,-0.00117600,-0.00012413,-0.00009594,0.00015102,-
 0.00150904,-0.00585102,-0.00184972,0.00236008,-0.00281938,-0.00548149,
 0.00023517,0.00011269,0.00009177,0.00022495,0.00103792,-0.00030094,0.0
 0001994,-0.00001067,-0.00014196,0.00042241,-0.00002769,-0.00022656,-0.
 00011753,0.00025078,-0.00036683,-0.00056402,-0.00028531,-0.00004701,0.
 00000244,0.00008904,0.00028866,-0.00006929,0.00041296,0.00032903,-0.00
 001937,0.00010537,0.00004536,-0.00013266,-0.00044216,-0.00012621,-0.00
 004970,0.00012450,-0.00005598,0.00002262,0.00009728,-0.00027719,-0.000
 05397,0.00006515,0.00009441,-0.00015973,0.00065025,-0.00106831,-0.0000
 3586,0.00032153,0.00022182,0.02408062,0.08397441,-0.04540284,-0.024000
 88,-0.03645483,0.05187108,-0.00261571,-0.00629295,0.00186998,0.0052340
 8,0.00894795,0.00218698,0.00041290,0.00051583,-0.00008516,-0.10394963,
 -0.05445377,-0.01013976,0.00022519,0.00147433,-0.00213016,0.00008877,0
 .00052105,0.00020791,-0.00015599,-0.00021538,0.00018262,-0.00015147,0.
 00032162,-0.00025472,-0.00186869,-0.00192104,0.00483877,-0.00818377,-0
 .04360202,-0.00205058,-0.00004295,0.00007379,0.00017840,0.00005063,0.0
 0016953,-0.00011544,0.00107714,0.00017095,-0.00004329,0.00004307,0.000
 33333,0.00074580,0.00010232,0.00017249,-0.00029422,-0.00003629,-0.0000
 5112,0.00004556,0.00034610,0.00068534,-0.00016880,0.00018014,0.0000453
 9,0.00011142,-0.01095870,0.00694772,-0.00641701,0.00170539,0.00195147,
 -0.00156372,0.00261823,-0.00128059,0.00081447,-0.00221266,0.00045788,-
 0.00087942,0.57050523,-0.00460797,-0.00172053,-0.00136190,-0.00998255,
 -0.04299660,0.00076287,-0.00025642,0.00040068,-0.00016094,-0.01145623,
 -0.21480591,0.01107827,0.00285060,-0.00162775,0.00565562,0.00009512,0.
 00032974,0.00019933,-0.00025824,-0.00017967,-0.00038169,-0.00013721,0.
 00049941,-0.00019378,-0.00885213,-0.04164982,-0.00471986,-0.00935628,-
 0.01499843,-0.00025564,0.00010771,0.00010628,0.00010173,0.00004480,0.0
 0003017,-0.00017056,0.00096383,-0.00142241,-0.00585417,-0.00040943,0.0
 0163067,-0.00031770,0.00029164,0.00004193,0.00039803,-0.00004665,-0.00
 008234,-0.00003555,0.00095777,0.00028423,0.00036720,0.00001714,0.00001
 859,-0.00010289,0.00476122,0.00518131,0.00113192,0.00014257,-0.0000118
 5,0.00055424,0.00047066,0.00451998,-0.00020451,-0.00022999,-0.00127847
 ,0.00182621,0.07495330,0.35351880,0.00127945,-0.00263202,0.00069662,0.
 00940004,0.02740576,-0.00490122,0.00056477,-0.00010075,0.00004464,-0.0
 1120550,-0.00443394,-0.06629056,-0.00231030,0.00317917,-0.00442233,-0.
 00075295,0.00073696,-0.00025308,0.00056622,-0.00034648,0.00032903,-0.0
 0003644,-0.00002820,-0.00003884,-0.00504498,-0.03393193,0.00194839,-0.
 00114303,0.00033329,0.00291984,0.00004386,0.00006416,0.00010194,-0.000
 07106,-0.00012724,0.00019969,0.00171598,-0.00312110,-0.00570455,-0.000
 10327,0.00116770,0.00267228,-0.00054444,0.00039137,-0.00042638,0.00006
 451,-0.00004181,0.00012333,-0.00066864,0.00040976,-0.00008554,0.000145
 83,-0.00003800,0.00001626,-0.00854854,0.00185537,0.00002573,0.00033224
 ,0.00143239,-0.00072427,-0.00065737,0.00683545,0.00232855,-0.00040692,
 -0.00134990,0.00543820,0.14667185,-0.00040945,0.10432065,0.00534954,0.
 00717390,0.00088449,0.00387425,0.00108592,0.00016304,-0.00042369,-0.00
 099013,-0.00015389,-0.01233749,-0.00632245,-0.00078784,-0.00072810,0.0
 0075420,-0.00096885,-0.00033545,-0.00089565,-0.00019868,0.00024274,0.0
 0018613,-0.00032510,0.00025095,-0.00056959,0.00043031,0.00182232,0.001
 95406,-0.00113750,0.00149685,-0.00112213,-0.00019224,0.00007594,-0.000
 08218,-0.00021309,-0.00006248,-0.00022635,0.00018354,-0.00041887,0.000
 62212,0.00077288,-0.00020512,-0.00012613,-0.00010798,-0.00013214,-0.00
 017589,0.00041420,0.00004642,0.00004979,-0.00004631,-0.00032951,-0.000
 74039,0.00023767,-0.00017113,-0.00002859,-0.00014457,-0.00383156,-0.00
 420126,-0.00013737,-0.00221553,-0.00100790,0.00055638,-0.00160294,0.00
 150790,-0.00044455,0.00034954,-0.00122901,0.00290489,-0.45890827,-0.04
 052765,-0.12374938,0.46866853,0.00162719,-0.00545834,0.00271030,-0.001
 69466,0.00058331,0.00157283,0.00010403,-0.00038513,0.00010659,-0.04611
 262,-0.00985821,-0.01153175,0.00037159,0.00048013,-0.00070976,0.000096
 31,0.00000552,0.00005731,-0.00001050,0.00001415,0.00027636,-0.00000720
 ,0.00010773,-0.00007265,-0.00245123,-0.00210031,0.00049849,-0.00116721
 ,-0.00626991,-0.00052614,-0.00004292,0.00002213,0.00007782,0.00001362,
 0.00004335,-0.00001344,0.00030888,-0.00006434,-0.00038419,0.00013428,0
 .00003193,0.00022709,-0.00012693,0.00011298,-0.00041780,0.00000839,0.0
 0001574,0.00004225,-0.00044042,0.00046557,-0.00036972,0.00008341,0.000
 05106,0.00011901,-0.00311859,-0.00257849,-0.00071934,0.00062458,0.0013
 4410,-0.00143169,0.00065411,-0.00034454,0.00004820,-0.00043597,0.00071
 229,0.00039103,0.00512231,-0.04841815,0.00500302,0.04481901,0.07000768
 ,0.00161796,0.00452707,0.00051318,0.00211915,0.00215594,0.00269524,-0.
 00016651,-0.00030445,-0.00027380,0.00280102,-0.00042231,-0.00114325,-0
 .00037186,-0.00031950,-0.00014469,0.00014745,-0.00106510,0.00009549,-0
 .00011717,0.00036400,-0.00030153,0.00011730,-0.00028911,0.00020760,-0.
 00335599,-0.00200461,0.00004067,0.00216214,0.00339134,0.00003757,-0.00
 002961,-0.00007750,-0.00015038,-0.00001516,-0.00003364,0.00000506,0.00
 053652,0.00030148,-0.00001743,0.00026134,0.00004875,-0.00002629,0.0001
 8277,-0.00030692,0.00036185,-0.00000988,0.00005568,-0.00008366,0.00026
 739,-0.00065469,0.00023336,-0.00013584,-0.00001930,-0.00007183,0.00043
 291,-0.00002930,-0.00376847,-0.00058736,-0.00226343,0.00068032,-0.0011
 0608,-0.00078738,-0.00129836,0.00250033,0.00067243,-0.00183842,-0.1304
 4100,-0.00913848,-0.04282326,0.12166667,0.00584783,0.05036916,-0.00153
 912,0.00046463,0.00159129,-0.00220302,0.00227196,-0.00175148,0.0004317
 7,-0.00043032,-0.00074395,-0.02523594,-0.00629508,0.01430150,-0.000036
 78,0.00028675,-0.00033364,0.00020630,-0.00136302,-0.00125906,-0.000521
 55,0.00025620,0.00003134,0.00000554,0.00015422,-0.00004798,-0.22615083
 ,-0.00005020,0.04875431,0.00117591,0.00130732,0.00329664,-0.00005073,-
 0.00001925,0.00003708,0.00006125,0.00013250,-0.00015027,-0.01252561,-0
 .00606040,0.00653986,-0.04318787,-0.00802011,0.01296229,0.00025752,-0.
 00004452,-0.00030162,-0.00006570,0.00000547,-0.00001936,0.00063055,0.0
 0002092,-0.00013644,0.00009141,-0.00000921,0.00008276,0.00163601,0.000
 50321,-0.00155808,0.00020016,0.00001089,0.00101306,0.00215378,-0.00014
 612,0.00288339,-0.00064265,-0.00035231,-0.00043278,0.00550844,-0.00039
 414,-0.00251070,-0.00193019,0.00137665,0.00069291,0.34519520,0.0002281
 0,-0.00242327,0.00059428,0.00005460,-0.00026752,-0.00018775,-0.0004812
 5,0.00023580,0.00035206,0.01003387,-0.00098168,-0.00336969,0.00006267,
 0.00042249,-0.00040092,-0.00036794,0.00001645,0.00193865,0.00011804,-0
 .00015622,-0.00002781,-0.00001448,0.00012825,-0.00006546,-0.04697179,-
 0.10092405,0.01984800,0.00059000,-0.00044955,-0.00294248,0.00001785,0.
 00004541,0.00005224,0.00000816,-0.00000396,-0.00001407,-0.04077349,-0.
 00424665,0.01428518,0.00596751,0.00728705,-0.00543952,0.00003176,0.000
 06888,0.00010901,0.00000062,-0.00003171,0.00001562,0.00015266,0.000214
 14,-0.00003737,-0.00000921,-0.00001527,-0.00000700,0.00030697,0.001662
 66,-0.00106469,0.00010101,-0.00004697,0.00023084,-0.00031905,0.0007713
 5,0.00046019,0.00004891,-0.00016564,0.00045760,0.00546833,0.00351799,-
 0.00376696,0.00023813,0.00097256,0.00177833,0.08302795,0.62025604,-0.0
 0151008,0.00304205,-0.00132986,-0.00055797,0.00034201,0.00364182,0.001
 25588,-0.00141060,-0.00088064,0.04100893,0.00627440,-0.00836818,0.0001
 6055,0.00006012,-0.00020984,0.00032800,-0.00068548,-0.00553820,-0.0002
 1417,0.00023469,0.00047045,0.00002016,0.00003882,-0.00001613,0.0512081
 3,0.00089953,-0.08055353,0.00158774,-0.00342195,-0.00655885,-0.0000134
 3,0.00000745,0.00003879,0.00000457,-0.00002379,0.00005922,0.00647196,0
 .00220612,-0.00093311,-0.01207087,-0.00484090,0.01292651,-0.00037268,0
 .00023688,-0.00084835,0.00000395,0.00002510,0.00005539,-0.00086024,0.0
 0026880,-0.00019191,0.00012564,-0.00004070,0.00007170,-0.00064835,-0.0
 0017829,-0.00076171,0.00047426,0.00015399,0.00000588,-0.00039057,-0.00
 040065,-0.00140263,0.00014368,0.00029382,0.00037884,-0.00017418,0.0018
 2735,0.00179559,0.00002184,0.00082997,0.00077090,-0.09951036,-0.052174
 12,0.09861708,0.00035042,0.00086514,-0.00025808,0.00025169,-0.00013754
 ,0.00017413,0.00017889,-0.00012590,-0.00001986,-0.00000611,-0.00220262
 ,0.00131774,-0.00007355,0.00012017,-0.00011800,0.00023737,0.00014589,0
 .00013101,0.00003334,0.00001117,0.00003095,-0.00000355,-0.00005950,0.0
 0003068,-0.01225901,-0.04648738,0.00679603,0.00010575,-0.00002817,-0.0
 0038208,0.00001289,-0.00000845,-0.00001894,-0.00001296,-0.00003257,0.0
 0003716,-0.00646247,-0.00049888,0.00230665,0.00023554,-0.00047692,-0.0
 0088471,-0.00008478,0.00000920,-0.00003088,0.00001241,0.00000929,0.000
 00045,-0.00024258,-0.00005356,0.00002930,-0.00000245,0.00000606,-0.000
 01511,-0.00097191,-0.00066972,0.00064222,-0.00002144,0.00018759,-0.000
 52588,-0.00027605,0.00024380,-0.00032518,0.00014029,-0.00008008,0.0003
 6597,0.00098648,0.00085853,-0.00303122,0.00145539,0.00026390,0.0008305
 9,-0.04346386,-0.01751995,0.01350764,0.05988028,0.00008643,0.00034595,
 0.00017652,-0.00029805,-0.00048588,0.00044419,0.00006762,-0.00015654,-
 0.00006564,0.00229914,0.00187361,-0.00069954,0.00008120,-0.00006644,0.
 00014203,0.00007013,-0.00033858,0.00015551,-0.00003335,0.00005129,0.00
 003557,0.00000872,-0.00001373,0.00000966,-0.00044240,-0.00915844,0.001
 13462,-0.00002855,-0.00061292,-0.00049461,-0.00000638,-0.00000756,-0.0
 0000484,0.00000239,-0.00000063,-0.00000060,-0.00186273,0.00178066,-0.0
 0044920,0.00159335,0.00085830,-0.00053295,-0.00002158,0.00000020,-0.00
 008463,0.00000132,0.00000977,0.00000223,-0.00006701,-0.00001253,-0.000
 05939,0.00001129,0.00000574,0.00001539,0.00006767,-0.00042050,-0.00012
 338,0.00003040,0.00006380,0.00006450,0.00005480,-0.00024959,-0.0004520
 0,0.00002071,0.00020756,-0.00018916,-0.00051573,-0.00088786,0.00151340
 ,-0.00014585,0.00050717,-0.00142712,-0.06663400,-0.52588657,0.04643539
 ,0.06566047,0.53259372,0.00007749,0.00149247,-0.00060812,-0.00007735,0
 .00002291,-0.00048148,-0.00016596,0.00011812,-0.00011348,0.00198035,0.
 00441581,-0.00061533,-0.00004805,-0.00027194,0.00019802,0.00012578,0.0
 0022832,-0.00014652,-0.00006737,0.00009316,-0.00020420,0.00002724,-0.0
 0008390,0.00005948,0.00313822,0.01560852,-0.00167551,-0.00054812,-0.00
 032284,0.00038704,0.00000088,-0.00002973,-0.00005123,-0.00000322,0.000
 00178,-0.00001779,0.00222908,-0.00008406,-0.00062324,-0.00011956,-0.00
 119819,0.00078328,0.00014898,-0.00015080,0.00027170,-0.00001282,0.0000
 1600,-0.00004607,0.00028412,-0.00023042,0.00015399,-0.00006507,0.00001
 535,-0.00004287,0.00018723,-0.00097450,0.00130974,-0.00033387,-0.00002
 263,-0.00022471,-0.00006180,-0.00032539,0.00032758,0.00004994,0.000079
 41,-0.00050161,-0.00309630,-0.00059565,0.00270929,0.00037145,-0.001631
 64,-0.00406901,0.01656930,0.02937581,-0.01123923,-0.02059057,-0.045545
 97,0.01446027\\-0.00001274,-0.00002070,0.00000531,0.00001605,0.0000165
 1,-0.00000439,-0.00001937,0.00000272,0.00000377,-0.00000579,0.00000055
 ,0.00000438,-0.00000242,-0.00000302,0.00000205,-0.00000015,0.00000709,
 -0.00000112,-0.00001319,0.00000748,-0.00001228,0.00000554,0.00000456,0
 .00000060,-0.00001695,-0.00000333,-0.00000052,0.00000315,0.00000493,-0
 .00000452,0.00000328,-0.00000475,-0.00000059,0.00000818,-0.00000028,0.
 00000001,0.00000489,0.00000122,0.00000271,0.00000333,-0.00000660,0.000
 00064,0.00001106,0.00000104,0.00001786,0.00000065,-0.00000391,-0.00000
 378,0.00001794,-0.00000611,0.00000252,-0.00000478,0.00000383,-0.000008
 16,0.00001147,0.00001249,-0.00000041,-0.00000430,-0.00000531,-0.000002
 66,-0.00000092,0.,-0.00000274,-0.00000287,-0.00000561,-0.00000264,0.00
 000054,-0.00000052,0.00001597,-0.00000662,-0.00000118,-0.00000921,0.00
 000272,0.00000774,-0.00000364,0.00000130,-0.00000883,0.00000083\\\@
 The archive entry for this job was punched.


 A HARD FALL SHOULD MEAN A HIGH BOUNCE 
 IF ONE IS MADE OF THE RIGHT MATERIAL.

                -- THE CHEMIST ANALYST, MARCH 1950
 Job cpu time:       0 days 10 hours 15 minutes 16.3 seconds.
 Elapsed time:       0 days  0 hours 38 minutes 42.8 seconds.
 File lengths (MBytes):  RWF=    704 Int=      0 D2E=      0 Chk=     27 Scr=      1
 Normal termination of Gaussian 16 at Wed Sep 27 12:19:36 2023.
