 Entering Gaussian System, Link 0=/opt/software/gaussian/g16.c01/g16
 Initial command:
 /opt/software/gaussian/g16.c01/l1.exe "/scratch/arhender/13209961/Gau-22970.inp" -scrdir="/scratch/arhender/13209961/"
 Entering Link 1 = /opt/software/gaussian/g16.c01/l1.exe PID=     22987.
  
 Copyright (c) 1988-2019, Gaussian, Inc.  All Rights Reserved.
  
 This is part of the Gaussian(R) 16 program.  It is based on
 the Gaussian(R) 09 system (copyright 2009, Gaussian, Inc.),
 the Gaussian(R) 03 system (copyright 2003, Gaussian, Inc.),
 the Gaussian(R) 98 system (copyright 1998, Gaussian, Inc.),
 the Gaussian(R) 94 system (copyright 1995, Gaussian, Inc.),
 the Gaussian 92(TM) system (copyright 1992, Gaussian, Inc.),
 the Gaussian 90(TM) system (copyright 1990, Gaussian, Inc.),
 the Gaussian 88(TM) system (copyright 1988, Gaussian, Inc.),
 the Gaussian 86(TM) system (copyright 1986, Carnegie Mellon
 University), and the Gaussian 82(TM) system (copyright 1983,
 Carnegie Mellon University). Gaussian is a federally registered
 trademark of Gaussian, Inc.
  
 This software contains proprietary and confidential information,
 including trade secrets, belonging to Gaussian, Inc.
  
 This software is provided under written license and may be
 used, copied, transmitted, or stored only in accord with that
 written license.
  
 The following legend is applicable only to US Government
 contracts under FAR:
  
                    RESTRICTED RIGHTS LEGEND
  
 Use, reproduction and disclosure by the US Government is
 subject to restrictions as set forth in subparagraphs (a)
 and (c) of the Commercial Computer Software - Restricted
 Rights clause in FAR 52.227-19.
  
 Gaussian, Inc.
 340 Quinnipiac St., Bldg. 40, Wallingford CT 06492
  
  
 ---------------------------------------------------------------
 Warning -- This program may not be used in any manner that
 competes with the business of Gaussian, Inc. or will provide
 assistance to any competitor of Gaussian, Inc.  The licensee
 of this program is prohibited from giving any competitor of
 Gaussian, Inc. access to this program.  By using this program,
 the user acknowledges that Gaussian, Inc. is engaged in the
 business of creating and licensing software in the field of
 computational chemistry and represents and warrants to the
 licensee that it is not a competitor of Gaussian, Inc. and that
 it will not use this program in any manner prohibited above.
 ---------------------------------------------------------------
  

 Cite this work as:
 Gaussian 16, Revision C.01,
 M. J. Frisch, G. W. Trucks, H. B. Schlegel, G. E. Scuseria, 
 M. A. Robb, J. R. Cheeseman, G. Scalmani, V. Barone, 
 G. A. Petersson, H. Nakatsuji, X. Li, M. Caricato, A. V. Marenich, 
 J. Bloino, B. G. Janesko, R. Gomperts, B. Mennucci, H. P. Hratchian, 
 J. V. Ortiz, A. F. Izmaylov, J. L. Sonnenberg, D. Williams-Young, 
 F. Ding, F. Lipparini, F. Egidi, J. Goings, B. Peng, A. Petrone, 
 T. Henderson, D. Ranasinghe, V. G. Zakrzewski, J. Gao, N. Rega, 
 G. Zheng, W. Liang, M. Hada, M. Ehara, K. Toyota, R. Fukuda, 
 J. Hasegawa, M. Ishida, T. Nakajima, Y. Honda, O. Kitao, H. Nakai, 
 T. Vreven, K. Throssell, J. A. Montgomery, Jr., J. E. Peralta, 
 F. Ogliaro, M. J. Bearpark, J. J. Heyd, E. N. Brothers, K. N. Kudin, 
 V. N. Staroverov, T. A. Keith, R. Kobayashi, J. Normand, 
 K. Raghavachari, A. P. Rendell, J. C. Burant, S. S. Iyengar, 
 J. Tomasi, M. Cossi, J. M. Millam, M. Klene, C. Adamo, R. Cammi, 
 J. W. Ochterski, R. L. Martin, K. Morokuma, O. Farkas, 
 J. B. Foresman, and D. J. Fox, Gaussian, Inc., Wallingford CT, 2019.
 
 ******************************************
 Gaussian 16:  ES64L-G16RevC.01  3-Jul-2019
                27-Sep-2023 
 ******************************************
 %chk=MannitolConformerOpt_23.chk
 %mem=8GB
 %nprocs=16
 Will use up to   16 processors via shared memory.
 ---------------------------------------------
 # opt freq wb97xd/def2tzvpp geom=connectivity
 ---------------------------------------------
 1/18=20,19=15,26=3,38=1,57=2/1,3;
 2/9=110,12=2,17=6,18=5,40=1/2;
 3/5=44,7=202,11=2,25=1,30=1,71=1,74=-58/1,2,3;
 4//1;
 5/5=2,38=5/2;
 6/7=2,8=2,9=2,10=2,28=1/1;
 7//1,2,3,16;
 1/18=20,19=15,26=3/3(2);
 2/9=110/2;
 99//99;
 2/9=110/2;
 3/5=44,7=202,11=2,25=1,30=1,71=1,74=-58/1,2,3;
 4/5=5,16=3,69=1/1;
 5/5=2,38=5/2;
 7//1,2,3,16;
 1/18=20,19=15,26=3/3(-5);
 2/9=110/2;
 6/7=2,8=2,9=2,10=2,19=2,28=1/1;
 99/9=1/99;
 --------------------------------
 Mannitol Conformer Optimziations
 --------------------------------
 Symbolic Z-matrix:
 Charge =  0 Multiplicity = 1
 C                     0.        0.        0. 
 C                     1.5468    0.        0. 
 C                    -0.5975    0.9167   -1.0953 
 C                     2.166    -0.7646    1.1874 
 H                     1.9236    1.0288    0. 
 H                    -0.3658    0.3534    0.9703 
 C                    -0.6645    0.304    -2.5029 
 H                    -0.0513    1.8653   -1.1235 
 C                     1.9665   -0.0701    2.5366 
 H                     3.2368   -0.9198    1.0071 
 H                     0.3117   -0.0086   -2.8786 
 H                    -1.081     1.0342   -3.2042 
 H                     0.9081    0.0061    2.8001 
 H                     2.4241    0.9235    2.5433 
 O                    -1.5523   -0.8191   -2.5155 
 H                    -1.2685   -1.3895   -1.7667 
 O                    -1.9491    1.2333   -0.7035 
 H                    -2.4859    0.4706   -1.0038 
 O                    -0.5047   -1.3426   -0.1603 
 H                     0.0058   -1.9023    0.4692 
 O                     2.0149   -0.6209   -1.2057 
 H                     1.7228   -1.5537   -1.1566 
 O                     1.5904   -2.0855    1.2654 
 H                     1.9815   -2.4663    2.0821 
 O                     2.5901   -0.8757    3.5399 
 H                     2.4811   -0.4094    4.3887 
 

 GradGradGradGradGradGradGradGradGradGradGradGradGradGradGradGradGradGrad
 Berny optimization.
 Initialization pass.
                           ----------------------------
                           !    Initial Parameters    !
                           ! (Angstroms and Degrees)  !
 --------------------------                            --------------------------
 ! Name  Definition              Value          Derivative Info.                !
 --------------------------------------------------------------------------------
 ! R1    R(1,2)                  1.5468         estimate D2E/DX2                !
 ! R2    R(1,3)                  1.5482         estimate D2E/DX2                !
 ! R3    R(1,6)                  1.0955         estimate D2E/DX2                !
 ! R4    R(1,19)                 1.4433         estimate D2E/DX2                !
 ! R5    R(2,4)                  1.5421         estimate D2E/DX2                !
 ! R6    R(2,5)                  1.0956         estimate D2E/DX2                !
 ! R7    R(2,21)                 1.4347         estimate D2E/DX2                !
 ! R8    R(3,7)                  1.5366         estimate D2E/DX2                !
 ! R9    R(3,8)                  1.095          estimate D2E/DX2                !
 ! R10   R(3,17)                 1.4424         estimate D2E/DX2                !
 ! R11   R(4,9)                  1.5305         estimate D2E/DX2                !
 ! R12   R(4,10)                 1.0969         estimate D2E/DX2                !
 ! R13   R(4,23)                 1.443          estimate D2E/DX2                !
 ! R14   R(7,11)                 1.0917         estimate D2E/DX2                !
 ! R15   R(7,12)                 1.0948         estimate D2E/DX2                !
 ! R16   R(7,15)                 1.4317         estimate D2E/DX2                !
 ! R17   R(9,13)                 1.0934         estimate D2E/DX2                !
 ! R18   R(9,14)                 1.0939         estimate D2E/DX2                !
 ! R19   R(9,25)                 1.4299         estimate D2E/DX2                !
 ! R20   R(15,16)                0.9832         estimate D2E/DX2                !
 ! R21   R(17,18)                0.9798         estimate D2E/DX2                !
 ! R22   R(19,20)                0.985          estimate D2E/DX2                !
 ! R23   R(21,22)                0.9787         estimate D2E/DX2                !
 ! R24   R(23,24)                0.9823         estimate D2E/DX2                !
 ! R25   R(25,26)                0.9746         estimate D2E/DX2                !
 ! A1    A(2,1,3)              112.7011         estimate D2E/DX2                !
 ! A2    A(2,1,6)              109.5058         estimate D2E/DX2                !
 ! A3    A(2,1,19)             110.4687         estimate D2E/DX2                !
 ! A4    A(3,1,6)              107.8618         estimate D2E/DX2                !
 ! A5    A(3,1,19)             109.7105         estimate D2E/DX2                !
 ! A6    A(6,1,19)             106.3613         estimate D2E/DX2                !
 ! A7    A(1,2,4)              113.6746         estimate D2E/DX2                !
 ! A8    A(1,2,5)              110.1154         estimate D2E/DX2                !
 ! A9    A(1,2,21)             109.0426         estimate D2E/DX2                !
 ! A10   A(4,2,5)              109.1166         estimate D2E/DX2                !
 ! A11   A(4,2,21)             107.5485         estimate D2E/DX2                !
 ! A12   A(5,2,21)             107.1077         estimate D2E/DX2                !
 ! A13   A(1,3,7)              115.3907         estimate D2E/DX2                !
 ! A14   A(1,3,8)              109.795          estimate D2E/DX2                !
 ! A15   A(1,3,17)             107.4229         estimate D2E/DX2                !
 ! A16   A(7,3,8)              110.0955         estimate D2E/DX2                !
 ! A17   A(7,3,17)             107.1864         estimate D2E/DX2                !
 ! A18   A(8,3,17)             106.5147         estimate D2E/DX2                !
 ! A19   A(2,4,9)              113.6693         estimate D2E/DX2                !
 ! A20   A(2,4,10)             109.6073         estimate D2E/DX2                !
 ! A21   A(2,4,23)             109.5928         estimate D2E/DX2                !
 ! A22   A(9,4,10)             109.6545         estimate D2E/DX2                !
 ! A23   A(9,4,23)             108.4051         estimate D2E/DX2                !
 ! A24   A(10,4,23)            105.5911         estimate D2E/DX2                !
 ! A25   A(3,7,11)             112.9809         estimate D2E/DX2                !
 ! A26   A(3,7,12)             109.7213         estimate D2E/DX2                !
 ! A27   A(3,7,15)             110.3583         estimate D2E/DX2                !
 ! A28   A(11,7,12)            108.1032         estimate D2E/DX2                !
 ! A29   A(11,7,15)            109.0775         estimate D2E/DX2                !
 ! A30   A(12,7,15)            106.3603         estimate D2E/DX2                !
 ! A31   A(4,9,13)             111.7312         estimate D2E/DX2                !
 ! A32   A(4,9,14)             111.2861         estimate D2E/DX2                !
 ! A33   A(4,9,25)             107.8211         estimate D2E/DX2                !
 ! A34   A(13,9,14)            109.8862         estimate D2E/DX2                !
 ! A35   A(13,9,25)            106.9983         estimate D2E/DX2                !
 ! A36   A(14,9,25)            108.966          estimate D2E/DX2                !
 ! A37   A(7,15,16)            105.6296         estimate D2E/DX2                !
 ! A38   A(3,17,18)            105.026          estimate D2E/DX2                !
 ! A39   A(1,19,20)            106.0446         estimate D2E/DX2                !
 ! A40   A(2,21,22)            105.8393         estimate D2E/DX2                !
 ! A41   A(4,23,24)            103.9444         estimate D2E/DX2                !
 ! A42   A(9,25,26)            107.0242         estimate D2E/DX2                !
 ! D1    D(3,1,2,4)            172.8513         estimate D2E/DX2                !
 ! D2    D(3,1,2,5)             50.0727         estimate D2E/DX2                !
 ! D3    D(3,1,2,21)           -67.1744         estimate D2E/DX2                !
 ! D4    D(6,1,2,4)             52.7911         estimate D2E/DX2                !
 ! D5    D(6,1,2,5)            -69.9875         estimate D2E/DX2                !
 ! D6    D(6,1,2,21)           172.7654         estimate D2E/DX2                !
 ! D7    D(19,1,2,4)           -64.03           estimate D2E/DX2                !
 ! D8    D(19,1,2,5)           173.1914         estimate D2E/DX2                !
 ! D9    D(19,1,2,21)           55.9443         estimate D2E/DX2                !
 ! D10   D(2,1,3,7)             81.591          estimate D2E/DX2                !
 ! D11   D(2,1,3,8)            -43.5115         estimate D2E/DX2                !
 ! D12   D(2,1,3,17)          -158.9531         estimate D2E/DX2                !
 ! D13   D(6,1,3,7)           -157.4061         estimate D2E/DX2                !
 ! D14   D(6,1,3,8)             77.4914         estimate D2E/DX2                !
 ! D15   D(6,1,3,17)           -37.9503         estimate D2E/DX2                !
 ! D16   D(19,1,3,7)           -41.9493         estimate D2E/DX2                !
 ! D17   D(19,1,3,8)          -167.0518         estimate D2E/DX2                !
 ! D18   D(19,1,3,17)           77.5065         estimate D2E/DX2                !
 ! D19   D(2,1,19,20)           46.9221         estimate D2E/DX2                !
 ! D20   D(3,1,19,20)          171.7626         estimate D2E/DX2                !
 ! D21   D(6,1,19,20)          -71.8306         estimate D2E/DX2                !
 ! D22   D(1,2,4,9)            -69.6606         estimate D2E/DX2                !
 ! D23   D(1,2,4,10)           167.247          estimate D2E/DX2                !
 ! D24   D(1,2,4,23)            51.8019         estimate D2E/DX2                !
 ! D25   D(5,2,4,9)             53.6651         estimate D2E/DX2                !
 ! D26   D(5,2,4,10)           -69.4274         estimate D2E/DX2                !
 ! D27   D(5,2,4,23)           175.1276         estimate D2E/DX2                !
 ! D28   D(21,2,4,9)           169.5229         estimate D2E/DX2                !
 ! D29   D(21,2,4,10)           46.4305         estimate D2E/DX2                !
 ! D30   D(21,2,4,23)          -69.0145         estimate D2E/DX2                !
 ! D31   D(1,2,21,22)          -64.7782         estimate D2E/DX2                !
 ! D32   D(4,2,21,22)           58.9099         estimate D2E/DX2                !
 ! D33   D(5,2,21,22)          176.0848         estimate D2E/DX2                !
 ! D34   D(1,3,7,11)           -58.1752         estimate D2E/DX2                !
 ! D35   D(1,3,7,12)          -178.8769         estimate D2E/DX2                !
 ! D36   D(1,3,7,15)            64.2393         estimate D2E/DX2                !
 ! D37   D(8,3,7,11)            66.7717         estimate D2E/DX2                !
 ! D38   D(8,3,7,12)           -53.93           estimate D2E/DX2                !
 ! D39   D(8,3,7,15)          -170.8138         estimate D2E/DX2                !
 ! D40   D(17,3,7,11)         -177.7612         estimate D2E/DX2                !
 ! D41   D(17,3,7,12)           61.5371         estimate D2E/DX2                !
 ! D42   D(17,3,7,15)          -55.3467         estimate D2E/DX2                !
 ! D43   D(1,3,17,18)          -83.1276         estimate D2E/DX2                !
 ! D44   D(7,3,17,18)           41.4466         estimate D2E/DX2                !
 ! D45   D(8,3,17,18)          159.2749         estimate D2E/DX2                !
 ! D46   D(2,4,9,13)            62.9943         estimate D2E/DX2                !
 ! D47   D(2,4,9,14)           -60.2545         estimate D2E/DX2                !
 ! D48   D(2,4,9,25)          -179.7023         estimate D2E/DX2                !
 ! D49   D(10,4,9,13)         -173.9392         estimate D2E/DX2                !
 ! D50   D(10,4,9,14)           62.812          estimate D2E/DX2                !
 ! D51   D(10,4,9,25)          -56.6357         estimate D2E/DX2                !
 ! D52   D(23,4,9,13)          -59.128          estimate D2E/DX2                !
 ! D53   D(23,4,9,14)          177.6232         estimate D2E/DX2                !
 ! D54   D(23,4,9,25)           58.1755         estimate D2E/DX2                !
 ! D55   D(2,4,23,24)         -175.4465         estimate D2E/DX2                !
 ! D56   D(9,4,23,24)          -50.8674         estimate D2E/DX2                !
 ! D57   D(10,4,23,24)          66.5761         estimate D2E/DX2                !
 ! D58   D(3,7,15,16)          -50.6346         estimate D2E/DX2                !
 ! D59   D(11,7,15,16)          74.0438         estimate D2E/DX2                !
 ! D60   D(12,7,15,16)        -169.5848         estimate D2E/DX2                !
 ! D61   D(4,9,25,26)          178.2276         estimate D2E/DX2                !
 ! D62   D(13,9,25,26)         -61.444          estimate D2E/DX2                !
 ! D63   D(14,9,25,26)          57.3177         estimate D2E/DX2                !
 --------------------------------------------------------------------------------
 Trust Radius=3.00D-01 FncErr=1.00D-07 GrdErr=1.00D-06 EigMax=2.50D+02 EigMin=1.00D-04
 Number of steps in this run=    140 maximum allowed number of steps=    156.
 GradGradGradGradGradGradGradGradGradGradGradGradGradGradGradGradGradGrad

                          Input orientation:                          
 ---------------------------------------------------------------------
 Center     Atomic      Atomic             Coordinates (Angstroms)
 Number     Number       Type             X           Y           Z
 ---------------------------------------------------------------------
      1          6           0        0.000000    0.000000    0.000000
      2          6           0        1.546800    0.000000    0.000000
      3          6           0       -0.597500    0.916700   -1.095300
      4          6           0        2.166000   -0.764600    1.187400
      5          1           0        1.923600    1.028800    0.000000
      6          1           0       -0.365800    0.353400    0.970300
      7          6           0       -0.664500    0.304000   -2.502900
      8          1           0       -0.051300    1.865300   -1.123500
      9          6           0        1.966500   -0.070100    2.536600
     10          1           0        3.236800   -0.919800    1.007100
     11          1           0        0.311700   -0.008600   -2.878600
     12          1           0       -1.081000    1.034200   -3.204200
     13          1           0        0.908100    0.006100    2.800100
     14          1           0        2.424100    0.923500    2.543300
     15          8           0       -1.552300   -0.819100   -2.515500
     16          1           0       -1.268500   -1.389500   -1.766700
     17          8           0       -1.949100    1.233300   -0.703500
     18          1           0       -2.485900    0.470600   -1.003800
     19          8           0       -0.504700   -1.342600   -0.160300
     20          1           0        0.005800   -1.902300    0.469200
     21          8           0        2.014900   -0.620900   -1.205700
     22          1           0        1.722800   -1.553700   -1.156600
     23          8           0        1.590400   -2.085500    1.265400
     24          1           0        1.981500   -2.466300    2.082100
     25          8           0        2.590100   -0.875700    3.539900
     26          1           0        2.481100   -0.409400    4.388700
 ---------------------------------------------------------------------
                    Distance matrix (angstroms):
                    1          2          3          4          5
     1  C    0.000000
     2  C    1.546800   0.000000
     3  C    1.548234   2.576440   0.000000
     4  C    2.585747   1.542057   3.959093   0.000000
     5  H    2.181437   1.095631   2.751035   2.164477   0.000000
     6  H    1.095529   2.173571   2.153531   2.776161   2.576626
     7  C    2.607390   3.353621   1.536629   4.771996   3.672616
     8  H    2.178125   2.701022   1.094976   4.144038   2.421201
     9  C    3.210354   2.572042   4.553962   1.530513   2.764735
    10  H    3.512429   2.171723   4.742855   1.096908   2.556518
    11  H    2.895439   3.132393   2.205217   4.532364   3.458433
    12  H    3.536245   4.271042   2.166804   5.750204   4.392556
    13  H    2.943678   2.872026   4.274361   2.185656   3.149240
    14  H    3.632835   2.844448   4.729643   2.180542   2.594217
    15  O    3.067295   4.074688   2.437542   5.247875   4.671654
    16  H    2.580897   3.602479   2.493908   4.573073   4.377089
    17  O    2.411417   3.773229   1.442417   4.949864   3.941388
    18  H    2.721907   4.182314   1.942532   5.288407   4.556632
    19  O    1.443258   2.457015   2.446891   3.046805   3.397922
    20  H    1.959318   2.492704   3.279999   2.544924   3.534042
    21  O    2.428796   1.434694   3.033321   2.402167   2.045375
    22  H    2.592247   1.944912   3.389753   2.512656   2.836785
    23  O    2.912030   2.439764   4.401479   1.442975   3.378036
    24  H    3.787363   3.256799   5.309595   1.931401   4.068687
    25  O    4.472847   3.792917   5.904115   2.393002   4.074584
    26  H    5.058078   4.505687   6.427330   3.236321   4.651872
                    6          7          8          9         10
     6  H    0.000000
     7  C    3.486371   0.000000
     8  H    2.601682   2.171731   0.000000
     9  C    2.841174   5.697251   4.605825   0.000000
    10  H    3.821141   5.388685   4.807061   2.162180   0.000000
    11  H    3.924803   1.091712   2.592999   5.662732   4.948248
    12  H    4.289691   1.094754   2.465831   6.592687   6.340076
    13  H    2.256459   5.539280   4.446539   1.093366   3.081393
    14  H    3.253135   5.948728   4.523275   1.093930   2.533406
    15  O    3.864368   1.431678   3.375895   6.202150   5.945951
    16  H    3.368046   1.942871   3.533979   5.542962   5.311526
    17  O    2.466307   2.398257   2.043886   5.246811   5.869885
    18  H    2.899247   2.364858   2.808344   5.714075   6.223040
    19  O    2.043029   2.867857   3.379933   3.872900   3.942132
    20  H    2.340378   3.761707   4.090815   3.387542   3.419650
    21  O    3.369268   3.117267   3.233749   3.782926   2.545361
    22  H    3.538783   3.311008   3.852024   3.987504   2.715810
    23  O    3.140388   4.999437   4.900086   2.412310   2.033767
    24  H    3.833618   5.974789   5.759419   2.438969   2.263419
    25  O    4.104982   6.964161   6.019749   1.429853   2.614429
    26  H    4.513553   7.609066   6.478554   1.951976   3.502400
                   11         12         13         14         15
    11  H    0.000000
    12  H    1.770045   0.000000
    13  H    5.709951   6.408208   0.000000
    14  H    5.893050   6.732885   1.790482   0.000000
    15  O    2.064763   2.032524   5.915245   6.666324   0.000000
    16  H    2.374919   2.824161   5.247947   6.128733   0.983158
    17  O    3.374106   2.654569   4.684530   5.455508   2.766431
    18  H    3.401628   2.670796   5.119048   6.074137   2.195489
    19  O    3.136115   3.904693   3.546683   4.585033   2.630301
    20  H    3.858424   4.826804   3.144715   4.258546   3.536868
    21  O    2.464629   4.039549   4.202924   4.075244   3.805230
    22  H    2.709949   4.330264   4.330380   4.507505   3.621122
    23  O    4.808464   6.070110   2.682467   3.373746   5.076961
    24  H    5.782479   7.041120   2.789350   3.449543   6.028179
    25  O    6.865866   7.912495   2.038136   2.063465   7.336931
    26  H    7.594774   8.510268   2.273900   2.277141   8.006507
                   16         17         18         19         20
    16  H    0.000000
    17  O    2.910789   0.000000
    18  H    2.350330   0.979819   0.000000
    19  O    1.779357   3.002768   2.815020   0.000000
    20  H    2.624129   3.876706   3.742853   0.984959   0.000000
    21  O    3.418506   4.404947   4.635659   2.821719   2.912689
    22  H    3.057296   4.632010   4.672718   2.449272   2.390154
    23  O    4.225086   5.236321   5.319693   2.640827   1.782822
    24  H    5.151239   6.074226   6.172991   3.531607   2.612074
    25  O    6.581245   6.561910   6.944315   4.846366   4.142670
    26  H    7.273860   6.946628   7.384074   5.520803   4.870148
                   21         22         23         24         25
    21  O    0.000000
    22  H    0.978698   0.000000
    23  O    2.903720   2.483229   0.000000
    24  H    3.770444   3.374751   0.982327   0.000000
    25  O    4.787118   4.823796   2.763398   2.241781   0.000000
    26  H    5.617774   5.712687   3.654813   3.130630   0.974566
                   26
    26  H    0.000000
 Stoichiometry    C6H14O6
 Framework group  C1[X(C6H14O6)]
 Deg. of freedom    72
 Full point group                 C1      NOp   1
 Largest Abelian subgroup         C1      NOp   1
 Largest concise Abelian subgroup C1      NOp   1
                         Standard orientation:                         
 ---------------------------------------------------------------------
 Center     Atomic      Atomic             Coordinates (Angstroms)
 Number     Number       Type             X           Y           Z
 ---------------------------------------------------------------------
      1          6           0       -0.451410    0.489767    0.033687
      2          6           0        0.501573   -0.300670   -0.893471
      3          6           0       -1.827684    0.765888   -0.619501
      4          6           0        1.933602   -0.437405   -0.338010
      5          1           0        0.543446    0.171240   -1.881376
      6          1           0        0.000768    1.455309    0.285573
      7          6           0       -2.833371   -0.394001   -0.552574
      8          1           0       -1.688202    1.083438   -1.658095
      9          6           0        2.715256    0.878376   -0.323505
     10          1           0        2.483979   -1.187105   -0.919596
     11          1           0       -2.461773   -1.307851   -1.020153
     12          1           0       -3.761973   -0.107344   -1.056570
     13          1           0        2.250831    1.617908    0.334409
     14          1           0        2.818550    1.290061   -1.331735
     15          8           0       -3.182278   -0.672834    0.807653
     16          1           0       -2.328618   -0.761529    1.287235
     17          8           0       -2.418978    1.883288    0.075017
     18          1           0       -2.838565    1.494669    0.870610
     19          8           0       -0.636779   -0.210379    1.282057
     20          1           0        0.263229   -0.475678    1.581633
     21          8           0       -0.018338   -1.624778   -1.079955
     22          1           0        0.011811   -2.050118   -0.199031
     23          8           0        1.882992   -0.952138    1.009085
     24          1           0        2.819680   -0.934695    1.304512
     25          8           0        4.016623    0.608488    0.203832
     26          1           0        4.513108    1.446803    0.181300
 ---------------------------------------------------------------------
 Rotational constants (GHZ):           1.7811847           0.4821876           0.4553164
 Standard basis: def2TZVPP (5D, 7F)
 There are   642 symmetry adapted cartesian basis functions of A   symmetry.
 There are   568 symmetry adapted basis functions of A   symmetry.
   568 basis functions,   850 primitive gaussians,   642 cartesian basis functions
    49 alpha electrons       49 beta electrons
       nuclear repulsion energy       832.6025830740 Hartrees.
 NAtoms=   26 NActive=   26 NUniq=   26 SFac= 1.00D+00 NAtFMM=   60 NAOKFM=F Big=F
 Integral buffers will be    131072 words long.
 Raffenetti 2 integral format.
 Two-electron integral symmetry is turned on.
 Nuclear repulsion after empirical dispersion term =      832.5838975295 Hartrees.
 One-electron integrals computed using PRISM.
   1 Symmetry operations used in ECPInt.
 ECPInt:  NShTT=   23436 NPrTT=   62434 LenC2=   21823 LenP2D=   45484.
 LDataN:  DoStor=T MaxTD1= 6 Len=  172
 NBasis=   568 RedAO= T EigKep=  4.57D-05  NBF=   568
 NBsUse=   568 1.00D-06 EigRej= -1.00D+00 NBFU=   568
 ExpMin= 9.52D-02 ExpMax= 2.70D+04 ExpMxC= 9.22D+02 IAcc=3 IRadAn=         5 AccDes= 0.00D+00
 Harris functional with IExCor= 4639 and IRadAn=       5 diagonalized for initial guess.
 HarFok:  IExCor= 4639 AccDes= 0.00D+00 IRadAn=         5 IDoV= 1 UseB2=F ITyADJ=14
 ICtDFT=  3500011 ScaDFX=  1.000000  1.000000  1.000000  1.000000
 FoFCou: FMM=F IPFlag=           0 FMFlag=      100000 FMFlg1=           0
         NFxFlg=           0 DoJE=T BraDBF=F KetDBF=T FulRan=T
         wScrn=  0.000000 ICntrl=       500 IOpCl=  0 I1Cent=   200000004 NGrid=           0
         NMat0=    1 NMatS0=      1 NMatT0=    0 NMatD0=    1 NMtDS0=    0 NMtDT0=    0
 Petite list used in FoFCou.
 Requested convergence on RMS density matrix=1.00D-08 within 128 cycles.
 Requested convergence on MAX density matrix=1.00D-06.
 Requested convergence on             energy=1.00D-06.
 No special actions if energy rises.
 Integral accuracy reduced to 1.0D-05 until final iterations.
 Initial convergence to 1.0D-05 achieved.  Increase integral accuracy.
 SCF Done:  E(RwB97XD) =  -688.469137217     A.U. after   13 cycles
            NFock= 13  Conv=0.89D-08     -V/T= 2.0050

 **********************************************************************

            Population analysis using the SCF Density.

 **********************************************************************

 Orbital symmetries:
       Occupied  (A) (A) (A) (A) (A) (A) (A) (A) (A) (A) (A) (A)
                 (A) (A) (A) (A) (A) (A) (A) (A) (A) (A) (A) (A)
                 (A) (A) (A) (A) (A) (A) (A) (A) (A) (A) (A) (A)
                 (A) (A) (A) (A) (A) (A) (A) (A) (A) (A) (A) (A)
                 (A)
       Virtual   (A) (A) (A) (A) (A) (A) (A) (A) (A) (A) (A) (A)
                 (A) (A) (A) (A) (A) (A) (A) (A) (A) (A) (A) (A)
                 (A) (A) (A) (A) (A) (A) (A) (A) (A) (A) (A) (A)
                 (A) (A) (A) (A) (A) (A) (A) (A) (A) (A) (A) (A)
                 (A) (A) (A) (A) (A) (A) (A) (A) (A) (A) (A) (A)
                 (A) (A) (A) (A) (A) (A) (A) (A) (A) (A) (A) (A)
                 (A) (A) (A) (A) (A) (A) (A) (A) (A) (A) (A) (A)
                 (A) (A) (A) (A) (A) (A) (A) (A) (A) (A) (A) (A)
                 (A) (A) (A) (A) (A) (A) (A) (A) (A) (A) (A) (A)
                 (A) (A) (A) (A) (A) (A) (A) (A) (A) (A) (A) (A)
                 (A) (A) (A) (A) (A) (A) (A) (A) (A) (A) (A) (A)
                 (A) (A) (A) (A) (A) (A) (A) (A) (A) (A) (A) (A)
                 (A) (A) (A) (A) (A) (A) (A) (A) (A) (A) (A) (A)
                 (A) (A) (A) (A) (A) (A) (A) (A) (A) (A) (A) (A)
                 (A) (A) (A) (A) (A) (A) (A) (A) (A) (A) (A) (A)
                 (A) (A) (A) (A) (A) (A) (A) (A) (A) (A) (A) (A)
                 (A) (A) (A) (A) (A) (A) (A) (A) (A) (A) (A) (A)
                 (A) (A) (A) (A) (A) (A) (A) (A) (A) (A) (A) (A)
                 (A) (A) (A) (A) (A) (A) (A) (A) (A) (A) (A) (A)
                 (A) (A) (A) (A) (A) (A) (A) (A) (A) (A) (A) (A)
                 (A) (A) (A) (A) (A) (A) (A) (A) (A) (A) (A) (A)
                 (A) (A) (A) (A) (A) (A) (A) (A) (A) (A) (A) (A)
                 (A) (A) (A) (A) (A) (A) (A) (A) (A) (A) (A) (A)
                 (A) (A) (A) (A) (A) (A) (A) (A) (A) (A) (A) (A)
                 (A) (A) (A) (A) (A) (A) (A) (A) (A) (A) (A) (A)
                 (A) (A) (A) (A) (A) (A) (A) (A) (A) (A) (A) (A)
                 (A) (A) (A) (A) (A) (A) (A) (A) (A) (A) (A) (A)
                 (A) (A) (A) (A) (A) (A) (A) (A) (A) (A) (A) (A)
                 (A) (A) (A) (A) (A) (A) (A) (A) (A) (A) (A) (A)
                 (A) (A) (A) (A) (A) (A) (A) (A) (A) (A) (A) (A)
                 (A) (A) (A) (A) (A) (A) (A) (A) (A) (A) (A) (A)
                 (A) (A) (A) (A) (A) (A) (A) (A) (A) (A) (A) (A)
                 (A) (A) (A) (A) (A) (A) (A) (A) (A) (A) (A) (A)
                 (A) (A) (A) (A) (A) (A) (A) (A) (A) (A) (A) (A)
                 (A) (A) (A) (A) (A) (A) (A) (A) (A) (A) (A) (A)
                 (A) (A) (A) (A) (A) (A) (A) (A) (A) (A) (A) (A)
                 (A) (A) (A) (A) (A) (A) (A) (A) (A) (A) (A) (A)
                 (A) (A) (A) (A) (A) (A) (A) (A) (A) (A) (A) (A)
                 (A) (A) (A) (A) (A) (A) (A) (A) (A) (A) (A) (A)
                 (A) (A) (A) (A) (A) (A) (A) (A) (A) (A) (A) (A)
                 (A) (A) (A) (A) (A) (A) (A) (A) (A) (A) (A) (A)
                 (A) (A) (A) (A) (A) (A) (A) (A) (A) (A) (A) (A)
                 (A) (A) (A) (A) (A) (A) (A) (A) (A) (A) (A) (A)
                 (A) (A) (A)
 The electronic state is 1-A.
 Alpha  occ. eigenvalues --  -19.28914 -19.28398 -19.26143 -19.26117 -19.23500
 Alpha  occ. eigenvalues --  -19.22585 -10.36616 -10.36144 -10.36027 -10.34912
 Alpha  occ. eigenvalues --  -10.33853 -10.31604  -1.17442  -1.15226  -1.13743
 Alpha  occ. eigenvalues --   -1.12544  -1.10903  -1.08667  -0.89790  -0.85380
 Alpha  occ. eigenvalues --   -0.80038  -0.76009  -0.71194  -0.68612  -0.66619
 Alpha  occ. eigenvalues --   -0.63188  -0.61924  -0.59388  -0.58812  -0.57006
 Alpha  occ. eigenvalues --   -0.55744  -0.55081  -0.54008  -0.53351  -0.52619
 Alpha  occ. eigenvalues --   -0.50345  -0.49208  -0.47802  -0.47249  -0.45231
 Alpha  occ. eigenvalues --   -0.43516  -0.42271  -0.40585  -0.39904  -0.39459
 Alpha  occ. eigenvalues --   -0.38434  -0.36985  -0.35173  -0.34063
 Alpha virt. eigenvalues --    0.07432   0.10422   0.11097   0.12825   0.13999
 Alpha virt. eigenvalues --    0.14517   0.14740   0.16845   0.16950   0.18390
 Alpha virt. eigenvalues --    0.19007   0.19640   0.20356   0.21409   0.21824
 Alpha virt. eigenvalues --    0.22723   0.23648   0.23978   0.25511   0.27108
 Alpha virt. eigenvalues --    0.28218   0.29516   0.30014   0.31818   0.32255
 Alpha virt. eigenvalues --    0.34520   0.35034   0.35844   0.37705   0.37758
 Alpha virt. eigenvalues --    0.38354   0.39781   0.39944   0.40250   0.40917
 Alpha virt. eigenvalues --    0.41161   0.41963   0.43435   0.43572   0.44453
 Alpha virt. eigenvalues --    0.44965   0.45570   0.46207   0.47758   0.48129
 Alpha virt. eigenvalues --    0.48734   0.49001   0.49324   0.50171   0.50823
 Alpha virt. eigenvalues --    0.51568   0.52250   0.53133   0.53995   0.55111
 Alpha virt. eigenvalues --    0.55651   0.56628   0.57999   0.58654   0.59129
 Alpha virt. eigenvalues --    0.60339   0.60941   0.61551   0.62238   0.63365
 Alpha virt. eigenvalues --    0.64257   0.64866   0.66748   0.67099   0.69091
 Alpha virt. eigenvalues --    0.69396   0.70652   0.71737   0.73985   0.74422
 Alpha virt. eigenvalues --    0.74868   0.76293   0.77693   0.79217   0.79303
 Alpha virt. eigenvalues --    0.80934   0.81559   0.83012   0.85448   0.86855
 Alpha virt. eigenvalues --    0.86984   0.87990   0.89545   0.89718   0.90292
 Alpha virt. eigenvalues --    0.91573   0.91835   0.94095   0.94545   0.95634
 Alpha virt. eigenvalues --    0.96675   0.97445   0.98382   0.99966   1.01627
 Alpha virt. eigenvalues --    1.01895   1.04729   1.05030   1.05351   1.07038
 Alpha virt. eigenvalues --    1.09058   1.10390   1.11132   1.11435   1.13199
 Alpha virt. eigenvalues --    1.14236   1.14683   1.16810   1.17530   1.18169
 Alpha virt. eigenvalues --    1.19226   1.20505   1.21847   1.22857   1.24577
 Alpha virt. eigenvalues --    1.25682   1.26630   1.27580   1.29038   1.29884
 Alpha virt. eigenvalues --    1.30759   1.32209   1.33644   1.34147   1.34951
 Alpha virt. eigenvalues --    1.36236   1.36551   1.37819   1.39045   1.40236
 Alpha virt. eigenvalues --    1.40861   1.41848   1.43134   1.46213   1.47075
 Alpha virt. eigenvalues --    1.48572   1.48675   1.49067   1.50220   1.52126
 Alpha virt. eigenvalues --    1.52530   1.53349   1.54637   1.55015   1.56707
 Alpha virt. eigenvalues --    1.59168   1.59701   1.61713   1.64219   1.65475
 Alpha virt. eigenvalues --    1.66483   1.67376   1.68635   1.73071   1.73468
 Alpha virt. eigenvalues --    1.75872   1.77241   1.78021   1.81133   1.83558
 Alpha virt. eigenvalues --    1.86343   1.88550   1.89829   1.91287   1.92569
 Alpha virt. eigenvalues --    1.93818   1.95451   1.97077   1.97459   1.98994
 Alpha virt. eigenvalues --    2.00964   2.03685   2.04481   2.04830   2.05937
 Alpha virt. eigenvalues --    2.07691   2.07957   2.09531   2.09980   2.11246
 Alpha virt. eigenvalues --    2.12116   2.13470   2.15106   2.16357   2.18461
 Alpha virt. eigenvalues --    2.19430   2.21366   2.22301   2.25422   2.27417
 Alpha virt. eigenvalues --    2.27585   2.29867   2.30318   2.31790   2.32349
 Alpha virt. eigenvalues --    2.34520   2.35677   2.38175   2.38677   2.41129
 Alpha virt. eigenvalues --    2.43787   2.44949   2.49507   2.50275   2.51481
 Alpha virt. eigenvalues --    2.53447   2.57094   2.60968   2.61871   2.64554
 Alpha virt. eigenvalues --    2.64829   2.66496   2.68632   2.69581   2.70862
 Alpha virt. eigenvalues --    2.73824   2.74845   2.75215   2.76039   2.76916
 Alpha virt. eigenvalues --    2.77058   2.78944   2.79609   2.81204   2.84722
 Alpha virt. eigenvalues --    2.85641   2.86321   2.89639   2.90105   2.90857
 Alpha virt. eigenvalues --    2.92024   2.94323   2.95224   2.97639   2.97999
 Alpha virt. eigenvalues --    2.99244   3.01038   3.02077   3.02532   3.03912
 Alpha virt. eigenvalues --    3.04870   3.05620   3.07449   3.09734   3.10930
 Alpha virt. eigenvalues --    3.12458   3.12718   3.13008   3.14288   3.16180
 Alpha virt. eigenvalues --    3.17104   3.17378   3.20042   3.20459   3.21733
 Alpha virt. eigenvalues --    3.22331   3.24368   3.24924   3.25735   3.26901
 Alpha virt. eigenvalues --    3.28070   3.28379   3.30150   3.31072   3.31708
 Alpha virt. eigenvalues --    3.34174   3.34531   3.35918   3.36334   3.36718
 Alpha virt. eigenvalues --    3.36992   3.38211   3.39169   3.40764   3.42416
 Alpha virt. eigenvalues --    3.43088   3.43831   3.44765   3.46312   3.48856
 Alpha virt. eigenvalues --    3.49772   3.50258   3.50989   3.53044   3.53377
 Alpha virt. eigenvalues --    3.54110   3.56031   3.57437   3.58665   3.59420
 Alpha virt. eigenvalues --    3.60925   3.61842   3.62484   3.63696   3.64355
 Alpha virt. eigenvalues --    3.66880   3.68776   3.69192   3.69894   3.72101
 Alpha virt. eigenvalues --    3.72156   3.74890   3.75247   3.77195   3.77381
 Alpha virt. eigenvalues --    3.78551   3.79927   3.81802   3.82737   3.83504
 Alpha virt. eigenvalues --    3.85146   3.85614   3.86290   3.87049   3.89110
 Alpha virt. eigenvalues --    3.90558   3.91752   3.92661   3.93243   3.95400
 Alpha virt. eigenvalues --    3.95624   3.97088   3.98135   3.99856   4.01368
 Alpha virt. eigenvalues --    4.02768   4.04306   4.04848   4.05690   4.06414
 Alpha virt. eigenvalues --    4.07350   4.08869   4.10371   4.11162   4.11707
 Alpha virt. eigenvalues --    4.12549   4.13394   4.14798   4.15605   4.16103
 Alpha virt. eigenvalues --    4.17743   4.19080   4.19908   4.21952   4.23553
 Alpha virt. eigenvalues --    4.23912   4.26367   4.26978   4.27242   4.28553
 Alpha virt. eigenvalues --    4.29092   4.29821   4.30785   4.31964   4.33510
 Alpha virt. eigenvalues --    4.33857   4.36196   4.38140   4.39344   4.40547
 Alpha virt. eigenvalues --    4.41857   4.43297   4.45431   4.46933   4.49990
 Alpha virt. eigenvalues --    4.50881   4.52230   4.52772   4.54063   4.55662
 Alpha virt. eigenvalues --    4.56242   4.57140   4.59039   4.59984   4.61236
 Alpha virt. eigenvalues --    4.63807   4.64866   4.66876   4.67870   4.68619
 Alpha virt. eigenvalues --    4.70461   4.73896   4.74716   4.78334   4.79299
 Alpha virt. eigenvalues --    4.80776   4.81825   4.85468   4.85759   4.87389
 Alpha virt. eigenvalues --    4.90304   4.92950   4.93975   4.95424   4.97640
 Alpha virt. eigenvalues --    4.99567   5.00445   5.02876   5.03805   5.05103
 Alpha virt. eigenvalues --    5.05725   5.07412   5.08973   5.11122   5.12807
 Alpha virt. eigenvalues --    5.13792   5.15537   5.16405   5.18677   5.19982
 Alpha virt. eigenvalues --    5.21552   5.23258   5.23995   5.26306   5.26599
 Alpha virt. eigenvalues --    5.29261   5.33153   5.35722   5.40248   5.40787
 Alpha virt. eigenvalues --    5.45820   5.46404   5.54746   5.55613   5.55702
 Alpha virt. eigenvalues --    5.59786   5.61683   5.63864   5.65188   5.66549
 Alpha virt. eigenvalues --    5.67233   5.68268   5.69834   5.71864   5.72477
 Alpha virt. eigenvalues --    5.73510   5.77969   5.79397   5.81738   5.82027
 Alpha virt. eigenvalues --    5.85317   5.87378   5.89269   5.93675   5.95766
 Alpha virt. eigenvalues --    5.99613   6.01572   6.04814   6.10190   6.12015
 Alpha virt. eigenvalues --    6.14100   6.15638   6.18143   6.18913   6.52158
 Alpha virt. eigenvalues --    6.53112   6.53794   6.54451   6.56750   6.59084
 Alpha virt. eigenvalues --    6.69507   6.72131   6.73470   6.76012   6.76934
 Alpha virt. eigenvalues --    6.77062   6.78715   6.79035   6.80249   6.80867
 Alpha virt. eigenvalues --    6.82787   6.85799   6.88188   6.88924   6.89669
 Alpha virt. eigenvalues --    6.91569   6.93676   6.97717   7.00775   7.01480
 Alpha virt. eigenvalues --    7.03588   7.04717   7.05327   7.09518   7.13994
 Alpha virt. eigenvalues --    7.19304   7.21665   7.23274   7.25371   7.29516
 Alpha virt. eigenvalues --    7.40046   7.43528   7.45388   7.45613   7.47980
 Alpha virt. eigenvalues --    7.51114   7.52894   7.53827   7.61796   7.65314
 Alpha virt. eigenvalues --    7.67697   7.76068  23.07975  23.13145  23.18247
 Alpha virt. eigenvalues --   23.19769  23.42105  23.43897  44.10157  44.15198
 Alpha virt. eigenvalues --   44.22694  44.25038  44.34923  44.43358
          Condensed to atoms (all electrons):
               1          2          3          4          5          6
     1  C    5.080452   0.159332   0.268166   0.009541  -0.032606   0.393418
     2  C    0.159332   5.026938   0.018463   0.206876   0.396884  -0.022907
     3  C    0.268166   0.018463   4.828650  -0.006675  -0.008780  -0.031619
     4  C    0.009541   0.206876  -0.006675   5.017111  -0.008879   0.002324
     5  H   -0.032606   0.396884  -0.008780  -0.008879   0.577617   0.006860
     6  H    0.393418  -0.022907  -0.031619   0.002324   0.006860   0.567770
     7  C   -0.022611  -0.000368   0.334468   0.000463   0.001178   0.009706
     8  H   -0.015367  -0.009658   0.388797  -0.000112   0.001741  -0.000335
     9  C    0.014496  -0.031757   0.002720   0.256233  -0.010090  -0.008365
    10  H    0.007883  -0.028445   0.000018   0.413029  -0.002121  -0.000250
    11  H    0.010296  -0.008527  -0.054782  -0.000194  -0.000242  -0.000929
    12  H    0.005456  -0.000547  -0.026321   0.000009  -0.000139  -0.000218
    13  H    0.005566   0.002172   0.000396  -0.027898   0.000307  -0.001546
    14  H   -0.003868   0.006654   0.000475  -0.054461   0.001781   0.000488
    15  O    0.000101  -0.002699  -0.045654   0.000145  -0.000003  -0.000742
    16  H   -0.006854   0.000831   0.001626  -0.000238  -0.000030   0.000670
    17  O   -0.053836   0.010024   0.270481  -0.000484   0.000293   0.017139
    18  H    0.011393  -0.000512  -0.066303  -0.000092   0.000046  -0.003867
    19  O    0.226063  -0.032051  -0.075663   0.004017   0.004092  -0.019804
    20  H   -0.009220  -0.012498   0.007489  -0.006536  -0.000419  -0.006189
    21  O   -0.060042   0.249981   0.001597  -0.010699  -0.020937   0.003503
    22  H    0.000733  -0.066213  -0.008814   0.008222   0.008542   0.001388
    23  O    0.001204  -0.047719   0.000159   0.205550   0.002528   0.000262
    24  H    0.000331   0.007551   0.000057  -0.029354  -0.000371  -0.000143
    25  O   -0.000289   0.007756  -0.000023  -0.065568  -0.000031  -0.000210
    26  H    0.000132  -0.001876  -0.000009   0.008576  -0.000006  -0.000023
               7          8          9         10         11         12
     1  C   -0.022611  -0.015367   0.014496   0.007883   0.010296   0.005456
     2  C   -0.000368  -0.009658  -0.031757  -0.028445  -0.008527  -0.000547
     3  C    0.334468   0.388797   0.002720   0.000018  -0.054782  -0.026321
     4  C    0.000463  -0.000112   0.256233   0.413029  -0.000194   0.000009
     5  H    0.001178   0.001741  -0.010090  -0.002121  -0.000242  -0.000139
     6  H    0.009706  -0.000335  -0.008365  -0.000250  -0.000929  -0.000218
     7  C    4.712130  -0.025065  -0.000255  -0.000097   0.430415   0.403142
     8  H   -0.025065   0.601623  -0.000233   0.000039   0.003631  -0.004908
     9  C   -0.000255  -0.000233   4.765327  -0.017503   0.000056  -0.000010
    10  H   -0.000097   0.000039  -0.017503   0.545387   0.000005  -0.000003
    11  H    0.430415   0.003631   0.000056   0.000005   0.598146  -0.032301
    12  H    0.403142  -0.004908  -0.000010  -0.000003  -0.032301   0.598726
    13  H   -0.000078   0.000151   0.417817   0.006869   0.000005   0.000001
    14  H    0.000035  -0.000107   0.441258  -0.007065  -0.000002   0.000000
    15  O    0.255233   0.004937   0.000003  -0.000002  -0.038163  -0.036671
    16  H   -0.034771  -0.000098  -0.000035   0.000006  -0.007671   0.008003
    17  O   -0.035202  -0.022354  -0.000066   0.000012   0.004987   0.001168
    18  H   -0.017806   0.008741   0.000007   0.000000   0.002705  -0.003798
    19  O    0.009225   0.002294  -0.003863  -0.000558  -0.000422  -0.000644
    20  H   -0.000187  -0.000378   0.000727   0.000959  -0.000019   0.000052
    21  O   -0.001179   0.001230   0.005167   0.005579   0.011052   0.001473
    22  H    0.003250  -0.000092  -0.000289  -0.002634  -0.003472   0.000007
    23  O   -0.000006  -0.000020  -0.020013  -0.027694  -0.000038  -0.000000
    24  H    0.000015  -0.000001  -0.005800  -0.007345   0.000004   0.000000
    25  O    0.000001   0.000000   0.271938   0.004885   0.000000   0.000000
    26  H   -0.000000  -0.000000  -0.023709   0.000048  -0.000000  -0.000000
              13         14         15         16         17         18
     1  C    0.005566  -0.003868   0.000101  -0.006854  -0.053836   0.011393
     2  C    0.002172   0.006654  -0.002699   0.000831   0.010024  -0.000512
     3  C    0.000396   0.000475  -0.045654   0.001626   0.270481  -0.066303
     4  C   -0.027898  -0.054461   0.000145  -0.000238  -0.000484  -0.000092
     5  H    0.000307   0.001781  -0.000003  -0.000030   0.000293   0.000046
     6  H   -0.001546   0.000488  -0.000742   0.000670   0.017139  -0.003867
     7  C   -0.000078   0.000035   0.255233  -0.034771  -0.035202  -0.017806
     8  H    0.000151  -0.000107   0.004937  -0.000098  -0.022354   0.008741
     9  C    0.417817   0.441258   0.000003  -0.000035  -0.000066   0.000007
    10  H    0.006869  -0.007065  -0.000002   0.000006   0.000012   0.000000
    11  H    0.000005  -0.000002  -0.038163  -0.007671   0.004987   0.002705
    12  H    0.000001   0.000000  -0.036671   0.008003   0.001168  -0.003798
    13  H    0.589105  -0.039365   0.000000  -0.000000  -0.000107   0.000019
    14  H   -0.039365   0.610361  -0.000000   0.000000  -0.000000  -0.000002
    15  O    0.000000  -0.000000   7.949324   0.331724  -0.014478   0.038449
    16  H   -0.000000   0.000000   0.331724   0.453026   0.000594  -0.002960
    17  O   -0.000107  -0.000000  -0.014478   0.000594   7.872420   0.331338
    18  H    0.000019  -0.000002   0.038449  -0.002960   0.331338   0.502885
    19  O    0.000018   0.000006  -0.031901   0.038778   0.001273   0.003426
    20  H    0.000622   0.000071   0.000831  -0.001767  -0.000324  -0.000007
    21  O    0.000026  -0.000071  -0.000506   0.000249  -0.000095  -0.000021
    22  H    0.000013  -0.000051   0.000374   0.000451   0.000030  -0.000025
    23  O   -0.001189   0.005579  -0.000002  -0.000000   0.000000   0.000001
    24  H   -0.001826   0.001391   0.000001  -0.000000  -0.000002  -0.000000
    25  O   -0.048455  -0.043433  -0.000000   0.000000  -0.000000  -0.000000
    26  H   -0.005879  -0.005729   0.000000  -0.000000  -0.000000   0.000000
              19         20         21         22         23         24
     1  C    0.226063  -0.009220  -0.060042   0.000733   0.001204   0.000331
     2  C   -0.032051  -0.012498   0.249981  -0.066213  -0.047719   0.007551
     3  C   -0.075663   0.007489   0.001597  -0.008814   0.000159   0.000057
     4  C    0.004017  -0.006536  -0.010699   0.008222   0.205550  -0.029354
     5  H    0.004092  -0.000419  -0.020937   0.008542   0.002528  -0.000371
     6  H   -0.019804  -0.006189   0.003503   0.001388   0.000262  -0.000143
     7  C    0.009225  -0.000187  -0.001179   0.003250  -0.000006   0.000015
     8  H    0.002294  -0.000378   0.001230  -0.000092  -0.000020  -0.000001
     9  C   -0.003863   0.000727   0.005167  -0.000289  -0.020013  -0.005800
    10  H   -0.000558   0.000959   0.005579  -0.002634  -0.027694  -0.007345
    11  H   -0.000422  -0.000019   0.011052  -0.003472  -0.000038   0.000004
    12  H   -0.000644   0.000052   0.001473   0.000007  -0.000000   0.000000
    13  H    0.000018   0.000622   0.000026   0.000013  -0.001189  -0.001826
    14  H    0.000006   0.000071  -0.000071  -0.000051   0.005579   0.001391
    15  O   -0.031901   0.000831  -0.000506   0.000374  -0.000002   0.000001
    16  H    0.038778  -0.001767   0.000249   0.000451  -0.000000  -0.000000
    17  O    0.001273  -0.000324  -0.000095   0.000030   0.000000  -0.000002
    18  H    0.003426  -0.000007  -0.000021  -0.000025   0.000001  -0.000000
    19  O    7.987494   0.324879  -0.005001   0.015900  -0.031919   0.001281
    20  H    0.324879   0.442969   0.000823  -0.000824   0.049116  -0.002218
    21  O   -0.005001   0.000823   7.859920   0.325585  -0.004607  -0.000315
    22  H    0.015900  -0.000824   0.325585   0.515598   0.009277  -0.000390
    23  O   -0.031919   0.049116  -0.004607   0.009277   7.934722   0.323486
    24  H    0.001281  -0.002218  -0.000315  -0.000390   0.323486   0.483135
    25  O   -0.000004  -0.000006  -0.000054  -0.000013  -0.008155   0.022189
    26  H    0.000000  -0.000002   0.000016   0.000004  -0.000113  -0.001331
              25         26
     1  C   -0.000289   0.000132
     2  C    0.007756  -0.001876
     3  C   -0.000023  -0.000009
     4  C   -0.065568   0.008576
     5  H   -0.000031  -0.000006
     6  H   -0.000210  -0.000023
     7  C    0.000001  -0.000000
     8  H    0.000000  -0.000000
     9  C    0.271938  -0.023709
    10  H    0.004885   0.000048
    11  H    0.000000  -0.000000
    12  H    0.000000  -0.000000
    13  H   -0.048455  -0.005879
    14  H   -0.043433  -0.005729
    15  O   -0.000000   0.000000
    16  H    0.000000  -0.000000
    17  O   -0.000000  -0.000000
    18  H   -0.000000   0.000000
    19  O   -0.000004   0.000000
    20  H   -0.000006  -0.000002
    21  O   -0.000054   0.000016
    22  H   -0.000013   0.000004
    23  O   -0.008155  -0.000113
    24  H    0.022189  -0.001331
    25  O    7.888236   0.325077
    26  H    0.325077   0.518338
 Mulliken charges:
               1
     1  C    0.010130
     2  C    0.172316
     3  C    0.201081
     4  C    0.079095
     5  H    0.082787
     6  H    0.093618
     7  C   -0.021637
     8  H    0.065542
     9  C   -0.053762
    10  H    0.108995
    11  H    0.085460
    12  H    0.087523
    13  H    0.103255
    14  H    0.086055
    15  O   -0.410302
    16  H    0.218467
    17  O   -0.382810
    18  H    0.196384
    19  O   -0.416915
    20  H    0.212054
    21  O   -0.362673
    22  H    0.193443
    23  O   -0.390409
    24  H    0.209656
    25  O   -0.353842
    26  H    0.186487
 Sum of Mulliken charges =  -0.00000
 Mulliken charges with hydrogens summed into heavy atoms:
               1
     1  C    0.103748
     2  C    0.255103
     3  C    0.266623
     4  C    0.188089
     7  C    0.151346
     9  C    0.135548
    15  O   -0.191835
    17  O   -0.186426
    19  O   -0.204860
    21  O   -0.169229
    23  O   -0.180752
    25  O   -0.167355
 Electronic spatial extent (au):  <R**2>=           2562.2398
 Charge=              0.0000 electrons
 Dipole moment (field-independent basis, Debye):
    X=              5.8943    Y=              1.2724    Z=             -0.8560  Tot=              6.0905
 Quadrupole moment (field-independent basis, Debye-Ang):
   XX=            -74.0838   YY=            -74.6845   ZZ=            -70.8545
   XY=              7.5702   XZ=              3.3759   YZ=             -2.7669
 Traceless Quadrupole moment (field-independent basis, Debye-Ang):
   XX=             -0.8762   YY=             -1.4769   ZZ=              2.3531
   XY=              7.5702   XZ=              3.3759   YZ=             -2.7669
 Octapole moment (field-independent basis, Debye-Ang**2):
  XXX=             75.1988  YYY=            -12.4251  ZZZ=             11.3313  XYY=             33.4109
  XXY=             28.4486  XXZ=             -6.9905  XZZ=              3.8758  YZZ=              5.1369
  YYZ=             11.0667  XYZ=             -7.7730
 Hexadecapole moment (field-independent basis, Debye-Ang**3):
 XXXX=          -2250.7371 YYYY=           -492.2764 ZZZZ=           -325.0631 XXXY=            108.0611
 XXXZ=             65.4321 YYYX=             57.3359 YYYZ=             -5.5674 ZZZX=              2.0473
 ZZZY=            -16.4284 XXYY=           -420.1787 XXZZ=           -416.6563 YYZZ=           -138.9484
 XXYZ=             17.9539 YYXZ=             -3.0294 ZZXY=            -12.2506
 N-N= 8.325838975295D+02 E-N=-3.282246578309D+03  KE= 6.850708441631D+02
   1 Symmetry operations used in ECPInt.
 ECPInt:  NShTT=   23436 NPrTT=   62434 LenC2=   21823 LenP2D=   45484.
 LDataN:  DoStor=T MaxTD1= 7 Len=  274
 Calling FoFJK, ICntrl=      2127 FMM=F ISym2X=0 I1Cent= 0 IOpClX= 0 NMat=1 NMatS=1 NMatT=0.
 ***** Axes restored to original set *****
 -------------------------------------------------------------------
 Center     Atomic                   Forces (Hartrees/Bohr)
 Number     Number              X              Y              Z
 -------------------------------------------------------------------
      1        6           0.004233760   -0.004437567   -0.000725222
      2        6           0.000987031   -0.022779627   -0.010316353
      3        6          -0.022985855   -0.005510067    0.005782963
      4        6          -0.005556280    0.000498521    0.011110027
      5        1          -0.001139918   -0.003707602   -0.000021018
      6        1           0.001179085    0.006089310   -0.003071146
      7        6          -0.002648152   -0.012215771   -0.002120214
      8        1          -0.000253788   -0.003181124    0.001368583
      9        6           0.004813440   -0.004352847    0.005951440
     10        1          -0.001720116    0.008239914   -0.001066752
     11        1           0.002164001    0.003731970    0.004066323
     12        1           0.000561656   -0.000404037    0.004557930
     13        1          -0.001802004    0.003094494   -0.007028475
     14        1          -0.001834542    0.000857472   -0.004858243
     15        8           0.005214277    0.001074174    0.011471114
     16        1          -0.004114989    0.008726228   -0.014956453
     17        8           0.005096162   -0.012559434   -0.007790295
     18        1           0.009014829    0.013844602    0.003634195
     19        8           0.015703875    0.001776384    0.011210784
     20        1          -0.011286488    0.008552935   -0.010488792
     21        8          -0.003961409   -0.008342309    0.011704464
     22        1           0.004639106    0.017855110   -0.003463914
     23        8           0.013633439    0.001054279    0.017998183
     24        1          -0.011691415    0.004072868   -0.017279050
     25        8          -0.001113345    0.010067203    0.009141508
     26        1           0.002867641   -0.012045079   -0.014811586
 -------------------------------------------------------------------
 Cartesian Forces:  Max     0.022985855 RMS     0.008572629

 GradGradGradGradGradGradGradGradGradGradGradGradGradGradGradGradGradGrad
 Berny optimization.
 FormGI is forming the generalized inverse of G from B-inverse, IUseBI=4.
 Internal  Forces:  Max     0.020598652 RMS     0.005587604
 Search for a local minimum.
 Step number   1 out of a maximum of  140
 All quantities printed in internal units (Hartrees-Bohrs-Radians)
 Mixed Optimization -- RFO/linear search
 Second derivative matrix not updated -- first step.
 ITU=  0
     Eigenvalues ---    0.00230   0.00230   0.00230   0.00281   0.00362
     Eigenvalues ---    0.01120   0.01123   0.01131   0.01233   0.01273
     Eigenvalues ---    0.01297   0.03774   0.03973   0.03979   0.04036
     Eigenvalues ---    0.04653   0.04709   0.04764   0.04804   0.04876
     Eigenvalues ---    0.05346   0.05562   0.05600   0.07373   0.07595
     Eigenvalues ---    0.07643   0.07878   0.11342   0.11583   0.13601
     Eigenvalues ---    0.13822   0.16000   0.16000   0.16000   0.16000
     Eigenvalues ---    0.16000   0.16000   0.16854   0.17000   0.17014
     Eigenvalues ---    0.17080   0.19381   0.19580   0.19728   0.19985
     Eigenvalues ---    0.22003   0.22025   0.27802   0.27925   0.28337
     Eigenvalues ---    0.28820   0.29376   0.34026   0.34170   0.34181
     Eigenvalues ---    0.34244   0.34269   0.34362   0.34427   0.34616
     Eigenvalues ---    0.39142   0.39180   0.39256   0.40322   0.40749
     Eigenvalues ---    0.41010   0.50434   0.50776   0.50935   0.51420
     Eigenvalues ---    0.51639   0.52455
 RFO step:  Lambda=-1.84481841D-02 EMin= 2.30000000D-03
 Linear search not attempted -- first point.
 Iteration  1 RMS(Cart)=  0.10680166 RMS(Int)=  0.00525569
 Iteration  2 RMS(Cart)=  0.00760164 RMS(Int)=  0.00065582
 Iteration  3 RMS(Cart)=  0.00001791 RMS(Int)=  0.00065576
 Iteration  4 RMS(Cart)=  0.00000001 RMS(Int)=  0.00065576
 Variable       Old X    -DE/DX   Delta X   Delta X   Delta X     New X
                                 (Linear)    (Quad)   (Total)
    R1        2.92303  -0.00188   0.00000  -0.00631  -0.00631   2.91672
    R2        2.92574  -0.00503   0.00000  -0.01698  -0.01698   2.90876
    R3        2.07025  -0.00115   0.00000  -0.00319  -0.00319   2.06706
    R4        2.72736  -0.01123   0.00000  -0.02741  -0.02741   2.69995
    R5        2.91407  -0.00731   0.00000  -0.02423  -0.02423   2.88983
    R6        2.07044  -0.00387   0.00000  -0.01076  -0.01076   2.05969
    R7        2.71118  -0.01082   0.00000  -0.02566  -0.02566   2.68552
    R8        2.90381  -0.00318   0.00000  -0.01036  -0.01036   2.89345
    R9        2.06920  -0.00292   0.00000  -0.00809  -0.00809   2.06112
   R10        2.72577  -0.01407   0.00000  -0.03423  -0.03423   2.69154
   R11        2.89225  -0.01169   0.00000  -0.03744  -0.03744   2.85481
   R12        2.07286  -0.00267   0.00000  -0.00744  -0.00744   2.06541
   R13        2.72683  -0.00543   0.00000  -0.01324  -0.01324   2.71359
   R14        2.06304  -0.00053   0.00000  -0.00146  -0.00146   2.06158
   R15        2.06878  -0.00340   0.00000  -0.00943  -0.00943   2.05936
   R16        2.70548  -0.00834   0.00000  -0.01957  -0.01957   2.68591
   R17        2.06616   0.00027   0.00000   0.00073   0.00073   2.06690
   R18        2.06723  -0.00002   0.00000  -0.00005  -0.00005   2.06718
   R19        2.70203  -0.00210   0.00000  -0.00490  -0.00490   2.69713
   R20        1.85790  -0.01764   0.00000  -0.03352  -0.03352   1.82438
   R21        1.85159  -0.01683   0.00000  -0.03159  -0.03159   1.82000
   R22        1.86130  -0.01741   0.00000  -0.03331  -0.03331   1.82800
   R23        1.84947  -0.01858   0.00000  -0.03473  -0.03473   1.81474
   R24        1.85633  -0.02060   0.00000  -0.03903  -0.03903   1.81730
   R25        1.84166  -0.01898   0.00000  -0.03496  -0.03496   1.80670
    A1        1.96701   0.00175   0.00000   0.00598   0.00558   1.97259
    A2        1.91124  -0.00041   0.00000  -0.01155  -0.01217   1.89907
    A3        1.92804   0.00040   0.00000   0.01715   0.01695   1.94499
    A4        1.88254  -0.00413   0.00000  -0.05087  -0.05103   1.83152
    A5        1.91481  -0.00005   0.00000   0.00914   0.00901   1.92382
    A6        1.85636   0.00237   0.00000   0.02982   0.03000   1.88635
    A7        1.98400   0.00065   0.00000   0.01858   0.01604   2.00004
    A8        1.92188  -0.00209   0.00000  -0.03694  -0.03664   1.88524
    A9        1.90315   0.00425   0.00000   0.05278   0.05098   1.95413
   A10        1.90444  -0.00223   0.00000  -0.04312  -0.04297   1.86148
   A11        1.87708   0.00181   0.00000   0.03856   0.03630   1.91337
   A12        1.86938  -0.00247   0.00000  -0.03070  -0.02942   1.83996
   A13        2.01395   0.00610   0.00000   0.04117   0.03959   2.05354
   A14        1.91628  -0.00556   0.00000  -0.05844  -0.05774   1.85854
   A15        1.87488   0.00232   0.00000   0.03813   0.03620   1.91108
   A16        1.92153  -0.00160   0.00000  -0.02728  -0.02672   1.89481
   A17        1.87076  -0.00121   0.00000   0.02266   0.02025   1.89100
   A18        1.85903  -0.00024   0.00000  -0.01620  -0.01534   1.84369
   A19        1.98390   0.00224   0.00000   0.00430   0.00416   1.98806
   A20        1.91301  -0.00239   0.00000  -0.03055  -0.03070   1.88231
   A21        1.91275  -0.00236   0.00000  -0.00754  -0.00751   1.90524
   A22        1.91383  -0.00159   0.00000  -0.01618  -0.01663   1.89720
   A23        1.89203   0.00098   0.00000   0.01321   0.01320   1.90523
   A24        1.84291   0.00324   0.00000   0.04003   0.04010   1.88301
   A25        1.97189  -0.00607   0.00000  -0.02772  -0.02915   1.94274
   A26        1.91500  -0.00520   0.00000  -0.04516  -0.04547   1.86953
   A27        1.92612   0.00865   0.00000   0.04011   0.04002   1.96614
   A28        1.88676   0.00331   0.00000   0.00843   0.00734   1.89410
   A29        1.90376   0.00250   0.00000   0.04631   0.04628   1.95004
   A30        1.85634  -0.00312   0.00000  -0.02216  -0.02147   1.83486
   A31        1.95008  -0.00291   0.00000  -0.03087  -0.03064   1.91944
   A32        1.94231  -0.00071   0.00000  -0.01993  -0.01985   1.92246
   A33        1.88183  -0.01135   0.00000  -0.04394  -0.04372   1.83812
   A34        1.91788  -0.00028   0.00000  -0.00441  -0.00638   1.91150
   A35        1.86747   0.00891   0.00000   0.06112   0.06025   1.92772
   A36        1.90182   0.00681   0.00000   0.04271   0.04182   1.94363
   A37        1.84359   0.00114   0.00000   0.00640   0.00640   1.84998
   A38        1.83305  -0.00011   0.00000  -0.00063  -0.00063   1.83242
   A39        1.85083   0.00381   0.00000   0.02136   0.02136   1.87218
   A40        1.84724   0.00340   0.00000   0.01904   0.01904   1.86628
   A41        1.81417   0.00950   0.00000   0.05321   0.05321   1.86738
   A42        1.86792   0.00616   0.00000   0.03454   0.03454   1.90247
    D1        3.01682  -0.00561   0.00000  -0.10877  -0.10911   2.90771
    D2        0.87393  -0.00158   0.00000  -0.03779  -0.03803   0.83591
    D3       -1.17242   0.00011   0.00000  -0.01043  -0.00994  -1.18235
    D4        0.92138  -0.00125   0.00000  -0.04039  -0.04074   0.88064
    D5       -1.22151   0.00278   0.00000   0.03059   0.03035  -1.19116
    D6        3.01532   0.00447   0.00000   0.05795   0.05844   3.07377
    D7       -1.11753  -0.00413   0.00000  -0.07985  -0.08010  -1.19763
    D8        3.02276  -0.00010   0.00000  -0.00886  -0.00901   3.01375
    D9        0.97641   0.00160   0.00000   0.01850   0.01908   0.99549
   D10        1.42403  -0.00088   0.00000  -0.02767  -0.02830   1.39573
   D11       -0.75942   0.00120   0.00000   0.02601   0.02578  -0.73364
   D12       -2.77426   0.00309   0.00000   0.05459   0.05507  -2.71918
   D13       -2.74726  -0.00311   0.00000  -0.07306  -0.07339  -2.82064
   D14        1.35248  -0.00103   0.00000  -0.01938  -0.01931   1.33317
   D15       -0.66236   0.00086   0.00000   0.00920   0.00998  -0.65238
   D16       -0.73215  -0.00259   0.00000  -0.06086  -0.06141  -0.79356
   D17       -2.91560  -0.00052   0.00000  -0.00718  -0.00733  -2.92294
   D18        1.35274   0.00138   0.00000   0.02141   0.02196   1.37470
   D19        0.81894   0.00060   0.00000   0.03125   0.03133   0.85028
   D20        2.99782   0.00307   0.00000   0.05725   0.05735   3.05517
   D21       -1.25368  -0.00051   0.00000   0.01831   0.01812  -1.23556
   D22       -1.21581   0.00308   0.00000   0.06543   0.06561  -1.15020
   D23        2.91901   0.00537   0.00000   0.10653   0.10660   3.02561
   D24        0.90411   0.00416   0.00000   0.07989   0.07998   0.98410
   D25        0.93663  -0.00085   0.00000  -0.00193  -0.00169   0.93494
   D26       -1.21174   0.00144   0.00000   0.03917   0.03929  -1.17244
   D27        3.05655   0.00022   0.00000   0.01253   0.01268   3.06923
   D28        2.95873  -0.00395   0.00000  -0.03976  -0.03997   2.91876
   D29        0.81037  -0.00166   0.00000   0.00134   0.00101   0.81138
   D30       -1.20453  -0.00287   0.00000  -0.02530  -0.02560  -1.23013
   D31       -1.13059  -0.00087   0.00000   0.00073  -0.00034  -1.13093
   D32        1.02817   0.00366   0.00000   0.07974   0.08077   1.10894
   D33        3.07326   0.00071   0.00000   0.03332   0.03336   3.10662
   D34       -1.01535   0.00137   0.00000   0.06296   0.06373  -0.95162
   D35       -3.12199   0.00488   0.00000   0.10263   0.10240  -3.01959
   D36        1.12119   0.00669   0.00000   0.13298   0.13326   1.25445
   D37        1.16539  -0.00274   0.00000  -0.00685  -0.00635   1.15904
   D38       -0.94126   0.00077   0.00000   0.03282   0.03232  -0.90894
   D39       -2.98126   0.00258   0.00000   0.06317   0.06318  -2.91808
   D40       -3.10252  -0.00452   0.00000  -0.02760  -0.02737  -3.12989
   D41        1.07403  -0.00101   0.00000   0.01207   0.01129   1.08532
   D42       -0.96598   0.00080   0.00000   0.04242   0.04216  -0.92382
   D43       -1.45085  -0.00549   0.00000  -0.08176  -0.08204  -1.53289
   D44        0.72338   0.00251   0.00000   0.00384   0.00413   0.72751
   D45        2.77987  -0.00007   0.00000  -0.02469  -0.02470   2.75517
   D46        1.09946  -0.00131   0.00000  -0.01614  -0.01612   1.08333
   D47       -1.05164   0.00170   0.00000   0.02663   0.02656  -1.02508
   D48       -3.13640   0.00091   0.00000   0.01371   0.01371  -3.12269
   D49       -3.03581  -0.00403   0.00000  -0.06512  -0.06501  -3.10082
   D50        1.09628  -0.00103   0.00000  -0.02236  -0.02232   1.07396
   D51       -0.98848  -0.00181   0.00000  -0.03527  -0.03517  -1.02365
   D52       -1.03198  -0.00049   0.00000  -0.01896  -0.01899  -1.05097
   D53        3.10011   0.00251   0.00000   0.02381   0.02370   3.12381
   D54        1.01535   0.00173   0.00000   0.01089   0.01084   1.02620
   D55       -3.06212  -0.00068   0.00000   0.01446   0.01439  -3.04773
   D56       -0.88780   0.00122   0.00000   0.02366   0.02342  -0.86439
   D57        1.16197   0.00154   0.00000   0.03212   0.03242   1.19440
   D58       -0.88374  -0.00245   0.00000  -0.06663  -0.06756  -0.95130
   D59        1.29231  -0.00254   0.00000  -0.04251  -0.04146   1.25085
   D60       -2.95981   0.00093   0.00000  -0.02132  -0.02144  -2.98125
   D61        3.11066   0.00096   0.00000   0.01983   0.01999   3.13065
   D62       -1.07240  -0.00372   0.00000  -0.00680  -0.00851  -1.08091
   D63        1.00038   0.00459   0.00000   0.04513   0.04668   1.04706
         Item               Value     Threshold  Converged?
 Maximum Force            0.020599     0.000450     NO 
 RMS     Force            0.005588     0.000300     NO 
 Maximum Displacement     0.480092     0.001800     NO 
 RMS     Displacement     0.106421     0.001200     NO 
 Predicted change in Energy=-1.121335D-02
 GradGradGradGradGradGradGradGradGradGradGradGradGradGradGradGradGradGrad

                          Input orientation:                          
 ---------------------------------------------------------------------
 Center     Atomic      Atomic             Coordinates (Angstroms)
 Number     Number       Type             X           Y           Z
 ---------------------------------------------------------------------
      1          6           0        0.002263   -0.099193    0.009989
      2          6           0        1.545685   -0.105431    0.001061
      3          6           0       -0.602021    0.841548   -1.047900
      4          6           0        2.186561   -0.762478    1.224222
      5          1           0        1.886903    0.929635   -0.012261
      6          1           0       -0.343259    0.296447    0.969453
      7          6           0       -0.672986    0.335746   -2.491347
      8          1           0       -0.004316    1.753685   -1.028558
      9          6           0        1.939081   -0.021592    2.517305
     10          1           0        3.264423   -0.814012    1.050613
     11          1           0        0.306303    0.011711   -2.846514
     12          1           0       -1.006001    1.170496   -3.107694
     13          1           0        0.867129    0.006082    2.732830
     14          1           0        2.324070    0.999840    2.445963
     15          8           0       -1.657854   -0.673354   -2.669965
     16          1           0       -1.456955   -1.359063   -2.020754
     17          8           0       -1.911139    1.231810   -0.644737
     18          1           0       -2.493218    0.548049   -0.992897
     19          8           0       -0.526199   -1.417884   -0.142060
     20          1           0       -0.062525   -1.987408    0.487528
     21          8           0        2.067997   -0.690807   -1.183882
     22          1           0        1.806075   -1.614700   -1.178305
     23          8           0        1.695204   -2.105957    1.349287
     24          1           0        2.049269   -2.459402    2.170587
     25          8           0        2.629828   -0.768820    3.518096
     26          1           0        2.515282   -0.337148    4.363437
 ---------------------------------------------------------------------
                    Distance matrix (angstroms):
                    1          2          3          4          5
     1  C    0.000000
     2  C    1.543460   0.000000
     3  C    1.539247   2.570939   0.000000
     4  C    2.585627   1.529234   3.938481   0.000000
     5  H    2.147289   1.089940   2.697230   2.117058   0.000000
     6  H    1.093840   2.160417   2.105660   2.754310   2.517601
     7  C    2.627131   3.365893   1.531147   4.815450   3.612701
     8  H    2.124095   2.630386   1.090696   4.025673   2.299703
     9  C    3.169214   2.548191   4.462387   1.510703   2.703009
    10  H    3.497935   2.134879   4.700428   1.092970   2.463243
    11  H    2.874778   3.107808   2.179150   4.550344   3.372517
    12  H    3.514065   4.219413   2.124655   5.717897   4.243656
    13  H    2.858835   2.816991   4.141295   2.146505   3.070572
    14  H    3.540146   2.793753   4.560060   2.148796   2.497781
    15  O    3.204341   4.209462   2.457805   5.472857   4.711504
    16  H    2.800091   3.830819   2.553438   4.915383   4.522563
    17  O    2.421020   3.762299   1.424301   4.925580   3.862183
    18  H    2.766248   4.210431   1.914627   5.341670   4.504745
    19  O    1.428754   2.456770   2.435432   3.107306   3.369088
    20  H    1.948743   2.522861   3.263677   2.664874   3.543896
    21  O    2.458169   1.421114   3.081493   2.412086   2.007816
    22  H    2.638663   1.933029   3.442250   2.577438   2.799970
    23  O    2.947350   2.417060   4.439768   1.435970   3.332474
    24  H    3.798553   3.240620   5.318295   1.947820   4.034446
    25  O    4.433883   3.739651   5.821208   2.336319   3.987494
    26  H    5.032335   4.474833   6.355271   3.184907   4.598513
                    6          7          8          9         10
     6  H    0.000000
     7  C    3.476693   0.000000
     8  H    2.496092   2.144160   0.000000
     9  C    2.775982   5.660140   4.416056   0.000000
    10  H    3.775590   5.419466   4.647653   2.129706   0.000000
    11  H    3.881315   1.090940   2.536912   5.606927   4.961843
    12  H    4.222122   1.089766   2.380396   6.460279   6.282222
    13  H    2.158437   5.456432   4.238110   1.093755   3.041287
    14  H    3.128817   5.813811   4.249938   1.093905   2.474131
    15  O    3.989239   1.421320   3.364360   6.345904   6.171814
    16  H    3.594769   1.925732   3.575446   5.823734   5.658780
    17  O    2.436956   2.397065   2.013863   5.137482   5.817735
    18  H    2.921720   2.367207   2.765767   5.682543   6.259519
    19  O    2.051306   2.935287   3.334230   3.885803   4.019446
    20  H    2.350969   3.826670   4.037039   3.462781   3.572464
    21  O    3.380189   3.205661   3.208450   3.763410   2.537633
    22  H    3.589566   3.416733   3.827004   4.026564   2.781358
    23  O    3.173508   5.130371   4.841421   2.401734   2.054453
    24  H    3.842085   6.079239   5.674667   2.464807   2.332005
    25  O    4.058279   6.945650   5.828707   1.427258   2.548181
    26  H    4.482391   7.589855   6.308215   1.959537   3.429783
                   11         12         13         14         15
    11  H    0.000000
    12  H    1.770068   0.000000
    13  H    5.607462   6.243092   0.000000
    14  H    5.749617   6.477778   1.786765   0.000000
    15  O    2.087677   2.004071   6.002280   6.695373   0.000000
    16  H    2.381172   2.789887   5.464572   6.309686   0.965418
    17  O    3.354625   2.624727   4.541931   5.248165   2.792015
    18  H    3.400128   2.659252   5.046455   5.936005   2.236563
    19  O    3.170310   3.965464   3.497718   4.546129   2.867973
    20  H    3.904913   4.877308   3.143189   4.295923   3.773801
    21  O    2.522190   4.076146   4.155523   4.012436   4.011322
    22  H    2.770821   4.403139   4.336534   4.498829   3.887156
    23  O    4.900847   6.156000   2.657181   3.353230   5.426761
    24  H    5.857954   7.097259   2.791448   3.481049   6.353241
    25  O    6.820283   7.802647   2.079477   2.090722   7.528973
    26  H    7.548819   8.395845   2.343735   2.345379   8.185159
                   16         17         18         19         20
    16  H    0.000000
    17  O    2.968556   0.000000
    18  H    2.401542   0.963100   0.000000
    19  O    2.097441   3.031768   2.908261   0.000000
    20  H    2.937811   3.881077   3.811624   0.967333   0.000000
    21  O    3.684048   4.452039   4.730320   2.888578   3.002317
    22  H    3.379710   4.712217   4.816200   2.559695   2.530924
    23  O    4.674520   5.303068   5.483836   2.762642   1.961196
    24  H    5.574199   6.102124   6.299729   3.614710   2.741375
    25  O    6.908621   6.477043   6.951893   4.876324   4.232973
    26  H    7.588206   6.865612   7.386404   5.542391   4.938736
                   21         22         23         24         25
    21  O    0.000000
    22  H    0.960319   0.000000
    23  O    2.925503   2.577275   0.000000
    24  H    3.792194   3.462331   0.961675   0.000000
    25  O    4.736068   4.842547   2.713889   2.238503   0.000000
    26  H    5.576548   5.731144   3.589751   3.087024   0.956066
                   26
    26  H    0.000000
 Stoichiometry    C6H14O6
 Framework group  C1[X(C6H14O6)]
 Deg. of freedom    72
 Full point group                 C1      NOp   1
 Largest Abelian subgroup         C1      NOp   1
 Largest concise Abelian subgroup C1      NOp   1
                         Standard orientation:                         
 ---------------------------------------------------------------------
 Center     Atomic      Atomic             Coordinates (Angstroms)
 Number     Number       Type             X           Y           Z
 ---------------------------------------------------------------------
      1          6           0       -0.434431    0.433847    0.099688
      2          6           0        0.520512   -0.372509   -0.805931
      3          6           0       -1.785222    0.740342   -0.571658
      4          6           0        1.969121   -0.422608   -0.318511
      5          1           0        0.537120    0.103143   -1.786466
      6          1           0        0.010561    1.413215    0.297943
      7          6           0       -2.838418   -0.370906   -0.589541
      8          1           0       -1.562047    1.023856   -1.600945
      9          6           0        2.667400    0.916925   -0.335285
     10          1           0        2.516955   -1.111528   -0.966470
     11          1           0       -2.441393   -1.286387   -1.030465
     12          1           0       -3.664963   -0.019524   -1.206748
     13          1           0        2.159457    1.611563    0.339824
     14          1           0        2.669492    1.328093   -1.348974
     15          8           0       -3.406525   -0.607312    0.691676
     16          1           0       -2.663898   -0.776683    1.284847
     17          8           0       -2.362841    1.895851    0.028164
     18          1           0       -2.867766    1.561708    0.777138
     19          8           0       -0.642710   -0.220393    1.352655
     20          1           0        0.227683   -0.462696    1.698254
     21          8           0        0.047791   -1.693067   -1.034461
     22          1           0        0.054700   -2.143272   -0.186240
     23          8           0        1.999508   -0.953307    1.015447
     24          1           0        2.908992   -0.891653    1.321807
     25          8           0        3.993802    0.656411    0.122815
     26          1           0        4.489144    1.474151    0.123553
 ---------------------------------------------------------------------
 Rotational constants (GHZ):           1.7753739           0.4743042           0.4452771
 Standard basis: def2TZVPP (5D, 7F)
 There are   642 symmetry adapted cartesian basis functions of A   symmetry.
 There are   568 symmetry adapted basis functions of A   symmetry.
   568 basis functions,   850 primitive gaussians,   642 cartesian basis functions
    49 alpha electrons       49 beta electrons
       nuclear repulsion energy       829.2040798417 Hartrees.
 NAtoms=   26 NActive=   26 NUniq=   26 SFac= 1.00D+00 NAtFMM=   60 NAOKFM=F Big=F
 Integral buffers will be    131072 words long.
 Raffenetti 2 integral format.
 Two-electron integral symmetry is turned on.
 Nuclear repulsion after empirical dispersion term =      829.1853719469 Hartrees.
 One-electron integrals computed using PRISM.
   1 Symmetry operations used in ECPInt.
 ECPInt:  NShTT=   23436 NPrTT=   62434 LenC2=   21791 LenP2D=   45360.
 LDataN:  DoStor=T MaxTD1= 6 Len=  172
[...]
 626522,-0.00196404,-0.00639778,0.00378285,-0.00321039,0.00119110,-0.00
 027819,-0.00866272,-0.02613929,-0.01069964,-0.00092240,0.00041755,-0.0
 0420318,0.00327482,-0.00374135,0.00387798,0.00120974,-0.00026147,0.000
 51567,-0.00006834,0.00126331,-0.00083026,-0.00008610,0.00006939,0.0005
 8852,0.00005033,0.00034430,-0.00013617,-0.00041435,0.00003574,0.000579
 00,0.00007190,0.00045152,0.00037832,0.00376971,0.00384933,0.00598470,0
 .00026144,-0.00579673,0.00140623,0.00298518,0.00288532,0.00027890,-0.0
 0012649,-0.00083367,-0.00028622,-0.03119196,0.48733388,-0.02618080,-0.
 01357231,-0.10209598,0.00152588,-0.00946934,-0.00260490,0.00984391,0.0
 2474252,0.00853800,0.00196478,0.00255980,-0.00090512,-0.00104971,0.000
 70118,0.00060014,-0.01457689,-0.03616299,-0.00370576,-0.00087397,-0.00
 456442,0.00005522,-0.00226307,0.00468808,-0.00286548,0.00058412,-0.000
 54475,-0.00008779,-0.00052111,-0.00052640,0.00029651,-0.00001807,0.000
 13605,0.00011698,0.00007383,0.00043095,0.00085363,-0.00036252,0.000278
 18,0.00050368,-0.00023719,-0.00015574,-0.00012973,-0.00410622,0.005641
 50,-0.00775516,0.00091243,0.00231948,-0.00126974,-0.00019112,-0.000716
 95,0.00185619,0.00038324,-0.00053216,-0.00087996,0.18236811,-0.1604928
 0,0.38664608,0.00583040,-0.00772552,0.01034426,0.00085463,-0.00252530,
 0.00140597,-0.00098153,-0.00201154,-0.00060460,-0.00319282,-0.00566528
 ,0.00128373,-0.00017319,0.00035947,-0.00035448,0.00010396,-0.00061578,
 -0.00132792,-0.00004245,-0.00001700,-0.00044484,0.00025929,-0.00081914
 ,0.00030638,0.00087194,0.00011833,-0.00047918,0.00049023,0.00074799,-0
 .00022702,0.00003757,0.00005771,0.00004200,0.00001732,0.00000015,0.000
 06589,-0.00022030,0.00003584,0.00021158,0.00003890,0.00036720,0.000384
 13,0.00005452,-0.00016612,-0.00041721,-0.00041970,0.00060064,0.0001876
 2,0.00033744,-0.00036840,0.00014701,0.00006982,0.00004306,-0.00023752,
 -0.07820839,0.10527445,-0.13658183,0.07463904,0.01259529,-0.03304045,0
 .02861000,-0.00160161,0.00098359,0.00052562,-0.00403814,-0.00591862,-0
 .00286581,-0.00233690,0.00113207,-0.00208187,0.00076074,0.00003587,-0.
 00015950,0.00127172,0.00145234,0.00015919,-0.00062585,-0.00038987,-0.0
 0039884,0.00078725,-0.00094521,0.00109987,-0.00057229,-0.00030342,-0.0
 0012418,0.00000262,-0.00036789,0.00012083,0.00000778,0.00003337,0.0001
 6300,-0.00002810,0.00010565,-0.00014307,0.00012551,-0.00008688,-0.0001
 6899,0.00006197,-0.00013729,-0.00014074,-0.00084872,0.00154808,-0.0020
 2215,0.00150276,0.00007224,0.00257115,0.00007537,0.00095060,-0.0002044
 7,0.00028440,-0.00020069,-0.00002236,0.08139305,-0.20889691,0.17860815
 ,-0.09120618,0.24836840,0.00503830,-0.00690836,0.00876666,-0.00011805,
 -0.00003402,0.00207759,-0.00157521,-0.00267944,-0.00065433,-0.00119931
 ,-0.00542062,0.00263926,-0.00068481,-0.00005331,-0.00034557,0.00018328
 ,-0.00207934,0.00003852,-0.00022402,-0.00050902,-0.00016396,0.00018419
 ,-0.00084803,0.00071479,0.00009828,0.00034680,-0.00004846,0.00062463,0
 .00122243,-0.00036067,0.00001483,0.00002234,0.00003941,0.00008610,-0.0
 0000564,0.00006392,0.00000507,-0.00018864,0.00003793,0.00017851,0.0003
 1260,0.00026250,-0.00036192,0.00029026,-0.00022389,0.00050655,0.000777
 08,0.00002927,0.00033545,-0.00002998,-0.00002333,-0.00020909,0.0000880
 2,-0.00014745,-0.13082612,0.21880266,-0.27561479,0.12324782,-0.2077623
 9,0.26990543,-0.01836706,0.01710509,0.04053014,-0.10350745,-0.00450357
 ,0.04231588,0.00255745,-0.00200157,0.00029970,0.00460943,-0.00376146,-
 0.00394511,0.00607653,-0.00264371,-0.00798660,-0.00852494,-0.00067389,
 -0.00063108,0.00043745,0.00174851,-0.00226890,-0.00012696,0.00059729,-
 0.00020320,0.00028307,0.00084129,-0.00180312,0.00288520,-0.00134118,0.
 00032113,-0.00311386,0.00103669,0.00021710,-0.00097639,0.00030458,-0.0
 0000255,0.00030705,-0.00034809,-0.00066023,0.00007161,0.00026668,0.000
 25655,-0.00088821,-0.00075156,-0.00038981,0.00045249,0.00032589,0.0005
 1596,-0.00112255,0.00078307,-0.00059767,0.00033787,0.00001983,0.000030
 21,-0.00079996,0.00146635,0.00399330,-0.00173044,0.00102515,-0.0006965
 0,0.28292825,0.00323560,-0.00651145,-0.01009375,0.02581162,-0.11430589
 ,-0.07394928,-0.00175050,0.00061789,0.00006286,-0.00233652,0.00527969,
 0.00272566,0.01630883,-0.01562725,-0.03680985,0.00144983,0.00137119,0.
 00069104,-0.00018601,-0.00065604,0.00075329,-0.00015358,0.00051965,-0.
 00002617,-0.00028119,-0.00063079,0.00137107,-0.00138853,0.00049631,-0.
 00048435,0.00158568,-0.00087409,-0.00004528,0.00026689,-0.00006625,0.0
 0004266,-0.00010444,0.00006105,0.00040323,0.00029804,0.00056317,0.0002
 8033,0.00088122,0.00118254,0.00019427,0.00032875,-0.00038193,0.0002119
 8,0.00105683,-0.00002477,0.00025322,-0.00002752,-0.00016008,-0.0000525
 9,-0.00617438,0.00474746,0.00518612,0.00083575,-0.00005091,-0.00113277
 ,0.20033362,0.48023243,0.01249620,-0.00915017,-0.01440979,0.06468411,-
 0.04427700,-0.18127139,-0.00027964,0.00124048,-0.00231594,0.01395090,-
 0.02523296,-0.04925634,0.00461132,-0.01073168,-0.00953242,0.00188614,0
 .00034412,0.00156006,0.00335382,0.00032457,-0.00304629,0.00002996,0.00
 013179,-0.00010351,-0.00236856,0.00795830,-0.00054844,0.00188841,-0.00
 136546,0.00270102,-0.00243434,0.00053299,0.00152247,-0.00111380,0.0004
 9879,0.00073825,0.00044745,-0.00013932,-0.00019430,-0.00013169,-0.0002
 5599,0.00008754,-0.00220682,-0.00047806,0.00144340,0.00062811,0.000110
 07,-0.00115621,0.00089717,-0.00058974,0.00230724,0.00020581,-0.0001908
 0,-0.00070868,-0.00232453,-0.00070952,0.00455773,-0.00092517,0.0001175
 3,-0.00112277,-0.05651667,0.16824048,0.29620677,-0.00011380,0.00623674
 ,0.00321906,0.00953554,0.01628187,0.00431436,-0.00058800,0.00045226,-0
 .00009119,0.00027520,-0.00008726,-0.00019456,-0.00159701,0.00290157,0.
 00347137,0.00010332,-0.00112437,-0.00066930,-0.00020858,0.00065874,-0.
 00004023,0.00009736,-0.00049936,0.00010340,0.00019885,-0.00034727,-0.0
 0017571,-0.00028753,-0.00019443,-0.00033843,0.00007061,0.00049227,-0.0
 0052670,0.00023037,-0.00016350,0.00001480,-0.00010414,0.00010070,0.000
 19175,-0.00006423,-0.00002250,-0.00002040,0.00019002,-0.00071044,0.000
 33864,-0.00113910,0.00013479,-0.00073385,0.00013355,-0.00036916,-0.000
 14589,-0.00024572,0.00019854,0.00002691,0.00307864,-0.00188747,-0.0038
 4219,0.00027491,-0.00118073,0.00254385,-0.16384213,-0.24024518,-0.0370
 0406,0.15532191,-0.00081358,0.00061430,0.00053336,-0.00770176,-0.02085
 573,-0.00707265,0.00048730,-0.00096861,-0.00027183,-0.00022333,0.00197
 799,0.00106343,0.00140263,-0.00038211,-0.00401267,-0.00105029,-0.00064
 099,0.00005440,0.00145116,0.00069279,-0.00040777,0.00001475,0.00009650
 ,-0.00000329,-0.00005927,-0.00046246,0.00005493,-0.00004414,0.00003405
 ,-0.00008834,0.00001447,-0.00057560,0.00108105,-0.00047387,0.00012752,
 0.00007905,0.00001018,-0.00002183,-0.00001526,0.00004391,-0.00000075,-
 0.00003518,-0.00061986,-0.00071495,0.00007056,0.00012050,0.00044567,-0
 .00014959,-0.00062275,0.00029544,0.00022585,0.00012986,0.00007037,-0.0
 0005954,-0.00025961,-0.00161811,0.00119410,-0.00110893,0.00061572,0.00
 115364,-0.21012351,-0.36132969,-0.08728861,0.21944935,0.38331233,0.000
 45448,-0.00294264,0.00049341,-0.01714948,-0.03617453,-0.01224970,0.000
 46740,-0.00007756,0.00075630,-0.00112651,-0.00305226,-0.00195296,0.001
 90573,-0.00084789,-0.00354597,-0.00030109,0.00015675,0.00002190,-0.001
 25081,0.00005673,0.00064085,-0.00003615,0.00009184,-0.00011987,-0.0000
 9400,0.00018921,-0.00038063,0.00007654,0.00004143,-0.00023578,0.000069
 09,0.00091532,-0.00056055,0.00031105,-0.00013862,-0.00021326,-0.000014
 30,-0.00000499,0.00010531,0.00006018,0.00020001,0.00014967,0.00048214,
 -0.00013931,-0.00083420,-0.00041197,0.00002518,0.00103530,-0.00007133,
 0.00012605,-0.00069901,-0.00002794,-0.00001732,0.00030669,-0.00352542,
 0.00260912,-0.00008017,0.00239910,0.00037203,-0.00170710,-0.01164072,-
 0.05638088,-0.04345941,0.02903922,0.09365247,0.06193040,-0.00303531,-0
 .00397868,0.00109449,0.00834769,0.00986819,-0.00143532,0.00085542,0.00
 014649,-0.00037858,-0.11248071,-0.05411155,-0.01255912,-0.00059755,0.0
 0174671,-0.00260591,0.00045415,-0.00005745,-0.00040321,-0.00054056,-0.
 00025298,0.00016957,-0.00011459,0.00030666,-0.00013805,-0.00061175,-0.
 00862606,-0.00145023,-0.01528038,-0.04226041,0.00697447,0.00004122,-0.
 00001012,-0.00004071,-0.00000002,0.00004069,-0.00010523,0.00186102,-0.
 00040842,-0.00216949,0.00185702,0.00023042,-0.00050855,0.00005087,0.00
 052041,-0.00067727,0.00035941,-0.00003578,0.00096922,0.00035112,0.0001
 0414,-0.00003344,0.00016059,-0.00022483,0.00011220,-0.00412389,0.00584
 482,-0.00858503,-0.00124871,0.00136182,0.00232424,0.00167319,0.0000642
 3,0.00098439,-0.00114006,-0.00010653,0.00031169,0.19087880,-0.00340242
 ,-0.00147667,-0.00152862,-0.00905580,-0.02820329,0.00470291,-0.0006755
 6,0.00042667,-0.00005547,-0.07189951,-0.17760450,0.00068829,0.00133493
 ,-0.00058578,0.00347873,0.00004428,0.00013964,0.00039125,-0.00028134,-
 0.00053780,-0.00022339,-0.00005117,0.00046993,-0.00013430,-0.02157764,
 -0.04531720,0.00443167,-0.01329602,-0.01087524,0.00433839,-0.00000079,
 -0.00000507,-0.00012355,0.00005413,0.00003459,0.00006575,0.00067472,0.
 00213845,0.00164264,-0.00015034,-0.00307518,-0.00725228,0.00034857,0.0
 0059357,0.00021252,-0.00002501,-0.00025751,-0.00000574,0.00086427,0.00
 005054,0.00018454,-0.00006075,-0.00014523,-0.00005567,0.00366528,0.004
 93672,0.00123065,0.00115133,-0.00470517,0.00352365,0.00034270,0.004006
 38,0.00172594,-0.00003810,-0.00068710,0.00073253,0.07196332,0.33524474
 ,0.00173957,-0.00399078,0.00037321,0.01704502,0.03626609,-0.00465018,0
 .00090700,0.00025130,0.00020648,0.00800703,0.04050221,-0.09422126,-0.0
 0264711,0.00329767,-0.00576574,-0.00061856,0.00055671,0.00032196,0.000
 06474,-0.00022416,0.00022671,-0.00004646,-0.00012619,-0.00006403,-0.01
 537313,-0.02235249,0.00233696,0.00536311,0.00933293,0.00204697,0.00001
 696,-0.00000435,0.00017348,-0.00005635,0.00006920,-0.00003144,-0.00043
 465,0.00133657,0.00229379,-0.00009110,-0.00370850,-0.00452849,-0.00036
 494,0.00019109,-0.00053536,0.00042776,0.00003428,0.00072757,-0.0006877
 5,0.00012554,0.00010325,0.00018538,-0.00012173,0.00000275,-0.01035890,
 0.00289620,-0.00676870,0.00182273,0.00308614,-0.00259891,-0.00068241,-
 0.00078663,0.00144148,0.00030923,-0.00022734,0.00061076,0.15467027,-0.
 17854977,0.53720579,0.00001936,-0.00101933,-0.00035686,-0.00169115,-0.
 00220874,-0.00045489,0.00004261,0.00001643,0.00011650,0.00529539,-0.00
 862838,0.01893384,0.00052574,-0.00032992,0.00042091,0.00005365,0.00011
 938,0.00011425,-0.00001910,-0.00008057,0.00000112,-0.00000108,0.000061
 99,-0.00002282,0.00194235,-0.00164377,0.00031034,-0.00061348,-0.001005
 78,0.00098071,-0.00000456,0.00000474,0.00000202,0.00000323,0.00000607,
 0.00000809,-0.00040279,0.00058485,-0.00013350,-0.00040894,0.00005081,-
 0.00043555,-0.00003518,0.00008823,-0.00005733,0.00008459,0.00000553,0.
 00011875,-0.00004792,0.00001519,0.00007530,0.00002947,-0.00001096,-0.0
 0003999,-0.00180988,0.00087771,-0.00165487,0.00230307,0.00094950,0.000
 41661,0.00004386,0.00017572,0.00000396,-0.00011583,-0.00003089,-0.0000
 6369,-0.06915654,0.03958015,-0.15613575,0.06585957,-0.00076058,-0.0000
 2175,-0.00018158,-0.00392159,-0.00706973,-0.00060134,0.00009460,-0.000
 14152,-0.00000954,0.01045701,-0.01820707,0.03745758,0.00068598,-0.0008
 1066,0.00166226,0.00023671,-0.00000007,-0.00010616,-0.00002828,0.00007
 136,0.00004266,-0.00001268,0.00006903,-0.00001081,0.00131981,-0.003537
 55,0.00289910,-0.00042539,0.00064607,0.00006181,0.00000180,-0.00001150
 ,0.00000872,-0.00001318,0.00000284,-0.00003210,-0.00008929,-0.00015162
 ,-0.00036904,0.00015086,0.00085660,0.00043715,-0.00005506,-0.00003667,
 -0.00013723,0.00007295,0.00004365,0.00015294,-0.00006548,0.00005296,-0
 .00005955,0.00005426,0.00000041,0.00002300,-0.00117826,0.00074321,-0.0
 0097682,0.00185174,-0.00001369,0.00060428,0.00003004,0.00075086,-0.000
 38817,-0.00007642,0.00004578,0.00039377,0.01936833,-0.07873604,0.12015
 959,-0.02901820,0.10214004,-0.00016980,-0.00010049,0.00029687,0.001559
 84,0.00001477,0.00032318,-0.00013311,0.00019028,-0.00004433,-0.0008066
 8,0.00596416,-0.00598392,-0.00026050,-0.00041891,0.00006686,-0.0000354
 3,0.00003143,-0.00002633,-0.00001369,-0.00003959,-0.00001734,0.0000117
 7,-0.00001321,0.00001684,-0.00023356,-0.00415278,0.00368413,-0.0008514
 5,-0.00086213,-0.00003174,0.00000157,0.00000686,-0.00003949,0.00002406
 ,-0.00001109,0.00002945,-0.00009161,0.00028036,-0.00032905,-0.00032256
 ,0.00045812,-0.00112101,0.00007808,-0.00003111,0.00006441,-0.00008144,
 0.00002229,-0.00009407,0.00025177,-0.00010968,-0.00000662,-0.00004502,
 0.00001541,-0.00000009,0.00046764,-0.00052479,0.00095364,-0.00067289,0
 .00022438,-0.00134802,-0.00002583,-0.00022867,0.00030421,-0.00012599,0
 .00001591,-0.00002340,-0.13617582,0.15846726,-0.42903605,0.13676243,-0
 .16178266,0.43332243,-0.00052376,0.00055408,0.00119225,0.00013793,0.00
 061940,0.00140487,0.00038703,-0.00032925,-0.00006032,0.00205731,-0.003
 66390,-0.00183918,-0.00012864,0.00025649,0.00008960,0.00074519,-0.0001
 6979,-0.00054499,-0.00008755,0.00021624,0.00012030,-0.00000987,-0.0000
 0346,0.00001971,-0.09569469,0.04820390,-0.02673217,0.00090445,-0.00132
 178,-0.00063741,0.00001716,-0.00002484,0.00001421,-0.00003355,0.000001
 40,-0.00009536,-0.01048618,0.02362774,-0.03387599,0.01157884,-0.001771
 10,0.00651517,-0.00007510,-0.00010585,-0.00023597,0.00007142,0.0000392
 6,0.00019238,-0.00021310,0.00009222,-0.00021635,0.00008870,-0.00000174
 ,0.00008346,0.00006696,-0.00065259,-0.00073642,-0.00006304,0.00024230,
 0.00020371,0.00051228,-0.00005931,-0.00019831,-0.00013603,0.00009280,0
 .00015566,0.00171687,0.00034947,-0.00255686,-0.00211077,0.00091852,0.0
 0065437,0.13428210,0.00005222,-0.00080059,-0.00060854,0.00066720,-0.00
 305412,-0.00215906,-0.00032395,-0.00002692,0.00009031,-0.00872041,0.00
 618935,-0.01220276,0.00010278,0.00070239,-0.00068691,-0.00042772,0.000
 01213,0.00034803,-0.00001349,-0.00019758,-0.00010675,0.00001523,0.0001
 3400,-0.00006481,0.04654725,-0.13222597,0.04167180,-0.00037702,0.00113
 518,0.00097809,0.00000655,-0.00000281,0.00000894,0.00000169,0.00001576
 ,0.00003014,0.00864802,-0.00754002,0.01566810,0.01745533,-0.01750273,0
 .03240140,0.00009191,0.00022694,0.00009473,0.00000720,-0.00007595,0.00
 000980,0.00018800,0.00009692,0.00007847,-0.00004236,-0.00004426,-0.000
 02111,-0.00005956,0.00125865,0.00002067,0.00063967,-0.00024657,0.00047
 537,-0.00015273,0.00072929,-0.00082177,0.00003827,-0.00004754,0.000155
 45,-0.00075328,0.00367822,-0.00644406,-0.00001043,0.00203014,0.0020995
 8,-0.13880717,0.27818271,0.00079669,0.00125158,-0.00045580,0.00152943,
 -0.00695398,0.00100081,0.00061256,-0.00075796,0.00018393,-0.02190627,0
 .02258930,-0.04670142,0.00034361,-0.00031276,0.00072380,0.00029864,-0.
 00005352,-0.00021477,0.00018871,0.00035368,0.00019739,0.00000549,-0.00
 012368,0.00002779,-0.05503304,0.07666922,-0.16859163,0.00031517,0.0011
 5394,0.00254155,0.00001675,-0.00004175,0.00018630,-0.00010826,0.000034
 09,-0.00012886,-0.00830839,0.00494229,-0.00413597,-0.00504192,0.014186
 16,-0.01385535,-0.00039822,-0.00026371,-0.00033114,0.00023915,0.000090
 85,0.00028176,-0.00112180,0.00036598,-0.00015932,0.00018912,0.00001667
 ,0.00005809,-0.00114501,-0.00096098,-0.00045206,0.00055368,0.00048052,
 -0.00008212,-0.00036145,-0.00049188,-0.00539874,0.00032002,0.00041791,
 0.00010181,-0.00100298,0.00093242,-0.00115724,0.00119394,0.00139255,-0
 .00053390,-0.03338419,0.10313443,0.65499008,0.00027208,-0.00014193,-0.
 00012894,0.00068865,-0.00073837,-0.00032135,0.00001750,0.00005382,0.00
 002317,-0.00205500,0.00186586,-0.00307097,0.00005173,-0.00000771,0.000
 03979,-0.00011255,0.00004087,0.00005993,0.00004087,-0.00002569,-0.0000
 2359,-0.00000247,-0.00001375,-0.00000414,0.00121066,-0.00686553,-0.019
 38858,0.00023125,0.00000160,-0.00010704,-0.00000509,0.00000507,0.00001
 568,0.00000278,0.00000039,0.00001725,0.00038635,-0.00060338,-0.0009313
 5,0.00017565,0.00042695,0.00072089,-0.00002458,0.00000620,0.00005276,0
 .00000568,-0.00000466,-0.00003836,-0.00004737,-0.00000985,0.00008474,-
 0.00000562,0.00000188,-0.00003547,-0.00014607,0.00004776,0.00013143,0.
 00009752,-0.00000871,-0.00009639,-0.00017578,0.00007453,-0.00056416,0.
 00007188,0.00002140,-0.00001887,-0.00027730,0.00014131,-0.00050482,0.0
 0021431,0.00040179,0.00023387,-0.04300397,0.07522676,0.12120856,0.0423
 8890,0.00002404,-0.00006215,-0.00002524,-0.00018441,0.00064931,0.00041
 611,0.00000281,0.00005661,0.00000800,0.00113433,-0.00374644,0.00229452
 ,-0.00003954,0.00007203,-0.00002543,-0.00002527,0.00002277,-0.00000200
 ,0.00000505,-0.00000016,0.00000932,-0.00000912,-0.00000791,0.00000516,
 -0.00398970,0.00730751,0.02693067,-0.00016777,-0.00005696,0.00002506,-
 0.00000267,0.00000214,-0.00000691,0.00000554,-0.00000202,0.00000793,0.
 00084582,0.00035282,0.00029670,-0.00025882,-0.00045235,0.00142922,-0.0
 0000714,-0.00001997,-0.00000447,0.00000048,0.00000921,-0.00000394,0.00
 000863,-0.00003481,0.00000613,0.00000296,0.00000768,-0.00000660,-0.000
 07751,0.00004293,-0.00002276,0.00014588,0.00000567,0.00003242,0.000074
 48,0.00006122,0.00039420,0.00000107,-0.00002298,0.00005809,-0.00074015
 ,0.00049233,-0.00156951,0.00145063,0.00128492,0.00048430,0.07169698,-0
 .13262662,-0.21805136,-0.06989659,0.12666522,0.00009505,-0.00002201,-0
 .00027611,0.00028970,-0.00140531,-0.00031057,-0.00017455,0.00005852,0.
 00003436,-0.00322861,0.00427042,-0.00463321,0.00006817,0.00004878,-0.0
 0002080,-0.00018920,0.00003307,0.00010652,0.00001301,-0.00006301,-0.00
 004902,0.00000617,0.00001809,-0.00000981,0.00910653,-0.01569629,-0.026
 20188,-0.00007429,0.00033306,0.00057619,-0.00000055,0.00000385,-0.0000
 0764,0.00000844,-0.00000176,0.00002647,-0.00033529,-0.00108248,0.00241
 572,0.00071523,-0.00039967,0.00049901,0.00004876,0.00004143,0.00007900
 ,-0.00003503,-0.00001260,-0.00006655,0.00011354,-0.00002050,0.00004213
 ,-0.00003735,0.00000446,-0.00001927,0.00012306,0.00012462,0.00023753,-
 0.00012923,-0.00004403,-0.00013393,-0.00006813,0.00006588,-0.00034592,
 0.00001589,0.00003540,-0.00009039,0.00065841,0.00117965,0.00128624,-0.
 00010350,-0.00064040,-0.00042671,0.09046781,-0.17414956,-0.41809496,-0
 .09735403,0.18732041,0.44538360\\0.00001624,-0.00000544,0.00001416,-0.
 00001339,0.00002118,-0.00000486,0.00000178,0.00001945,-0.00000360,0.00
 001852,0.00000477,0.00001562,-0.00000550,-0.00001338,-0.00000119,-0.00
 000075,-0.00000691,-0.00000176,0.00000261,-0.00000049,0.00001504,-0.00
 000957,-0.00001091,0.00000291,-0.00001164,0.00000064,-0.00001564,-0.00
 000298,-0.00000078,0.00000143,0.00000173,0.00000111,-0.00000969,0.0000
 0588,0.00000259,0.00000147,-0.00000123,0.00000380,-0.00000056,0.000001
 51,0.00000048,-0.00000427,-0.00001102,-0.00000947,-0.00001563,0.000006
 63,-0.00000500,0.00001026,-0.00000158,0.00000461,-0.00000763,0.0000064
 5,0.00000621,0.00000324,-0.00000818,-0.00000126,0.00000308,0.00000166,
 0.00000061,0.00000111,0.00000330,-0.00001550,-0.00000599,0.00000655,0.
 00001315,0.00000348,-0.00001267,-0.00000599,-0.00000016,-0.00000207,0.
 00000655,-0.00000840,0.00001079,-0.00000085,0.00001679,-0.00000305,-0.
 00000918,-0.00000921\\\@
 The archive entry for this job was punched.


 ON INDUCTION, OR "WHY DO YOU BELIEVE THE SUN WILL RISE TOMORROW?":

 ... THE FARMER WHO HAS FED THE CHICKEN EVERY DAY THROUGHOUT ITS
 LIFE AT LAST WRINGS ITS NECK INSTEAD, SHOWING THAT MORE REFINED VIEWS
 AS TO THE UNIFORMITY OF NATURE WOULD HAVE BEEN USEFUL TO THE CHICKEN.

                               -- BERTRAND RUSSELL
 Job cpu time:       0 days 10 hours 10 minutes 57.0 seconds.
 Elapsed time:       0 days  0 hours 38 minutes 17.2 seconds.
 File lengths (MBytes):  RWF=    704 Int=      0 D2E=      0 Chk=     27 Scr=      1
 Normal termination of Gaussian 16 at Wed Sep 27 12:27:59 2023.
