 Entering Gaussian System, Link 0=/opt/software/gaussian/g16.c01/g16
 Initial command:
 /opt/software/gaussian/g16.c01/l1.exe "/scratch/arhender/14836906/Gau-137796.inp" -scrdir="/scratch/arhender/14836906/"
 Entering Link 1 = /opt/software/gaussian/g16.c01/l1.exe PID=    137804.
  
 Copyright (c) 1988-2019, Gaussian, Inc.  All Rights Reserved.
  
 This is part of the Gaussian(R) 16 program.  It is based on
 the Gaussian(R) 09 system (copyright 2009, Gaussian, Inc.),
 the Gaussian(R) 03 system (copyright 2003, Gaussian, Inc.),
 the Gaussian(R) 98 system (copyright 1998, Gaussian, Inc.),
 the Gaussian(R) 94 system (copyright 1995, Gaussian, Inc.),
 the Gaussian 92(TM) system (copyright 1992, Gaussian, Inc.),
 the Gaussian 90(TM) system (copyright 1990, Gaussian, Inc.),
 the Gaussian 88(TM) system (copyright 1988, Gaussian, Inc.),
 the Gaussian 86(TM) system (copyright 1986, Carnegie Mellon
 University), and the Gaussian 82(TM) system (copyright 1983,
 Carnegie Mellon University). Gaussian is a federally registered
 trademark of Gaussian, Inc.
  
 This software contains proprietary and confidential information,
 including trade secrets, belonging to Gaussian, Inc.
  
 This software is provided under written license and may be
 used, copied, transmitted, or stored only in accord with that
 written license.
  
 The following legend is applicable only to US Government
 contracts under FAR:
  
                    RESTRICTED RIGHTS LEGEND
  
 Use, reproduction and disclosure by the US Government is
 subject to restrictions as set forth in subparagraphs (a)
 and (c) of the Commercial Computer Software - Restricted
 Rights clause in FAR 52.227-19.
  
 Gaussian, Inc.
 340 Quinnipiac St., Bldg. 40, Wallingford CT 06492
  
  
 ---------------------------------------------------------------
 Warning -- This program may not be used in any manner that
 competes with the business of Gaussian, Inc. or will provide
 assistance to any competitor of Gaussian, Inc.  The licensee
 of this program is prohibited from giving any competitor of
 Gaussian, Inc. access to this program.  By using this program,
 the user acknowledges that Gaussian, Inc. is engaged in the
 business of creating and licensing software in the field of
 computational chemistry and represents and warrants to the
 licensee that it is not a competitor of Gaussian, Inc. and that
 it will not use this program in any manner prohibited above.
 ---------------------------------------------------------------
  

 Cite this work as:
 Gaussian 16, Revision C.01,
 M. J. Frisch, G. W. Trucks, H. B. Schlegel, G. E. Scuseria, 
 M. A. Robb, J. R. Cheeseman, G. Scalmani, V. Barone, 
 G. A. Petersson, H. Nakatsuji, X. Li, M. Caricato, A. V. Marenich, 
 J. Bloino, B. G. Janesko, R. Gomperts, B. Mennucci, H. P. Hratchian, 
 J. V. Ortiz, A. F. Izmaylov, J. L. Sonnenberg, D. Williams-Young, 
 F. Ding, F. Lipparini, F. Egidi, J. Goings, B. Peng, A. Petrone, 
 T. Henderson, D. Ranasinghe, V. G. Zakrzewski, J. Gao, N. Rega, 
 G. Zheng, W. Liang, M. Hada, M. Ehara, K. Toyota, R. Fukuda, 
 J. Hasegawa, M. Ishida, T. Nakajima, Y. Honda, O. Kitao, H. Nakai, 
 T. Vreven, K. Throssell, J. A. Montgomery, Jr., J. E. Peralta, 
 F. Ogliaro, M. J. Bearpark, J. J. Heyd, E. N. Brothers, K. N. Kudin, 
 V. N. Staroverov, T. A. Keith, R. Kobayashi, J. Normand, 
 K. Raghavachari, A. P. Rendell, J. C. Burant, S. S. Iyengar, 
 J. Tomasi, M. Cossi, J. M. Millam, M. Klene, C. Adamo, R. Cammi, 
 J. W. Ochterski, R. L. Martin, K. Morokuma, O. Farkas, 
 J. B. Foresman, and D. J. Fox, Gaussian, Inc., Wallingford CT, 2019.
 
 ******************************************
 Gaussian 16:  ES64L-G16RevC.01  3-Jul-2019
                11-Oct-2023 
 ******************************************
 %chk=MannitolConformerOpt_38.chk
 %mem=8GB
 %nprocs=16
 Will use up to   16 processors via shared memory.
 ---------------------------------------------
 # opt freq wb97xd/Def2TZVPP geom=connectivity
 ---------------------------------------------
 1/18=20,19=15,26=3,38=1,57=2/1,3;
 2/9=110,12=2,17=6,18=5,40=1/2;
 3/5=44,7=202,11=2,25=1,30=1,71=1,74=-58/1,2,3;
 4//1;
 5/5=2,38=5/2;
 6/7=2,8=2,9=2,10=2,28=1/1;
 7//1,2,3,16;
 1/18=20,19=15,26=3/3(2);
 2/9=110/2;
 99//99;
 2/9=110/2;
 3/5=44,7=202,11=2,25=1,30=1,71=1,74=-58/1,2,3;
 4/5=5,16=3,69=1/1;
 5/5=2,38=5/2;
 7//1,2,3,16;
 1/18=20,19=15,26=3/3(-5);
 2/9=110/2;
 6/7=2,8=2,9=2,10=2,19=2,28=1/1;
 99/9=1/99;
 -------------------
 Title Card Required
 -------------------
 Symbolic Z-matrix:
 Charge =  0 Multiplicity = 1
 C                     0.        0.        0. 
 C                     1.5429    0.        0. 
 C                    -0.71      0.6293    1.2125 
 C                     2.1631   -0.7915    1.1638 
 H                     1.9086    1.0331    0. 
 H                    -0.3612   -1.0271   -0.1392 
 C                    -0.3077    2.0844    1.4941 
 H                    -0.5606    0.0164    2.1052 
 C                     3.6908   -0.8967    1.052 
 H                     1.7431   -1.8035    1.1826 
 H                     0.7692    2.2157    1.6227 
 H                    -0.8052    2.4351    2.404 
 H                     4.0194   -1.244     0.0684 
 H                     4.0747   -1.5788    1.8176 
 O                    -0.7623    2.9301    0.4336 
 H                    -0.3979    2.5632   -0.3987 
 O                    -2.1275    0.6044    0.917 
 H                    -2.3955    1.5383    0.7923 
 O                    -0.4214    0.7064   -1.198 
 H                    -1.3967    0.6008   -1.2013 
 O                     1.9622   -0.5759   -1.2527 
 H                     1.3907   -0.1502   -1.9254 
 O                     1.8615   -0.1498    2.4106 
 H                     2.6094    0.4697    2.5579 
 O                     4.2559    0.3916    1.3242 
 H                     5.2058    0.3229    1.1175 
 

 GradGradGradGradGradGradGradGradGradGradGradGradGradGradGradGradGradGrad
 Berny optimization.
 Initialization pass.
                           ----------------------------
                           !    Initial Parameters    !
                           ! (Angstroms and Degrees)  !
 --------------------------                            --------------------------
 ! Name  Definition              Value          Derivative Info.                !
 --------------------------------------------------------------------------------
 ! R1    R(1,2)                  1.5429         estimate D2E/DX2                !
 ! R2    R(1,3)                  1.5396         estimate D2E/DX2                !
 ! R3    R(1,6)                  1.0976         estimate D2E/DX2                !
 ! R4    R(1,19)                 1.4532         estimate D2E/DX2                !
 ! R5    R(2,4)                  1.538          estimate D2E/DX2                !
 ! R6    R(2,5)                  1.0959         estimate D2E/DX2                !
 ! R7    R(2,21)                 1.4411         estimate D2E/DX2                !
 ! R8    R(3,7)                  1.5357         estimate D2E/DX2                !
 ! R9    R(3,8)                  1.0931         estimate D2E/DX2                !
 ! R10   R(3,17)                 1.4482         estimate D2E/DX2                !
 ! R11   R(4,9)                  1.5354         estimate D2E/DX2                !
 ! R12   R(4,10)                 1.0959         estimate D2E/DX2                !
 ! R13   R(4,23)                 1.4343         estimate D2E/DX2                !
 ! R14   R(7,11)                 1.0925         estimate D2E/DX2                !
 ! R15   R(7,12)                 1.0947         estimate D2E/DX2                !
 ! R16   R(7,15)                 1.4306         estimate D2E/DX2                !
 ! R17   R(9,13)                 1.0936         estimate D2E/DX2                !
 ! R18   R(9,14)                 1.0949         estimate D2E/DX2                !
 ! R19   R(9,25)                 1.4329         estimate D2E/DX2                !
 ! R20   R(15,16)                0.9799         estimate D2E/DX2                !
 ! R21   R(17,18)                0.9796         estimate D2E/DX2                !
 ! R22   R(19,20)                0.981          estimate D2E/DX2                !
 ! R23   R(21,22)                0.98           estimate D2E/DX2                !
 ! R24   R(23,24)                0.9823         estimate D2E/DX2                !
 ! R25   R(25,26)                0.9746         estimate D2E/DX2                !
 ! A1    A(2,1,3)              117.4625         estimate D2E/DX2                !
 ! A2    A(2,1,6)              109.2126         estimate D2E/DX2                !
 ! A3    A(2,1,19)             106.8568         estimate D2E/DX2                !
 ! A4    A(3,1,6)              109.3056         estimate D2E/DX2                !
 ! A5    A(3,1,19)             108.4713         estimate D2E/DX2                !
 ! A6    A(6,1,19)             104.7673         estimate D2E/DX2                !
 ! A7    A(1,2,4)              113.781          estimate D2E/DX2                !
 ! A8    A(1,2,5)              109.4931         estimate D2E/DX2                !
 ! A9    A(1,2,21)             106.9155         estimate D2E/DX2                !
 ! A10   A(4,2,5)              110.5217         estimate D2E/DX2                !
 ! A11   A(4,2,21)             109.5591         estimate D2E/DX2                !
 ! A12   A(5,2,21)             106.2382         estimate D2E/DX2                !
 ! A13   A(1,3,7)              114.261          estimate D2E/DX2                !
 ! A14   A(1,3,8)              110.5457         estimate D2E/DX2                !
 ! A15   A(1,3,17)             106.4792         estimate D2E/DX2                !
 ! A16   A(7,3,8)              110.225          estimate D2E/DX2                !
 ! A17   A(7,3,17)             108.0662         estimate D2E/DX2                !
 ! A18   A(8,3,17)             106.9045         estimate D2E/DX2                !
 ! A19   A(2,4,9)              112.4194         estimate D2E/DX2                !
 ! A20   A(2,4,10)             109.4919         estimate D2E/DX2                !
 ! A21   A(2,4,23)             110.0432         estimate D2E/DX2                !
 ! A22   A(9,4,10)             108.6217         estimate D2E/DX2                !
 ! A23   A(9,4,23)             107.6482         estimate D2E/DX2                !
 ! A24   A(10,4,23)            108.5211         estimate D2E/DX2                !
 ! A25   A(3,7,11)             113.1842         estimate D2E/DX2                !
 ! A26   A(3,7,12)             109.6879         estimate D2E/DX2                !
 ! A27   A(3,7,15)             109.9348         estimate D2E/DX2                !
 ! A28   A(11,7,12)            108.1577         estimate D2E/DX2                !
 ! A29   A(11,7,15)            109.236          estimate D2E/DX2                !
 ! A30   A(12,7,15)            106.4012         estimate D2E/DX2                !
 ! A31   A(4,9,13)             112.7185         estimate D2E/DX2                !
 ! A32   A(4,9,14)             109.9159         estimate D2E/DX2                !
 ! A33   A(4,9,25)             108.4797         estimate D2E/DX2                !
 ! A34   A(13,9,14)            109.008          estimate D2E/DX2                !
 ! A35   A(13,9,25)            109.7474         estimate D2E/DX2                !
 ! A36   A(14,9,25)            106.7987         estimate D2E/DX2                !
 ! A37   A(7,15,16)            106.8665         estimate D2E/DX2                !
 ! A38   A(3,17,18)            106.1037         estimate D2E/DX2                !
 ! A39   A(1,19,20)            103.8123         estimate D2E/DX2                !
 ! A40   A(2,21,22)            104.6805         estimate D2E/DX2                !
 ! A41   A(4,23,24)            104.6205         estimate D2E/DX2                !
 ! A42   A(9,25,26)            106.3039         estimate D2E/DX2                !
 ! D1    D(3,1,2,4)             61.6494         estimate D2E/DX2                !
 ! D2    D(3,1,2,5)            -62.5702         estimate D2E/DX2                !
 ! D3    D(3,1,2,21)          -177.2597         estimate D2E/DX2                !
 ! D4    D(6,1,2,4)            -63.4985         estimate D2E/DX2                !
 ! D5    D(6,1,2,5)            172.2819         estimate D2E/DX2                !
 ! D6    D(6,1,2,21)            57.5924         estimate D2E/DX2                !
 ! D7    D(19,1,2,4)          -176.3061         estimate D2E/DX2                !
 ! D8    D(19,1,2,5)            59.4743         estimate D2E/DX2                !
 ! D9    D(19,1,2,21)          -55.2152         estimate D2E/DX2                !
 ! D10   D(2,1,3,7)             56.0774         estimate D2E/DX2                !
 ! D11   D(2,1,3,8)            -68.9434         estimate D2E/DX2                !
 ! D12   D(2,1,3,17)           175.2902         estimate D2E/DX2                !
 ! D13   D(6,1,3,7)           -178.8209         estimate D2E/DX2                !
 ! D14   D(6,1,3,8)             56.1583         estimate D2E/DX2                !
 ! D15   D(6,1,3,17)           -59.6081         estimate D2E/DX2                !
 ! D16   D(19,1,3,7)           -65.1322         estimate D2E/DX2                !
 ! D17   D(19,1,3,8)           169.8469         estimate D2E/DX2                !
 ! D18   D(19,1,3,17)           54.0806         estimate D2E/DX2                !
 ! D19   D(2,1,19,20)          174.4194         estimate D2E/DX2                !
 ! D20   D(3,1,19,20)          -58.0446         estimate D2E/DX2                !
 ! D21   D(6,1,19,20)           58.6045         estimate D2E/DX2                !
 ! D22   D(1,2,4,9)            173.9391         estimate D2E/DX2                !
 ! D23   D(1,2,4,10)            53.1115         estimate D2E/DX2                !
 ! D24   D(1,2,4,23)           -66.0862         estimate D2E/DX2                !
 ! D25   D(5,2,4,9)            -62.3977         estimate D2E/DX2                !
 ! D26   D(5,2,4,10)           176.7746         estimate D2E/DX2                !
 ! D27   D(5,2,4,23)            57.5769         estimate D2E/DX2                !
 ! D28   D(21,2,4,9)            54.3363         estimate D2E/DX2                !
 ! D29   D(21,2,4,10)          -66.4914         estimate D2E/DX2                !
 ! D30   D(21,2,4,23)          174.311          estimate D2E/DX2                !
 ! D31   D(1,2,21,22)           44.782          estimate D2E/DX2                !
 ! D32   D(4,2,21,22)          168.5157         estimate D2E/DX2                !
 ! D33   D(5,2,21,22)          -72.0805         estimate D2E/DX2                !
 ! D34   D(1,3,7,11)           -55.513          estimate D2E/DX2                !
 ! D35   D(1,3,7,12)          -176.3969         estimate D2E/DX2                !
 ! D36   D(1,3,7,15)            66.9378         estimate D2E/DX2                !
 ! D37   D(8,3,7,11)            69.6775         estimate D2E/DX2                !
 ! D38   D(8,3,7,12)           -51.2065         estimate D2E/DX2                !
 ! D39   D(8,3,7,15)          -167.8718         estimate D2E/DX2                !
 ! D40   D(17,3,7,11)         -173.8267         estimate D2E/DX2                !
 ! D41   D(17,3,7,12)           65.2893         estimate D2E/DX2                !
 ! D42   D(17,3,7,15)          -51.376          estimate D2E/DX2                !
 ! D43   D(1,3,17,18)         -111.4513         estimate D2E/DX2                !
 ! D44   D(7,3,17,18)           11.7246         estimate D2E/DX2                !
 ! D45   D(8,3,17,18)          130.3572         estimate D2E/DX2                !
 ! D46   D(2,4,9,13)           -50.4243         estimate D2E/DX2                !
 ! D47   D(2,4,9,14)          -172.2442         estimate D2E/DX2                !
 ! D48   D(2,4,9,25)            71.3203         estimate D2E/DX2                !
 ! D49   D(10,4,9,13)           70.9022         estimate D2E/DX2                !
 ! D50   D(10,4,9,14)          -50.9178         estimate D2E/DX2                !
 ! D51   D(10,4,9,25)         -167.3533         estimate D2E/DX2                !
 ! D52   D(23,4,9,13)         -171.7779         estimate D2E/DX2                !
 ! D53   D(23,4,9,14)           66.4022         estimate D2E/DX2                !
 ! D54   D(23,4,9,25)          -50.0333         estimate D2E/DX2                !
 ! D55   D(2,4,23,24)          -90.5944         estimate D2E/DX2                !
 ! D56   D(9,4,23,24)           32.2316         estimate D2E/DX2                !
 ! D57   D(10,4,23,24)         149.6168         estimate D2E/DX2                !
 ! D58   D(3,7,15,16)          -55.3085         estimate D2E/DX2                !
 ! D59   D(11,7,15,16)          69.4487         estimate D2E/DX2                !
 ! D60   D(12,7,15,16)        -174.0148         estimate D2E/DX2                !
 ! D61   D(4,9,25,26)         -171.8532         estimate D2E/DX2                !
 ! D62   D(13,9,25,26)         -48.3065         estimate D2E/DX2                !
 ! D63   D(14,9,25,26)          69.7182         estimate D2E/DX2                !
 --------------------------------------------------------------------------------
 Trust Radius=3.00D-01 FncErr=1.00D-07 GrdErr=1.00D-06 EigMax=2.50D+02 EigMin=1.00D-04
 Number of steps in this run=    140 maximum allowed number of steps=    156.
 GradGradGradGradGradGradGradGradGradGradGradGradGradGradGradGradGradGrad

                          Input orientation:                          
 ---------------------------------------------------------------------
 Center     Atomic      Atomic             Coordinates (Angstroms)
 Number     Number       Type             X           Y           Z
 ---------------------------------------------------------------------
      1          6           0        0.000000    0.000000    0.000000
      2          6           0        1.542900    0.000000    0.000000
      3          6           0       -0.710000    0.629300    1.212500
      4          6           0        2.163100   -0.791500    1.163800
      5          1           0        1.908600    1.033100    0.000000
      6          1           0       -0.361200   -1.027100   -0.139200
      7          6           0       -0.307700    2.084400    1.494100
      8          1           0       -0.560600    0.016400    2.105200
      9          6           0        3.690800   -0.896700    1.052000
     10          1           0        1.743100   -1.803500    1.182600
     11          1           0        0.769200    2.215700    1.622700
     12          1           0       -0.805200    2.435100    2.404000
     13          1           0        4.019400   -1.244000    0.068400
     14          1           0        4.074700   -1.578800    1.817600
     15          8           0       -0.762300    2.930100    0.433600
     16          1           0       -0.397900    2.563200   -0.398700
     17          8           0       -2.127500    0.604400    0.917000
     18          1           0       -2.395500    1.538300    0.792300
     19          8           0       -0.421400    0.706400   -1.198000
     20          1           0       -1.396700    0.600800   -1.201300
     21          8           0        1.962200   -0.575900   -1.252700
     22          1           0        1.390700   -0.150200   -1.925400
     23          8           0        1.861500   -0.149800    2.410600
     24          1           0        2.609400    0.469700    2.557900
     25          8           0        4.255900    0.391600    1.324200
     26          1           0        5.205800    0.322900    1.117500
 ---------------------------------------------------------------------
                    Distance matrix (angstroms):
                    1          2          3          4          5
     1  C    0.000000
     2  C    1.542900   0.000000
     3  C    1.539570   2.634717   0.000000
     4  C    2.580679   1.538035   3.205581   0.000000
     5  H    2.170265   1.095916   2.913808   2.179075   0.000000
     6  H    1.097623   2.167927   2.166198   2.850510   3.068516
     7  C    2.582971   3.162559   1.535728   3.805884   2.872203
     8  H    2.178625   2.976046   1.093106   2.992905   3.400367
     9  C    3.941165   2.554261   4.660631   1.535394   2.829676
    10  H    2.773004   2.165926   3.455012   1.095855   3.077699
    11  H    2.852043   2.853260   2.207479   3.346162   2.308664
    12  H    3.515292   4.150000   2.165560   4.556298   3.887098
    13  H    4.208063   2.772231   5.213966   2.202387   3.105695
    14  H    4.732807   3.493750   5.304263   2.168297   3.849374
    15  O    3.058528   3.753324   2.429630   4.789725   3.304591
    16  H    2.624363   3.239701   2.536403   4.500460   2.796446
    17  O    2.394252   3.831191   1.448187   4.518705   4.161103
    18  H    2.955085   4.301756   1.960551   5.132915   4.405479
    19  O    1.453197   2.406799   2.428939   3.808076   2.640234
    20  H    1.937744   3.231924   2.509741   4.494928   3.543305
    21  O    2.398155   1.441087   3.830192   2.434403   2.039856
    22  H    2.379868   1.937238   3.855772   3.248234   2.318531
    23  O    3.049363   2.436173   2.941947   1.434312   2.685603
    24  H    3.684079   2.810853   3.585246   1.932181   2.711345
    25  O    4.474320   3.044212   4.972840   2.409412   2.770351
    26  H    5.334175   3.843164   5.924491   3.240687   3.553128
                    6          7          8          9         10
     6  H    0.000000
     7  C    3.514536   0.000000
     8  H    2.483140   2.171181   0.000000
     9  C    4.225478   5.007036   4.474079   0.000000
    10  H    2.603465   4.406652   3.077379   2.152412   0.000000
    11  H    3.859773   1.092470   2.614975   4.306794   4.158863
    12  H    4.318777   1.094721   2.449331   5.756979   5.094250
    13  H    4.390877   5.642221   5.168516   1.093647   2.595385
    14  H    4.879616   5.720937   4.910538   1.094889   2.426947
    15  O    4.018509   1.430570   3.365201   5.903975   5.407865
    16  H    3.599853   1.954502   3.575217   5.549136   5.113948
    17  O    2.626246   2.415599   2.052496   6.010336   4.566188
    18  H    3.404019   2.269286   2.721533   6.560466   5.333664
    19  O    2.032167   3.026419   3.377367   4.954051   4.080676
    20  H    2.202357   3.263766   3.460279   5.762163   4.617573
    21  O    2.615655   4.446859   4.241560   2.898726   2.735999
    22  H    2.651154   4.423910   4.481190   3.835705   3.537973
    23  O    3.494500   3.246082   2.446929   2.397914   2.063184
    24  H    4.282432   3.499771   3.234087   2.303087   2.794524
    25  O    5.046966   4.870409   4.893813   1.432881   3.339563
    26  H    5.864579   5.800292   5.858401   1.946006   4.064001
                   11         12         13         14         15
    11  H    0.000000
    12  H    1.771243   0.000000
    13  H    4.994915   6.501351   0.000000
    14  H    5.036124   6.345761   1.781811   0.000000
    15  O    2.066354   2.032078   6.357762   6.755901   0.000000
    16  H    2.359859   2.835036   5.850256   6.486316   0.979860
    17  O    3.388978   2.703906   6.474649   6.636620   2.739768
    18  H    3.341221   2.435340   7.029663   7.254725   2.175572
    19  O    3.413483   4.013740   5.012837   5.876300   2.779060
    20  H    3.908197   4.088119   5.860850   6.618205   2.915647
    21  O    4.181412   5.485989   2.534509   3.859431   4.749584
    22  H    4.309612   5.499951   3.475874   4.822323   4.437177
    23  O    2.722039   3.713898   3.367448   2.700360   4.503181
    24  H    2.703600   3.942839   3.335038   2.625167   4.683437
    25  O    3.946330   5.563865   2.075609   2.039302   5.693811
    26  H    4.849880   6.499892   2.227854   2.320774   6.548544
                   16         17         18         19         20
    16  H    0.000000
    17  O    2.925659   0.000000
    18  H    2.541517   0.979563   0.000000
    19  O    2.021667   2.719266   2.924111   0.000000
    20  H    2.343668   2.240820   2.418873   0.981006   0.000000
    21  O    4.019121   4.777693   5.257510   2.707182   3.559420
    22  H    3.590605   4.585454   4.957039   2.132271   2.976226
    23  O    4.511920   4.325711   4.857018   4.355078   4.921899
    24  H    4.708299   5.014870   5.413712   4.832035   5.495235
    25  O    5.416834   6.399913   6.770448   5.323319   6.194659
    26  H    6.222480   7.341439   7.704720   6.097048   7.003361
                   21         22         23         24         25
    21  O    0.000000
    22  H    0.979979   0.000000
    23  O    3.689372   4.361485   0.000000
    24  H    4.004100   4.687162   0.982259   0.000000
    25  O    3.582950   4.366099   2.684498   2.058902   0.000000
    26  H    4.116629   4.902862   3.616614   2.972809   0.974554
                   26
    26  H    0.000000
 Stoichiometry    C6H14O6
 Framework group  C1[X(C6H14O6)]
 Deg. of freedom    72
 Full point group                 C1      NOp   1
 Largest Abelian subgroup         C1      NOp   1
 Largest concise Abelian subgroup C1      NOp   1
                         Standard orientation:                         
 ---------------------------------------------------------------------
 Center     Atomic      Atomic             Coordinates (Angstroms)
 Number     Number       Type             X           Y           Z
 ---------------------------------------------------------------------
      1          6           0       -0.772057    0.783075   -0.499652
      2          6           0        0.649839    0.710076    0.094843
      3          6           0       -1.528524   -0.543393   -0.695905
      4          6           0        1.643260   -0.084963   -0.769204
      5          1           0        0.601972    0.293209    1.107247
      6          1           0       -0.737467    1.325606   -1.453193
      7          6           0       -1.669154   -1.384549    0.581255
      8          1           0       -1.065098   -1.135560   -1.489287
      9          6           0        3.078142   -0.013591   -0.227490
     10          1           0        1.635276    0.308998   -1.791764
     11          1           0       -0.711596   -1.604718    1.058854
     12          1           0       -2.159010   -2.334635    0.345051
     13          1           0        3.403036    1.011046   -0.025928
     14          1           0        3.769590   -0.473034   -0.941349
     15          8           0       -2.518884   -0.713443    1.516191
     16          1           0       -2.137186    0.177738    1.658419
     17          8           0       -2.857821   -0.194552   -1.152554
     18          1           0       -3.466337   -0.428226   -0.421358
     19          8           0       -1.554297    1.633119    0.381999
     20          1           0       -2.414126    1.723144   -0.081641
     21          8           0        1.114124    2.066667    0.239170
     22          1           0        0.355448    2.548594    0.629703
     23          8           0        1.262286   -1.467138   -0.810466
     24          1           0        1.736806   -1.877781   -0.054797
     25          8           0        3.148661   -0.789280    0.975207
     26          1           0        4.027105   -0.617289    1.360578
 ---------------------------------------------------------------------
 Rotational constants (GHZ):           1.4263314           0.5638277           0.5038997
 Standard basis: def2TZVPP (5D, 7F)
 There are   642 symmetry adapted cartesian basis functions of A   symmetry.
 There are   568 symmetry adapted basis functions of A   symmetry.
   568 basis functions,   850 primitive gaussians,   642 cartesian basis functions
    49 alpha electrons       49 beta electrons
       nuclear repulsion energy       836.9658648243 Hartrees.
 NAtoms=   26 NActive=   26 NUniq=   26 SFac= 1.00D+00 NAtFMM=   60 NAOKFM=F Big=F
 Integral buffers will be    131072 words long.
 Raffenetti 2 integral format.
 Two-electron integral symmetry is turned on.
 Nuclear repulsion after empirical dispersion term =      836.9467789508 Hartrees.
 One-electron integrals computed using PRISM.
   1 Symmetry operations used in ECPInt.
 ECPInt:  NShTT=   23436 NPrTT=   62434 LenC2=   22008 LenP2D=   45805.
 LDataN:  DoStor=T MaxTD1= 6 Len=  172
 NBasis=   568 RedAO= T EigKep=  3.99D-05  NBF=   568
 NBsUse=   568 1.00D-06 EigRej= -1.00D+00 NBFU=   568
 ExpMin= 9.52D-02 ExpMax= 2.70D+04 ExpMxC= 9.22D+02 IAcc=3 IRadAn=         5 AccDes= 0.00D+00
 Harris functional with IExCor= 4639 and IRadAn=       5 diagonalized for initial guess.
 HarFok:  IExCor= 4639 AccDes= 0.00D+00 IRadAn=         5 IDoV= 1 UseB2=F ITyADJ=14
 ICtDFT=  3500011 ScaDFX=  1.000000  1.000000  1.000000  1.000000
 FoFCou: FMM=F IPFlag=           0 FMFlag=      100000 FMFlg1=           0
         NFxFlg=           0 DoJE=T BraDBF=F KetDBF=T FulRan=T
         wScrn=  0.000000 ICntrl=       500 IOpCl=  0 I1Cent=   200000004 NGrid=           0
         NMat0=    1 NMatS0=      1 NMatT0=    0 NMatD0=    1 NMtDS0=    0 NMtDT0=    0
 Petite list used in FoFCou.
 Requested convergence on RMS density matrix=1.00D-08 within 128 cycles.
 Requested convergence on MAX density matrix=1.00D-06.
 Requested convergence on             energy=1.00D-06.
 No special actions if energy rises.
 Integral accuracy reduced to 1.0D-05 until final iterations.
 Initial convergence to 1.0D-05 achieved.  Increase integral accuracy.
 SCF Done:  E(RwB97XD) =  -688.469650455     A.U. after   14 cycles
            NFock= 14  Conv=0.21D-08     -V/T= 2.0050

 **********************************************************************

            Population analysis using the SCF Density.

 **********************************************************************

 Orbital symmetries:
       Occupied  (A) (A) (A) (A) (A) (A) (A) (A) (A) (A) (A) (A)
                 (A) (A) (A) (A) (A) (A) (A) (A) (A) (A) (A) (A)
                 (A) (A) (A) (A) (A) (A) (A) (A) (A) (A) (A) (A)
                 (A) (A) (A) (A) (A) (A) (A) (A) (A) (A) (A) (A)
                 (A)
       Virtual   (A) (A) (A) (A) (A) (A) (A) (A) (A) (A) (A) (A)
                 (A) (A) (A) (A) (A) (A) (A) (A) (A) (A) (A) (A)
                 (A) (A) (A) (A) (A) (A) (A) (A) (A) (A) (A) (A)
                 (A) (A) (A) (A) (A) (A) (A) (A) (A) (A) (A) (A)
                 (A) (A) (A) (A) (A) (A) (A) (A) (A) (A) (A) (A)
                 (A) (A) (A) (A) (A) (A) (A) (A) (A) (A) (A) (A)
                 (A) (A) (A) (A) (A) (A) (A) (A) (A) (A) (A) (A)
                 (A) (A) (A) (A) (A) (A) (A) (A) (A) (A) (A) (A)
                 (A) (A) (A) (A) (A) (A) (A) (A) (A) (A) (A) (A)
                 (A) (A) (A) (A) (A) (A) (A) (A) (A) (A) (A) (A)
                 (A) (A) (A) (A) (A) (A) (A) (A) (A) (A) (A) (A)
                 (A) (A) (A) (A) (A) (A) (A) (A) (A) (A) (A) (A)
                 (A) (A) (A) (A) (A) (A) (A) (A) (A) (A) (A) (A)
                 (A) (A) (A) (A) (A) (A) (A) (A) (A) (A) (A) (A)
                 (A) (A) (A) (A) (A) (A) (A) (A) (A) (A) (A) (A)
                 (A) (A) (A) (A) (A) (A) (A) (A) (A) (A) (A) (A)
                 (A) (A) (A) (A) (A) (A) (A) (A) (A) (A) (A) (A)
                 (A) (A) (A) (A) (A) (A) (A) (A) (A) (A) (A) (A)
                 (A) (A) (A) (A) (A) (A) (A) (A) (A) (A) (A) (A)
                 (A) (A) (A) (A) (A) (A) (A) (A) (A) (A) (A) (A)
                 (A) (A) (A) (A) (A) (A) (A) (A) (A) (A) (A) (A)
                 (A) (A) (A) (A) (A) (A) (A) (A) (A) (A) (A) (A)
                 (A) (A) (A) (A) (A) (A) (A) (A) (A) (A) (A) (A)
                 (A) (A) (A) (A) (A) (A) (A) (A) (A) (A) (A) (A)
                 (A) (A) (A) (A) (A) (A) (A) (A) (A) (A) (A) (A)
                 (A) (A) (A) (A) (A) (A) (A) (A) (A) (A) (A) (A)
                 (A) (A) (A) (A) (A) (A) (A) (A) (A) (A) (A) (A)
                 (A) (A) (A) (A) (A) (A) (A) (A) (A) (A) (A) (A)
                 (A) (A) (A) (A) (A) (A) (A) (A) (A) (A) (A) (A)
                 (A) (A) (A) (A) (A) (A) (A) (A) (A) (A) (A) (A)
                 (A) (A) (A) (A) (A) (A) (A) (A) (A) (A) (A) (A)
                 (A) (A) (A) (A) (A) (A) (A) (A) (A) (A) (A) (A)
                 (A) (A) (A) (A) (A) (A) (A) (A) (A) (A) (A) (A)
                 (A) (A) (A) (A) (A) (A) (A) (A) (A) (A) (A) (A)
                 (A) (A) (A) (A) (A) (A) (A) (A) (A) (A) (A) (A)
                 (A) (A) (A) (A) (A) (A) (A) (A) (A) (A) (A) (A)
                 (A) (A) (A) (A) (A) (A) (A) (A) (A) (A) (A) (A)
                 (A) (A) (A) (A) (A) (A) (A) (A) (A) (A) (A) (A)
                 (A) (A) (A) (A) (A) (A) (A) (A) (A) (A) (A) (A)
                 (A) (A) (A) (A) (A) (A) (A) (A) (A) (A) (A) (A)
                 (A) (A) (A) (A) (A) (A) (A) (A) (A) (A) (A) (A)
                 (A) (A) (A) (A) (A) (A) (A) (A) (A) (A) (A) (A)
                 (A) (A) (A) (A) (A) (A) (A) (A) (A) (A) (A) (A)
                 (A) (A) (A)
 The electronic state is 1-A.
 Alpha  occ. eigenvalues --  -19.27282 -19.27184 -19.25951 -19.25278 -19.25191
 Alpha  occ. eigenvalues --  -19.24742 -10.35408 -10.34824 -10.34731 -10.34387
 Alpha  occ. eigenvalues --  -10.34011 -10.33299  -1.15809  -1.15197  -1.12932
 Alpha  occ. eigenvalues --   -1.12158  -1.11149  -1.10385  -0.88525  -0.85211
 Alpha  occ. eigenvalues --   -0.80217  -0.75373  -0.71363  -0.68369  -0.63611
 Alpha  occ. eigenvalues --   -0.63090  -0.60154  -0.59736  -0.58514  -0.57692
 Alpha  occ. eigenvalues --   -0.56445  -0.56336  -0.53393  -0.52280  -0.51198
 Alpha  occ. eigenvalues --   -0.50153  -0.48309  -0.46783  -0.45814  -0.44862
 Alpha  occ. eigenvalues --   -0.44106  -0.42618  -0.42566  -0.38745  -0.38527
 Alpha  occ. eigenvalues --   -0.37739  -0.37163  -0.35828  -0.35468
 Alpha virt. eigenvalues --    0.08780   0.09550   0.12339   0.13063   0.14393
 Alpha virt. eigenvalues --    0.15236   0.15767   0.16421   0.18000   0.18564
 Alpha virt. eigenvalues --    0.18833   0.19596   0.20348   0.20928   0.21438
 Alpha virt. eigenvalues --    0.23049   0.23703   0.24876   0.25945   0.26361
 Alpha virt. eigenvalues --    0.28032   0.29563   0.30445   0.32177   0.33297
 Alpha virt. eigenvalues --    0.33981   0.35320   0.36229   0.37167   0.38015
 Alpha virt. eigenvalues --    0.38941   0.39522   0.40613   0.41308   0.41713
 Alpha virt. eigenvalues --    0.42114   0.42686   0.43436   0.44274   0.44959
 Alpha virt. eigenvalues --    0.45036   0.46809   0.47208   0.47528   0.47618
 Alpha virt. eigenvalues --    0.48858   0.49452   0.49992   0.50460   0.51669
 Alpha virt. eigenvalues --    0.52092   0.52423   0.53180   0.54158   0.54280
 Alpha virt. eigenvalues --    0.55004   0.56091   0.57249   0.58361   0.59481
 Alpha virt. eigenvalues --    0.60380   0.61168   0.61908   0.62545   0.63887
 Alpha virt. eigenvalues --    0.64912   0.65425   0.67796   0.68033   0.68980
 Alpha virt. eigenvalues --    0.69438   0.70971   0.72123   0.73190   0.74711
 Alpha virt. eigenvalues --    0.75240   0.75710   0.76391   0.77761   0.79277
 Alpha virt. eigenvalues --    0.80407   0.81251   0.83835   0.84457   0.85879
 Alpha virt. eigenvalues --    0.86807   0.87529   0.88076   0.89700   0.91914
 Alpha virt. eigenvalues --    0.92327   0.93552   0.94375   0.95510   0.97123
 Alpha virt. eigenvalues --    0.97966   0.98515   1.00074   1.01638   1.02864
 Alpha virt. eigenvalues --    1.03826   1.04780   1.05530   1.06160   1.07196
 Alpha virt. eigenvalues --    1.09136   1.10351   1.12094   1.13032   1.13549
 Alpha virt. eigenvalues --    1.14168   1.15796   1.17634   1.18328   1.18921
 Alpha virt. eigenvalues --    1.20297   1.20838   1.22120   1.22656   1.24509
 Alpha virt. eigenvalues --    1.25366   1.25522   1.27137   1.27909   1.28624
 Alpha virt. eigenvalues --    1.31034   1.31957   1.32735   1.34250   1.36319
 Alpha virt. eigenvalues --    1.36413   1.37726   1.38703   1.39271   1.40465
 Alpha virt. eigenvalues --    1.41864   1.42156   1.43960   1.44527   1.46107
 Alpha virt. eigenvalues --    1.46344   1.49105   1.49631   1.49927   1.51454
 Alpha virt. eigenvalues --    1.52394   1.53323   1.54406   1.56421   1.57993
 Alpha virt. eigenvalues --    1.59376   1.60940   1.62170   1.62757   1.65716
 Alpha virt. eigenvalues --    1.66948   1.68052   1.68767   1.69400   1.71291
 Alpha virt. eigenvalues --    1.76228   1.79086   1.79469   1.84774   1.85429
 Alpha virt. eigenvalues --    1.87600   1.88243   1.90220   1.92105   1.92678
 Alpha virt. eigenvalues --    1.95616   1.96030   1.96997   1.98724   1.99540
 Alpha virt. eigenvalues --    2.00228   2.01700   2.02226   2.04400   2.06269
 Alpha virt. eigenvalues --    2.06853   2.07509   2.08761   2.09440   2.11171
 Alpha virt. eigenvalues --    2.11781   2.15234   2.16735   2.17109   2.18524
 Alpha virt. eigenvalues --    2.18540   2.20633   2.22271   2.23869   2.26155
 Alpha virt. eigenvalues --    2.27406   2.27599   2.28205   2.30182   2.31679
 Alpha virt. eigenvalues --    2.33808   2.35951   2.36647   2.39310   2.41299
 Alpha virt. eigenvalues --    2.44112   2.45100   2.47906   2.50610   2.54932
 Alpha virt. eigenvalues --    2.55169   2.58338   2.60684   2.63236   2.63719
 Alpha virt. eigenvalues --    2.65699   2.67953   2.69766   2.70667   2.72067
 Alpha virt. eigenvalues --    2.74012   2.74392   2.76267   2.77213   2.79342
 Alpha virt. eigenvalues --    2.79891   2.80419   2.81758   2.82205   2.84398
 Alpha virt. eigenvalues --    2.86311   2.87496   2.88609   2.90603   2.91174
 Alpha virt. eigenvalues --    2.93700   2.94241   2.95046   2.96276   2.97672
 Alpha virt. eigenvalues --    2.99741   3.00791   3.01578   3.02434   3.04543
 Alpha virt. eigenvalues --    3.06432   3.07017   3.08694   3.10490   3.10674
 Alpha virt. eigenvalues --    3.12144   3.12685   3.14368   3.15578   3.16782
 Alpha virt. eigenvalues --    3.17838   3.18388   3.19558   3.20474   3.22521
 Alpha virt. eigenvalues --    3.23608   3.23902   3.25590   3.26796   3.27470
 Alpha virt. eigenvalues --    3.28130   3.29587   3.31836   3.32380   3.33018
 Alpha virt. eigenvalues --    3.34051   3.34734   3.36764   3.37398   3.37991
 Alpha virt. eigenvalues --    3.39087   3.40122   3.41288   3.42277   3.42467
 Alpha virt. eigenvalues --    3.43418   3.44487   3.45482   3.47196   3.47468
 Alpha virt. eigenvalues --    3.48371   3.48957   3.49754   3.51673   3.52681
 Alpha virt. eigenvalues --    3.54748   3.56355   3.57100   3.58720   3.59388
 Alpha virt. eigenvalues --    3.59926   3.62233   3.63627   3.65570   3.66043
 Alpha virt. eigenvalues --    3.67721   3.68825   3.70176   3.70876   3.71877
 Alpha virt. eigenvalues --    3.72822   3.75352   3.76552   3.77062   3.77362
 Alpha virt. eigenvalues --    3.77688   3.80261   3.80775   3.81843   3.82821
 Alpha virt. eigenvalues --    3.85416   3.86409   3.87437   3.87818   3.90310
 Alpha virt. eigenvalues --    3.90626   3.91279   3.92841   3.95061   3.95820
 Alpha virt. eigenvalues --    3.97857   3.98162   3.98783   3.99713   4.01898
 Alpha virt. eigenvalues --    4.03452   4.03541   4.04732   4.05993   4.07123
 Alpha virt. eigenvalues --    4.08357   4.09465   4.10669   4.12015   4.13115
 Alpha virt. eigenvalues --    4.13900   4.14431   4.15441   4.16578   4.17342
 Alpha virt. eigenvalues --    4.17784   4.18912   4.21273   4.22013   4.23037
 Alpha virt. eigenvalues --    4.23430   4.25144   4.26747   4.27435   4.29125
 Alpha virt. eigenvalues --    4.29462   4.30249   4.31623   4.33355   4.33538
 Alpha virt. eigenvalues --    4.35646   4.37031   4.38318   4.38796   4.39992
 Alpha virt. eigenvalues --    4.41716   4.42807   4.44965   4.46108   4.48326
 Alpha virt. eigenvalues --    4.50152   4.51202   4.52019   4.52525   4.54099
 Alpha virt. eigenvalues --    4.54748   4.56182   4.57923   4.59640   4.62780
 Alpha virt. eigenvalues --    4.63430   4.64664   4.66515   4.67859   4.69450
 Alpha virt. eigenvalues --    4.72215   4.76623   4.77652   4.80832   4.81968
 Alpha virt. eigenvalues --    4.82817   4.85304   4.86034   4.87032   4.87990
 Alpha virt. eigenvalues --    4.89881   4.91414   4.93670   4.95697   4.96189
 Alpha virt. eigenvalues --    4.96856   4.98056   4.98603   5.01824   5.03604
 Alpha virt. eigenvalues --    5.05245   5.06439   5.07230   5.10091   5.12311
 Alpha virt. eigenvalues --    5.13384   5.15063   5.15446   5.18119   5.20464
 Alpha virt. eigenvalues --    5.21562   5.24791   5.25194   5.27697   5.29277
 Alpha virt. eigenvalues --    5.31792   5.36503   5.37343   5.39807   5.42557
 Alpha virt. eigenvalues --    5.43694   5.47496   5.54154   5.54916   5.58176
 Alpha virt. eigenvalues --    5.59391   5.63328   5.64110   5.65344   5.67753
 Alpha virt. eigenvalues --    5.68604   5.70811   5.71608   5.72556   5.74102
 Alpha virt. eigenvalues --    5.77850   5.78692   5.80605   5.81585   5.84180
 Alpha virt. eigenvalues --    5.86437   5.87558   5.90209   5.92657   5.96507
 Alpha virt. eigenvalues --    5.97445   6.00493   6.03132   6.11641   6.12730
 Alpha virt. eigenvalues --    6.14421   6.16169   6.19770   6.21009   6.53401
 Alpha virt. eigenvalues --    6.54652   6.55902   6.56148   6.57354   6.59559
 Alpha virt. eigenvalues --    6.71072   6.72263   6.73574   6.75604   6.75872
 Alpha virt. eigenvalues --    6.76565   6.77591   6.78414   6.79731   6.80709
 Alpha virt. eigenvalues --    6.81518   6.83812   6.85115   6.86380   6.89436
 Alpha virt. eigenvalues --    6.90482   6.92088   6.93482   6.97070   7.00026
 Alpha virt. eigenvalues --    7.02046   7.03611   7.04578   7.07025   7.14717
 Alpha virt. eigenvalues --    7.18478   7.20767   7.23332   7.24351   7.25877
 Alpha virt. eigenvalues --    7.37478   7.40470   7.42384   7.42957   7.45587
 Alpha virt. eigenvalues --    7.46809   7.51378   7.57313   7.59081   7.62577
 Alpha virt. eigenvalues --    7.63759   7.65103  23.10522  23.15532  23.21300
 Alpha virt. eigenvalues --   23.25739  23.39512  23.43366  44.07932  44.14184
 Alpha virt. eigenvalues --   44.25645  44.29019  44.32688  44.36469
          Condensed to atoms (all electrons):
               1          2          3          4          5          6
     1  C    5.236490   0.162041   0.186459   0.002513  -0.000510   0.418539
     2  C    0.162041   5.104121  -0.029241   0.204239   0.366339  -0.027395
     3  C    0.186459  -0.029241   4.895666   0.006616  -0.013486  -0.031450
     4  C    0.002513   0.204239   0.006616   4.862646  -0.010239  -0.005149
     5  H   -0.000510   0.366339  -0.013486  -0.010239   0.610544   0.007336
     6  H    0.418539  -0.027395  -0.031450  -0.005149   0.007336   0.547579
     7  C    0.004197   0.030712   0.288080  -0.011408   0.002718   0.006438
     8  H   -0.049636  -0.000553   0.436426  -0.000629  -0.000213  -0.002067
     9  C   -0.004533  -0.002933  -0.000163   0.303821  -0.016729  -0.000790
    10  H    0.001830  -0.058141  -0.002034   0.422103   0.007581   0.005807
    11  H   -0.010781   0.013159  -0.040247  -0.009209  -0.009353  -0.000507
    12  H    0.011099  -0.002381  -0.041091   0.000681   0.000594  -0.000194
    13  H    0.000842  -0.016648  -0.000003  -0.012323   0.000220   0.000015
    14  H   -0.000264   0.013917  -0.000053  -0.057749   0.001027   0.000014
    15  O   -0.003893  -0.009501  -0.029071   0.001004   0.002369  -0.000698
    16  H    0.001515  -0.004418  -0.004887   0.001121   0.002975   0.000961
    17  O   -0.086542   0.010333   0.276907  -0.000653  -0.000095   0.004032
    18  H   -0.007289  -0.001490  -0.038793   0.000015  -0.000136  -0.000678
    19  O    0.170730  -0.022177  -0.031386   0.002041   0.000413  -0.030437
    20  H   -0.061999   0.013645   0.015644  -0.000975  -0.000758  -0.008604
    21  O   -0.018959   0.260843   0.009089  -0.044595  -0.039679   0.008362
    22  H   -0.012883  -0.033789   0.002945   0.006817  -0.006631  -0.001660
    23  O   -0.000144  -0.051286  -0.011921   0.269621  -0.003425   0.000699
    24  H   -0.002958   0.011034   0.001354  -0.057558   0.000254  -0.000133
    25  O    0.000547  -0.000045   0.000017  -0.079832   0.016747   0.000009
    26  H   -0.000084   0.000628   0.000012   0.007875  -0.000947  -0.000000
               7          8          9         10         11         12
     1  C    0.004197  -0.049636  -0.004533   0.001830  -0.010781   0.011099
     2  C    0.030712  -0.000553  -0.002933  -0.058141   0.013159  -0.002381
     3  C    0.288080   0.436426  -0.000163  -0.002034  -0.040247  -0.041091
     4  C   -0.011408  -0.000629   0.303821   0.422103  -0.009209   0.000681
     5  H    0.002718  -0.000213  -0.016729   0.007581  -0.009353   0.000594
     6  H    0.006438  -0.002067  -0.000790   0.005807  -0.000507  -0.000194
     7  C    4.753945  -0.028748   0.000312   0.000015   0.422774   0.418903
     8  H   -0.028748   0.563539   0.000284  -0.000664   0.003346  -0.007113
     9  C    0.000312   0.000284   4.764107  -0.031157  -0.000900  -0.000012
    10  H    0.000015  -0.000664  -0.031157   0.584915   0.000145   0.000012
    11  H    0.422774   0.003346  -0.000900   0.000145   0.605272  -0.025813
    12  H    0.418903  -0.007113  -0.000012   0.000012  -0.025813   0.579051
    13  H    0.000079  -0.000022   0.419618   0.000711  -0.000038   0.000000
    14  H   -0.000057   0.000008   0.445823  -0.004183   0.000018  -0.000002
    15  O    0.234851   0.004546   0.000007  -0.000005  -0.036741  -0.035607
    16  H   -0.031862  -0.000120  -0.000011   0.000025  -0.007201   0.007104
    17  O   -0.042708  -0.022487   0.000006  -0.000061   0.004379   0.000533
    18  H   -0.017281   0.005735  -0.000007  -0.000005   0.002672  -0.001341
    19  O   -0.010416   0.004466   0.000037  -0.000208   0.000080  -0.000836
    20  H   -0.002859   0.001356   0.000059  -0.000083  -0.000220  -0.000091
    21  O   -0.001230  -0.000272  -0.003978   0.008845   0.000230   0.000004
    22  H   -0.000362  -0.000036   0.000701  -0.000754  -0.000057   0.000003
    23  O   -0.003086   0.007234  -0.023275  -0.024545   0.011563   0.000077
    24  H   -0.000736  -0.000359  -0.007362   0.005665   0.001995  -0.000046
    25  O   -0.000756  -0.000033   0.257479   0.002576   0.000743  -0.000006
    26  H    0.000012   0.000003  -0.022286  -0.000420  -0.000003   0.000000
              13         14         15         16         17         18
     1  C    0.000842  -0.000264  -0.003893   0.001515  -0.086542  -0.007289
     2  C   -0.016648   0.013917  -0.009501  -0.004418   0.010333  -0.001490
     3  C   -0.000003  -0.000053  -0.029071  -0.004887   0.276907  -0.038793
     4  C   -0.012323  -0.057749   0.001004   0.001121  -0.000653   0.000015
     5  H    0.000220   0.001027   0.002369   0.002975  -0.000095  -0.000136
     6  H    0.000015   0.000014  -0.000698   0.000961   0.004032  -0.000678
     7  C    0.000079  -0.000057   0.234851  -0.031862  -0.042708  -0.017281
     8  H   -0.000022   0.000008   0.004546  -0.000120  -0.022487   0.005735
     9  C    0.419618   0.445823   0.000007  -0.000011   0.000006  -0.000007
    10  H    0.000711  -0.004183  -0.000005   0.000025  -0.000061  -0.000005
    11  H   -0.000038   0.000018  -0.036741  -0.007201   0.004379   0.002672
    12  H    0.000000  -0.000002  -0.035607   0.007104   0.000533  -0.001341
    13  H    0.567891  -0.036011  -0.000001  -0.000003   0.000001   0.000000
    14  H   -0.036011   0.580945   0.000000   0.000000   0.000000   0.000000
    15  O   -0.000001   0.000000   7.949763   0.324235  -0.014320   0.032203
    16  H   -0.000003   0.000000   0.324235   0.467777   0.001198  -0.001818
    17  O    0.000001   0.000000  -0.014320   0.001198   7.925195   0.327921
    18  H    0.000000   0.000000   0.032203  -0.001818   0.327921   0.494071
    19  O   -0.000011   0.000006  -0.023031   0.035244  -0.008564   0.001693
    20  H    0.000003  -0.000001   0.002623  -0.002629   0.030872  -0.000218
    21  O    0.011286  -0.000053   0.000019   0.000071  -0.000153   0.000019
    22  H   -0.000394   0.000010   0.000026   0.000156  -0.000033   0.000006
    23  O    0.002912   0.000414   0.000126   0.000090   0.000177  -0.000058
    24  H    0.001886  -0.001685  -0.000037  -0.000016  -0.000002   0.000006
    25  O   -0.040203  -0.048359   0.000001  -0.000009  -0.000000  -0.000000
    26  H   -0.007603  -0.003350  -0.000000   0.000000   0.000000  -0.000000
              19         20         21         22         23         24
     1  C    0.170730  -0.061999  -0.018959  -0.012883  -0.000144  -0.002958
     2  C   -0.022177   0.013645   0.260843  -0.033789  -0.051286   0.011034
     3  C   -0.031386   0.015644   0.009089   0.002945  -0.011921   0.001354
     4  C    0.002041  -0.000975  -0.044595   0.006817   0.269621  -0.057558
     5  H    0.000413  -0.000758  -0.039679  -0.006631  -0.003425   0.000254
     6  H   -0.030437  -0.008604   0.008362  -0.001660   0.000699  -0.000133
     7  C   -0.010416  -0.002859  -0.001230  -0.000362  -0.003086  -0.000736
     8  H    0.004466   0.001356  -0.000272  -0.000036   0.007234  -0.000359
     9  C    0.000037   0.000059  -0.003978   0.000701  -0.023275  -0.007362
    10  H   -0.000208  -0.000083   0.008845  -0.000754  -0.024545   0.005665
    11  H    0.000080  -0.000220   0.000230  -0.000057   0.011563   0.001995
    12  H   -0.000836  -0.000091   0.000004   0.000003   0.000077  -0.000046
    13  H   -0.000011   0.000003   0.011286  -0.000394   0.002912   0.001886
    14  H    0.000006  -0.000001  -0.000053   0.000010   0.000414  -0.001685
    15  O   -0.023031   0.002623   0.000019   0.000026   0.000126  -0.000037
    16  H    0.035244  -0.002629   0.000071   0.000156   0.000090  -0.000016
    17  O   -0.008564   0.030872  -0.000153  -0.000033   0.000177  -0.000002
    18  H    0.001693  -0.000218   0.000019   0.000006  -0.000058   0.000006
    19  O    7.994490   0.323902  -0.014940   0.024090  -0.000134   0.000028
    20  H    0.323902   0.490788  -0.000256  -0.001198   0.000012   0.000004
    21  O   -0.014940  -0.000256   7.874596   0.328687   0.002332  -0.000115
    22  H    0.024090  -0.001198   0.328687   0.490939  -0.000371   0.000046
    23  O   -0.000134   0.000012   0.002332  -0.000371   7.904221   0.328691
    24  H    0.000028   0.000004  -0.000115   0.000046   0.328691   0.485351
    25  O    0.000002  -0.000000   0.000186  -0.000093  -0.013872   0.028774
    26  H   -0.000000   0.000000   0.000006  -0.000004   0.000531  -0.001790
              25         26
     1  C    0.000547  -0.000084
     2  C   -0.000045   0.000628
     3  C    0.000017   0.000012
     4  C   -0.079832   0.007875
     5  H    0.016747  -0.000947
     6  H    0.000009  -0.000000
     7  C   -0.000756   0.000012
     8  H   -0.000033   0.000003
     9  C    0.257479  -0.022286
    10  H    0.002576  -0.000420
    11  H    0.000743  -0.000003
    12  H   -0.000006   0.000000
    13  H   -0.040203  -0.007603
    14  H   -0.048359  -0.003350
    15  O    0.000001  -0.000000
    16  H   -0.000009   0.000000
    17  O   -0.000000   0.000000
    18  H   -0.000000  -0.000000
    19  O    0.000002  -0.000000
    20  H   -0.000000   0.000000
    21  O    0.000186   0.000006
    22  H   -0.000093  -0.000004
    23  O   -0.013872   0.000531
    24  H    0.028774  -0.001790
    25  O    7.909495   0.325238
    26  H    0.325238   0.521029
 Mulliken charges:
               1
     1  C    0.063672
     2  C    0.068986
     3  C    0.154612
     4  C    0.199205
     5  H    0.083085
     6  H    0.109970
     7  C   -0.011526
     8  H    0.086009
     9  C   -0.078121
    10  H    0.082029
    11  H    0.074692
    12  H    0.096471
    13  H    0.107797
    14  H    0.109587
    15  O   -0.398871
    16  H    0.210500
    17  O   -0.405935
    18  H    0.204772
    19  O   -0.415084
    20  H    0.200982
    21  O   -0.380344
    22  H    0.203840
    23  O   -0.396582
    24  H    0.207711
    25  O   -0.358608
    26  H    0.181151
 Sum of Mulliken charges =  -0.00000
 Mulliken charges with hydrogens summed into heavy atoms:
               1
     1  C    0.173643
     2  C    0.152070
     3  C    0.240621
     4  C    0.281234
     7  C    0.159637
     9  C    0.139263
    15  O   -0.188371
    17  O   -0.201163
    19  O   -0.214102
    21  O   -0.176505
    23  O   -0.188871
    25  O   -0.177457
 Electronic spatial extent (au):  <R**2>=           2382.4117
 Charge=             -0.0000 electrons
 Dipole moment (field-independent basis, Debye):
    X=              2.6877    Y=              0.3667    Z=              0.2855  Tot=              2.7276
 Quadrupole moment (field-independent basis, Debye-Ang):
   XX=            -62.7971   YY=            -73.6184   ZZ=            -76.2138
   XY=             -3.9560   XZ=              2.4201   YZ=             -0.4815
 Traceless Quadrupole moment (field-independent basis, Debye-Ang):
   XX=              8.0793   YY=             -2.7419   ZZ=             -5.3374
   XY=             -3.9560   XZ=              2.4201   YZ=             -0.4815
 Octapole moment (field-independent basis, Debye-Ang**2):
  XXX=             65.9374  YYY=             -2.6708  ZZZ=              5.1381  XYY=            -16.2388
  XXY=              4.6470  XXZ=             14.0617  XZZ=             20.1478  YZZ=              9.9774
  YYZ=              5.7938  XYZ=             -6.5596
 Hexadecapole moment (field-independent basis, Debye-Ang**3):
 XXXX=          -1547.0195 YYYY=           -581.3236 ZZZZ=           -370.4294 XXXY=            -59.5129
 XXXZ=             82.8203 YYYX=            -25.5958 YYYZ=              3.4329 ZZZX=             14.5767
 ZZZY=              8.2683 XXYY=           -413.1736 XXZZ=           -404.0206 YYZZ=           -168.7781
 XXYZ=              5.6164 YYXZ=             15.0811 ZZXY=            -17.4158
 N-N= 8.369467789508D+02 E-N=-3.291184122168D+03  KE= 6.850290095954D+02
   1 Symmetry operations used in ECPInt.
 ECPInt:  NShTT=   23436 NPrTT=   62434 LenC2=   22008 LenP2D=   45805.
 LDataN:  DoStor=T MaxTD1= 7 Len=  274
 Calling FoFJK, ICntrl=      2127 FMM=F ISym2X=0 I1Cent= 0 IOpClX= 0 NMat=1 NMatS=1 NMatT=0.
 ***** Axes restored to original set *****
 -------------------------------------------------------------------
 Center     Atomic                   Forces (Hartrees/Bohr)
 Number     Number              X              Y              Z
 -------------------------------------------------------------------
      1        6          -0.003003406    0.004443609   -0.003482696
      2        6          -0.007027591   -0.002653527   -0.020364439
      3        6          -0.012015909    0.002285346   -0.000271823
      4        6           0.008507919    0.010199254    0.003841158
      5        1          -0.000816153    0.000041346    0.007300134
      6        1           0.004533862   -0.000399515    0.006966042
      7        6          -0.001871911    0.003704860   -0.010051473
      8        1           0.002891273    0.002218492   -0.003670945
      9        6           0.004720250    0.000895136    0.000735486
     10        1           0.000501560    0.003118308    0.000471210
     11        1          -0.000845869   -0.005574694    0.002315453
     12        1           0.001139616   -0.001772819   -0.002596974
     13        1          -0.006307011   -0.000657785    0.000426968
     14        1          -0.005573637   -0.004173403   -0.001371866
     15        8           0.006232277   -0.005328231   -0.004984170
     16        1          -0.007807793    0.005353675    0.014296056
     17        8           0.006653441    0.015518447    0.000821815
     18        1           0.005460409   -0.017004950    0.000257972
     19        8          -0.008842883   -0.006761041    0.007817055
     20        1           0.018895811    0.003595816   -0.000848424
     21        8          -0.011851571    0.008755947    0.002798619
     22        1           0.011181559   -0.009817707    0.012015988
     23        8           0.017118035    0.004217151   -0.008466772
     24        1          -0.016200382   -0.010791660   -0.001206558
     25        8           0.012859758   -0.004654281   -0.008538314
     26        1          -0.018531653    0.005242226    0.005790496
 -------------------------------------------------------------------
 Cartesian Forces:  Max     0.020364439 RMS     0.007892399

 GradGradGradGradGradGradGradGradGradGradGradGradGradGradGradGradGradGrad
 Berny optimization.
 FormGI is forming the generalized inverse of G from B-inverse, IUseBI=4.
 Internal  Forces:  Max     0.019660966 RMS     0.005802256
 Search for a local minimum.
 Step number   1 out of a maximum of  140
 All quantities printed in internal units (Hartrees-Bohrs-Radians)
 Mixed Optimization -- RFO/linear search
 Second derivative matrix not updated -- first step.
 ITU=  0
     Eigenvalues ---    0.00230   0.00243   0.00263   0.00293   0.00298
     Eigenvalues ---    0.00988   0.01054   0.01148   0.01238   0.01257
     Eigenvalues ---    0.01287   0.03526   0.03872   0.03927   0.04229
     Eigenvalues ---    0.04610   0.04760   0.04808   0.04894   0.04913
     Eigenvalues ---    0.05104   0.05617   0.05654   0.07345   0.07672
     Eigenvalues ---    0.07732   0.08132   0.11365   0.11550   0.13666
     Eigenvalues ---    0.13794   0.16000   0.16000   0.16000   0.16000
     Eigenvalues ---    0.16000   0.16000   0.16669   0.16803   0.16852
     Eigenvalues ---    0.17629   0.19308   0.19553   0.19572   0.19689
     Eigenvalues ---    0.21997   0.22008   0.28264   0.28557   0.28694
     Eigenvalues ---    0.28901   0.28931   0.33946   0.34138   0.34145
     Eigenvalues ---    0.34254   0.34273   0.34395   0.34456   0.34529
     Eigenvalues ---    0.37829   0.38483   0.39437   0.40376   0.40578
     Eigenvalues ---    0.40908   0.50949   0.51190   0.51389   0.51412
     Eigenvalues ---    0.51470   0.52457
 RFO step:  Lambda=-1.66852468D-02 EMin= 2.30000000D-03
 Linear search not attempted -- first point.
 Iteration  1 RMS(Cart)=  0.07647845 RMS(Int)=  0.00228733
 Iteration  2 RMS(Cart)=  0.00287182 RMS(Int)=  0.00046580
 Iteration  3 RMS(Cart)=  0.00000444 RMS(Int)=  0.00046580
 Iteration  4 RMS(Cart)=  0.00000000 RMS(Int)=  0.00046580
 Variable       Old X    -DE/DX   Delta X   Delta X   Delta X     New X
                                 (Linear)    (Quad)   (Total)
    R1        2.91566  -0.01142   0.00000  -0.03816  -0.03816   2.87750
    R2        2.90937  -0.00323   0.00000  -0.01068  -0.01068   2.89868
    R3        2.07421  -0.00200   0.00000  -0.00562  -0.00562   2.06859
    R4        2.74615  -0.01020   0.00000  -0.02582  -0.02582   2.72033
    R5        2.90646  -0.00921   0.00000  -0.03033  -0.03033   2.87614
    R6        2.07098  -0.00023   0.00000  -0.00065  -0.00065   2.07033
    R7        2.72326  -0.01265   0.00000  -0.03077  -0.03077   2.69249
    R8        2.90210  -0.00444   0.00000  -0.01452  -0.01452   2.88758
    R9        2.06567  -0.00385   0.00000  -0.01065  -0.01065   2.05502
   R10        2.73668  -0.01205   0.00000  -0.03002  -0.03002   2.70666
   R11        2.90147  -0.01232   0.00000  -0.04028  -0.04028   2.86120
   R12        2.07087  -0.00306   0.00000  -0.00855  -0.00855   2.06231
   R13        2.71046  -0.01154   0.00000  -0.02745  -0.02745   2.68300
   R14        2.06447  -0.00123   0.00000  -0.00340  -0.00340   2.06107
   R15        2.06872  -0.00324   0.00000  -0.00903  -0.00903   2.05970
   R16        2.70339  -0.00639   0.00000  -0.01500  -0.01500   2.68838
   R17        2.06669  -0.00207   0.00000  -0.00574  -0.00574   2.06095
   R18        2.06904  -0.00031   0.00000  -0.00087  -0.00087   2.06817
   R19        2.70775  -0.00223   0.00000  -0.00528  -0.00528   2.70247
   R20        1.85167  -0.01705   0.00000  -0.03212  -0.03212   1.81954
   R21        1.85111  -0.01774   0.00000  -0.03338  -0.03338   1.81772
   R22        1.85383  -0.01917   0.00000  -0.03627  -0.03627   1.81756
   R23        1.85189  -0.01903   0.00000  -0.03587  -0.03587   1.81602
   R24        1.85620  -0.01932   0.00000  -0.03672  -0.03672   1.81948
   R25        1.84164  -0.01966   0.00000  -0.03632  -0.03632   1.80531
    A1        2.05011   0.00457   0.00000   0.01165   0.01180   2.06191
    A2        1.90612  -0.00139   0.00000  -0.02509  -0.02487   1.88125
    A3        1.86500  -0.00895   0.00000  -0.04579  -0.04572   1.81928
    A4        1.90774  -0.00351   0.00000  -0.01896  -0.01962   1.88812
    A5        1.89318   0.00492   0.00000   0.03044   0.03040   1.92358
    A6        1.82853   0.00449   0.00000   0.05408   0.05369   1.88223
    A7        1.98585   0.00217   0.00000  -0.00108  -0.00098   1.98487
    A8        1.91102  -0.00149   0.00000   0.00244   0.00175   1.91276
    A9        1.86603   0.00464   0.00000   0.02365   0.02304   1.88907
   A10        1.92897  -0.00083   0.00000  -0.01819  -0.01782   1.91115
   A11        1.91217  -0.00842   0.00000  -0.05381  -0.05363   1.85854
   A12        1.85421   0.00423   0.00000   0.05193   0.05124   1.90545
   A13        1.99423   0.00444   0.00000   0.02254   0.02218   2.01641
   A14        1.92939  -0.00288   0.00000  -0.03546  -0.03543   1.89396
   A15        1.85841  -0.00191   0.00000   0.00335   0.00277   1.86118
   A16        1.92379  -0.00255   0.00000  -0.02583  -0.02583   1.89795
   A17        1.88611   0.00107   0.00000   0.02147   0.02114   1.90725
   A18        1.86584   0.00187   0.00000   0.01682   0.01704   1.88288
   A19        1.96209  -0.00462   0.00000  -0.01688  -0.01718   1.94491
   A20        1.91099   0.00105   0.00000  -0.00630  -0.00646   1.90453
   A21        1.92062   0.00109   0.00000   0.01303   0.01308   1.93370
   A22        1.89581   0.00028   0.00000  -0.00696  -0.00709   1.88872
   A23        1.87881   0.00442   0.00000   0.03197   0.03204   1.91085
   A24        1.89405  -0.00218   0.00000  -0.01476  -0.01466   1.87939
   A25        1.97544  -0.00776   0.00000  -0.04092  -0.04209   1.93334
   A26        1.91441  -0.00155   0.00000  -0.01838  -0.01866   1.89575
   A27        1.91872   0.00906   0.00000   0.04373   0.04377   1.96250
   A28        1.88771   0.00196   0.00000  -0.00408  -0.00491   1.88280
   A29        1.90653   0.00295   0.00000   0.04658   0.04695   1.95347
   A30        1.85705  -0.00462   0.00000  -0.02697  -0.02647   1.83058
   A31        1.96731  -0.00285   0.00000  -0.03781  -0.03806   1.92924
   A32        1.91839  -0.00241   0.00000  -0.02245  -0.02202   1.89638
   A33        1.89333  -0.01066   0.00000  -0.04499  -0.04509   1.84824
   A34        1.90255   0.00141   0.00000   0.01331   0.01143   1.91398
   A35        1.91545   0.00653   0.00000   0.03159   0.02978   1.94524
   A36        1.86399   0.00863   0.00000   0.06608   0.06542   1.92940
   A37        1.86517  -0.00001   0.00000  -0.00005  -0.00005   1.86512
   A38        1.85186  -0.00036   0.00000  -0.00201  -0.00201   1.84984
   A39        1.81187   0.00295   0.00000   0.01670   0.01670   1.82857
   A40        1.82702   0.00298   0.00000   0.01685   0.01685   1.84387
   A41        1.82597   0.00462   0.00000   0.02614   0.02614   1.85211
   A42        1.85535   0.00772   0.00000   0.04370   0.04370   1.89905
    D1        1.07598   0.00045   0.00000   0.00833   0.00845   1.08443
    D2       -1.09206   0.00111   0.00000   0.03111   0.03111  -1.06094
    D3       -3.09377  -0.00555   0.00000  -0.04347  -0.04358  -3.13734
    D4       -1.10826   0.00289   0.00000   0.04733   0.04765  -1.06061
    D5        3.00689   0.00356   0.00000   0.07011   0.07032   3.07721
    D6        1.00518  -0.00310   0.00000  -0.00447  -0.00437   1.00081
    D7       -3.07712   0.00287   0.00000   0.01963   0.01953  -3.05759
    D8        1.03802   0.00353   0.00000   0.04241   0.04220   1.08022
    D9       -0.96369  -0.00313   0.00000  -0.03217  -0.03249  -0.99618
   D10        0.97874  -0.00266   0.00000  -0.01917  -0.01921   0.95952
   D11       -1.20329  -0.00033   0.00000   0.02689   0.02687  -1.17642
   D12        3.05939   0.00000   0.00000   0.02318   0.02317   3.08256
   D13       -3.12101  -0.00405   0.00000  -0.06122  -0.06107   3.10110
   D14        0.98015  -0.00172   0.00000  -0.01517  -0.01499   0.96516
   D15       -1.04036  -0.00139   0.00000  -0.01887  -0.01869  -1.05905
   D16       -1.13677   0.00204   0.00000   0.00884   0.00868  -1.12810
   D17        2.96439   0.00437   0.00000   0.05490   0.05476   3.01915
   D18        0.94388   0.00469   0.00000   0.05119   0.05106   0.99494
   D19        3.04419  -0.00162   0.00000   0.00950   0.00914   3.05334
   D20       -1.01307   0.00130   0.00000   0.01335   0.01248  -1.00059
   D21        1.02284   0.00181   0.00000   0.03297   0.03420   1.05704
   D22        3.03581  -0.00119   0.00000  -0.03163  -0.03141   3.00440
   D23        0.92697   0.00077   0.00000  -0.00734  -0.00723   0.91974
   D24       -1.15342   0.00213   0.00000   0.00670   0.00683  -1.14659
   D25       -1.08905  -0.00219   0.00000  -0.04337  -0.04348  -1.13253
   D26        3.08530  -0.00024   0.00000  -0.01908  -0.01931   3.06599
   D27        1.00491   0.00112   0.00000  -0.00504  -0.00525   0.99966
   D28        0.94835  -0.00257   0.00000  -0.02295  -0.02286   0.92549
   D29       -1.16049  -0.00061   0.00000   0.00133   0.00132  -1.15918
   D30        3.04230   0.00075   0.00000   0.01537   0.01538   3.05768
   D31        0.78159   0.00012   0.00000  -0.00088  -0.00016   0.78143
   D32        2.94115   0.00062   0.00000  -0.01975  -0.01934   2.92182
   D33       -1.25804  -0.00245   0.00000  -0.04042  -0.04155  -1.29959
   D34       -0.96888  -0.00061   0.00000   0.05030   0.05097  -0.91791
   D35       -3.07871   0.00321   0.00000   0.09616   0.09591  -2.98279
   D36        1.16828   0.00444   0.00000   0.11416   0.11413   1.28242
   D37        1.21610  -0.00313   0.00000  -0.00083  -0.00020   1.21590
   D38       -0.89372   0.00070   0.00000   0.04504   0.04474  -0.84898
   D39       -2.92992   0.00193   0.00000   0.06303   0.06296  -2.86696
   D40       -3.03385  -0.00167   0.00000   0.01750   0.01782  -3.01602
   D41        1.13951   0.00215   0.00000   0.06337   0.06276   1.20228
   D42       -0.89668   0.00338   0.00000   0.08136   0.08098  -0.81570
   D43       -1.94519  -0.00149   0.00000   0.02137   0.02130  -1.92390
   D44        0.20463   0.00331   0.00000   0.06241   0.06232   0.26696
   D45        2.27516   0.00188   0.00000   0.05236   0.05252   2.32768
   D46       -0.88007   0.00071   0.00000   0.01429   0.01399  -0.86608
   D47       -3.00623   0.00259   0.00000   0.03926   0.03914  -2.96709
   D48        1.24477  -0.00035   0.00000  -0.00186  -0.00162   1.24315
   D49        1.23748  -0.00075   0.00000  -0.00934  -0.00953   1.22795
   D50       -0.88868   0.00113   0.00000   0.01564   0.01562  -0.87306
   D51       -2.92087  -0.00180   0.00000  -0.02548  -0.02514  -2.94600
   D52       -2.99809  -0.00077   0.00000  -0.01310  -0.01331  -3.01140
   D53        1.15894   0.00111   0.00000   0.01188   0.01183   1.17077
   D54       -0.87325  -0.00183   0.00000  -0.02925  -0.02892  -0.90217
   D55       -1.58117   0.00147   0.00000   0.01322   0.01297  -1.56820
   D56        0.56255  -0.00070   0.00000   0.02092   0.02121   0.58376
   D57        2.61131   0.00087   0.00000   0.02219   0.02215   2.63346
   D58       -0.96531   0.00172   0.00000   0.02805   0.02704  -0.93827
   D59        1.21211   0.00008   0.00000   0.03788   0.03902   1.25112
   D60       -3.03713   0.00139   0.00000   0.04206   0.04193  -2.99520
   D61       -2.99940   0.00053   0.00000   0.00260   0.00243  -2.99697
   D62       -0.84311  -0.00579   0.00000  -0.05344  -0.05502  -0.89813
   D63        1.21681   0.00426   0.00000   0.01671   0.01846   1.23527
         Item               Value     Threshold  Converged?
 Maximum Force            0.019661     0.000450     NO 
 RMS     Force            0.005802     0.000300     NO 
 Maximum Displacement     0.299555     0.001800     NO 
 RMS     Displacement     0.076164     0.001200     NO 
 Predicted change in Energy=-9.585972D-03
 GradGradGradGradGradGradGradGradGradGradGradGradGradGradGradGradGradGrad

                          Input orientation:                          
 ---------------------------------------------------------------------
 Center     Atomic      Atomic             Coordinates (Angstroms)
 Number     Number       Type             X           Y           Z
 ---------------------------------------------------------------------
      1          6           0        0.029700    0.004019    0.006109
      2          6           0        1.552394   -0.000314    0.011082
      3          6           0       -0.695748    0.650923    1.192761
      4          6           0        2.158759   -0.774357    1.172814
      5          1           0        1.922672    1.030685    0.025620
      6          1           0       -0.307399   -1.034230   -0.075483
      7          6           0       -0.305418    2.097169    1.494301
      8          1           0       -0.513841    0.047785    2.079173
      9          6           0        3.659622   -0.908481    1.024971
     10          1           0        1.727577   -1.776565    1.198466
     11          1           0        0.776254    2.192626    1.596457
     12          1           0       -0.758051    2.389453    2.441757
     13          1           0        3.915174   -1.268840    0.027844
     14          1           0        4.023604   -1.615777    1.776651
     15          8           0       -0.831684    3.011935    0.540296
     16          1           0       -0.556418    2.699345   -0.327815
     17          8           0       -2.096414    0.590475    0.899544
     18          1           0       -2.371283    1.496819    0.731510
     19          8           0       -0.318425    0.678248   -1.217202
     20          1           0       -1.276713    0.613912   -1.268487
     21          8           0        2.000319   -0.641663   -1.179757
     22          1           0        1.460815   -0.279557   -1.887800
     23          8           0        1.859150   -0.144245    2.409333
     24          1           0        2.574940    0.478772    2.572202
     25          8           0        4.194782    0.396214    1.262708
     26          1           0        5.126932    0.389548    1.053642
 ---------------------------------------------------------------------
                    Distance matrix (angstroms):
                    1          2          3          4          5
     1  C    0.000000
     2  C    1.522708   0.000000
     3  C    1.533917   2.621948   0.000000
     4  C    2.549503   1.521986   3.190616   0.000000
     5  H    2.153548   1.095572   2.891810   2.151736   0.000000
     6  H    1.094648   2.129625   2.144527   2.776277   3.040940
     7  C    2.590038   3.170306   1.528042   3.797524   2.873813
     8  H    2.143582   2.923805   1.087470   2.939421   3.334632
     9  C    3.879056   2.508615   4.629162   1.514079   2.788559
    10  H    2.734042   2.143744   3.430048   1.091328   3.048653
    11  H    2.806519   2.815100   2.169472   3.300573   2.265372
    12  H    3.499033   4.117927   2.141580   4.486390   3.856196
    13  H    4.088711   2.681822   5.128657   2.154174   3.042677
    14  H    4.659381   3.440034   5.267935   2.133133   3.805757
    15  O    3.174098   3.877826   2.453277   4.866090   3.431723
    16  H    2.778456   3.442396   2.554916   4.657325   3.009190
    17  O    2.379604   3.801604   1.432304   4.477046   4.136494
    18  H    2.918797   4.260946   1.932798   5.086675   4.376484
    19  O    1.439536   2.338609   2.439475   3.736131   2.586762
    20  H    1.924390   3.165188   2.529156   4.437309   3.476274
    21  O    2.388833   1.424803   3.816856   2.361630   2.062937
    22  H    2.390690   1.921489   3.873811   3.177941   2.364576
    23  O    3.023964   2.422070   2.939361   1.419784   2.658305
    24  H    3.645336   2.799010   3.553857   1.924013   2.686102
    25  O    4.368154   2.950596   4.897657   2.350256   2.663723
    26  H    5.218020   3.743828   5.830204   3.190443   3.425663
                    6          7          8          9         10
     6  H    0.000000
     7  C    3.502840   0.000000
     8  H    2.419900   2.141376   0.000000
     9  C    4.118745   4.997574   4.409487   0.000000
    10  H    2.512992   4.384792   3.021233   2.125198   0.000000
    11  H    3.792398   1.090670   2.549059   4.272853   4.100962
    12  H    4.273312   1.089945   2.382125   5.692055   5.007976
    13  H    4.230347   5.594097   5.055455   1.090609   2.532533
    14  H    4.746176   5.710178   4.842248   1.094428   2.373161
    15  O    4.126199   1.422630   3.354900   5.981338   5.469254
    16  H    3.750369   1.935387   3.581365   5.711517   5.251660
    17  O    2.605939   2.414856   2.047089   5.949332   4.507231
    18  H    3.364085   2.282557   2.714034   6.499492   5.266283
    19  O    2.058210   3.060352   3.361808   4.834243   4.005956
    20  H    2.253709   3.282752   3.479841   5.651994   4.563551
    21  O    2.588260   4.468581   4.173363   2.772238   2.649214
    22  H    2.642084   4.495221   4.443342   3.703314   3.440529
    23  O    3.414720   3.247549   2.403532   2.396292   2.036658
    24  H    4.196104   3.475277   3.157435   2.344126   2.773394
    25  O    4.909842   4.816501   4.791570   1.430086   3.288190
    26  H    5.730097   5.711443   5.743417   1.959260   4.033439
                   11         12         13         14         15
    11  H    0.000000
    12  H    1.762772   0.000000
    13  H    4.929008   6.406959   0.000000
    14  H    5.008162   6.272835   1.786183   0.000000
    15  O    2.090982   2.002114   6.412512   6.820419   0.000000
    16  H    2.394911   2.794140   5.989000   6.635183   0.962861
    17  O    3.362260   2.721389   6.352645   6.564410   2.755371
    18  H    3.337554   2.514808   6.903880   7.188543   2.168526
    19  O    3.377623   4.063185   4.823345   5.751428   2.966198
    20  H    3.861982   4.145777   5.672823   6.506746   3.036488
    21  O    4.151974   5.469153   2.349111   3.712537   4.932302
    22  H    4.326703   5.549058   3.266841   4.667074   4.688829
    23  O    2.700814   3.642859   3.341174   2.692685   4.549215
    24  H    2.669204   3.844028   3.365135   2.668082   4.706448
    25  O    3.876186   5.467514   2.091764   2.083638   5.712200
    26  H    4.740690   6.368635   2.295837   2.400292   6.530356
                   16         17         18         19         20
    16  H    0.000000
    17  O    2.885365   0.000000
    18  H    2.421152   0.961898   0.000000
    19  O    2.220919   2.765784   2.946483   0.000000
    20  H    2.398483   2.317934   2.444912   0.961813   0.000000
    21  O    4.292440   4.756561   5.228475   2.668359   3.510453
    22  H    3.921305   4.602186   4.970037   2.129034   2.945487
    23  O    4.627413   4.297181   4.837845   4.309302   4.892320
    24  H    4.811075   4.963045   5.374913   4.771890   5.440992
    25  O    5.514351   6.304662   6.678825   5.157377   6.032545
    26  H    6.288406   7.227783   7.586372   5.906945   6.815372
                   21         22         23         24         25
    21  O    0.000000
    22  H    0.960995   0.000000
    23  O    3.626144   4.317677   0.000000
    24  H    3.957620   4.659180   0.962825   0.000000
    25  O    3.443616   4.225748   2.657446   2.084580   0.000000
    26  H    3.978338   4.747652   3.577881   2.970968   0.955331
                   26
    26  H    0.000000
 Stoichiometry    C6H14O6
 Framework group  C1[X(C6H14O6)]
 Deg. of freedom    72
 Full point group                 C1      NOp   1
 Largest Abelian subgroup         C1      NOp   1
 Largest concise Abelian subgroup C1      NOp   1
                         Standard orientation:                         
 ---------------------------------------------------------------------
 Center     Atomic      Atomic             Coordinates (Angstroms)
 Number     Number       Type             X           Y           Z
 ---------------------------------------------------------------------
      1          6           0       -0.723285    0.818643   -0.461848
      2          6           0        0.673410    0.682295    0.129160
      3          6           0       -1.535346   -0.460399   -0.701660
      4          6           0        1.635220   -0.106293   -0.748046
      5          1           0        0.610151    0.212360    1.116802
      6          1           0       -0.632767    1.349480   -1.414882
      7          6           0       -1.717279   -1.363330    0.517574
      8          1           0       -1.053697   -1.032303   -1.491299
      9          6           0        3.049137   -0.048685   -0.209571
     10          1           0        1.635006    0.320680   -1.752383
     11          1           0       -0.754914   -1.590202    0.977947
     12          1           0       -2.161928   -2.303394    0.191160
     13          1           0        3.335522    0.981747    0.004022
     14          1           0        3.726328   -0.471481   -0.958189
     15          8           0       -2.642338   -0.828123    1.456561
     16          1           0       -2.345117    0.063882    1.664138
     17          8           0       -2.820574   -0.046615   -1.179638
     18          1           0       -3.442135   -0.243017   -0.472294
     19          8           0       -1.414987    1.681506    0.459716
     20          1           0       -2.272008    1.838597    0.052380
     21          8           0        1.228755    1.987204    0.266526
     22          1           0        0.529850    2.527860    0.644328
     23          8           0        1.224176   -1.461032   -0.855333
     24          1           0        1.650296   -1.927966   -0.129091
     25          8           0        3.049589   -0.848196    0.976147
     26          1           0        3.887298   -0.737591    1.421869
 ---------------------------------------------------------------------
 Rotational constants (GHZ):           1.4323453           0.5706289           0.5089906
 Standard basis: def2TZVPP (5D, 7F)
 There are   642 symmetry adapted cartesian basis functions of A   symmetry.
 There are   568 symmetry adapted basis functions of A   symmetry.
   568 basis functions,   850 primitive gaussians,   642 cartesian basis functions
    49 alpha electrons       49 beta electrons
       nuclear repulsion energy       841.8180165914 Hartrees.
 NAtoms=   26 NActive=   26 NUniq=   26 SFac= 1.00D+00 NAtFMM=   60 NAOKFM=F Big=F
 Integral buffers will be    131072 words long.
 Raffenetti 2 integral format.
 Two-electron integral symmetry is turned on.
 Nuclear repulsion after empirical dispersion term =      841.7987431529 Hartrees.
 One-electron integrals computed using PRISM.
   1 Symmetry operations used in ECPInt.
 ECPInt:  NShTT=   23436 NPrTT=   62434 LenC2=   22048 LenP2D=   45939.
 LDataN:  DoStor=T MaxTD1= 6 Len=  172
 NBasis=   568 RedAO= T EigKep=  3.56D-05  NBF=   568
[...]
 0137779,-0.00082663,0.00300047,-0.00117465,0.00978203,0.00124854,-0.00
 106385,-0.00127976,0.63629541,-0.00661550,-0.10383770,0.05157879,0.004
 78309,-0.00180469,0.00205068,0.00018257,0.00922499,-0.00230830,0.00035
 379,0.00001171,-0.00144255,0.00119436,0.00144634,-0.00064305,0.0134757
 8,-0.01668228,0.04006615,0.00023858,-0.00388445,0.00643872,0.00118835,
 0.00037826,-0.00216207,-0.00056599,-0.00010743,0.00031911,-0.00034444,
 0.00081132,-0.00043021,-0.00041571,0.00022376,-0.00042812,-0.00006270,
 0.00117819,-0.00036122,-0.00012841,0.00006057,0.00002113,0.00015094,0.
 00002106,0.00008001,-0.00008797,-0.00537837,-0.01013139,0.00183957,0.0
 0493143,0.00067740,-0.00044728,0.00264827,-0.00214954,-0.00137070,-0.0
 0057301,0.00144152,0.04609441,0.13954238,-0.00147699,0.06279939,-0.162
 89722,-0.00834472,0.00673645,-0.01548090,-0.01311040,0.02503074,-0.047
 83550,-0.00105442,-0.00075211,0.00194892,0.00051747,-0.00049680,0.0006
 3319,-0.00548976,0.01328999,-0.01275442,-0.00005694,0.00334351,0.00165
 030,0.00587692,-0.00486019,-0.00574823,0.00049506,0.00057914,-0.001007
 04,0.00019569,-0.00026801,0.00005107,-0.00018245,-0.00043991,-0.000067
 70,0.00008233,-0.00028173,0.00030857,-0.00020773,0.00006040,0.00007664
 ,-0.00039037,-0.00001466,0.00002965,0.00081061,-0.00696083,0.00174973,
 0.00031446,-0.00047735,-0.00504802,-0.00146111,-0.00053253,0.00272054,
 -0.00016493,0.00070617,-0.00052774,0.08719970,-0.10061325,0.27509775,-
 0.01312898,-0.00151290,-0.00285065,-0.00077658,0.00240872,-0.00160735,
 0.00283199,-0.00126953,0.00117202,-0.00041716,-0.00023237,0.00037723,0
 .00047269,0.00009700,0.00005261,0.00108970,-0.00078452,0.00164583,-0.0
 0056234,0.00016462,-0.00029629,-0.00083620,0.00018851,0.00031624,-0.00
 006195,0.00014789,-0.00018469,-0.00002626,0.00009002,-0.00003860,-0.00
 007589,-0.00018808,-0.00001813,0.00005281,0.00016937,0.00011063,-0.000
 01310,0.00000848,-0.00001653,-0.00003710,-0.00001787,0.00002715,-0.000
 52265,0.00050516,0.00063344,0.00014927,-0.00132148,-0.00065474,-0.0021
 5391,-0.00041984,-0.00131727,0.00020494,0.00095187,0.00128378,-0.51381
 796,-0.06267901,-0.06367057,0.52717672,0.02216067,0.00155734,0.0061691
 8,0.00096762,-0.00216380,0.00291336,-0.00074519,0.00042244,-0.00020983
 ,0.00114466,0.00061477,-0.00012864,0.00004634,0.00019836,0.00008126,0.
 00100667,-0.00012502,-0.00001536,-0.00057950,0.00072746,-0.00112329,0.
 00003968,-0.00007935,0.00020238,0.00012542,-0.00018017,0.00032397,-0.0
 0003796,-0.00003214,-0.00006766,0.00018926,-0.00009543,0.00023352,0.00
 007053,-0.00010909,0.00014899,-0.00000320,0.00000490,0.00000490,0.0001
 1017,-0.00001310,0.00001932,0.00162762,-0.00008324,0.00127499,-0.00303
 444,-0.00122954,-0.00078090,-0.00003069,-0.00177835,0.00061685,0.00080
 189,-0.00031526,-0.00218167,-0.08806743,-0.02840278,0.00463790,0.06429
 918,0.03136660,-0.03934559,-0.00344191,-0.00727256,-0.00060840,0.00323
 939,-0.00698125,-0.00517667,-0.00042913,-0.00287074,-0.00168703,0.0000
 0204,0.00114562,0.00036490,-0.00012104,-0.00000941,0.00037701,0.000866
 23,0.00095854,-0.00015653,-0.00046359,-0.00042597,0.00025215,0.0001850
 6,0.00043796,-0.00000717,0.00039979,-0.00047069,0.00000328,0.00001416,
 0.00000981,0.00027039,0.00031595,0.00005941,-0.00001699,-0.00003896,-0
 .00000119,0.00001655,0.00001242,0.00000195,-0.00018993,0.00000231,0.00
 003362,0.00084662,0.00093464,0.00001038,-0.00075045,-0.00097532,0.0004
 1931,0.00111463,0.00027765,0.00557985,0.00152276,-0.00180659,-0.001870
 75,-0.02369487,0.01422276,-0.03738175,0.06557424,-0.01289818,0.0472369
 4,-0.02204661,0.02358250,0.04169939,-0.09598218,0.03020846,0.01161117,
 -0.00322263,-0.00144942,-0.00695102,0.00584228,-0.00728917,-0.00883467
 ,0.00641445,0.00137558,-0.00343203,0.00378401,0.00073750,0.00033705,-0
 .00103481,-0.00090211,0.00023814,-0.00015893,-0.00012758,0.00038416,-0
 .00185732,0.00102297,0.00038696,-0.00011562,0.00013418,-0.00027941,0.0
 0023936,0.00020390,0.00002359,-0.00001522,0.00050131,0.00013578,-0.000
 90068,-0.00035795,-0.00334642,0.00063409,-0.00029466,-0.00107370,0.000
 46042,0.00109524,0.00014676,-0.00036083,-0.00091129,-0.00000907,-0.004
 62732,0.00168706,0.00219746,-0.00016402,-0.00054784,0.00025212,-0.0033
 0915,0.00310909,0.00324112,0.00078468,0.00043878,0.00183890,0.31273751
 ,0.00564407,-0.00292214,-0.00662143,0.03705819,-0.11126583,-0.04242487
 ,-0.00019255,0.00158012,0.00120860,-0.00537577,0.00848941,0.00851503,0
 .01450687,-0.01297896,-0.03842845,0.00167962,0.00189325,0.00075968,-0.
 00119796,-0.00008798,-0.00039400,0.00019076,-0.00007420,-0.00031147,0.
 00059180,-0.00083287,-0.00076258,-0.00045817,0.00212709,-0.00107377,0.
 00068972,0.00033802,0.00049130,0.00048762,0.00012224,0.00000709,0.0002
 7738,0.00020928,0.00160987,-0.00034675,0.00022617,0.00053321,0.0005973
 5,-0.00003081,0.00019905,-0.00053541,0.00005831,-0.00020645,0.00134594
 ,0.00006382,-0.00036807,-0.00016064,-0.00003162,-0.00011279,0.00264306
 ,0.00155125,-0.00065034,-0.00019091,-0.00037699,-0.00127240,-0.1786486
 5,0.19664983,0.01321669,-0.01000425,-0.02511000,0.04841205,-0.06690314
 ,-0.18791512,-0.00050264,0.00121538,0.00468003,0.01180740,-0.01945398,
 -0.03604596,0.00526103,-0.01545582,-0.01543098,-0.00097054,0.00077546,
 0.00050165,-0.00093114,0.00084457,-0.00135343,-0.00046706,0.00008537,0
 .00026756,-0.00013310,-0.00011276,-0.00072967,0.00105329,0.00010318,0.
 00193754,0.00041380,0.00045956,0.00030006,0.00039019,-0.00021685,-0.00
 000714,-0.00151792,0.00025925,-0.00233298,0.00041436,-0.00004777,-0.00
 023780,0.00056400,-0.00067780,0.00122301,-0.00026177,-0.00013596,-0.00
 070383,0.00371245,-0.00113123,-0.00006926,0.00015795,0.00013462,-0.000
 49658,-0.00504227,0.00194490,0.00414586,-0.00046274,0.00054311,0.00064
 646,0.15792210,-0.03291713,0.55758151,0.00119058,-0.00085803,0.0075713
 1,0.00845245,-0.00527295,0.01206472,0.00001550,0.00056457,-0.00047571,
 -0.00222951,0.00142886,0.00182079,-0.00029429,0.00091435,0.00020932,-0
 .00039852,0.00008295,-0.00020785,0.00055770,0.00007181,0.00047079,0.00
 032074,-0.00012686,-0.00038102,-0.00051872,0.00076613,-0.00020887,-0.0
 0000502,-0.00007248,-0.00014340,-0.00020596,-0.00012604,-0.00009518,-0
 .00008168,-0.00007899,-0.00006705,0.00016364,-0.00017832,-0.00043680,0
 .00006995,-0.00010521,-0.00013866,-0.00033648,-0.00058006,-0.00062384,
 0.00032331,0.00094242,0.00036599,-0.00021093,-0.00010986,-0.00072183,-
 0.00017219,0.00020711,0.00027732,-0.00084665,-0.00045953,-0.00208308,-
 0.00045935,-0.00046910,-0.00099588,-0.19791974,0.11974335,-0.22874663,
 0.19204742,0.00086801,0.00236871,-0.00264082,-0.01067330,0.00574688,-0
 .01696058,-0.00010965,-0.00041195,0.00079830,0.00119871,-0.00153529,-0
 .00048436,-0.00029796,-0.00070368,-0.00148313,-0.00040994,-0.00062740,
 0.00065867,0.00001417,0.00023757,-0.00045017,-0.00013317,0.00006644,0.
 00016820,0.00028268,-0.00006847,-0.00016958,-0.00003571,0.00015537,-0.
 00017189,0.00000567,0.00001198,-0.00001477,-0.00001879,-0.00007384,0.0
 0003062,-0.00022100,0.00002761,0.00011693,-0.00001688,-0.00001114,0.00
 002228,-0.00005820,-0.00013392,0.00040723,0.00021447,-0.00019389,-0.00
 030042,0.00037086,-0.00022722,0.00018719,0.00012647,0.00001225,-0.0001
 4963,-0.00038395,-0.00245104,-0.00073416,-0.00043234,0.00027466,0.0013
 5649,0.12566822,-0.08663191,0.13748735,-0.11609795,0.08356661,0.000357
 70,0.00123541,-0.00087217,-0.01994455,0.01240899,-0.03610791,-0.000048
 56,0.00010120,-0.00138459,0.00259403,-0.00475034,-0.00321872,-0.000534
 33,0.00012040,0.00065188,0.00041274,0.00009083,-0.00011263,-0.00009708
 ,-0.00019454,0.00019722,-0.00003523,-0.00003813,0.00004413,0.00040605,
 -0.00041429,0.00048642,0.00012170,0.00007228,0.00024492,-0.00003651,-0
 .00001525,-0.00007261,-0.00006145,0.00011274,0.00003702,-0.00041507,0.
 00013836,-0.00009882,0.00010896,0.00002024,0.00020431,-0.00003387,0.00
 037705,-0.00001660,0.00002883,-0.00037374,0.00004443,-0.00108028,0.000
 25304,0.00055358,0.00007412,-0.00011883,0.00002416,-0.00213734,0.00065
 322,-0.00034871,-0.00019894,0.00037042,0.00088578,-0.18935037,0.105812
 50,-0.29014221,0.21023708,-0.11671096,0.33090748,-0.00015044,-0.000855
 13,0.00241177,0.00658090,-0.00720238,-0.00458416,-0.00220851,-0.001506
 23,0.00298597,-0.09304364,-0.01450212,0.01254721,-0.00027154,0.0003753
 5,0.00022931,0.00002837,-0.00007335,-0.00011758,0.00082723,-0.00028143
 ,0.00015153,-0.00306898,0.00215170,-0.00375995,-0.01354358,0.01756302,
 0.04209567,0.00618772,-0.00555562,-0.01533197,-0.00114282,0.00010406,-
 0.00027055,-0.00012264,-0.00003393,0.00003988,-0.00896094,-0.00029101,
 0.00053532,0.00345534,-0.00058056,0.00001254,-0.00066661,0.00101688,-0
 .00097156,-0.00011646,-0.00006025,0.00031140,-0.00164995,0.00136129,-0
 .00171763,-0.00021762,-0.00023997,-0.00029117,0.00099894,-0.00008622,-
 0.00080377,0.00006626,0.00001724,0.00047278,0.00064669,0.00139541,-0.0
 0422677,0.00049962,0.00009089,-0.00050254,0.38059810,0.00092475,-0.000
 31923,-0.00057370,-0.00391398,0.00638120,0.00485446,-0.00057546,-0.000
 03863,-0.00116564,0.01127813,-0.10711021,-0.07270975,-0.00042253,0.003
 00329,-0.00117826,0.00033241,0.00029527,0.00033889,-0.00310613,-0.0007
 8222,-0.00061308,0.00051547,-0.00054303,0.00033687,0.00496765,-0.00866
 008,-0.01775836,0.00866263,-0.01233728,-0.03592623,0.00238510,0.000379
 87,0.00034078,0.00016257,0.00026120,-0.00001118,0.00342591,0.00185226,
 0.00020976,-0.00190512,0.00044214,0.00004895,0.00198639,-0.00042887,0.
 00168403,-0.00002888,-0.00039290,-0.00050118,0.00043102,0.00064037,0.0
 0073536,-0.00023077,-0.00021294,-0.00006934,-0.00113051,0.00080746,0.0
 0010152,0.00001178,-0.00017415,-0.00035136,0.00093455,0.00113963,0.002
 88376,0.00012018,0.00044830,0.00054411,0.24047228,0.35932431,0.0020316
 2,-0.00117085,0.00115584,0.01159681,-0.02314522,-0.03471975,-0.0006765
 3,0.00000370,-0.00126993,0.04936872,-0.04495513,-0.19898491,0.00130312
 ,0.00005792,0.00242105,-0.00020556,0.00003632,-0.00014872,-0.00039681,
 0.00067116,-0.00013470,-0.00137115,-0.00014641,-0.00060620,0.01164954,
 -0.01303745,-0.02489308,0.00134551,-0.01021090,-0.01068084,-0.00043326
 ,0.00010092,-0.00084321,-0.00061300,0.00038398,0.00009583,0.00355625,0
 .00011317,0.00128008,0.00050614,-0.00045347,0.00170225,0.00010294,0.00
 014204,0.00079694,0.00022419,-0.00048975,-0.00020260,-0.00070024,0.000
 64492,0.00083776,-0.00002837,-0.00014421,-0.00008110,-0.00137773,0.001
 06244,0.00037257,0.00011627,-0.00009107,-0.00011801,-0.00670158,0.0052
 5476,-0.01080864,0.00212087,-0.00131870,-0.00190696,-0.01431247,0.1584
 7925,0.31954847,-0.00019417,-0.00013307,-0.00024149,-0.00080943,-0.000
 25892,-0.00049188,-0.00075184,-0.00050245,0.00015832,0.00821306,0.0067
 6894,0.00191860,0.00029733,0.00014765,-0.00030401,0.00000163,0.0001000
 0,0.00008196,-0.00138038,-0.00007567,-0.00049251,-0.00010323,-0.000054
 87,-0.00036912,0.00150690,0.00605210,0.00471003,-0.00039700,0.00277446
 ,0.00275117,0.00034473,0.00081822,-0.00041049,0.00003255,0.00008993,0.
 00000736,-0.00030356,-0.00111684,-0.00035512,-0.00034228,-0.00028326,-
 0.00001704,0.00083394,-0.00030554,0.00082077,-0.00001532,-0.00005577,-
 0.00019378,0.00031662,0.00041187,0.00010025,-0.00017973,-0.00007303,-0
 .00008272,0.00002528,0.00008446,0.00030051,-0.00002545,-0.00003462,-0.
 00008420,-0.00013154,0.00022986,0.00119234,-0.00002932,0.00010000,0.00
 006175,-0.27379245,-0.26070605,-0.05491196,0.26749909,-0.00028611,-0.0
 0005484,-0.00010672,-0.00025997,0.00232244,0.00042876,0.00012286,0.000
 64714,-0.00006030,-0.01210516,-0.01871171,-0.00754785,-0.00022122,-0.0
 0035956,0.00013756,0.00001394,-0.00008219,-0.00004926,0.00128277,-0.00
 000423,0.00031507,-0.00024751,-0.00003808,0.00022299,-0.00106289,0.000
 50724,-0.00016154,0.00109450,-0.00088848,-0.00442180,-0.00012184,-0.00
 036368,0.00035965,-0.00002472,-0.00006619,-0.00003055,-0.00116778,-0.0
 0065944,0.00036960,0.00060248,-0.00073133,-0.00008396,-0.00063641,-0.0
 0004570,-0.00054363,0.00006335,0.00018480,0.00014629,0.00010410,-0.000
 56743,0.00004013,0.00017123,0.00013763,0.00008446,0.00026118,-0.000214
 89,0.00005092,-0.00000247,0.00001911,0.00006222,0.00033469,-0.00055388
 ,0.00082809,-0.00008226,0.00007779,0.00017324,-0.23518360,-0.24774476,
 -0.07174363,0.24748694,0.26793495,-0.00024082,0.00004311,0.00003145,-0
 .00042678,-0.00310463,-0.00110102,-0.00032610,-0.00007217,0.00005629,-
 0.02742737,-0.03299479,-0.01374972,-0.00011262,0.00104468,-0.00067006,
 0.00017306,0.00010541,0.00002113,-0.00049853,0.00000190,-0.00000621,-0
 .00028436,0.00015795,-0.00007804,0.00034923,-0.00424731,0.00003720,0.0
 0133931,-0.00079774,-0.00420335,-0.00011145,0.00045565,0.00014122,0.00
 027939,-0.00004091,-0.00004236,-0.00042362,0.00040683,0.00010608,0.000
 10364,0.00057762,-0.00003818,0.00029835,-0.00021168,0.00006760,-0.0000
 9747,0.00006230,-0.00005513,0.00034633,-0.00002046,-0.00001710,-0.0000
 5609,0.00001675,0.00002922,0.00022713,-0.00002029,0.00010855,-0.000034
 02,-0.00000391,-0.00000730,0.00023472,0.00100405,-0.00014168,0.0000724
 2,0.00012437,-0.00017537,-0.02012932,-0.04417525,-0.04622181,0.0486695
 2,0.08001826,0.06577757,0.00069595,-0.00092738,0.00066752,0.00163018,-
 0.00016435,0.00123236,0.00069011,-0.00027172,-0.00000111,-0.02861644,-
 0.04767763,-0.00355570,-0.00122285,-0.00031385,-0.00075313,0.00000586,
 0.00024470,0.00001325,0.00006905,-0.00033773,0.00016421,0.00019880,0.0
 0000283,-0.00018774,-0.10825771,-0.06228265,-0.01083596,-0.00832678,0.
 00171227,0.00149221,0.00001091,-0.00020956,-0.00005057,-0.00008145,0.0
 0006008,0.00003288,0.00357693,0.00031450,-0.00338871,0.00560624,0.0010
 4040,0.00450511,-0.00009911,0.00052455,-0.00021779,0.00000724,-0.00027
 756,0.00003984,-0.00065698,0.00029913,-0.00000517,0.00005760,-0.000111
 23,-0.00002808,-0.00050932,0.00062528,-0.00060501,0.00009956,-0.000038
 28,0.00006269,0.00008463,0.00007357,-0.00134188,0.00006799,-0.00002000
 ,0.00015140,-0.00197861,-0.00393712,-0.00128333,-0.00034807,-0.0003902
 9,-0.00149095,0.68640359,0.00073540,0.00061946,0.00000592,-0.00003533,
 -0.00142903,0.00108990,0.00032839,-0.00030203,-0.00012380,-0.01021664,
 -0.00806299,-0.00245207,-0.00023268,0.00145972,-0.00031557,0.00031675,
 0.00015866,0.00004881,-0.00042032,-0.00017069,0.00000211,0.00008065,-0
 .00000286,-0.00006573,-0.01868629,-0.21363280,-0.02724251,0.00071727,0
 .00164000,-0.00001053,0.00001083,-0.00011110,0.00000361,-0.00000771,0.
 00005852,0.00002653,-0.01273030,-0.02554224,-0.00532513,-0.01772072,-0
 .03831467,-0.00583620,0.00022571,0.00039305,0.00003031,-0.00012001,-0.
 00029678,-0.00006619,-0.00023770,0.00032529,0.00012366,-0.00003853,-0.
 00012762,-0.00003540,-0.00077612,0.00053198,-0.00030435,0.00001710,-0.
 00003512,-0.00008715,-0.00058378,0.00124948,-0.00072507,-0.00023752,0.
 00003741,0.00018659,0.00041775,0.00310539,0.00048087,-0.00088022,-0.00
 061420,0.00046074,0.04944821,0.32116554,0.00001611,-0.00029620,-0.0000
 3073,0.00045366,-0.00022966,-0.00101686,0.00001915,-0.00000866,-0.0003
 9304,0.00190589,-0.00143740,-0.00125500,-0.00026847,-0.00040421,-0.000
 13275,-0.00012898,0.00002250,-0.00001605,-0.00017715,0.00008843,-0.000
 09690,-0.00010729,-0.00004479,0.00008920,-0.00481105,-0.02659204,-0.06
 990565,0.00054036,0.00008810,0.00079898,0.00004398,0.00001279,-0.00011
 384,-0.00006196,0.00004417,0.00003178,-0.01492092,-0.03311372,0.003326
 40,0.00912089,0.01721433,0.01063140,0.00006434,-0.00005223,0.00025363,
 0.00007928,-0.00008341,-0.00008605,-0.00005560,0.00004557,0.00024138,0
 .00001709,-0.00001619,-0.00002122,-0.00017508,0.00012193,0.00029008,0.
 00005601,-0.00004460,-0.00001791,-0.00104024,0.00014497,0.00051364,0.0
 0021650,0.00025528,0.00017850,0.00349377,0.00298724,0.00337778,-0.0015
 9770,0.00151894,-0.00136860,0.00077841,0.04871087,0.05776638,-0.000157
 47,-0.00007487,0.00002441,0.00048126,0.00000074,0.00016587,-0.00008394
 ,0.00002870,0.00003852,-0.00064127,-0.00333782,0.00008988,0.00004453,-
 0.00005850,0.00009975,-0.00000352,0.00002820,-0.00000411,-0.00002965,0
 .00004712,-0.00002939,-0.00002666,-0.00000537,0.00000460,-0.01354351,0
 .00615003,0.00100347,-0.00064930,0.00030398,0.00016918,0.00001696,0.00
 001631,0.00000480,0.00000963,-0.00000763,-0.00000671,0.00080774,0.0012
 6362,-0.00032866,0.00129237,0.00136198,0.00067693,0.00003806,-0.000067
 63,0.00003103,-0.00001611,0.00004021,-0.00000469,0.00012821,-0.0000351
 4,-0.00001299,-0.00001822,0.00001435,0.00000412,0.00017798,-0.00005679
 ,0.00006839,-0.00001371,-0.00000533,-0.00000319,0.00021850,-0.00004776
 ,0.00008681,-0.00000054,-0.00003130,-0.00007823,0.00104562,-0.00065428
 ,-0.00090998,-0.00026736,0.00025419,-0.00043360,-0.54910732,0.01062581
 ,0.00653896,0.56029770,-0.00014679,0.00013809,-0.00004562,0.00052064,-
 0.00052685,0.00000379,-0.00008037,0.00003977,0.00001711,-0.00235482,-0
 .00824049,-0.00153172,-0.00009654,0.00038840,-0.00022669,0.00011677,0.
 00002739,0.00002723,-0.00007827,0.00006086,-0.00006453,-0.00002678,-0.
 00001936,0.00000493,-0.04389530,-0.00215389,0.00014801,-0.00186995,0.0
 0039263,0.00026672,-0.00000985,0.00007159,0.00001690,0.00002740,-0.000
 00201,-0.00000339,0.00002961,0.00043740,-0.00093916,-0.00019387,0.0002
 4837,0.00105313,0.00002786,-0.00011270,0.00006740,0.00000455,0.0000573
 3,-0.00001268,0.00010330,-0.00004938,0.00000498,-0.00000301,0.00002085
 ,0.00000144,0.00007909,-0.00003234,0.00005008,-0.00000839,0.00000788,-
 0.00000548,0.00007842,0.00008930,0.00021716,0.00001345,0.00003819,-0.0
 0005455,0.00148593,0.00066361,-0.00052466,-0.00058411,-0.00013051,0.00
 120953,0.06261385,-0.04210234,-0.00893198,-0.01575281,0.05068819,0.000
 04318,-0.00014681,-0.00001823,-0.00021668,0.00011367,0.00053566,-0.000
 00929,0.00001325,0.00000561,0.00045982,-0.00184195,-0.00172367,0.00002
 972,-0.00014317,0.00000631,-0.00004734,0.00002646,-0.00001727,0.000001
 33,-0.00000630,0.00003524,-0.00000997,-0.00000384,0.00001047,-0.008028
 71,0.00013928,-0.00111399,-0.00029519,0.00001152,0.00028044,-0.0000057
 8,0.00001310,0.00001574,0.00001973,-0.00000448,-0.00000944,-0.00107026
 ,-0.00013770,-0.00008378,0.00089566,-0.00017690,0.00052157,0.00001339,
 0.00000194,-0.00004647,-0.00002239,0.00000296,0.00002069,0.00004898,-0
 .00001403,-0.00003053,-0.00000689,0.00000374,0.00001583,0.00002604,0.0
 0001121,-0.00008619,-0.00001492,0.00000497,0.00000190,0.00036907,0.000
 00363,-0.00027202,-0.00010132,-0.00002374,-0.00000253,0.00173228,0.001
 48833,0.00003187,-0.00122054,-0.00000694,0.00149961,0.01460523,-0.0085
 8022,-0.00304453,-0.00719516,0.00925205,0.00346769\\-0.00002591,0.0000
 2172,-0.00000586,0.00003281,-0.00001897,-0.00000431,-0.00003200,-0.000
 02794,0.00000039,-0.00000805,0.00000365,0.00001709,-0.00000159,0.00001
 249,-0.00000461,-0.00000750,-0.00000253,-0.00000343,-0.00001318,0.0000
 1765,-0.00002851,0.00000515,-0.00000675,0.00001321,0.00000267,0.000028
 70,0.00000883,0.00000259,-0.00001104,-0.00000832,0.00000814,-0.0000041
 7,0.00000779,0.00000225,0.00000768,0.00000297,0.00000471,-0.00000259,-
 0.00001029,0.00000087,-0.00000410,-0.00000091,-0.00000951,-0.00000067,
 0.00002686,0.00000865,-0.00000326,-0.00000860,0.00004146,-0.00000794,0
 .00000084,-0.00000445,0.00001287,-0.00000753,0.00000328,0.00000200,0.0
 0001167,-0.00001491,0.00000177,-0.00001014,0.00001621,-0.00002288,0.00
 003838,-0.00000673,0.00002114,-0.00000892,-0.00003329,-0.00000895,-0.0
 0002181,0.00002277,0.00000377,0.00000258,-0.00002021,-0.00000657,-0.00
 000686,0.00002578,-0.00000509,-0.00000052\\\@
 The archive entry for this job was punched.


 Happiness is a conscious choice, not an automatic response.
 -- Mildred Barthel
 Job cpu time:       0 days 10 hours 50 minutes  8.4 seconds.
 Elapsed time:       0 days  0 hours 41 minutes  5.3 seconds.
 File lengths (MBytes):  RWF=    704 Int=      0 D2E=      0 Chk=     27 Scr=      1
 Normal termination of Gaussian 16 at Wed Oct 11 15:40:34 2023.
