 Entering Gaussian System, Link 0=/opt/software/gaussian/g16.c01/g16
 Initial command:
 /opt/software/gaussian/g16.c01/l1.exe "/scratch/arhender/13209966/Gau-119598.inp" -scrdir="/scratch/arhender/13209966/"
 Entering Link 1 = /opt/software/gaussian/g16.c01/l1.exe PID=    119599.
  
 Copyright (c) 1988-2019, Gaussian, Inc.  All Rights Reserved.
  
 This is part of the Gaussian(R) 16 program.  It is based on
 the Gaussian(R) 09 system (copyright 2009, Gaussian, Inc.),
 the Gaussian(R) 03 system (copyright 2003, Gaussian, Inc.),
 the Gaussian(R) 98 system (copyright 1998, Gaussian, Inc.),
 the Gaussian(R) 94 system (copyright 1995, Gaussian, Inc.),
 the Gaussian 92(TM) system (copyright 1992, Gaussian, Inc.),
 the Gaussian 90(TM) system (copyright 1990, Gaussian, Inc.),
 the Gaussian 88(TM) system (copyright 1988, Gaussian, Inc.),
 the Gaussian 86(TM) system (copyright 1986, Carnegie Mellon
 University), and the Gaussian 82(TM) system (copyright 1983,
 Carnegie Mellon University). Gaussian is a federally registered
 trademark of Gaussian, Inc.
  
 This software contains proprietary and confidential information,
 including trade secrets, belonging to Gaussian, Inc.
  
 This software is provided under written license and may be
 used, copied, transmitted, or stored only in accord with that
 written license.
  
 The following legend is applicable only to US Government
 contracts under FAR:
  
                    RESTRICTED RIGHTS LEGEND
  
 Use, reproduction and disclosure by the US Government is
 subject to restrictions as set forth in subparagraphs (a)
 and (c) of the Commercial Computer Software - Restricted
 Rights clause in FAR 52.227-19.
  
 Gaussian, Inc.
 340 Quinnipiac St., Bldg. 40, Wallingford CT 06492
  
  
 ---------------------------------------------------------------
 Warning -- This program may not be used in any manner that
 competes with the business of Gaussian, Inc. or will provide
 assistance to any competitor of Gaussian, Inc.  The licensee
 of this program is prohibited from giving any competitor of
 Gaussian, Inc. access to this program.  By using this program,
 the user acknowledges that Gaussian, Inc. is engaged in the
 business of creating and licensing software in the field of
 computational chemistry and represents and warrants to the
 licensee that it is not a competitor of Gaussian, Inc. and that
 it will not use this program in any manner prohibited above.
 ---------------------------------------------------------------
  

 Cite this work as:
 Gaussian 16, Revision C.01,
 M. J. Frisch, G. W. Trucks, H. B. Schlegel, G. E. Scuseria, 
 M. A. Robb, J. R. Cheeseman, G. Scalmani, V. Barone, 
 G. A. Petersson, H. Nakatsuji, X. Li, M. Caricato, A. V. Marenich, 
 J. Bloino, B. G. Janesko, R. Gomperts, B. Mennucci, H. P. Hratchian, 
 J. V. Ortiz, A. F. Izmaylov, J. L. Sonnenberg, D. Williams-Young, 
 F. Ding, F. Lipparini, F. Egidi, J. Goings, B. Peng, A. Petrone, 
 T. Henderson, D. Ranasinghe, V. G. Zakrzewski, J. Gao, N. Rega, 
 G. Zheng, W. Liang, M. Hada, M. Ehara, K. Toyota, R. Fukuda, 
 J. Hasegawa, M. Ishida, T. Nakajima, Y. Honda, O. Kitao, H. Nakai, 
 T. Vreven, K. Throssell, J. A. Montgomery, Jr., J. E. Peralta, 
 F. Ogliaro, M. J. Bearpark, J. J. Heyd, E. N. Brothers, K. N. Kudin, 
 V. N. Staroverov, T. A. Keith, R. Kobayashi, J. Normand, 
 K. Raghavachari, A. P. Rendell, J. C. Burant, S. S. Iyengar, 
 J. Tomasi, M. Cossi, J. M. Millam, M. Klene, C. Adamo, R. Cammi, 
 J. W. Ochterski, R. L. Martin, K. Morokuma, O. Farkas, 
 J. B. Foresman, and D. J. Fox, Gaussian, Inc., Wallingford CT, 2019.
 
 ******************************************
 Gaussian 16:  ES64L-G16RevC.01  3-Jul-2019
                27-Sep-2023 
 ******************************************
 %chk=MannitolConformerOpt_25.chk
 %mem=8GB
 %nprocs=16
 Will use up to   16 processors via shared memory.
 ---------------------------------------------
 # opt freq wb97xd/def2tzvpp geom=connectivity
 ---------------------------------------------
 1/18=20,19=15,26=3,38=1,57=2/1,3;
 2/9=110,12=2,17=6,18=5,40=1/2;
 3/5=44,7=202,11=2,25=1,30=1,71=1,74=-58/1,2,3;
 4//1;
 5/5=2,38=5/2;
 6/7=2,8=2,9=2,10=2,28=1/1;
 7//1,2,3,16;
 1/18=20,19=15,26=3/3(2);
 2/9=110/2;
 99//99;
 2/9=110/2;
 3/5=44,7=202,11=2,25=1,30=1,71=1,74=-58/1,2,3;
 4/5=5,16=3,69=1/1;
 5/5=2,38=5/2;
 7//1,2,3,16;
 1/18=20,19=15,26=3/3(-5);
 2/9=110/2;
 6/7=2,8=2,9=2,10=2,19=2,28=1/1;
 99/9=1/99;
 --------------------------------
 Mannitol Conformer Optimziations
 --------------------------------
 Symbolic Z-matrix:
 Charge =  0 Multiplicity = 1
 C                     0.        0.        0. 
 C                     1.5408    0.        0. 
 C                    -0.6113    0.7255   -1.2243 
 C                     2.2044   -0.7139    1.1908 
 H                     1.905     1.0338    0. 
 H                    -0.3653    0.4518    0.9285 
 C                    -0.1867    2.1881   -1.3662 
 H                    -1.7026    0.6831   -1.1234 
 C                     1.8491   -2.1911    1.3825 
 H                     2.0039   -0.1664    2.1188 
 H                    -0.7227    2.6642   -2.1953 
 H                     0.8772    2.2702   -1.6107 
 H                     1.9962   -2.7622    0.4609 
 H                     0.8291   -2.3211    1.7508 
 O                    -0.4363    2.9173   -0.1723 
 H                    -1.3908    3.1104   -0.146 
 O                    -0.2958    0.0045   -2.4262 
 H                     0.6691   -0.1877   -2.3898 
 O                    -0.487    -1.354    -0.0379 
 H                    -0.4281   -1.6219   -0.979 
 O                     2.0277   -0.5786   -1.2312 
 H                     2.991    -0.6907   -1.069 
 O                     3.6334   -0.6439    0.9682 
 H                     4.0048   -1.2611    1.6353 
 O                     2.7435   -2.7323    2.3674 
 H                     2.4705   -3.658     2.5022 
 

 GradGradGradGradGradGradGradGradGradGradGradGradGradGradGradGradGradGrad
 Berny optimization.
 Initialization pass.
                           ----------------------------
                           !    Initial Parameters    !
                           ! (Angstroms and Degrees)  !
 --------------------------                            --------------------------
 ! Name  Definition              Value          Derivative Info.                !
 --------------------------------------------------------------------------------
 ! R1    R(1,2)                  1.5408         estimate D2E/DX2                !
 ! R2    R(1,3)                  1.5489         estimate D2E/DX2                !
 ! R3    R(1,6)                  1.0953         estimate D2E/DX2                !
 ! R4    R(1,19)                 1.4394         estimate D2E/DX2                !
 ! R5    R(2,4)                  1.5388         estimate D2E/DX2                !
 ! R6    R(2,5)                  1.0961         estimate D2E/DX2                !
 ! R7    R(2,21)                 1.4449         estimate D2E/DX2                !
 ! R8    R(3,7)                  1.5296         estimate D2E/DX2                !
 ! R9    R(3,8)                  1.0968         estimate D2E/DX2                !
 ! R10   R(3,17)                 1.4366         estimate D2E/DX2                !
 ! R11   R(4,9)                  1.5314         estimate D2E/DX2                !
 ! R12   R(4,10)                 1.096          estimate D2E/DX2                !
 ! R13   R(4,23)                 1.4479         estimate D2E/DX2                !
 ! R14   R(7,11)                 1.0961         estimate D2E/DX2                !
 ! R15   R(7,12)                 1.0947         estimate D2E/DX2                !
 ! R16   R(7,15)                 1.4211         estimate D2E/DX2                !
 ! R17   R(9,13)                 1.0941         estimate D2E/DX2                !
 ! R18   R(9,14)                 1.0922         estimate D2E/DX2                !
 ! R19   R(9,25)                 1.4363         estimate D2E/DX2                !
 ! R20   R(15,16)                0.9742         estimate D2E/DX2                !
 ! R21   R(17,18)                0.9845         estimate D2E/DX2                !
 ! R22   R(19,20)                0.9803         estimate D2E/DX2                !
 ! R23   R(21,22)                0.9833         estimate D2E/DX2                !
 ! R24   R(23,24)                0.9818         estimate D2E/DX2                !
 ! R25   R(25,26)                0.9745         estimate D2E/DX2                !
 ! A1    A(2,1,3)              113.246          estimate D2E/DX2                !
 ! A2    A(2,1,6)              109.4823         estimate D2E/DX2                !
 ! A3    A(2,1,19)             109.7752         estimate D2E/DX2                !
 ! A4    A(3,1,6)              110.196          estimate D2E/DX2                !
 ! A5    A(3,1,19)             106.6348         estimate D2E/DX2                !
 ! A6    A(6,1,19)             107.3071         estimate D2E/DX2                !
 ! A7    A(1,2,4)              115.5459         estimate D2E/DX2                !
 ! A8    A(1,2,5)              109.407          estimate D2E/DX2                !
 ! A9    A(1,2,21)             109.693          estimate D2E/DX2                !
 ! A10   A(4,2,5)              107.114          estimate D2E/DX2                !
 ! A11   A(4,2,21)             109.1652         estimate D2E/DX2                !
 ! A12   A(5,2,21)             105.4099         estimate D2E/DX2                !
 ! A13   A(1,3,7)              114.3098         estimate D2E/DX2                !
 ! A14   A(1,3,8)              107.5706         estimate D2E/DX2                !
 ! A15   A(1,3,17)             109.8491         estimate D2E/DX2                !
 ! A16   A(7,3,8)              108.7662         estimate D2E/DX2                !
 ! A17   A(7,3,17)             109.9569         estimate D2E/DX2                !
 ! A18   A(8,3,17)             106.0262         estimate D2E/DX2                !
 ! A19   A(2,4,9)              116.3803         estimate D2E/DX2                !
 ! A20   A(2,4,10)             110.1566         estimate D2E/DX2                !
 ! A21   A(2,4,23)             106.5112         estimate D2E/DX2                !
 ! A22   A(9,4,10)             109.478          estimate D2E/DX2                !
 ! A23   A(9,4,23)             107.1492         estimate D2E/DX2                !
 ! A24   A(10,4,23)            106.6531         estimate D2E/DX2                !
 ! A25   A(3,7,11)             110.4735         estimate D2E/DX2                !
 ! A26   A(3,7,12)             111.236          estimate D2E/DX2                !
 ! A27   A(3,7,15)             111.3441         estimate D2E/DX2                !
 ! A28   A(11,7,12)            105.8865         estimate D2E/DX2                !
 ! A29   A(11,7,15)            109.0701         estimate D2E/DX2                !
 ! A30   A(12,7,15)            108.6543         estimate D2E/DX2                !
 ! A31   A(4,9,13)             111.5223         estimate D2E/DX2                !
 ! A32   A(4,9,14)             111.9438         estimate D2E/DX2                !
 ! A33   A(4,9,25)             107.7485         estimate D2E/DX2                !
 ! A34   A(13,9,14)            110.3318         estimate D2E/DX2                !
 ! A35   A(13,9,25)            107.2893         estimate D2E/DX2                !
 ! A36   A(14,9,25)            107.7862         estimate D2E/DX2                !
 ! A37   A(7,15,16)            107.2466         estimate D2E/DX2                !
 ! A38   A(3,17,18)            106.396          estimate D2E/DX2                !
 ! A39   A(1,19,20)            105.1903         estimate D2E/DX2                !
 ! A40   A(2,21,22)            103.605          estimate D2E/DX2                !
 ! A41   A(4,23,24)            103.7976         estimate D2E/DX2                !
 ! A42   A(9,25,26)            106.1616         estimate D2E/DX2                !
 ! D1    D(3,1,2,4)           -179.7071         estimate D2E/DX2                !
 ! D2    D(3,1,2,5)             59.3497         estimate D2E/DX2                !
 ! D3    D(3,1,2,21)           -55.8214         estimate D2E/DX2                !
 ! D4    D(6,1,2,4)             56.8904         estimate D2E/DX2                !
 ! D5    D(6,1,2,5)            -64.0528         estimate D2E/DX2                !
 ! D6    D(6,1,2,21)          -179.2239         estimate D2E/DX2                !
 ! D7    D(19,1,2,4)           -60.6601         estimate D2E/DX2                !
 ! D8    D(19,1,2,5)           178.3966         estimate D2E/DX2                !
 ! D9    D(19,1,2,21)           63.2256         estimate D2E/DX2                !
 ! D10   D(2,1,3,7)            -58.2947         estimate D2E/DX2                !
 ! D11   D(2,1,3,8)           -179.1801         estimate D2E/DX2                !
 ! D12   D(2,1,3,17)            65.8472         estimate D2E/DX2                !
 ! D13   D(6,1,3,7)             64.7145         estimate D2E/DX2                !
 ! D14   D(6,1,3,8)            -56.171          estimate D2E/DX2                !
 ! D15   D(6,1,3,17)          -171.1437         estimate D2E/DX2                !
 ! D16   D(19,1,3,7)          -179.1349         estimate D2E/DX2                !
 ! D17   D(19,1,3,8)            59.9797         estimate D2E/DX2                !
 ! D18   D(19,1,3,17)          -54.9931         estimate D2E/DX2                !
 ! D19   D(2,1,19,20)          -80.5735         estimate D2E/DX2                !
 ! D20   D(3,1,19,20)           42.4615         estimate D2E/DX2                !
 ! D21   D(6,1,19,20)          160.5281         estimate D2E/DX2                !
 ! D22   D(1,2,4,9)             58.3923         estimate D2E/DX2                !
 ! D23   D(1,2,4,10)           -66.956          estimate D2E/DX2                !
 ! D24   D(1,2,4,23)           177.7533         estimate D2E/DX2                !
 ! D25   D(5,2,4,9)           -179.4326         estimate D2E/DX2                !
 ! D26   D(5,2,4,10)            55.2192         estimate D2E/DX2                !
 ! D27   D(5,2,4,23)           -60.0716         estimate D2E/DX2                !
 ! D28   D(21,2,4,9)           -65.7692         estimate D2E/DX2                !
 ! D29   D(21,2,4,10)          168.8826         estimate D2E/DX2                !
 ! D30   D(21,2,4,23)           53.5919         estimate D2E/DX2                !
 ! D31   D(1,2,21,22)         -169.7265         estimate D2E/DX2                !
 ! D32   D(4,2,21,22)          -42.188          estimate D2E/DX2                !
 ! D33   D(5,2,21,22)           72.5806         estimate D2E/DX2                !
 ! D34   D(1,3,7,11)          -174.9093         estimate D2E/DX2                !
 ! D35   D(1,3,7,12)            67.7964         estimate D2E/DX2                !
 ! D36   D(1,3,7,15)           -53.5547         estimate D2E/DX2                !
 ! D37   D(8,3,7,11)           -54.6886         estimate D2E/DX2                !
 ! D38   D(8,3,7,12)          -171.9829         estimate D2E/DX2                !
 ! D39   D(8,3,7,15)            66.666          estimate D2E/DX2                !
 ! D40   D(17,3,7,11)           61.0065         estimate D2E/DX2                !
 ! D41   D(17,3,7,12)          -56.2878         estimate D2E/DX2                !
 ! D42   D(17,3,7,15)         -177.6389         estimate D2E/DX2                !
 ! D43   D(1,3,17,18)          -48.0394         estimate D2E/DX2                !
 ! D44   D(7,3,17,18)           78.5956         estimate D2E/DX2                !
 ! D45   D(8,3,17,18)         -163.9913         estimate D2E/DX2                !
 ! D46   D(2,4,9,13)            51.8611         estimate D2E/DX2                !
 ! D47   D(2,4,9,14)           -72.3023         estimate D2E/DX2                !
 ! D48   D(2,4,9,25)           169.3555         estimate D2E/DX2                !
 ! D49   D(10,4,9,13)          177.5519         estimate D2E/DX2                !
 ! D50   D(10,4,9,14)           53.3885         estimate D2E/DX2                !
 ! D51   D(10,4,9,25)          -64.9537         estimate D2E/DX2                !
 ! D52   D(23,4,9,13)          -67.1545         estimate D2E/DX2                !
 ! D53   D(23,4,9,14)          168.6822         estimate D2E/DX2                !
 ! D54   D(23,4,9,25)           50.3399         estimate D2E/DX2                !
 ! D55   D(2,4,23,24)         -168.6218         estimate D2E/DX2                !
 ! D56   D(9,4,23,24)          -43.4191         estimate D2E/DX2                !
 ! D57   D(10,4,23,24)          73.745          estimate D2E/DX2                !
 ! D58   D(3,7,15,16)          -77.4782         estimate D2E/DX2                !
 ! D59   D(11,7,15,16)          44.6913         estimate D2E/DX2                !
 ! D60   D(12,7,15,16)         159.6769         estimate D2E/DX2                !
 ! D61   D(4,9,25,26)          177.3623         estimate D2E/DX2                !
 ! D62   D(13,9,25,26)         -62.4356         estimate D2E/DX2                !
 ! D63   D(14,9,25,26)          56.3817         estimate D2E/DX2                !
 --------------------------------------------------------------------------------
 Trust Radius=3.00D-01 FncErr=1.00D-07 GrdErr=1.00D-06 EigMax=2.50D+02 EigMin=1.00D-04
 Number of steps in this run=    140 maximum allowed number of steps=    156.
 GradGradGradGradGradGradGradGradGradGradGradGradGradGradGradGradGradGrad

                          Input orientation:                          
 ---------------------------------------------------------------------
 Center     Atomic      Atomic             Coordinates (Angstroms)
 Number     Number       Type             X           Y           Z
 ---------------------------------------------------------------------
      1          6           0        0.000000    0.000000    0.000000
      2          6           0        1.540800    0.000000    0.000000
      3          6           0       -0.611300    0.725500   -1.224300
      4          6           0        2.204400   -0.713900    1.190800
      5          1           0        1.905000    1.033800    0.000000
      6          1           0       -0.365300    0.451800    0.928500
      7          6           0       -0.186700    2.188100   -1.366200
      8          1           0       -1.702600    0.683100   -1.123400
      9          6           0        1.849100   -2.191100    1.382500
     10          1           0        2.003900   -0.166400    2.118800
     11          1           0       -0.722700    2.664200   -2.195300
     12          1           0        0.877200    2.270200   -1.610700
     13          1           0        1.996200   -2.762200    0.460900
     14          1           0        0.829100   -2.321100    1.750800
     15          8           0       -0.436300    2.917300   -0.172300
     16          1           0       -1.390800    3.110400   -0.146000
     17          8           0       -0.295800    0.004500   -2.426200
     18          1           0        0.669100   -0.187700   -2.389800
     19          8           0       -0.487000   -1.354000   -0.037900
     20          1           0       -0.428100   -1.621900   -0.979000
     21          8           0        2.027700   -0.578600   -1.231200
     22          1           0        2.991000   -0.690700   -1.069000
     23          8           0        3.633400   -0.643900    0.968200
     24          1           0        4.004800   -1.261100    1.635300
     25          8           0        2.743500   -2.732300    2.367400
     26          1           0        2.470500   -3.658000    2.502200
 ---------------------------------------------------------------------
                    Distance matrix (angstroms):
                    1          2          3          4          5
     1  C    0.000000
     2  C    1.540800   0.000000
     3  C    1.548854   2.580077   0.000000
     4  C    2.605194   1.538838   3.979038   0.000000
     5  H    2.167433   1.096077   2.815266   2.135907   0.000000
     6  H    1.095299   2.167822   2.184027   2.833905   2.520932
     7  C    2.586337   3.104600   1.529581   4.547220   2.752112
     8  H    2.151162   3.499757   1.096774   4.750977   3.794706
     9  C    3.182985   2.609075   4.621204   1.531374   3.509190
    10  H    2.921064   2.175193   4.337174   1.095966   2.437124
    11  H    3.526982   4.128043   2.171131   5.607597   3.792407
    12  H    2.918500   2.861560   2.179687   4.302873   2.275832
    13  H    3.439039   2.837176   4.669369   2.184407   3.824966
    14  H    3.023278   2.993213   4.495302   2.188182   3.934236
    15  O    2.954773   3.528350   2.437482   4.692222   3.009808
    16  H    3.410312   4.276702   2.730952   5.416435   3.898189
    17  O    2.444169   3.042954   1.436644   4.455310   3.433573
    18  H    2.488789   2.550732   1.957485   3.931250   2.954768
    19  O    1.439417   2.438591   2.397356   3.027056   3.380043
    20  H    1.942233   2.732319   2.367281   3.530234   3.668043
    21  O    2.441761   1.444889   2.943645   2.432203   2.032423
    22  H    3.250524   1.929484   3.873797   2.392901   2.301316
    23  O    3.814920   2.393949   4.969888   1.447927   2.596046
    24  H    4.505885   3.214946   5.782065   1.933507   3.514247
    25  O    4.538374   3.810057   6.009274   2.397698   4.526718
    26  H    5.073987   4.528389   6.526819   3.233930   5.347315
                    6          7          8          9         10
     6  H    0.000000
     7  C    2.883103   0.000000
     8  H    2.460115   2.149867   0.000000
     9  C    3.477730   5.556728   5.211059   0.000000
    10  H    2.722516   4.742112   4.997165   2.159979   0.000000
    11  H    3.844551   1.096072   2.456406   6.556580   5.835932
    12  H    3.361238   1.094716   3.067852   5.459582   4.595176
    13  H    4.015611   5.710413   5.297284   1.094139   3.080076
    14  H    3.129176   5.574982   4.867828   1.092220   2.481594
    15  O    2.701017   1.421067   2.738568   5.808288   4.551145
    16  H    3.045382   1.946634   2.635207   6.398372   5.233615
    17  O    3.385103   2.429735   2.033930   4.891569   5.096553
    18  H    3.534128   2.724808   2.826132   4.431282   4.702087
    19  O    2.051744   3.794869   2.608787   2.859307   3.502332
    20  H    2.818285   3.837225   2.637845   3.329611   4.198746
    21  O    3.384151   3.546325   3.939371   3.076277   3.375348
    22  H    4.069406   4.298092   4.890825   3.092731   3.378065
    23  O    4.146292   5.297434   5.882909   2.397749   2.051136
    24  H    4.746722   6.202794   6.630592   2.361324   2.331468
    25  O    4.676918   6.836386   6.604426   1.436272   2.681912
    26  H    5.235337   7.496807   7.028861   1.947219   3.543442
                   11         12         13         14         15
    11  H    0.000000
    12  H    1.748334   0.000000
    13  H    6.625227   5.555964   0.000000
    14  H    6.544693   5.690521   1.794585   0.000000
    15  O    2.058789   2.052563   6.210855   5.721921   0.000000
    16  H    2.201155   2.827562   6.806433   6.166603   0.974192
    17  O    2.703620   2.678501   4.609039   4.911328   3.685676
    18  H    3.179351   2.586808   4.063956   4.660640   3.972435
    19  O    4.566822   4.179661   2.897949   2.422158   4.273715
    20  H    4.465068   4.153468   3.041517   3.085651   4.610333
    21  O    4.360039   3.095696   2.762662   3.655855   4.406119
    22  H    5.129861   3.678113   2.760676   3.909385   5.056493
    23  O    6.318771   4.768579   2.724880   3.359994   5.526784
    24  H    7.240907   5.726122   2.768933   3.349927   6.360017
    25  O    7.871149   6.658330   2.047949   2.052854   6.962699
    26  H    8.499014   7.389053   2.279106   2.246352   7.670528
                   16         17         18         19         20
    16  H    0.000000
    17  O    4.005615   0.000000
    18  H    4.489464   0.984529   0.000000
    19  O    4.556249   2.754280   2.868494   0.000000
    20  H    4.900545   2.181070   2.291535   0.980260   0.000000
    21  O    5.145146   2.677066   1.827827   2.889451   2.680118
    22  H    5.873709   3.623306   2.718224   3.687766   3.544782
    23  O    6.370149   5.232684   4.502372   4.300485   4.609106
    24  H    7.169068   6.049189   5.336714   4.794215   5.159006
    25  O    7.585958   6.301271   5.780059   4.256913   4.742407
    26  H    8.230057   6.734645   6.262562   4.528502   4.966522
                   21         22         23         24         25
    21  O    0.000000
    22  H    0.983271   0.000000
    23  O    2.723949   2.136598   0.000000
    24  H    3.548458   2.943872   0.981782   0.000000
    25  O    4.254494   4.004776   2.666664   2.071540   0.000000
    26  H    4.859738   4.672179   3.576352   2.975016   0.974485
                   26
    26  H    0.000000
 Stoichiometry    C6H14O6
 Framework group  C1[X(C6H14O6)]
 Deg. of freedom    72
 Full point group                 C1      NOp   1
 Largest Abelian subgroup         C1      NOp   1
 Largest concise Abelian subgroup C1      NOp   1
                         Standard orientation:                         
 ---------------------------------------------------------------------
 Center     Atomic      Atomic             Coordinates (Angstroms)
 Number     Number       Type             X           Y           Z
 ---------------------------------------------------------------------
      1          6           0       -0.696729    0.386243   -0.666602
      2          6           0        0.183043   -0.476681    0.258291
      3          6           0       -2.137648    0.580757   -0.132875
      4          6           0        1.629249   -0.698260   -0.218589
      5          1           0       -0.273137   -1.466396    0.375543
      6          1           0       -0.720952   -0.058633   -1.667191
      7          6           0       -2.907343   -0.721921    0.091224
      8          1           0       -2.681950    1.190904   -0.863881
      9          6           0        2.473348    0.560288   -0.439188
     10          1           0        1.637390   -1.308004   -1.129240
     11          1           0       -3.943041   -0.510294    0.380910
     12          1           0       -2.477592   -1.299562    0.915875
     13          1           0        2.453149    1.215766    0.436644
     14          1           0        2.162715    1.108939   -1.331058
     15          8           0       -2.908050   -1.529920   -1.077779
     16          1           0       -3.563663   -1.150789   -1.690544
     17          8           0       -2.108670    1.348253    1.081232
     18          1           0       -1.415649    0.941945    1.650383
     19          8           0       -0.124336    1.700594   -0.796088
     20          1           0       -0.399644    2.181449    0.012549
     21          8           0        0.203431    0.096249    1.584578
     22          1           0        0.908384   -0.411512    2.045059
     23          8           0        2.286434   -1.478396    0.809023
     24          1           0        3.235987   -1.437194    0.562959
     25          8           0        3.835145    0.146061   -0.631022
     26          1           0        4.342857    0.958102   -0.811129
 ---------------------------------------------------------------------
 Rotational constants (GHZ):           1.5534554           0.4978919           0.4699519
 Standard basis: def2TZVPP (5D, 7F)
 There are   642 symmetry adapted cartesian basis functions of A   symmetry.
 There are   568 symmetry adapted basis functions of A   symmetry.
   568 basis functions,   850 primitive gaussians,   642 cartesian basis functions
    49 alpha electrons       49 beta electrons
       nuclear repulsion energy       829.1189550384 Hartrees.
 NAtoms=   26 NActive=   26 NUniq=   26 SFac= 1.00D+00 NAtFMM=   60 NAOKFM=F Big=F
 Integral buffers will be    131072 words long.
 Raffenetti 2 integral format.
 Two-electron integral symmetry is turned on.
 Nuclear repulsion after empirical dispersion term =      829.1004364876 Hartrees.
 One-electron integrals computed using PRISM.
   1 Symmetry operations used in ECPInt.
 ECPInt:  NShTT=   23436 NPrTT=   62434 LenC2=   21811 LenP2D=   45309.
 LDataN:  DoStor=T MaxTD1= 6 Len=  172
 NBasis=   568 RedAO= T EigKep=  4.73D-05  NBF=   568
 NBsUse=   568 1.00D-06 EigRej= -1.00D+00 NBFU=   568
 ExpMin= 9.52D-02 ExpMax= 2.70D+04 ExpMxC= 9.22D+02 IAcc=3 IRadAn=         5 AccDes= 0.00D+00
 Harris functional with IExCor= 4639 and IRadAn=       5 diagonalized for initial guess.
 HarFok:  IExCor= 4639 AccDes= 0.00D+00 IRadAn=         5 IDoV= 1 UseB2=F ITyADJ=14
 ICtDFT=  3500011 ScaDFX=  1.000000  1.000000  1.000000  1.000000
 FoFCou: FMM=F IPFlag=           0 FMFlag=      100000 FMFlg1=           0
         NFxFlg=           0 DoJE=T BraDBF=F KetDBF=T FulRan=T
         wScrn=  0.000000 ICntrl=       500 IOpCl=  0 I1Cent=   200000004 NGrid=           0
         NMat0=    1 NMatS0=      1 NMatT0=    0 NMatD0=    1 NMtDS0=    0 NMtDT0=    0
 Petite list used in FoFCou.
 Requested convergence on RMS density matrix=1.00D-08 within 128 cycles.
 Requested convergence on MAX density matrix=1.00D-06.
 Requested convergence on             energy=1.00D-06.
 No special actions if energy rises.
 Integral accuracy reduced to 1.0D-05 until final iterations.
 Initial convergence to 1.0D-05 achieved.  Increase integral accuracy.
 SCF Done:  E(RwB97XD) =  -688.470160249     A.U. after   13 cycles
            NFock= 13  Conv=0.88D-08     -V/T= 2.0050

 **********************************************************************

            Population analysis using the SCF Density.

 **********************************************************************

 Orbital symmetries:
       Occupied  (A) (A) (A) (A) (A) (A) (A) (A) (A) (A) (A) (A)
                 (A) (A) (A) (A) (A) (A) (A) (A) (A) (A) (A) (A)
                 (A) (A) (A) (A) (A) (A) (A) (A) (A) (A) (A) (A)
                 (A) (A) (A) (A) (A) (A) (A) (A) (A) (A) (A) (A)
                 (A)
       Virtual   (A) (A) (A) (A) (A) (A) (A) (A) (A) (A) (A) (A)
                 (A) (A) (A) (A) (A) (A) (A) (A) (A) (A) (A) (A)
                 (A) (A) (A) (A) (A) (A) (A) (A) (A) (A) (A) (A)
                 (A) (A) (A) (A) (A) (A) (A) (A) (A) (A) (A) (A)
                 (A) (A) (A) (A) (A) (A) (A) (A) (A) (A) (A) (A)
                 (A) (A) (A) (A) (A) (A) (A) (A) (A) (A) (A) (A)
                 (A) (A) (A) (A) (A) (A) (A) (A) (A) (A) (A) (A)
                 (A) (A) (A) (A) (A) (A) (A) (A) (A) (A) (A) (A)
                 (A) (A) (A) (A) (A) (A) (A) (A) (A) (A) (A) (A)
                 (A) (A) (A) (A) (A) (A) (A) (A) (A) (A) (A) (A)
                 (A) (A) (A) (A) (A) (A) (A) (A) (A) (A) (A) (A)
                 (A) (A) (A) (A) (A) (A) (A) (A) (A) (A) (A) (A)
                 (A) (A) (A) (A) (A) (A) (A) (A) (A) (A) (A) (A)
                 (A) (A) (A) (A) (A) (A) (A) (A) (A) (A) (A) (A)
                 (A) (A) (A) (A) (A) (A) (A) (A) (A) (A) (A) (A)
                 (A) (A) (A) (A) (A) (A) (A) (A) (A) (A) (A) (A)
                 (A) (A) (A) (A) (A) (A) (A) (A) (A) (A) (A) (A)
                 (A) (A) (A) (A) (A) (A) (A) (A) (A) (A) (A) (A)
                 (A) (A) (A) (A) (A) (A) (A) (A) (A) (A) (A) (A)
                 (A) (A) (A) (A) (A) (A) (A) (A) (A) (A) (A) (A)
                 (A) (A) (A) (A) (A) (A) (A) (A) (A) (A) (A) (A)
                 (A) (A) (A) (A) (A) (A) (A) (A) (A) (A) (A) (A)
                 (A) (A) (A) (A) (A) (A) (A) (A) (A) (A) (A) (A)
                 (A) (A) (A) (A) (A) (A) (A) (A) (A) (A) (A) (A)
                 (A) (A) (A) (A) (A) (A) (A) (A) (A) (A) (A) (A)
                 (A) (A) (A) (A) (A) (A) (A) (A) (A) (A) (A) (A)
                 (A) (A) (A) (A) (A) (A) (A) (A) (A) (A) (A) (A)
                 (A) (A) (A) (A) (A) (A) (A) (A) (A) (A) (A) (A)
                 (A) (A) (A) (A) (A) (A) (A) (A) (A) (A) (A) (A)
                 (A) (A) (A) (A) (A) (A) (A) (A) (A) (A) (A) (A)
                 (A) (A) (A) (A) (A) (A) (A) (A) (A) (A) (A) (A)
                 (A) (A) (A) (A) (A) (A) (A) (A) (A) (A) (A) (A)
                 (A) (A) (A) (A) (A) (A) (A) (A) (A) (A) (A) (A)
                 (A) (A) (A) (A) (A) (A) (A) (A) (A) (A) (A) (A)
                 (A) (A) (A) (A) (A) (A) (A) (A) (A) (A) (A) (A)
                 (A) (A) (A) (A) (A) (A) (A) (A) (A) (A) (A) (A)
                 (A) (A) (A) (A) (A) (A) (A) (A) (A) (A) (A) (A)
                 (A) (A) (A) (A) (A) (A) (A) (A) (A) (A) (A) (A)
                 (A) (A) (A) (A) (A) (A) (A) (A) (A) (A) (A) (A)
                 (A) (A) (A) (A) (A) (A) (A) (A) (A) (A) (A) (A)
                 (A) (A) (A) (A) (A) (A) (A) (A) (A) (A) (A) (A)
                 (A) (A) (A) (A) (A) (A) (A) (A) (A) (A) (A) (A)
                 (A) (A) (A) (A) (A) (A) (A) (A) (A) (A) (A) (A)
                 (A) (A) (A)
 The electronic state is 1-A.
 Alpha  occ. eigenvalues --  -19.26908 -19.26345 -19.26111 -19.25864 -19.24866
 Alpha  occ. eigenvalues --  -19.24727 -10.35156 -10.34936 -10.34794 -10.34222
 Alpha  occ. eigenvalues --  -10.33487 -10.33331  -1.15736  -1.14220  -1.13345
 Alpha  occ. eigenvalues --   -1.12431  -1.10980  -1.10403  -0.88444  -0.84957
 Alpha  occ. eigenvalues --   -0.80232  -0.75454  -0.71558  -0.67763  -0.63879
 Alpha  occ. eigenvalues --   -0.61965  -0.60697  -0.59804  -0.59365  -0.56992
 Alpha  occ. eigenvalues --   -0.56781  -0.55043  -0.53424  -0.52570  -0.51341
 Alpha  occ. eigenvalues --   -0.49797  -0.48249  -0.47218  -0.45532  -0.44478
 Alpha  occ. eigenvalues --   -0.43962  -0.43175  -0.40609  -0.39735  -0.38227
 Alpha  occ. eigenvalues --   -0.37558  -0.36712  -0.36507  -0.34919
 Alpha virt. eigenvalues --    0.09171   0.09353   0.11040   0.13367   0.13659
 Alpha virt. eigenvalues --    0.14756   0.15859   0.17606   0.18035   0.19007
 Alpha virt. eigenvalues --    0.19886   0.20567   0.20860   0.21191   0.22279
 Alpha virt. eigenvalues --    0.23034   0.23723   0.24902   0.25664   0.26853
 Alpha virt. eigenvalues --    0.27452   0.29262   0.29787   0.30945   0.32291
 Alpha virt. eigenvalues --    0.34214   0.34806   0.37343   0.37930   0.38452
 Alpha virt. eigenvalues --    0.38795   0.39363   0.40530   0.40865   0.41674
 Alpha virt. eigenvalues --    0.42930   0.43160   0.43745   0.44306   0.44733
 Alpha virt. eigenvalues --    0.45468   0.45608   0.46772   0.47728   0.48649
 Alpha virt. eigenvalues --    0.49022   0.49268   0.49843   0.50928   0.51464
 Alpha virt. eigenvalues --    0.52413   0.52579   0.52839   0.54034   0.54241
 Alpha virt. eigenvalues --    0.55769   0.55902   0.57699   0.58430   0.58457
 Alpha virt. eigenvalues --    0.59611   0.61014   0.61971   0.63404   0.65061
 Alpha virt. eigenvalues --    0.65207   0.65568   0.66968   0.67486   0.68723
 Alpha virt. eigenvalues --    0.70355   0.70521   0.72002   0.73281   0.73695
 Alpha virt. eigenvalues --    0.74694   0.76616   0.77352   0.78535   0.79692
 Alpha virt. eigenvalues --    0.82270   0.83892   0.84464   0.85690   0.86280
 Alpha virt. eigenvalues --    0.86931   0.88093   0.88800   0.90777   0.91496
 Alpha virt. eigenvalues --    0.92092   0.93817   0.94050   0.94762   0.96130
 Alpha virt. eigenvalues --    0.97413   0.98456   0.99136   0.99733   1.00577
 Alpha virt. eigenvalues --    1.03288   1.04634   1.05412   1.06038   1.07288
 Alpha virt. eigenvalues --    1.08263   1.08639   1.09744   1.10680   1.13513
 Alpha virt. eigenvalues --    1.14281   1.14953   1.16401   1.17796   1.18079
 Alpha virt. eigenvalues --    1.19820   1.21911   1.22350   1.23784   1.25223
 Alpha virt. eigenvalues --    1.27352   1.27887   1.29314   1.30102   1.30957
 Alpha virt. eigenvalues --    1.31538   1.32208   1.34231   1.35123   1.35987
 Alpha virt. eigenvalues --    1.36900   1.37245   1.38153   1.39426   1.41168
 Alpha virt. eigenvalues --    1.42406   1.42994   1.44625   1.45288   1.46372
 Alpha virt. eigenvalues --    1.48078   1.48896   1.50002   1.50094   1.52266
 Alpha virt. eigenvalues --    1.53002   1.53974   1.55112   1.56950   1.58776
 Alpha virt. eigenvalues --    1.59191   1.59825   1.62314   1.63848   1.64430
 Alpha virt. eigenvalues --    1.65089   1.66385   1.69217   1.69639   1.72795
 Alpha virt. eigenvalues --    1.74630   1.76237   1.78346   1.81840   1.84180
 Alpha virt. eigenvalues --    1.86486   1.88322   1.90498   1.91107   1.93646
 Alpha virt. eigenvalues --    1.94272   1.94773   1.96613   1.97973   1.99419
 Alpha virt. eigenvalues --    2.01647   2.02826   2.03967   2.04301   2.05124
 Alpha virt. eigenvalues --    2.06549   2.06923   2.07734   2.09333   2.11132
 Alpha virt. eigenvalues --    2.11603   2.12330   2.14175   2.15710   2.18013
 Alpha virt. eigenvalues --    2.19972   2.20098   2.22064   2.23091   2.24027
 Alpha virt. eigenvalues --    2.26050   2.28117   2.31070   2.31630   2.33428
 Alpha virt. eigenvalues --    2.35466   2.36942   2.37780   2.40657   2.41587
 Alpha virt. eigenvalues --    2.44976   2.45980   2.47752   2.49026   2.51069
 Alpha virt. eigenvalues --    2.53580   2.57724   2.60019   2.62009   2.64049
 Alpha virt. eigenvalues --    2.66970   2.67130   2.68973   2.70812   2.72260
 Alpha virt. eigenvalues --    2.72758   2.74138   2.76473   2.77378   2.78047
 Alpha virt. eigenvalues --    2.78931   2.80077   2.81403   2.82135   2.83680
 Alpha virt. eigenvalues --    2.85485   2.86413   2.87412   2.88960   2.91542
 Alpha virt. eigenvalues --    2.93264   2.94494   2.95122   2.97617   2.97844
 Alpha virt. eigenvalues --    3.00466   3.01198   3.02041   3.03948   3.04321
 Alpha virt. eigenvalues --    3.06182   3.07075   3.07886   3.10152   3.10467
 Alpha virt. eigenvalues --    3.13424   3.14354   3.15810   3.16782   3.17334
 Alpha virt. eigenvalues --    3.18048   3.18803   3.20123   3.20704   3.22294
 Alpha virt. eigenvalues --    3.22696   3.23340   3.25152   3.26485   3.27068
 Alpha virt. eigenvalues --    3.28122   3.29472   3.31086   3.31696   3.32596
 Alpha virt. eigenvalues --    3.33580   3.34409   3.35400   3.36304   3.38319
 Alpha virt. eigenvalues --    3.38961   3.40319   3.40799   3.41235   3.41709
 Alpha virt. eigenvalues --    3.42840   3.45371   3.45467   3.45990   3.47237
 Alpha virt. eigenvalues --    3.48029   3.49837   3.51509   3.52173   3.52791
 Alpha virt. eigenvalues --    3.54378   3.54818   3.57114   3.58873   3.60165
 Alpha virt. eigenvalues --    3.61241   3.62819   3.63670   3.65160   3.66465
 Alpha virt. eigenvalues --    3.66947   3.68145   3.69342   3.70656   3.71151
 Alpha virt. eigenvalues --    3.72036   3.73267   3.75787   3.76959   3.77458
 Alpha virt. eigenvalues --    3.78216   3.79583   3.80805   3.81750   3.83425
 Alpha virt. eigenvalues --    3.84550   3.86761   3.88353   3.88715   3.90229
 Alpha virt. eigenvalues --    3.91263   3.91797   3.93042   3.94243   3.95327
 Alpha virt. eigenvalues --    3.96459   3.98236   3.98728   3.99923   4.01354
 Alpha virt. eigenvalues --    4.02368   4.03141   4.04427   4.06205   4.06592
 Alpha virt. eigenvalues --    4.07311   4.09214   4.10334   4.11249   4.12552
 Alpha virt. eigenvalues --    4.13735   4.14149   4.15107   4.15608   4.17853
 Alpha virt. eigenvalues --    4.18200   4.18933   4.19738   4.21672   4.22205
 Alpha virt. eigenvalues --    4.22816   4.23416   4.26655   4.26953   4.27509
 Alpha virt. eigenvalues --    4.29648   4.31295   4.32458   4.34258   4.35270
 Alpha virt. eigenvalues --    4.35453   4.37323   4.38882   4.40420   4.40816
 Alpha virt. eigenvalues --    4.41182   4.42330   4.44010   4.45680   4.46957
 Alpha virt. eigenvalues --    4.47832   4.49901   4.52073   4.52754   4.54379
 Alpha virt. eigenvalues --    4.55880   4.56180   4.58723   4.60241   4.61638
 Alpha virt. eigenvalues --    4.62297   4.64966   4.67677   4.68294   4.72031
 Alpha virt. eigenvalues --    4.74059   4.75995   4.77292   4.79088   4.81493
 Alpha virt. eigenvalues --    4.83766   4.84468   4.86263   4.87180   4.87939
 Alpha virt. eigenvalues --    4.91285   4.93743   4.95803   4.96335   4.97033
 Alpha virt. eigenvalues --    4.99079   5.00683   5.01808   5.02752   5.03243
 Alpha virt. eigenvalues --    5.05644   5.07093   5.08685   5.08828   5.12177
 Alpha virt. eigenvalues --    5.14261   5.15099   5.16379   5.18483   5.20851
 Alpha virt. eigenvalues --    5.21611   5.23586   5.25349   5.26535   5.30319
 Alpha virt. eigenvalues --    5.31753   5.34050   5.34506   5.41750   5.42818
 Alpha virt. eigenvalues --    5.43001   5.49194   5.55057   5.56213   5.58830
 Alpha virt. eigenvalues --    5.59368   5.60445   5.63289   5.64645   5.64924
 Alpha virt. eigenvalues --    5.69276   5.70126   5.70603   5.72847   5.74306
 Alpha virt. eigenvalues --    5.75856   5.77311   5.80422   5.82776   5.84393
 Alpha virt. eigenvalues --    5.85526   5.86912   5.91372   5.94129   5.96853
 Alpha virt. eigenvalues --    5.98367   6.00064   6.02053   6.10904   6.13751
 Alpha virt. eigenvalues --    6.14853   6.16018   6.18233   6.20664   6.52983
 Alpha virt. eigenvalues --    6.53589   6.55776   6.56608   6.56827   6.57268
 Alpha virt. eigenvalues --    6.70328   6.72759   6.74837   6.76100   6.76598
 Alpha virt. eigenvalues --    6.77322   6.77779   6.79411   6.79682   6.80410
 Alpha virt. eigenvalues --    6.81796   6.82682   6.83570   6.85319   6.87789
 Alpha virt. eigenvalues --    6.88287   6.91351   6.96239   6.97669   6.98178
 Alpha virt. eigenvalues --    7.03732   7.04486   7.06313   7.07155   7.13286
 Alpha virt. eigenvalues --    7.16410   7.20698   7.21322   7.22960   7.27409
 Alpha virt. eigenvalues --    7.40988   7.42264   7.43535   7.44223   7.48869
 Alpha virt. eigenvalues --    7.49601   7.50912   7.54207   7.57723   7.58942
 Alpha virt. eigenvalues --    7.65656   7.75687  23.10438  23.15897  23.19129
 Alpha virt. eigenvalues --   23.22500  23.43798  23.46172  44.10202  44.14207
 Alpha virt. eigenvalues --   44.24070  44.29079  44.33242  44.41547
          Condensed to atoms (all electrons):
               1          2          3          4          5          6
     1  C    4.987286   0.137507   0.261326   0.034352  -0.009052   0.389034
     2  C    0.137507   5.223514   0.027149   0.137088   0.409511  -0.038499
     3  C    0.261326   0.027149   4.866642  -0.011831  -0.020751  -0.012797
     4  C    0.034352   0.137088  -0.011831   4.939016  -0.008612   0.002305
     5  H   -0.009052   0.409511  -0.020751  -0.008612   0.556840   0.004044
     6  H    0.389034  -0.038499  -0.012797   0.002305   0.004044   0.565854
     7  C   -0.039702   0.019152   0.309726   0.003205   0.002688  -0.010980
     8  H   -0.071221   0.009816   0.435975  -0.000279  -0.000953  -0.002775
     9  C    0.001943  -0.001028   0.001087   0.286290   0.007527  -0.000864
    10  H   -0.009994  -0.023914   0.000218   0.422104  -0.006596   0.001943
    11  H    0.018362  -0.002573  -0.071805  -0.000132   0.000720   0.000764
    12  H   -0.034698   0.015646  -0.012419   0.000551  -0.013150   0.000892
    13  H   -0.009220   0.017057   0.000025  -0.044648   0.000614   0.000257
    14  H    0.002917  -0.018649  -0.000375  -0.010968  -0.000751   0.000451
    15  O   -0.009644  -0.005590  -0.046470  -0.001600   0.003556   0.021761
    16  H   -0.009771   0.001291   0.015325   0.000072  -0.000433   0.000847
    17  O   -0.029047  -0.006936   0.239756   0.002199   0.000782   0.004414
    18  H   -0.009927  -0.003491  -0.034575  -0.000008   0.000309   0.000197
    19  O    0.269486  -0.048710  -0.031230  -0.015871   0.003691  -0.021688
    20  H   -0.051257   0.001350  -0.009597  -0.000651   0.000504   0.006672
    21  O   -0.027463   0.207280  -0.007687  -0.009810  -0.039461   0.002692
    22  H    0.004993  -0.043668   0.000327   0.001216  -0.005208  -0.000229
    23  O    0.004314  -0.070478  -0.000142   0.273568   0.002661   0.000110
    24  H   -0.000895   0.007739   0.000001  -0.039815  -0.000263  -0.000002
    25  O   -0.000165   0.007595  -0.000019  -0.075088  -0.000074  -0.000024
    26  H    0.000063  -0.001815  -0.000008   0.011591   0.000038   0.000003
               7          8          9         10         11         12
     1  C   -0.039702  -0.071221   0.001943  -0.009994   0.018362  -0.034698
     2  C    0.019152   0.009816  -0.001028  -0.023914  -0.002573   0.015646
     3  C    0.309726   0.435975   0.001087   0.000218  -0.071805  -0.012419
     4  C    0.003205  -0.000279   0.286290   0.422104  -0.000132   0.000551
     5  H    0.002688  -0.000953   0.007527  -0.006596   0.000720  -0.013150
     6  H   -0.010980  -0.002775  -0.000864   0.001943   0.000764   0.000892
     7  C    4.766715  -0.030445  -0.000304  -0.000070   0.448477   0.375191
     8  H   -0.030445   0.607975  -0.000120   0.000050  -0.010525   0.006811
     9  C   -0.000304  -0.000120   4.751668  -0.043862   0.000013  -0.000046
    10  H   -0.000070   0.000050  -0.043862   0.608520  -0.000000  -0.000013
    11  H    0.448477  -0.010525   0.000013  -0.000000   0.599330  -0.031121
    12  H    0.375191   0.006811  -0.000046  -0.000013  -0.031121   0.620202
    13  H   -0.000038   0.000011   0.408502   0.009489   0.000000  -0.000006
    14  H    0.000052  -0.000007   0.428827  -0.005602   0.000001  -0.000008
    15  O    0.251543  -0.000198   0.000052  -0.000002  -0.037133  -0.027964
    16  H   -0.045552   0.002944  -0.000001  -0.000005  -0.013895   0.010267
    17  O   -0.030338  -0.031607  -0.000688   0.000014   0.007196   0.003753
    18  H   -0.004337   0.007807   0.000245  -0.000053   0.000309   0.003555
    19  O    0.006754   0.005371   0.011080   0.000173  -0.000273  -0.000041
    20  H    0.001294  -0.003381   0.000442  -0.000068  -0.000134  -0.000109
    21  O   -0.004929  -0.000591  -0.020075   0.003362   0.000123   0.004995
    22  H    0.000158   0.000083  -0.002940   0.002031  -0.000007   0.000130
    23  O   -0.000057   0.000003  -0.035424  -0.037279  -0.000000  -0.000002
    24  H    0.000002  -0.000001  -0.006434  -0.004105   0.000000  -0.000000
    25  O   -0.000001  -0.000000   0.269114   0.005956   0.000000   0.000000
    26  H    0.000000  -0.000000  -0.032169  -0.000154   0.000000  -0.000000
              13         14         15         16         17         18
     1  C   -0.009220   0.002917  -0.009644  -0.009771  -0.029047  -0.009927
     2  C    0.017057  -0.018649  -0.005590   0.001291  -0.006936  -0.003491
     3  C    0.000025  -0.000375  -0.046470   0.015325   0.239756  -0.034575
     4  C   -0.044648  -0.010968  -0.001600   0.000072   0.002199  -0.000008
     5  H    0.000614  -0.000751   0.003556  -0.000433   0.000782   0.000309
     6  H    0.000257   0.000451   0.021761   0.000847   0.004414   0.000197
     7  C   -0.000038   0.000052   0.251543  -0.045552  -0.030338  -0.004337
     8  H    0.000011  -0.000007  -0.000198   0.002944  -0.031607   0.007807
     9  C    0.408502   0.428827   0.000052  -0.000001  -0.000688   0.000245
    10  H    0.009489  -0.005602  -0.000002  -0.000005   0.000014  -0.000053
    11  H    0.000000   0.000001  -0.037133  -0.013895   0.007196   0.000309
    12  H   -0.000006  -0.000008  -0.027964   0.010267   0.003753   0.003555
    13  H    0.597960  -0.030579  -0.000001   0.000000   0.000027   0.000000
    14  H   -0.030579   0.581079   0.000004  -0.000001   0.000006  -0.000013
    15  O   -0.000001   0.000004   7.881098   0.317135   0.004022   0.000271
    16  H    0.000000  -0.000001   0.317135   0.542896  -0.000021   0.000006
    17  O    0.000027   0.000006   0.004022  -0.000021   7.920044   0.332414
    18  H    0.000000  -0.000013   0.000271   0.000006   0.332414   0.456270
    19  O    0.002179   0.002551  -0.000067  -0.000061  -0.015612   0.000864
    20  H    0.000001  -0.000992  -0.000168   0.000005   0.033206  -0.002848
    21  O    0.014701   0.001195   0.000206  -0.000014  -0.022421   0.038440
    22  H    0.000420   0.000199   0.000016  -0.000001   0.000971  -0.001768
    23  O    0.000700   0.004737   0.000002  -0.000000  -0.000006  -0.000028
    24  H   -0.001629   0.001688   0.000000  -0.000000  -0.000000   0.000007
    25  O   -0.049743  -0.045262   0.000000   0.000000  -0.000000   0.000003
    26  H   -0.004271  -0.005880   0.000000  -0.000000  -0.000000   0.000000
              19         20         21         22         23         24
     1  C    0.269486  -0.051257  -0.027463   0.004993   0.004314  -0.000895
     2  C   -0.048710   0.001350   0.207280  -0.043668  -0.070478   0.007739
     3  C   -0.031230  -0.009597  -0.007687   0.000327  -0.000142   0.000001
     4  C   -0.015871  -0.000651  -0.009810   0.001216   0.273568  -0.039815
     5  H    0.003691   0.000504  -0.039461  -0.005208   0.002661  -0.000263
     6  H   -0.021688   0.006672   0.002692  -0.000229   0.000110  -0.000002
     7  C    0.006754   0.001294  -0.004929   0.000158  -0.000057   0.000002
     8  H    0.005371  -0.003381  -0.000591   0.000083   0.000003  -0.000001
     9  C    0.011080   0.000442  -0.020075  -0.002940  -0.035424  -0.006434
    10  H    0.000173  -0.000068   0.003362   0.002031  -0.037279  -0.004105
    11  H   -0.000273  -0.000134   0.000123  -0.000007  -0.000000   0.000000
    12  H   -0.000041  -0.000109   0.004995   0.000130  -0.000002  -0.000000
    13  H    0.002179   0.000001   0.014701   0.000420   0.000700  -0.001629
    14  H    0.002551  -0.000992   0.001195   0.000199   0.004737   0.001688
    15  O   -0.000067  -0.000168   0.000206   0.000016   0.000002   0.000000
    16  H   -0.000061   0.000005  -0.000014  -0.000001  -0.000000  -0.000000
    17  O   -0.015612   0.033206  -0.022421   0.000971  -0.000006  -0.000000
    18  H    0.000864  -0.002848   0.038440  -0.001768  -0.000028   0.000007
    19  O    7.891876   0.328111  -0.001372  -0.000438   0.000131   0.000051
    20  H    0.328111   0.493926   0.003896  -0.000209   0.000034   0.000001
    21  O   -0.001372   0.003896   7.945804   0.319937  -0.013690   0.000271
    22  H   -0.000438  -0.000209   0.319937   0.490235   0.032396  -0.001659
    23  O    0.000131   0.000034  -0.013690   0.032396   7.919992   0.332805
    24  H    0.000051   0.000001   0.000271  -0.001659   0.332805   0.471808
    25  O    0.000721  -0.000018   0.000105  -0.000054  -0.013754   0.028227
    26  H    0.000076  -0.000003   0.000061  -0.000011   0.000204  -0.001689
              25         26
     1  C   -0.000165   0.000063
     2  C    0.007595  -0.001815
     3  C   -0.000019  -0.000008
     4  C   -0.075088   0.011591
     5  H   -0.000074   0.000038
     6  H   -0.000024   0.000003
     7  C   -0.000001   0.000000
     8  H   -0.000000  -0.000000
     9  C    0.269114  -0.032169
    10  H    0.005956  -0.000154
    11  H    0.000000   0.000000
    12  H    0.000000  -0.000000
    13  H   -0.049743  -0.004271
    14  H   -0.045262  -0.005880
    15  O    0.000000   0.000000
    16  H    0.000000  -0.000000
    17  O   -0.000000  -0.000000
    18  H    0.000003   0.000000
    19  O    0.000721   0.000076
    20  H   -0.000018  -0.000003
    21  O    0.000105   0.000061
    22  H   -0.000054  -0.000011
    23  O   -0.013754   0.000204
    24  H    0.028227  -0.001689
    25  O    7.908542   0.327633
    26  H    0.327633   0.522879
 Mulliken charges:
               1
     1  C    0.200475
     2  C    0.043655
     3  C    0.102150
     4  C    0.105757
     5  H    0.111821
     6  H    0.085620
     7  C   -0.018201
     8  H    0.075257
     9  C   -0.022835
    10  H    0.077860
    11  H    0.092304
    12  H    0.077586
    13  H    0.088192
    14  H    0.095379
    15  O   -0.350829
    16  H    0.178967
    17  O   -0.412126
    18  H    0.216350
    19  O   -0.387753
    20  H    0.199994
    21  O   -0.395555
    22  H    0.203079
    23  O   -0.400798
    24  H    0.213891
    25  O   -0.363693
    26  H    0.183451
 Sum of Mulliken charges =  -0.00000
 Mulliken charges with hydrogens summed into heavy atoms:
               1
     1  C    0.286095
     2  C    0.155476
     3  C    0.177408
     4  C    0.183617
     7  C    0.151689
     9  C    0.160737
    15  O   -0.171862
    17  O   -0.195775
    19  O   -0.187759
    21  O   -0.192477
    23  O   -0.186907
    25  O   -0.180242
 Electronic spatial extent (au):  <R**2>=           2538.2405
 Charge=              0.0000 electrons
 Dipole moment (field-independent basis, Debye):
    X=              0.5856    Y=              0.4843    Z=             -0.9718  Tot=              1.2336
 Quadrupole moment (field-independent basis, Debye-Ang):
   XX=            -61.7358   YY=            -78.4731   ZZ=            -70.7912
   XY=              6.7188   XZ=              4.1038   YZ=             -1.3279
 Traceless Quadrupole moment (field-independent basis, Debye-Ang):
   XX=              8.5976   YY=             -8.1397   ZZ=             -0.4579
   XY=              6.7188   XZ=              4.1038   YZ=             -1.3279
 Octapole moment (field-independent basis, Debye-Ang**2):
  XXX=              7.3283  YYY=             12.5296  ZZZ=              3.1794  XYY=             24.1314
  XXY=             19.7055  XXZ=            -25.1139  XZZ=             -2.5455  YZZ=             -4.0664
  YYZ=              4.1233  XYZ=              3.7441
 Hexadecapole moment (field-independent basis, Debye-Ang**3):
 XXXX=          -1841.4264 YYYY=           -537.1277 ZZZZ=           -343.4286 XXXY=            117.6103
 XXXZ=             76.6880 YYYX=             -1.2917 YYYZ=              3.9040 ZZZX=             35.1690
 ZZZY=              5.8273 XXYY=           -445.4874 XXZZ=           -390.5425 YYZZ=           -159.4901
 XXYZ=            -40.1030 YYXZ=            -10.9650 ZZXY=             17.2025
 N-N= 8.291004364876D+02 E-N=-3.275611635321D+03  KE= 6.850449343865D+02
   1 Symmetry operations used in ECPInt.
 ECPInt:  NShTT=   23436 NPrTT=   62434 LenC2=   21811 LenP2D=   45309.
 LDataN:  DoStor=T MaxTD1= 7 Len=  274
 Calling FoFJK, ICntrl=      2127 FMM=F ISym2X=0 I1Cent= 0 IOpClX= 0 NMat=1 NMatS=1 NMatT=0.
 ***** Axes restored to original set *****
 -------------------------------------------------------------------
 Center     Atomic                   Forces (Hartrees/Bohr)
 Number     Number              X              Y              Z
 -------------------------------------------------------------------
      1        6          -0.000869108   -0.019232750   -0.009022310
      2        6           0.006728881   -0.000670679   -0.005444402
      3        6           0.009896384   -0.002114822   -0.009411829
      4        6           0.013585206   -0.006115155    0.001754329
      5        1          -0.003387081    0.000346787    0.006713633
      6        1           0.002742683   -0.001062238   -0.003852586
      7        6          -0.004538631    0.004334879    0.000866067
      8        1           0.003166598   -0.001419938    0.000628375
      9        6          -0.001906926   -0.006100855    0.006606744
     10        1          -0.005848206   -0.000158124   -0.002081397
     11        1           0.000662686   -0.005766984   -0.001527148
     12        1          -0.001350565   -0.001261899    0.004597121
     13        1          -0.004720368    0.005995998   -0.002673206
     14        1           0.000165499    0.004160115   -0.006442716
     15        8          -0.013968419    0.002229893   -0.001153355
     16        1           0.017862073   -0.002910792    0.001367564
     17        8           0.009495825    0.002489919    0.011835669
     18        1          -0.016078252    0.004457223   -0.002165487
     19        8           0.003090859    0.009603020   -0.013627299
     20        1          -0.002067950    0.004783716    0.016979891
     21        8           0.015647468   -0.000944694    0.016161861
     22        1          -0.018594911    0.000486235   -0.006301460
     23        8          -0.008481418   -0.009564748    0.011540493
     24        1          -0.004206591    0.011307031   -0.015731334
     25        8          -0.005556032   -0.010984358    0.001221988
     26        1           0.008530296    0.018113221   -0.000839206
 -------------------------------------------------------------------
 Cartesian Forces:  Max     0.019232750 RMS     0.008144682

 GradGradGradGradGradGradGradGradGradGradGradGradGradGradGradGradGradGrad
 Berny optimization.
 FormGI is forming the generalized inverse of G from B-inverse, IUseBI=4.
 Internal  Forces:  Max     0.019710917 RMS     0.005745632
 Search for a local minimum.
 Step number   1 out of a maximum of  140
 All quantities printed in internal units (Hartrees-Bohrs-Radians)
 Mixed Optimization -- RFO/linear search
 Second derivative matrix not updated -- first step.
 ITU=  0
     Eigenvalues ---    0.00230   0.00230   0.00252   0.00351   0.00375
     Eigenvalues ---    0.01058   0.01098   0.01170   0.01207   0.01212
     Eigenvalues ---    0.01413   0.03718   0.03724   0.03907   0.04013
     Eigenvalues ---    0.04589   0.04679   0.04798   0.04832   0.04853
     Eigenvalues ---    0.05348   0.05497   0.05703   0.07536   0.07604
     Eigenvalues ---    0.07763   0.08001   0.11355   0.11647   0.13580
     Eigenvalues ---    0.13927   0.16000   0.16000   0.16000   0.16000
     Eigenvalues ---    0.16000   0.16000   0.16711   0.17233   0.17392
     Eigenvalues ---    0.17577   0.19302   0.19538   0.19979   0.20056
     Eigenvalues ---    0.21944   0.22038   0.27749   0.28448   0.28622
     Eigenvalues ---    0.29297   0.29462   0.34041   0.34120   0.34120
     Eigenvalues ---    0.34132   0.34207   0.34273   0.34339   0.34557
     Eigenvalues ---    0.38518   0.38922   0.39666   0.40049   0.40101
     Eigenvalues ---    0.42300   0.50515   0.50755   0.51040   0.51334
     Eigenvalues ---    0.52471   0.52530
 RFO step:  Lambda=-1.64721533D-02 EMin= 2.30000000D-03
 Linear search not attempted -- first point.
 Iteration  1 RMS(Cart)=  0.09351320 RMS(Int)=  0.00273431
 Iteration  2 RMS(Cart)=  0.00473655 RMS(Int)=  0.00050493
 Iteration  3 RMS(Cart)=  0.00001002 RMS(Int)=  0.00050487
 Iteration  4 RMS(Cart)=  0.00000000 RMS(Int)=  0.00050487
 Variable       Old X    -DE/DX   Delta X   Delta X   Delta X     New X
                                 (Linear)    (Quad)   (Total)
    R1        2.91169  -0.00805   0.00000  -0.02675  -0.02675   2.88494
    R2        2.92691  -0.00600   0.00000  -0.02040  -0.02040   2.90651
    R3        2.06981  -0.00462   0.00000  -0.01288  -0.01288   2.05693
    R4        2.72010  -0.01397   0.00000  -0.03381  -0.03381   2.68629
    R5        2.90798  -0.01187   0.00000  -0.03921  -0.03921   2.86877
    R6        2.07128  -0.00080   0.00000  -0.00223  -0.00223   2.06905
    R7        2.73044  -0.00921   0.00000  -0.02271  -0.02271   2.70774
    R8        2.89049  -0.00398   0.00000  -0.01278  -0.01278   2.87771
    R9        2.07260  -0.00304   0.00000  -0.00851  -0.00851   2.06409
   R10        2.71486  -0.01302   0.00000  -0.03123  -0.03123   2.68363
   R11        2.89388  -0.01024   0.00000  -0.03310  -0.03310   2.86078
   R12        2.07107  -0.00077   0.00000  -0.00216  -0.00216   2.06892
   R13        2.73618  -0.01179   0.00000  -0.02936  -0.02936   2.70682
   R14        2.07128  -0.00167   0.00000  -0.00468  -0.00468   2.06659
   R15        2.06871  -0.00243   0.00000  -0.00677  -0.00677   2.06194
   R16        2.68543  -0.00085   0.00000  -0.00194  -0.00194   2.68349
   R17        2.06762  -0.00151   0.00000  -0.00420  -0.00420   2.06342
   R18        2.06400  -0.00282   0.00000  -0.00779  -0.00779   2.05620
   R19        2.71416  -0.00057   0.00000  -0.00137  -0.00137   2.71279
   R20        1.84096  -0.01804   0.00000  -0.03330  -0.03330   1.80765
   R21        1.86049  -0.01671   0.00000  -0.03203  -0.03203   1.82846
   R22        1.85242  -0.01773   0.00000  -0.03347  -0.03347   1.81895
   R23        1.85811  -0.01931   0.00000  -0.03685  -0.03685   1.82126
   R24        1.85530  -0.01939   0.00000  -0.03680  -0.03680   1.81850
   R25        1.84151  -0.01971   0.00000  -0.03642  -0.03642   1.80509
    A1        1.97651  -0.00099   0.00000   0.00457   0.00286   1.97938
    A2        1.91083  -0.00274   0.00000  -0.04144  -0.04156   1.86927
    A3        1.91594   0.00515   0.00000   0.05118   0.05055   1.96649
    A4        1.92328  -0.00032   0.00000  -0.02676  -0.02720   1.89608
    A5        1.86113   0.00052   0.00000   0.02669   0.02551   1.88664
    A6        1.87286  -0.00148   0.00000  -0.01256  -0.01159   1.86127
    A7        2.01666   0.00293   0.00000   0.00427   0.00411   2.02077
    A8        1.90951  -0.00178   0.00000  -0.02095  -0.02127   1.88824
    A9        1.91450  -0.00169   0.00000  -0.00378  -0.00374   1.91076
   A10        1.86949  -0.00260   0.00000  -0.02790  -0.02818   1.84132
   A11        1.90529  -0.00088   0.00000  -0.00063  -0.00057   1.90472
   A12        1.83975   0.00420   0.00000   0.05355   0.05374   1.89349
   A13        1.99508  -0.00266   0.00000  -0.00627  -0.00655   1.98854
   A14        1.87746  -0.00178   0.00000  -0.02329  -0.02317   1.85429
   A15        1.91723   0.00441   0.00000   0.02980   0.02981   1.94704
   A16        1.89833   0.00232   0.00000   0.00840   0.00827   1.90660
   A17        1.91911  -0.00046   0.00000   0.00710   0.00691   1.92602
   A18        1.85051  -0.00185   0.00000  -0.01777  -0.01755   1.83295
   A19        2.03122   0.00282   0.00000   0.00359   0.00377   2.03499
   A20        1.92259  -0.00024   0.00000  -0.01328  -0.01299   1.90961
   A21        1.85897  -0.00902   0.00000  -0.05334  -0.05317   1.80580
   A22        1.91075  -0.00256   0.00000  -0.00669  -0.00728   1.90347
   A23        1.87011   0.00545   0.00000   0.02852   0.02819   1.89829
   A24        1.86145   0.00379   0.00000   0.04609   0.04557   1.90702
   A25        1.92813  -0.00540   0.00000  -0.02493  -0.02541   1.90271
   A26        1.94143  -0.00149   0.00000  -0.01980  -0.02002   1.92141
   A27        1.94332   0.00387   0.00000   0.01590   0.01575   1.95907
   A28        1.84807   0.00258   0.00000   0.01523   0.01511   1.86318
   A29        1.90363   0.00407   0.00000   0.04650   0.04664   1.95027
   A30        1.89638  -0.00359   0.00000  -0.03191  -0.03187   1.86451
   A31        1.94643  -0.00200   0.00000  -0.03075  -0.03040   1.91604
   A32        1.95379  -0.00038   0.00000  -0.01866  -0.01825   1.93554
   A33        1.88057  -0.01518   0.00000  -0.05906  -0.05870   1.82186
   A34        1.92565  -0.00115   0.00000  -0.01067  -0.01321   1.91244
   A35        1.87255   0.00984   0.00000   0.06300   0.06156   1.93412
   A36        1.88122   0.00942   0.00000   0.06226   0.06119   1.94242
   A37        1.87181   0.00360   0.00000   0.02040   0.02040   1.89221
   A38        1.85696   0.00147   0.00000   0.00835   0.00835   1.86531
   A39        1.83592   0.00077   0.00000   0.00434   0.00434   1.84026
   A40        1.80825   0.00660   0.00000   0.03739   0.03739   1.84564
   A41        1.81161   0.00657   0.00000   0.03721   0.03721   1.84882
   A42        1.85287   0.00651   0.00000   0.03691   0.03691   1.88977
    D1       -3.13648  -0.00348   0.00000  -0.08505  -0.08506   3.06165
    D2        1.03585  -0.00075   0.00000  -0.03539  -0.03551   1.00033
    D3       -0.97427  -0.00385   0.00000  -0.08576  -0.08579  -1.06006
    D4        0.99292  -0.00031   0.00000  -0.02256  -0.02285   0.97007
    D5       -1.11793   0.00242   0.00000   0.02710   0.02669  -1.09124
    D6       -3.12805  -0.00068   0.00000  -0.02328  -0.02359   3.13155
    D7       -1.05872   0.00009   0.00000  -0.01288  -0.01243  -1.07115
    D8        3.11361   0.00282   0.00000   0.03678   0.03711  -3.13247
    D9        1.10349  -0.00028   0.00000  -0.01359  -0.01317   1.09032
   D10       -1.01743   0.00376   0.00000   0.06652   0.06649  -0.95094
   D11       -3.12728   0.00380   0.00000   0.07652   0.07635  -3.05093
   D12        1.14925   0.00467   0.00000   0.09482   0.09486   1.24411
   D13        1.12948  -0.00076   0.00000  -0.00433  -0.00419   1.12529
   D14       -0.98037  -0.00073   0.00000   0.00568   0.00567  -0.97470
   D15       -2.98702   0.00015   0.00000   0.02398   0.02418  -2.96284
   D16       -3.12649  -0.00240   0.00000  -0.01808  -0.01811   3.13858
   D17        1.04684  -0.00236   0.00000  -0.00807  -0.00824   1.03860
   D18       -0.95981  -0.00149   0.00000   0.01023   0.01026  -0.94955
   D19       -1.40627  -0.00170   0.00000  -0.04640  -0.04709  -1.45336
   D20        0.74109   0.00046   0.00000   0.00599   0.00678   0.74787
   D21        2.80174  -0.00040   0.00000  -0.01779  -0.01789   2.78386
   D22        1.01914  -0.00066   0.00000   0.00894   0.00878   1.02792
   D23       -1.16860   0.00081   0.00000   0.02679   0.02691  -1.14169
   D24        3.10238   0.00140   0.00000   0.00832   0.00818   3.11056
   D25       -3.13169  -0.00299   0.00000  -0.03646  -0.03646   3.11503
   D26        0.96376  -0.00152   0.00000  -0.01861  -0.01834   0.94542
   D27       -1.04845  -0.00093   0.00000  -0.03708  -0.03707  -1.08551
   D28       -1.14789   0.00014   0.00000   0.01132   0.01119  -1.13670
   D29        2.94756   0.00161   0.00000   0.02917   0.02931   2.97687
   D30        0.93535   0.00220   0.00000   0.01070   0.01058   0.94594
   D31       -2.96229  -0.00061   0.00000   0.00861   0.00867  -2.95361
   D32       -0.73632   0.00129   0.00000   0.01092   0.01085  -0.72547
   D33        1.26677   0.00002   0.00000   0.00569   0.00568   1.27245
   D34       -3.05274   0.00013   0.00000  -0.00251  -0.00233  -3.05508
   D35        1.18327   0.00125   0.00000   0.00661   0.00652   1.18979
   D36       -0.93471   0.00420   0.00000   0.05012   0.05002  -0.88468
   D37       -0.95450  -0.00223   0.00000  -0.03035  -0.03021  -0.98471
   D38       -3.00167  -0.00110   0.00000  -0.02124  -0.02136  -3.02303
   D39        1.16354   0.00184   0.00000   0.02228   0.02214   1.18569
   D40        1.06476  -0.00338   0.00000  -0.04297  -0.04275   1.02201
   D41       -0.98241  -0.00225   0.00000  -0.03385  -0.03390  -1.01631
   D42       -3.10038   0.00069   0.00000   0.00966   0.00960  -3.09078
   D43       -0.83845  -0.00119   0.00000  -0.05136  -0.05156  -0.89000
   D44        1.37175  -0.00176   0.00000  -0.03282  -0.03262   1.33913
   D45       -2.86219  -0.00029   0.00000  -0.02918  -0.02919  -2.89138
   D46        0.90515  -0.00353   0.00000  -0.03773  -0.03788   0.86727
   D47       -1.26191  -0.00023   0.00000   0.01349   0.01336  -1.24856
   D48        2.95581  -0.00198   0.00000  -0.01469  -0.01466   2.94115
   D49        3.09887  -0.00385   0.00000  -0.05885  -0.05885   3.04001
   D50        0.93181  -0.00055   0.00000  -0.00763  -0.00762   0.92419
   D51       -1.13366  -0.00230   0.00000  -0.03581  -0.03564  -1.16929
   D52       -1.17207   0.00223   0.00000   0.00728   0.00724  -1.16483
   D53        2.94406   0.00553   0.00000   0.05849   0.05847   3.00253
   D54        0.87860   0.00378   0.00000   0.03032   0.03045   0.90905
   D55       -2.94301  -0.00009   0.00000   0.04466   0.04436  -2.89865
   D56       -0.75781   0.00116   0.00000   0.03421   0.03346  -0.72434
   D57        1.28709   0.00278   0.00000   0.06363   0.06468   1.35177
   D58       -1.35225   0.00008   0.00000  -0.00974  -0.01008  -1.36233
   D59        0.78001  -0.00142   0.00000   0.00089   0.00145   0.78146
   D60        2.78689   0.00188   0.00000   0.02655   0.02633   2.81322
   D61        3.09556   0.00091   0.00000   0.01858   0.01867   3.11423
   D62       -1.08971  -0.00432   0.00000  -0.01534  -0.01770  -1.10741
   D63        0.98405   0.00462   0.00000   0.03906   0.04133   1.02538
         Item               Value     Threshold  Converged?
 Maximum Force            0.019711     0.000450     NO 
 RMS     Force            0.005746     0.000300     NO 
 Maximum Displacement     0.344168     0.001800     NO 
 RMS     Displacement     0.094039     0.001200     NO 
 Predicted change in Energy=-9.391779D-03
 GradGradGradGradGradGradGradGradGradGradGradGradGradGradGradGradGradGrad

                          Input orientation:                          
 ---------------------------------------------------------------------
 Center     Atomic      Atomic             Coordinates (Angstroms)
 Number     Number       Type             X           Y           Z
 ---------------------------------------------------------------------
      1          6           0       -0.011621   -0.073482   -0.065109
      2          6           0        1.513842   -0.041764   -0.014103
      3          6           0       -0.599999    0.713997   -1.248035
      4          6           0        2.148213   -0.710630    1.192043
      5          1           0        1.832623    1.004754    0.030314
      6          1           0       -0.372143    0.369583    0.861450
      7          6           0       -0.130694    2.160826   -1.321574
      8          1           0       -1.684488    0.693466   -1.119528
      9          6           0        1.836765   -2.178126    1.395095
     10          1           0        1.877688   -0.159000    2.098222
     11          1           0       -0.661888    2.666980   -2.132494
     12          1           0        0.931195    2.198233   -1.569690
     13          1           0        2.004734   -2.723766    0.464320
     14          1           0        0.806550   -2.315302    1.717266
     15          8           0       -0.288092    2.840596   -0.084782
     16          1           0       -1.208674    3.081585    0.012570
     17          8           0       -0.363198    0.054545   -2.483259
     18          1           0        0.582550   -0.146985   -2.517265
     19          8           0       -0.530870   -1.395909   -0.113069
     20          1           0       -0.492996   -1.652606   -1.039983
     21          8           0        2.044159   -0.627978   -1.209195
     22          1           0        2.988178   -0.738554   -1.049659
     23          8           0        3.553116   -0.566578    0.952810
     24          1           0        3.988613   -1.162913    1.569873
     25          8           0        2.760750   -2.601882    2.408739
     26          1           0        2.594786   -3.523094    2.599140
 ---------------------------------------------------------------------
                    Distance matrix (angstroms):
                    1          2          3          4          5
     1  C    0.000000
     2  C    1.526645   0.000000
     3  C    1.538058   2.561657   0.000000
     4  C    2.579006   1.518090   3.941600   0.000000
     5  H    2.138442   1.094895   2.763397   2.095651   0.000000
     6  H    1.088482   2.119608   2.149526   2.761946   2.440332
     7  C    2.566128   3.043910   1.522817   4.444879   2.649287
     8  H    2.120965   3.462924   1.092269   4.690890   3.713368
     9  C    3.158837   2.579566   4.613927   1.513861   3.463145
    10  H    2.873466   2.146636   4.254232   1.094824   2.373310
    11  H    3.493860   4.069236   2.144818   5.509761   3.696393
    12  H    2.883288   2.788712   2.156611   4.191633   2.190200
    13  H    3.371942   2.768212   4.640583   2.145434   3.757639
    14  H    2.978594   2.943955   4.466322   2.156592   3.862823
    15  O    2.927230   3.399995   2.443945   4.491890   2.807311
    16  H    3.375414   4.143443   2.750470   5.200072   3.682802
    17  O    2.446925   3.103109   1.420116   4.516694   3.470242
    18  H    2.524185   2.672863   1.936661   4.065460   3.062572
    19  O    1.421525   2.454455   2.396796   3.057844   3.371919
    20  H    1.917221   2.770314   2.378139   3.584026   3.689933
    21  O    2.417153   1.432874   2.965464   2.404912   2.060812
    22  H    3.226523   1.931724   3.876115   2.394065   2.353885
    23  O    3.739873   2.317108   4.871545   1.432388   2.506029
    24  H    4.456669   3.144908   5.702522   1.932456   3.423056
    25  O    4.494304   3.738869   5.971740   2.330747   4.418840
    26  H    5.078524   4.485213   6.554413   3.176366   5.261289
                    6          7          8          9         10
     6  H    0.000000
     7  C    2.834156   0.000000
     8  H    2.398212   2.146682   0.000000
     9  C    3.413923   5.484313   5.193129   0.000000
    10  H    2.621211   4.594584   4.875419   2.138441   0.000000
    11  H    3.784928   1.093595   2.442656   6.493243   5.686350
    12  H    3.309545   1.091132   3.051027   5.363070   4.461612
    13  H    3.921233   5.622163   5.272230   1.091915   3.043649
    14  H    3.054561   5.490783   4.827562   1.088096   2.437642
    15  O    2.647324   1.420041   2.762388   5.647356   4.295777
    16  H    2.962319   1.946735   2.685360   6.233028   4.937304
    17  O    3.359524   2.416607   2.003444   4.986611   5.104620
    18  H    3.548801   2.695252   2.792756   4.583138   4.793772
    19  O    2.022830   3.777696   2.590228   2.914123   3.495840
    20  H    2.778363   3.840940   2.632496   3.410800   4.207057
    21  O    3.334848   3.538368   3.956901   3.037811   3.344647
    22  H    4.021450   4.267049   4.887675   3.061853   3.387953
    23  O    4.036384   5.116836   5.771896   2.395530   2.070059
    24  H    4.676174   6.031285   6.546991   2.385719   2.396455
    25  O    4.586799   6.705153   6.562631   1.435545   2.616082
    26  H    5.193762   7.423421   7.065412   1.957871   3.475956
                   11         12         13         14         15
    11  H    0.000000
    12  H    1.753393   0.000000
    13  H    6.550913   5.432841   0.000000
    14  H    6.465299   5.584945   1.781113   0.000000
    15  O    2.088777   2.025893   6.043236   5.570360   0.000000
    16  H    2.252148   2.804086   6.650728   6.007787   0.956569
    17  O    2.652748   2.665607   4.691944   4.962750   3.677011
    18  H    3.100818   2.553331   4.189542   4.762670   3.949763
    19  O    4.538977   4.144543   2.919909   2.446242   4.243550
    20  H    4.458804   4.139791   3.106279   3.119360   4.598180
    21  O    4.362560   3.058777   2.682263   3.597625   4.328361
    22  H    5.108148   3.623027   2.683349   3.860247   4.947247
    23  O    6.143391   4.569645   2.699920   3.344555   5.238351
    24  H    7.071263   5.522858   2.755773   3.387514   6.087379
    25  O    7.752300   6.497405   2.089780   2.092644   6.718159
    26  H    8.444602   7.271881   2.354685   2.331148   7.484048
                   16         17         18         19         20
    16  H    0.000000
    17  O    4.013348   0.000000
    18  H    4.475736   0.967579   0.000000
    19  O    4.530249   2.783834   2.929108   0.000000
    20  H    4.902309   2.239254   2.367711   0.962548   0.000000
    21  O    5.082765   2.807926   2.019580   2.902065   2.741468
    22  H    5.773678   3.730407   2.879387   3.700407   3.599188
    23  O    6.071885   5.246892   4.587128   4.301491   4.639149
    24  H    6.888596   6.070284   5.416463   4.828282   5.209219
    25  O    7.334831   6.383361   5.919171   4.318407   4.835459
    26  H    8.048505   6.883309   6.451729   4.653032   5.126044
                   21         22         23         24         25
    21  O    0.000000
    22  H    0.963769   0.000000
    23  O    2.637231   2.087729   0.000000
    24  H    3.433697   2.836000   0.962309   0.000000
    25  O    4.183209   3.935001   2.624887   2.069294   0.000000
    26  H    4.815423   4.606751   3.517070   2.927900   0.955211
                   26
    26  H    0.000000
 Stoichiometry    C6H14O6
 Framework group  C1[X(C6H14O6)]
 Deg. of freedom    72
 Full point group                 C1      NOp   1
 Largest Abelian subgroup         C1      NOp   1
 Largest concise Abelian subgroup C1      NOp   1
                         Standard orientation:                         
 ---------------------------------------------------------------------
 Center     Atomic      Atomic             Coordinates (Angstroms)
 Number     Number       Type             X           Y           Z
 ---------------------------------------------------------------------
      1          6           0       -0.686265    0.419162   -0.649622
      2          6           0        0.193333   -0.409130    0.283589
      3          6           0       -2.142279    0.540641   -0.169111
      4          6           0        1.613584   -0.654824   -0.192980
      5          1           0       -0.256861   -1.401939    0.385818
      6          1           0       -0.679995   -0.076208   -1.618830
      7          6           0       -2.819727   -0.797579    0.093949
      8          1           0       -2.681698    1.068018   -0.959018
      9          6           0        2.462794    0.571108   -0.453185
     10          1           0        1.592491   -1.273400   -1.096063
     11          1           0       -3.869866   -0.622351    0.343855
     12          1           0       -2.367094   -1.282938    0.960043
     13          1           0        2.408463    1.246760    0.402866
     14          1           0        2.129999    1.090707   -1.349409
     15          8           0       -2.681526   -1.694086   -0.998613
     16          1           0       -3.307617   -1.442803   -1.676765
     17          8           0       -2.246973    1.379935    0.971658
     18          1           0       -1.597709    1.062029    1.614776
     19          8           0       -0.179647    1.730669   -0.859430
     20          1           0       -0.487472    2.247518   -0.108025
     21          8           0        0.231840    0.207639    1.576354
     22          1           0        0.925496   -0.250372    2.064120
     23          8           0        2.200252   -1.402760    0.878535
     24          1           0        3.149625   -1.388227    0.721944
     25          8           0        3.793194    0.056030   -0.612940
     26          1           0        4.376478    0.787512   -0.805666
 ---------------------------------------------------------------------
 Rotational constants (GHZ):           1.5289634           0.5156063           0.4803191
 Standard basis: def2TZVPP (5D, 7F)
 There are   642 symmetry adapted cartesian basis functions of A   symmetry.
 There are   568 symmetry adapted basis functions of A   symmetry.
   568 basis functions,   850 primitive gaussians,   642 cartesian basis functions
    49 alpha electrons       49 beta electrons
       nuclear repulsion energy       835.0238443097 Hartrees.
 NAtoms=   26 NActive=   26 NUniq=   26 SFac= 1.00D+00 NAtFMM=   60 NAOKFM=F Big=F
 Integral buffers will be    131072 words long.
 Raffenetti 2 integral format.
 Two-electron integral symmetry is turned on.
 Nuclear repulsion after empirical dispersion term =      835.0050545106 Hartrees.
 One-electron integrals computed using PRISM.
   1 Symmetry operations used in ECPInt.
 ECPInt:  NShTT=   23436 NPrTT=   62434 LenC2=   21873 LenP2D=   45499.
 LDataN:  DoStor=T MaxTD1= 6 Len=  172
[...]
 4827448,0.00348034,0.00122943,-0.00164868,0.00201352,-0.00282245,0.001
 27578,0.00005363,-0.01009961,-0.02608258,-0.00206892,0.00439289,0.0011
 3325,0.00768543,-0.00027623,0.00128006,-0.00182708,-0.00157940,-0.0015
 1176,0.00032469,0.00011989,0.00033215,0.00023805,-0.00083955,-0.002987
 13,0.00036819,-0.00030141,-0.00007511,-0.00003329,-0.00109244,0.000443
 64,0.00079919,0.00219133,-0.00065294,-0.00066346,0.00005824,-0.0004077
 8,-0.00033109,-0.00029303,0.00062231,0.00005443,-0.00022974,0.00527999
 ,-0.00238686,-0.00036406,-0.00141903,0.00057554,0.10684774,0.36906944,
 -0.00609262,-0.02832222,-0.09688816,0.00072038,-0.00462648,0.00109995,
 0.00985034,0.02816604,-0.00536773,0.00169579,-0.00007429,-0.00031223,-
 0.00124360,0.00025333,0.00098876,-0.01414205,-0.03188225,0.00368938,-0
 .00296494,-0.00048750,-0.00635000,0.00089795,-0.00045884,0.00111265,0.
 00114035,0.00150716,-0.00315093,0.00006563,0.00002731,0.00018472,0.000
 69874,0.00154716,-0.00001567,0.00018204,0.00005352,-0.00003551,-0.0003
 1332,0.00026477,0.00029222,-0.00373719,0.00028075,-0.00054684,-0.00031
 420,-0.00025513,0.00284886,0.00005996,0.00011633,-0.00030873,0.0022869
 4,0.01044472,-0.00192466,-0.00164564,0.00010229,-0.00015671,0.01116838
 ,0.11932957,0.58352188,-0.00161911,-0.00735407,-0.01537992,-0.00036907
 ,-0.00373563,-0.00308697,0.00245760,-0.00024637,-0.00010892,0.00000192
 ,-0.00020020,-0.00001155,-0.00052800,0.00027310,0.00047987,-0.00010269
 ,0.00055334,0.00074439,-0.00019007,0.00020311,0.00045164,-0.00058654,0
 .00063979,0.00004118,0.00012863,-0.00002455,-0.00125996,0.00003654,0.0
 0008076,0.00014843,-0.00003726,-0.00007165,0.00000295,-0.00009972,-0.0
 0024016,0.00002440,-0.00041996,0.00035974,0.00014576,-0.00030286,-0.00
 003616,-0.00001485,-0.00003042,0.00007985,-0.00019605,0.00003607,0.000
 03294,0.00004480,-0.00316447,0.00184365,-0.00032961,-0.00016324,-0.002
 45131,0.00177580,-0.01085616,-0.01398074,0.00558033,0.01545480,-0.0023
 1467,-0.02160808,-0.04300457,-0.00035909,-0.00069171,-0.00073114,0.000
 96677,-0.00413182,-0.00377352,-0.00004583,0.00004157,-0.00025771,-0.00
 014470,0.00011882,0.00009724,-0.00316193,-0.00642565,0.00050319,-0.000
 29078,-0.00072022,-0.00143371,0.00019853,-0.00026933,0.00041700,-0.000
 24221,0.00005543,0.00075713,-0.00002123,-0.00010580,0.00004093,0.00012
 768,0.00029338,0.00001765,0.00006900,0.00013748,-0.00003442,0.00044005
 ,-0.00005468,-0.00020217,0.00001018,0.00034217,-0.00004445,-0.00008695
 ,0.00043250,0.00114569,0.00003937,-0.00010058,-0.00011771,0.00090506,0
 .00529108,-0.00252709,-0.00178663,-0.00026173,0.00102788,-0.01747912,-
 0.07162647,-0.09822609,0.02247958,0.09982048,-0.00037416,-0.00466410,-
 0.00041180,-0.00007561,0.00121549,0.00050184,-0.00048971,0.00633913,0.
 00386039,-0.00044784,-0.00014446,-0.00033908,0.00081408,0.00015506,-0.
 00008016,-0.00098351,0.00130369,0.00095843,0.00011986,0.00006447,-0.00
 130952,0.00029656,-0.00038127,-0.00011985,-0.00018911,0.00015193,-0.00
 064299,0.00000344,0.00007969,-0.00000237,0.00006283,0.00055329,0.00004
 723,0.00009148,0.00006950,0.00003703,-0.00026616,0.00010118,0.00019840
 ,-0.00013899,-0.00007176,-0.00026624,-0.00004003,-0.00083859,-0.000752
 42,-0.00004548,-0.00005195,0.00008355,-0.00075779,-0.00580305,0.001039
 28,0.00247380,0.00127431,-0.00051714,-0.01026399,-0.14494435,-0.482199
 53,0.00954253,0.14531384,0.48077415,-0.01887332,0.02066146,0.04393578,
 -0.10959013,0.02670892,0.05255311,0.00399315,-0.00243508,-0.00135109,-
 0.00155350,-0.00361195,-0.00220561,0.00463262,0.00391912,-0.00034650,-
 0.00885981,-0.00062164,-0.00048287,-0.00071949,-0.00055525,0.00047531,
 0.00029004,-0.00006586,0.00037522,0.00042966,0.00132023,0.00079048,0.0
 0028895,0.00099797,-0.00184629,0.00004662,0.00013363,-0.00016431,0.000
 01799,0.00016491,0.00012392,-0.00023952,-0.00045359,-0.00036385,0.0001
 3705,0.00028913,-0.00059161,0.00016313,0.00121382,-0.00010971,0.000092
 21,-0.00041128,0.00001700,-0.01010239,0.00311662,-0.00737526,-0.004803
 59,0.00114431,0.00299108,0.00251185,-0.00006498,-0.00100933,0.00047609
 ,0.00021102,0.00009159,0.64379721,0.00108579,-0.00272695,-0.00472525,0
 .01509628,-0.09361651,-0.05678461,-0.00099278,-0.00032262,-0.00059658,
 -0.00249938,0.00750442,0.00672247,0.01750175,-0.00972028,-0.03760712,0
 .00025571,0.00090088,0.00036320,-0.00151285,-0.00050297,-0.00043771,0.
 00007327,0.00008707,0.00000484,-0.00208355,-0.00156202,-0.00241675,0.0
 0129717,-0.00000238,0.00305021,0.00041942,-0.00002852,0.00006654,0.000
 38048,0.00035993,-0.00039575,-0.00016115,0.00173733,0.00178874,-0.0001
 3717,0.00011903,0.00093861,0.00105612,-0.00043809,0.00004203,0.0000321
 8,-0.00004918,0.00013200,0.00122674,0.00253569,0.00177380,0.00176244,-
 0.00259681,-0.00037558,-0.00021906,0.00431816,0.00197664,0.00130436,-0
 .00042394,0.00027270,-0.07961913,0.10454814,0.00611467,-0.00409363,-0.
 00601010,0.00643296,-0.05058569,-0.18035974,0.00040484,-0.00058538,-0.
 00492768,0.01718532,-0.01700727,-0.04886895,0.00876038,-0.01370032,-0.
 01818125,-0.00044640,0.00039549,0.00117285,0.00098487,-0.00026906,-0.0
 0119817,-0.00003019,0.00003832,0.00088709,0.00060583,-0.00362460,0.001
 18306,-0.00479083,0.00442280,-0.00576346,-0.00004882,-0.00024756,0.000
 24529,-0.00052284,-0.00035922,-0.00037444,-0.00012752,0.00131011,-0.00
 054840,-0.00019731,0.00002460,-0.00051928,-0.00015785,0.00038602,0.001
 73461,0.00007127,0.00007677,0.00009337,-0.00704384,0.00236292,0.003217
 75,0.00258589,0.00027705,-0.00168111,0.00036630,0.00116202,0.00293943,
 0.00067088,0.00070952,-0.00113214,0.01753467,0.08696877,0.31071797,0.0
 0004722,0.00206051,0.00284064,-0.01984462,0.00226354,0.00391816,-0.000
 14470,0.00000544,0.00008530,0.00283895,-0.00020179,-0.00124709,0.00081
 066,-0.00062932,-0.00139942,-0.00055097,-0.00013684,-0.00041143,-0.000
 21262,0.00009677,0.00006217,0.00010046,-0.00002612,0.00000688,-0.00005
 882,-0.00066664,0.00069459,-0.00127485,0.00014761,-0.00036467,0.000103
 96,-0.00003627,0.00000445,0.00002706,0.00025170,-0.00007101,-0.0000106
 1,-0.00046783,0.00016517,-0.00002969,-0.00017094,-0.00011276,0.0001734
 9,-0.00024786,-0.00013501,-0.00000482,0.00003009,0.00002568,0.00136959
 ,-0.00017025,-0.00015019,-0.00176551,0.00003331,-0.00055387,0.00098137
 ,0.00023913,-0.00023341,-0.00015681,-0.00002242,-0.00008432,-0.5049780
 9,0.04534999,-0.04850842,0.52526616,-0.00014782,-0.00155198,-0.0020716
 1,0.01807675,-0.00167962,-0.00164734,-0.00038892,0.00014041,-0.0000657
 1,-0.00080804,0.00225193,0.00063222,0.00101844,-0.00042654,0.00000401,
 0.00053962,0.00031969,0.00005419,0.00035429,0.00001887,-0.00015805,-0.
 00005481,-0.00003683,0.00000367,0.00015850,0.00034618,0.00135070,0.000
 05029,-0.00022119,-0.00023200,-0.00008847,-0.00001439,0.00002211,0.000
 03554,-0.00006925,0.00005134,-0.00036137,-0.00085345,-0.00015381,0.000
 05336,-0.00012948,-0.00046880,-0.00016105,0.00002914,0.00012769,0.0000
 0227,0.00000431,-0.00003572,0.00013421,0.00043734,0.00009999,0.0000964
 2,-0.00070728,-0.00001602,-0.00020948,0.00012149,0.00039339,0.00031515
 ,0.00028196,-0.00000952,0.02945831,-0.01416860,-0.00882665,-0.04810586
 ,0.01908797,0.00145544,-0.00342862,-0.00707141,0.04126845,-0.00443577,
 0.00204942,-0.00002192,-0.00043309,-0.00099179,0.00680389,0.00039839,-
 0.00349688,0.00002392,-0.00099501,-0.00007430,0.00202369,-0.00005898,0
 .00008395,-0.00017166,0.00000016,0.00012218,-0.00005482,0.00011264,0.0
 0007096,-0.00026923,0.00057506,-0.00026907,-0.00069263,-0.00015874,0.0
 0082715,-0.00001234,-0.00002088,-0.00000816,-0.00003134,0.00003068,0.0
 0004851,0.00021779,0.00023240,-0.00000807,-0.00011343,-0.00039971,0.00
 033349,0.00005026,-0.00001161,-0.00004834,-0.00000415,0.00001730,-0.00
 000497,-0.00229557,0.00079682,-0.00073228,0.00106695,-0.00054471,0.002
 36076,-0.00050935,0.00045822,0.00026688,0.00002477,0.00016957,-0.00006
 361,-0.09270643,-0.00381108,-0.05192157,0.04560310,0.01129110,0.053378
 27,0.00235090,0.00357912,-0.00538775,-0.04342015,-0.00016658,-0.004408
 50,-0.00178578,-0.00069047,0.00196467,-0.21200271,-0.03454121,0.036436
 70,0.00133192,-0.00071677,0.00120896,0.00070572,-0.00026825,0.00018001
 ,-0.00022492,-0.00058919,-0.00010197,-0.00041788,0.00036534,-0.0006693
 4,-0.03634843,-0.01008556,0.00440487,-0.03194519,-0.00082192,0.0085523
 4,-0.00003962,0.00023098,-0.00009635,0.00004941,-0.00005479,0.00009323
 ,0.00147506,0.00019691,-0.00100477,0.00156019,-0.00512814,0.00096160,0
 .00005071,0.00073214,-0.00007221,0.00005716,-0.00031685,0.00000982,0.0
 0028129,0.00011772,-0.00126593,-0.00026411,-0.00008569,0.00048552,-0.0
 0074062,-0.00086608,-0.00053603,0.00011983,0.00013747,0.00041467,0.000
 66332,0.00009163,-0.00013932,-0.00171863,0.00054168,-0.00003730,0.4517
 5481,-0.00056998,-0.00338379,0.00473092,0.02390421,0.00317596,-0.00203
 955,0.00136839,0.00032157,-0.00083144,0.00534133,-0.08774372,0.0174026
 6,0.00017832,0.00202422,-0.00172063,-0.00044508,0.00008188,0.00004961,
 -0.00005908,0.00016074,-0.00014015,0.00030175,-0.00022417,0.00040136,-
 0.04103087,-0.00826192,0.01009680,0.01230059,0.00698250,0.00091537,0.0
 0003093,-0.00004432,0.00003768,-0.00002619,0.00000258,-0.00006815,0.00
 052096,0.00332373,-0.00000590,-0.00088136,-0.00803671,0.00186471,0.000
 07488,-0.00008458,0.00008589,-0.00002230,0.00005924,0.00002752,-0.0000
 7226,0.00034245,0.00042491,0.00001750,-0.00008484,-0.00013843,0.000308
 61,0.00208405,-0.00037011,0.00014512,-0.00021104,0.00007021,0.00021157
 ,0.00298253,0.00024911,-0.00041726,-0.00312876,-0.00058891,-0.11870862
 ,0.34106356,0.00040402,0.00313161,-0.00501265,-0.03170815,-0.00241440,
 -0.00355334,-0.00135168,-0.00044607,0.00041252,0.01054961,0.01431337,-
 0.08370973,0.00040032,-0.00107367,0.00141310,-0.00039950,0.00017345,0.
 00026247,0.00020469,-0.00050713,-0.00026938,-0.00035876,0.00027574,-0.
 00041478,0.00288955,0.00405254,-0.00041417,0.03209238,0.00552884,0.002
 74265,-0.00002874,0.00009285,0.00001487,-0.00001920,-0.00008620,0.0000
 5319,-0.00039936,0.00179993,0.00083285,-0.00041641,0.00065930,0.001657
 01,-0.00010725,0.00043397,0.00043404,0.00002076,-0.00010205,-0.0000812
 2,-0.00063268,0.00027719,-0.00010621,0.00068580,-0.00022096,0.00075134
 ,-0.00022522,-0.00077415,0.00051820,0.00024614,0.00019753,-0.00002225,
 -0.00911620,0.00195460,-0.00052937,0.00034221,-0.00096617,0.00400546,0
 .09656545,-0.23855555,0.26470953,0.00011729,0.00139966,-0.00182478,-0.
 00813749,-0.00114975,0.00196821,-0.00063423,-0.00007233,0.00027288,-0.
 02874739,0.02869959,-0.02561542,0.00018315,-0.00019820,0.00042744,0.00
 008020,0.00000620,0.00001549,-0.00005101,-0.00003158,0.00001479,-0.000
 06780,0.00008353,-0.00015006,-0.00284609,-0.00027917,-0.00272334,-0.00
 021197,0.00042140,0.00007397,0.00003375,-0.00000390,0.00000842,0.00001
 957,0.00003838,-0.00002579,0.00002426,-0.00023799,0.00020544,0.0001978
 9,0.00091217,-0.00033098,0.00003591,-0.00006181,0.00002078,-0.00000357
 ,0.00002335,-0.00000540,0.00017045,-0.00014102,0.00003123,-0.00014162,
 0.00005338,-0.00013273,0.00030034,-0.00044735,0.00023779,-0.00009813,0
 .00003450,-0.00006601,0.00122100,-0.00015720,0.00130212,-0.00022980,-0
 .00031409,-0.00113674,-0.13709355,0.12471591,-0.10454408,0.17448200,0.
 00018029,0.00122101,-0.00064838,-0.00243937,-0.00091727,-0.00073516,-0
 .00031788,-0.00006037,0.00016553,-0.00102946,0.00532997,-0.00387627,-0
 .00000504,0.00011064,0.00016131,0.00002917,-0.00002317,0.00001700,0.00
 003088,-0.00004319,0.00005555,-0.00009233,0.00005907,-0.00010761,-0.00
 702724,0.00186660,-0.00259832,-0.00037571,-0.00024830,0.00069617,-0.00
 001841,0.00000840,-0.00001355,-0.00000676,-0.00002291,0.00002111,0.000
 26212,-0.00033974,0.00021191,0.00091092,-0.00042984,0.00060028,-0.0000
 3690,0.00002651,-0.00003803,0.00001056,-0.00001589,-0.00000212,-0.0001
 0227,-0.00008562,-0.00010092,0.00012706,0.00002047,0.00013756,0.000148
 79,-0.00064421,0.00017885,-0.00001113,0.00010228,-0.00004614,-0.001332
 13,-0.00013183,-0.00091768,0.00050501,0.00017759,0.00133469,0.16273586
 ,-0.24918130,0.20769358,-0.15536634,0.24534260,0.00006926,-0.00001833,
 0.00014315,0.00002496,0.00028968,-0.00119004,-0.00001421,0.00004969,-0
 .00002331,0.00204117,-0.00438958,0.00350156,0.00007553,-0.00000373,-0.
 00007224,-0.00004593,0.00001508,0.00003216,-0.00003689,0.00004867,0.00
 003200,0.00003237,-0.00001643,0.00000741,0.00192426,0.00033299,0.00258
 334,0.00206656,-0.00050992,-0.00027631,0.00000967,-0.00001578,0.000002
 31,0.00001272,0.00000545,-0.00001124,-0.00061370,-0.00024005,-0.000639
 93,-0.00026194,0.00069698,-0.00092005,0.00002684,-0.00007627,-0.000037
 54,-0.00000483,0.00002360,0.00001552,0.00000838,-0.00000488,0.00007391
 ,-0.00002289,0.00001473,-0.00000250,0.00010828,0.00006798,-0.00000158,
 -0.00004029,0.00001395,-0.00001920,-0.00121113,-0.00017637,0.00014706,
 0.00001208,0.00106513,0.00090013,-0.13600916,0.20561987,-0.18466273,0.
 13196320,-0.20238518,0.18330792,-0.00076076,-0.00233830,0.00025740,0.0
 0091360,-0.00091687,0.00179893,0.00031305,0.00006018,0.00030674,-0.004
 59217,0.00230507,-0.00336773,-0.00009099,0.00034286,-0.00042570,0.0000
 8626,-0.00000160,0.00003319,-0.00008483,-0.00022421,-0.00022564,0.0000
 1260,-0.00002534,0.00003531,-0.14046332,0.00980447,-0.07512571,0.00029
 071,-0.00008396,0.00038440,-0.00000963,0.00012837,-0.00004179,0.000022
 79,-0.00000725,0.00002598,-0.00145890,0.00245339,-0.00938667,-0.022497
 34,0.01781305,-0.03396255,0.00000758,0.00035340,0.00004047,0.00002515,
 -0.00015209,0.00000420,0.00007402,0.00042225,-0.00055907,-0.00011702,-
 0.00010185,0.00021495,-0.00177149,0.00228056,-0.00247737,0.00000558,0.
 00028887,0.00036796,0.00089658,0.00048397,-0.00099222,-0.00069844,-0.0
 0010022,-0.00031442,0.00509154,-0.00486620,0.00292688,-0.00047594,0.00
 200794,0.00127601,0.18922825,-0.00181978,-0.00043274,-0.00009554,-0.00
 356946,-0.00779292,-0.00431972,0.00011468,0.00018526,-0.00049480,0.027
 88378,-0.02438431,0.03942119,0.00120549,-0.00125385,0.00231105,0.00002
 330,0.00004122,-0.00001092,-0.00018538,0.00020452,0.00007542,0.0001842
 7,-0.00007674,0.00015655,0.03914234,-0.10382801,0.04253522,0.00039352,
 0.00267404,-0.00075559,0.00012855,-0.00009330,0.00003346,0.00009664,0.
 00012141,-0.00014261,-0.00790577,0.00783980,-0.00215685,0.00353807,0.0
 0232390,-0.00041510,0.00015874,-0.00033278,-0.00000505,-0.00003085,0.0
 0012099,0.00004658,0.00020111,0.00003136,0.00052083,-0.00026490,0.0000
 0240,-0.00038184,0.00066000,0.00130196,0.00031463,-0.00003455,-0.00031
 432,-0.00008093,-0.00031347,0.00088256,0.00185711,0.00032733,-0.000140
 14,-0.00062687,0.00323004,-0.00326824,0.00468100,0.00177404,-0.0015789
 2,-0.00004737,-0.01673433,0.67698626,0.00034421,-0.00102581,-0.0001924
 9,0.00100869,-0.00003605,0.00093311,0.00019138,-0.00014321,0.00019458,
 -0.00566876,0.01048316,-0.00851929,-0.00030897,0.00037025,-0.00049899,
 -0.00006295,0.00008679,0.00006675,0.00009827,-0.00029848,-0.00023629,-
 0.00011563,0.00003421,-0.00004370,-0.07686599,0.00790520,-0.14319023,0
 .00042625,0.00088680,0.00116626,-0.00005946,0.00011392,-0.00002662,-0.
 00004293,-0.00007843,0.00007624,-0.03099681,0.01734977,-0.02667378,-0.
 00704169,0.00220605,0.00348502,-0.00011495,0.00043575,0.00017425,0.000
 03579,-0.00014319,-0.00005478,-0.00025777,0.00040778,-0.00033981,0.000
 26252,-0.00023176,0.00039034,-0.00151107,0.00111392,-0.00018161,0.0006
 3070,-0.00016660,0.00042966,-0.00020665,0.00183510,-0.00039319,-0.0004
 7604,-0.00065172,0.00029611,-0.00104703,0.00265455,0.00088736,-0.00002
 817,0.00023274,-0.00259033,0.14012365,-0.06963701,0.19563533,0.0002561
 8,0.00018724,0.00008255,0.00061714,0.00101410,0.00034684,-0.00002844,-
 0.00001391,-0.00003121,-0.00521045,0.00038501,-0.00360993,-0.00012655,
 0.00021425,-0.00027063,-0.00002294,0.00000554,0.00000075,0.00003149,0.
 00001328,0.00000919,-0.00001542,0.00000786,-0.00001174,-0.00138075,0.0
 3097396,-0.00271978,-0.00002385,-0.00022212,0.00010821,-0.00000499,-0.
 00001268,0.00000741,-0.00001525,-0.00000705,0.00000459,0.00093866,-0.0
 0073831,-0.00050352,-0.00079125,0.00101888,0.00013079,-0.00001644,-0.0
 0002819,0.00001739,-0.00000078,0.00001961,-0.00001125,-0.00002902,-0.0
 0005060,0.00007069,0.00003873,0.00000753,-0.00001816,-0.00003438,-0.00
 035734,0.00012507,0.00000746,0.00004750,-0.00005611,0.00006237,-0.0000
 3506,-0.00001445,-0.00003995,-0.00009471,-0.00016693,0.00050972,-0.002
 32088,0.00197941,0.00187280,0.00121235,-0.00139032,-0.02394688,-0.0482
 0341,-0.01831660,0.02735279,-0.00007450,-0.00024177,0.00000129,-0.0004
 1580,-0.00063753,-0.00041232,0.00004546,-0.00001376,0.00005742,0.00140
 212,-0.00062307,0.00273545,0.00015419,-0.00000376,0.00013814,0.0000175
 5,-0.00000888,0.00000312,-0.00000440,-0.00003587,-0.00002552,-0.000007
 89,0.00000233,0.00000070,-0.00418241,-0.01164604,-0.00402213,-0.000024
 09,0.00052417,-0.00002203,-0.00000532,0.00002214,-0.00001039,0.0000022
 8,-0.00000569,0.00000668,-0.00140663,0.00165519,-0.00070158,-0.0003471
 8,0.00048845,-0.00087553,-0.00000734,0.00006354,-0.00000311,0.00000720
 ,-0.00002862,0.00000312,-0.00002321,0.00006331,-0.00010622,0.00002297,
 -0.00002697,0.00006574,-0.00031618,0.00030748,-0.00025356,0.00007604,0
 .00002822,0.00007160,-0.00006669,0.00031493,-0.00002351,-0.00001103,-0
 .00008938,0.00009696,0.00108123,0.00104836,-0.00011916,0.00029861,-0.0
 0054258,-0.00035994,-0.01319216,-0.54921940,0.02629627,0.01697716,0.55
 860521,0.00017125,0.00015792,0.00005711,0.00025750,0.00175947,0.000782
 89,-0.00005573,0.00002957,0.00005391,-0.00358244,0.00180655,-0.0047016
 9,-0.00020887,0.00014554,-0.00044913,-0.00000401,-0.00001586,-0.000019
 02,-0.00000519,0.00004225,0.00003134,0.00000682,-0.00000246,-0.0000094
 0,-0.00019337,0.03239903,-0.00360839,-0.00011813,-0.00003741,0.0000851
 7,-0.00000659,-0.00000792,0.00000267,-0.00000726,0.00000237,0.00000289
 ,0.00083216,0.00048210,-0.00010258,-0.00017837,-0.00056086,0.00070378,
 0.00001098,-0.00005701,-0.00004237,-0.00000619,0.00001629,0.00000735,0
 .00006142,-0.00010771,-0.00002979,-0.00005615,0.00006768,-0.00003331,0
 .00016264,-0.00033809,-0.00002305,-0.00012644,0.00010808,-0.00005165,0
 .00019866,-0.00056348,0.00007039,-0.00001281,0.00020757,-0.00005281,-0
 .00050217,-0.00017236,0.00008122,0.00004175,-0.00003693,-0.00029947,-0
 .02091720,-0.01278283,-0.02079389,0.02423774,-0.02254150,0.02833780\\-
 0.00000087,-0.00002259,-0.00000663,0.00000973,0.00000478,-0.00000895,0
 .00000463,-0.00001090,-0.00000771,0.00000454,-0.00001951,-0.00001626,0
 .00000228,0.00000662,0.00000402,-0.00001139,0.00000482,0.00000091,0.00
 000195,0.00000004,-0.00001113,-0.00000188,-0.00000050,0.00000256,-0.00
 000061,0.00001950,0.00000272,-0.00000966,-0.00000093,0.00000459,-0.000
 00072,-0.00000286,0.00000226,0.00000327,-0.00000305,0.00000689,0.00000
 213,-0.00000384,-0.00000128,-0.00000753,-0.00000402,-0.00000289,0.0000
 0750,0.00000685,-0.00000151,-0.00000610,-0.00000342,-0.00000125,0.0000
 0577,0.00001141,-0.00000235,-0.00000009,0.00000231,0.00000197,0.000017
 63,0.00000756,0.00000374,-0.00000333,0.00000277,0.00000117,-0.00000896
 ,0.00000299,0.00002531,0.00000025,-0.00000510,-0.00000106,-0.00000482,
 -0.00000669,-0.00000270,-0.00000018,0.00000782,0.00000747,0.00000186,0
 .00001255,-0.00000141,-0.00000538,-0.00000661,0.00000152\\\@
 The archive entry for this job was punched.


 IT PROBABLY IS NOT POSSIBLE FOR A SCIENTIST TO INTERROGATE NATURE 
 FROM A WHOLLY DISINTERESTED VIEWPOINT.
 EVEN IF HE HAS NO PARTICULAR AXE TO GRIND, HE IS LIKELY TO HAVE 
 A DISTINCTIVE WAY OF VIEWING NATURE.

                                                   -- JOHN LOSEE
 Job cpu time:       0 days  8 hours 37 minutes  1.5 seconds.
 Elapsed time:       0 days  0 hours 32 minutes 33.2 seconds.
 File lengths (MBytes):  RWF=    704 Int=      0 D2E=      0 Chk=     27 Scr=      1
 Normal termination of Gaussian 16 at Wed Sep 27 12:19:07 2023.
