 Entering Gaussian System, Link 0=/opt/software/gaussian/g16.c01/g16
 Initial command:
 /opt/software/gaussian/g16.c01/l1.exe "/scratch/arhender/14836900/Gau-227096.inp" -scrdir="/scratch/arhender/14836900/"
 Entering Link 1 = /opt/software/gaussian/g16.c01/l1.exe PID=    227129.
  
 Copyright (c) 1988-2019, Gaussian, Inc.  All Rights Reserved.
  
 This is part of the Gaussian(R) 16 program.  It is based on
 the Gaussian(R) 09 system (copyright 2009, Gaussian, Inc.),
 the Gaussian(R) 03 system (copyright 2003, Gaussian, Inc.),
 the Gaussian(R) 98 system (copyright 1998, Gaussian, Inc.),
 the Gaussian(R) 94 system (copyright 1995, Gaussian, Inc.),
 the Gaussian 92(TM) system (copyright 1992, Gaussian, Inc.),
 the Gaussian 90(TM) system (copyright 1990, Gaussian, Inc.),
 the Gaussian 88(TM) system (copyright 1988, Gaussian, Inc.),
 the Gaussian 86(TM) system (copyright 1986, Carnegie Mellon
 University), and the Gaussian 82(TM) system (copyright 1983,
 Carnegie Mellon University). Gaussian is a federally registered
 trademark of Gaussian, Inc.
  
 This software contains proprietary and confidential information,
 including trade secrets, belonging to Gaussian, Inc.
  
 This software is provided under written license and may be
 used, copied, transmitted, or stored only in accord with that
 written license.
  
 The following legend is applicable only to US Government
 contracts under FAR:
  
                    RESTRICTED RIGHTS LEGEND
  
 Use, reproduction and disclosure by the US Government is
 subject to restrictions as set forth in subparagraphs (a)
 and (c) of the Commercial Computer Software - Restricted
 Rights clause in FAR 52.227-19.
  
 Gaussian, Inc.
 340 Quinnipiac St., Bldg. 40, Wallingford CT 06492
  
  
 ---------------------------------------------------------------
 Warning -- This program may not be used in any manner that
 competes with the business of Gaussian, Inc. or will provide
 assistance to any competitor of Gaussian, Inc.  The licensee
 of this program is prohibited from giving any competitor of
 Gaussian, Inc. access to this program.  By using this program,
 the user acknowledges that Gaussian, Inc. is engaged in the
 business of creating and licensing software in the field of
 computational chemistry and represents and warrants to the
 licensee that it is not a competitor of Gaussian, Inc. and that
 it will not use this program in any manner prohibited above.
 ---------------------------------------------------------------
  

 Cite this work as:
 Gaussian 16, Revision C.01,
 M. J. Frisch, G. W. Trucks, H. B. Schlegel, G. E. Scuseria, 
 M. A. Robb, J. R. Cheeseman, G. Scalmani, V. Barone, 
 G. A. Petersson, H. Nakatsuji, X. Li, M. Caricato, A. V. Marenich, 
 J. Bloino, B. G. Janesko, R. Gomperts, B. Mennucci, H. P. Hratchian, 
 J. V. Ortiz, A. F. Izmaylov, J. L. Sonnenberg, D. Williams-Young, 
 F. Ding, F. Lipparini, F. Egidi, J. Goings, B. Peng, A. Petrone, 
 T. Henderson, D. Ranasinghe, V. G. Zakrzewski, J. Gao, N. Rega, 
 G. Zheng, W. Liang, M. Hada, M. Ehara, K. Toyota, R. Fukuda, 
 J. Hasegawa, M. Ishida, T. Nakajima, Y. Honda, O. Kitao, H. Nakai, 
 T. Vreven, K. Throssell, J. A. Montgomery, Jr., J. E. Peralta, 
 F. Ogliaro, M. J. Bearpark, J. J. Heyd, E. N. Brothers, K. N. Kudin, 
 V. N. Staroverov, T. A. Keith, R. Kobayashi, J. Normand, 
 K. Raghavachari, A. P. Rendell, J. C. Burant, S. S. Iyengar, 
 J. Tomasi, M. Cossi, J. M. Millam, M. Klene, C. Adamo, R. Cammi, 
 J. W. Ochterski, R. L. Martin, K. Morokuma, O. Farkas, 
 J. B. Foresman, and D. J. Fox, Gaussian, Inc., Wallingford CT, 2019.
 
 ******************************************
 Gaussian 16:  ES64L-G16RevC.01  3-Jul-2019
                11-Oct-2023 
 ******************************************
 %chk=MannitolConformerOpt_33.chk
 %mem=8GB
 %nprocs=16
 Will use up to   16 processors via shared memory.
 ---------------------------------------------
 # opt freq wb97xd/Def2TZVPP geom=connectivity
 ---------------------------------------------
 1/18=20,19=15,26=3,38=1,57=2/1,3;
 2/9=110,12=2,17=6,18=5,40=1/2;
 3/5=44,7=202,11=2,25=1,30=1,71=1,74=-58/1,2,3;
 4//1;
 5/5=2,38=5/2;
 6/7=2,8=2,9=2,10=2,28=1/1;
 7//1,2,3,16;
 1/18=20,19=15,26=3/3(2);
 2/9=110/2;
 99//99;
 2/9=110/2;
 3/5=44,7=202,11=2,25=1,30=1,71=1,74=-58/1,2,3;
 4/5=5,16=3,69=1/1;
 5/5=2,38=5/2;
 7//1,2,3,16;
 1/18=20,19=15,26=3/3(-5);
 2/9=110/2;
 6/7=2,8=2,9=2,10=2,19=2,28=1/1;
 99/9=1/99;
 -------------------
 Title Card Required
 -------------------
 Symbolic Z-matrix:
 Charge =  0 Multiplicity = 1
 C                     0.        0.        0. 
 C                     1.5431    0.        0. 
 C                    -0.7183    0.6322    1.2109 
 C                     2.1627   -0.7941    1.163 
 H                     1.9085    1.0332    0. 
 H                    -0.3621   -1.0275   -0.1289 
 C                    -0.3075    2.0814    1.4903 
 H                    -0.5808    0.0243    2.1089 
 C                     3.6917   -0.8865    1.0586 
 H                     1.7512   -1.8097    1.1709 
 H                     0.7562    2.1718    1.722 
 H                    -0.8782    2.4933    2.3295 
 H                     4.0283   -1.2219    0.0737 
 H                     4.0767   -1.5728    1.8199 
 O                    -0.5849    2.8914    0.3409 
 H                    -1.5568    3.0036    0.3448 
 O                    -2.1368    0.644     0.9286 
 H                    -2.2177    0.6034   -0.0462 
 O                    -0.4341    0.6844   -1.2072 
 H                    -0.2888    1.6436   -1.039 
 O                     1.964    -0.5793   -1.2511 
 H                     1.3426   -0.225    -1.921 
 O                     1.849    -0.1668    2.4135 
 H                     2.5881    0.4616    2.5674 
 O                     4.2455    0.4033    1.346 
 H                     5.1963    0.345     1.1401 
 

 GradGradGradGradGradGradGradGradGradGradGradGradGradGradGradGradGradGrad
 Berny optimization.
 Initialization pass.
                           ----------------------------
                           !    Initial Parameters    !
                           ! (Angstroms and Degrees)  !
 --------------------------                            --------------------------
 ! Name  Definition              Value          Derivative Info.                !
 --------------------------------------------------------------------------------
 ! R1    R(1,2)                  1.5431         estimate D2E/DX2                !
 ! R2    R(1,3)                  1.5433         estimate D2E/DX2                !
 ! R3    R(1,6)                  1.097          estimate D2E/DX2                !
 ! R4    R(1,19)                 1.454          estimate D2E/DX2                !
 ! R5    R(2,4)                  1.5385         estimate D2E/DX2                !
 ! R6    R(2,5)                  1.0959         estimate D2E/DX2                !
 ! R7    R(2,21)                 1.4415         estimate D2E/DX2                !
 ! R8    R(3,7)                  1.532          estimate D2E/DX2                !
 ! R9    R(3,8)                  1.0931         estimate D2E/DX2                !
 ! R10   R(3,17)                 1.4464         estimate D2E/DX2                !
 ! R11   R(4,9)                  1.5353         estimate D2E/DX2                !
 ! R12   R(4,10)                 1.0958         estimate D2E/DX2                !
 ! R13   R(4,23)                 1.4338         estimate D2E/DX2                !
 ! R14   R(7,11)                 1.0924         estimate D2E/DX2                !
 ! R15   R(7,12)                 1.0953         estimate D2E/DX2                !
 ! R16   R(7,15)                 1.4332         estimate D2E/DX2                !
 ! R17   R(9,13)                 1.0935         estimate D2E/DX2                !
 ! R18   R(9,14)                 1.0949         estimate D2E/DX2                !
 ! R19   R(9,25)                 1.4328         estimate D2E/DX2                !
 ! R20   R(15,16)                0.9784         estimate D2E/DX2                !
 ! R21   R(17,18)                0.979          estimate D2E/DX2                !
 ! R22   R(19,20)                0.9846         estimate D2E/DX2                !
 ! R23   R(21,22)                0.98           estimate D2E/DX2                !
 ! R24   R(23,24)                0.9823         estimate D2E/DX2                !
 ! R25   R(25,26)                0.9746         estimate D2E/DX2                !
 ! A1    A(2,1,3)              117.7373         estimate D2E/DX2                !
 ! A2    A(2,1,6)              109.2731         estimate D2E/DX2                !
 ! A3    A(2,1,19)             107.3706         estimate D2E/DX2                !
 ! A4    A(3,1,6)              108.798          estimate D2E/DX2                !
 ! A5    A(3,1,19)             108.6416         estimate D2E/DX2                !
 ! A6    A(6,1,19)             104.1678         estimate D2E/DX2                !
 ! A7    A(1,2,4)              113.7485         estimate D2E/DX2                !
 ! A8    A(1,2,5)              109.4766         estimate D2E/DX2                !
 ! A9    A(1,2,21)             106.9767         estimate D2E/DX2                !
 ! A10   A(4,2,5)              110.63           estimate D2E/DX2                !
 ! A11   A(4,2,21)             109.3327         estimate D2E/DX2                !
 ! A12   A(5,2,21)             106.3508         estimate D2E/DX2                !
 ! A13   A(1,3,7)              113.9403         estimate D2E/DX2                !
 ! A14   A(1,3,8)              110.9903         estimate D2E/DX2                !
 ! A15   A(1,3,17)             107.8579         estimate D2E/DX2                !
 ! A16   A(7,3,8)              110.0303         estimate D2E/DX2                !
 ! A17   A(7,3,17)             106.9094         estimate D2E/DX2                !
 ! A18   A(8,3,17)             106.753          estimate D2E/DX2                !
 ! A19   A(2,4,9)              112.3783         estimate D2E/DX2                !
 ! A20   A(2,4,10)             109.4252         estimate D2E/DX2                !
 ! A21   A(2,4,23)             110.2038         estimate D2E/DX2                !
 ! A22   A(9,4,10)             108.583          estimate D2E/DX2                !
 ! A23   A(9,4,23)             107.6697         estimate D2E/DX2                !
 ! A24   A(10,4,23)            108.4841         estimate D2E/DX2                !
 ! A25   A(3,7,11)             112.2142         estimate D2E/DX2                !
 ! A26   A(3,7,12)             110.8403         estimate D2E/DX2                !
 ! A27   A(3,7,15)             109.6609         estimate D2E/DX2                !
 ! A28   A(11,7,12)            108.2846         estimate D2E/DX2                !
 ! A29   A(11,7,15)            108.1674         estimate D2E/DX2                !
 ! A30   A(12,7,15)            107.5223         estimate D2E/DX2                !
 ! A31   A(4,9,13)             112.7206         estimate D2E/DX2                !
 ! A32   A(4,9,14)             109.9147         estimate D2E/DX2                !
 ! A33   A(4,9,25)             108.4881         estimate D2E/DX2                !
 ! A34   A(13,9,14)            109.0112         estimate D2E/DX2                !
 ! A35   A(13,9,25)            109.7423         estimate D2E/DX2                !
 ! A36   A(14,9,25)            106.7907         estimate D2E/DX2                !
 ! A37   A(7,15,16)            104.7075         estimate D2E/DX2                !
 ! A38   A(3,17,18)            105.9649         estimate D2E/DX2                !
 ! A39   A(1,19,20)            105.8225         estimate D2E/DX2                !
 ! A40   A(2,21,22)            105.2386         estimate D2E/DX2                !
 ! A41   A(4,23,24)            104.5914         estimate D2E/DX2                !
 ! A42   A(9,25,26)            106.3114         estimate D2E/DX2                !
 ! D1    D(3,1,2,4)             61.894          estimate D2E/DX2                !
 ! D2    D(3,1,2,5)            -62.4313         estimate D2E/DX2                !
 ! D3    D(3,1,2,21)          -177.277          estimate D2E/DX2                !
 ! D4    D(6,1,2,4)            -62.825          estimate D2E/DX2                !
 ! D5    D(6,1,2,5)            172.8496         estimate D2E/DX2                !
 ! D6    D(6,1,2,21)            58.0039         estimate D2E/DX2                !
 ! D7    D(19,1,2,4)          -175.2249         estimate D2E/DX2                !
 ! D8    D(19,1,2,5)            60.4497         estimate D2E/DX2                !
 ! D9    D(19,1,2,21)          -54.3959         estimate D2E/DX2                !
 ! D10   D(2,1,3,7)             55.6018         estimate D2E/DX2                !
 ! D11   D(2,1,3,8)            -69.2695         estimate D2E/DX2                !
 ! D12   D(2,1,3,17)           174.1168         estimate D2E/DX2                !
 ! D13   D(6,1,3,7)           -179.4436         estimate D2E/DX2                !
 ! D14   D(6,1,3,8)             55.685          estimate D2E/DX2                !
 ! D15   D(6,1,3,17)           -60.9287         estimate D2E/DX2                !
 ! D16   D(19,1,3,7)           -66.6322         estimate D2E/DX2                !
 ! D17   D(19,1,3,8)           168.4964         estimate D2E/DX2                !
 ! D18   D(19,1,3,17)           51.8828         estimate D2E/DX2                !
 ! D19   D(2,1,19,20)          -75.5602         estimate D2E/DX2                !
 ! D20   D(3,1,19,20)           52.7696         estimate D2E/DX2                !
 ! D21   D(6,1,19,20)          168.6124         estimate D2E/DX2                !
 ! D22   D(1,2,4,9)            174.5363         estimate D2E/DX2                !
 ! D23   D(1,2,4,10)            53.8305         estimate D2E/DX2                !
 ! D24   D(1,2,4,23)           -65.3784         estimate D2E/DX2                !
 ! D25   D(5,2,4,9)            -61.7622         estimate D2E/DX2                !
 ! D26   D(5,2,4,10)           177.532          estimate D2E/DX2                !
 ! D27   D(5,2,4,23)            58.3231         estimate D2E/DX2                !
 ! D28   D(21,2,4,9)            55.0368         estimate D2E/DX2                !
 ! D29   D(21,2,4,10)          -65.6691         estimate D2E/DX2                !
 ! D30   D(21,2,4,23)          175.122          estimate D2E/DX2                !
 ! D31   D(1,2,21,22)           39.6205         estimate D2E/DX2                !
 ! D32   D(4,2,21,22)          163.2169         estimate D2E/DX2                !
 ! D33   D(5,2,21,22)          -77.3076         estimate D2E/DX2                !
 ! D34   D(1,3,7,11)           -61.3029         estimate D2E/DX2                !
 ! D35   D(1,3,7,12)           177.494          estimate D2E/DX2                !
 ! D36   D(1,3,7,15)            58.9323         estimate D2E/DX2                !
 ! D37   D(8,3,7,11)            64.079          estimate D2E/DX2                !
 ! D38   D(8,3,7,12)           -57.1241         estimate D2E/DX2                !
 ! D39   D(8,3,7,15)          -175.6858         estimate D2E/DX2                !
 ! D40   D(17,3,7,11)          179.6417         estimate D2E/DX2                !
 ! D41   D(17,3,7,12)           58.4386         estimate D2E/DX2                !
 ! D42   D(17,3,7,15)          -60.1231         estimate D2E/DX2                !
 ! D43   D(1,3,17,18)          -22.7187         estimate D2E/DX2                !
 ! D44   D(7,3,17,18)          100.2057         estimate D2E/DX2                !
 ! D45   D(8,3,17,18)         -142.0598         estimate D2E/DX2                !
 ! D46   D(2,4,9,13)           -50.2322         estimate D2E/DX2                !
 ! D47   D(2,4,9,14)          -172.0568         estimate D2E/DX2                !
 ! D48   D(2,4,9,25)            71.5132         estimate D2E/DX2                !
 ! D49   D(10,4,9,13)           70.9573         estimate D2E/DX2                !
 ! D50   D(10,4,9,14)          -50.8672         estimate D2E/DX2                !
 ! D51   D(10,4,9,25)         -167.2973         estimate D2E/DX2                !
 ! D52   D(23,4,9,13)         -171.7754         estimate D2E/DX2                !
 ! D53   D(23,4,9,14)           66.4001         estimate D2E/DX2                !
 ! D54   D(23,4,9,25)          -50.03           estimate D2E/DX2                !
 ! D55   D(2,4,23,24)          -90.2686         estimate D2E/DX2                !
 ! D56   D(9,4,23,24)           32.6195         estimate D2E/DX2                !
 ! D57   D(10,4,23,24)         149.951          estimate D2E/DX2                !
 ! D58   D(3,7,15,16)           74.554          estimate D2E/DX2                !
 ! D59   D(11,7,15,16)        -162.7771         estimate D2E/DX2                !
 ! D60   D(12,7,15,16)         -46.0417         estimate D2E/DX2                !
 ! D61   D(4,9,25,26)         -171.6074         estimate D2E/DX2                !
 ! D62   D(13,9,25,26)         -48.0558         estimate D2E/DX2                !
 ! D63   D(14,9,25,26)          69.9655         estimate D2E/DX2                !
 --------------------------------------------------------------------------------
 Trust Radius=3.00D-01 FncErr=1.00D-07 GrdErr=1.00D-06 EigMax=2.50D+02 EigMin=1.00D-04
 Number of steps in this run=    140 maximum allowed number of steps=    156.
 GradGradGradGradGradGradGradGradGradGradGradGradGradGradGradGradGradGrad

                          Input orientation:                          
 ---------------------------------------------------------------------
 Center     Atomic      Atomic             Coordinates (Angstroms)
 Number     Number       Type             X           Y           Z
 ---------------------------------------------------------------------
      1          6           0        0.000000    0.000000    0.000000
      2          6           0        1.543100    0.000000    0.000000
      3          6           0       -0.718300    0.632200    1.210900
      4          6           0        2.162700   -0.794100    1.163000
      5          1           0        1.908500    1.033200    0.000000
      6          1           0       -0.362100   -1.027500   -0.128900
      7          6           0       -0.307500    2.081400    1.490300
      8          1           0       -0.580800    0.024300    2.108900
      9          6           0        3.691700   -0.886500    1.058600
     10          1           0        1.751200   -1.809700    1.170900
     11          1           0        0.756200    2.171800    1.722000
     12          1           0       -0.878200    2.493300    2.329500
     13          1           0        4.028300   -1.221900    0.073700
     14          1           0        4.076700   -1.572800    1.819900
     15          8           0       -0.584900    2.891400    0.340900
     16          1           0       -1.556800    3.003600    0.344800
     17          8           0       -2.136800    0.644000    0.928600
     18          1           0       -2.217700    0.603400   -0.046200
     19          8           0       -0.434100    0.684400   -1.207200
     20          1           0       -0.288800    1.643600   -1.039000
     21          8           0        1.964000   -0.579300   -1.251100
     22          1           0        1.342600   -0.225000   -1.921000
     23          8           0        1.849000   -0.166800    2.413500
     24          1           0        2.588100    0.461600    2.567400
     25          8           0        4.245500    0.403300    1.346000
     26          1           0        5.196300    0.345000    1.140100
 ---------------------------------------------------------------------
                    Distance matrix (angstroms):
                    1          2          3          4          5
     1  C    0.000000
     2  C    1.543100   0.000000
     3  C    1.543344   2.641947   0.000000
     4  C    2.580782   1.538528   3.215087   0.000000
     5  H    2.170225   1.095910   2.920130   2.180874   0.000000
     6  H    1.097036   2.168446   2.162532   2.845715   3.068994
     7  C    2.578328   3.158788   1.531993   3.804933   2.868863
     8  H    2.187551   2.993159   1.093093   3.015178   3.414960
     9  C    3.941467   2.554016   4.666663   1.535343   2.825895
    10  H    2.777179   2.165485   3.473169   1.095828   3.078609
    11  H    2.872949   2.881182   2.192200   3.329758   2.364210
    12  H    3.523400   4.183994   2.177275   4.627612   3.914608
    13  H    4.210187   2.770323   5.221218   2.202283   3.095878
    14  H    4.733415   3.493546   5.312714   2.168245   3.847644
    15  O    2.969598   3.606216   2.424599   4.669911   3.128284
    16  H    3.400607   4.330113   2.660216   5.378351   4.001208
    17  O    2.417219   3.849506   1.446366   4.539689   4.168720
    18  H    2.298786   3.809179   1.956867   4.754269   4.148782
    19  O    1.454021   2.415586   2.435303   3.814077   2.658339
    20  H    1.965794   2.671479   2.503887   4.098907   2.506040
    21  O    2.399612   1.441526   3.837175   2.431769   2.041687
    22  H    2.354451   1.944496   3.845894   3.241527   2.365069
    23  O    3.044931   2.438520   2.945450   1.433758   2.696020
    24  H    3.674626   2.810096   3.577915   1.931343   2.716639
    25  O    4.471984   3.045871   4.970911   2.409421   2.769487
    26  H    5.331077   3.842489   5.921992   3.240494   3.547263
                    6          7          8          9         10
     6  H    0.000000
     7  C    3.505717   0.000000
     8  H    2.482310   2.165414   0.000000
     9  C    4.226503   4.998839   4.492988   0.000000
    10  H    2.601414   4.413720   3.111531   2.151848   0.000000
    11  H    3.861599   1.092389   2.559105   4.290741   4.140782
    12  H    4.325058   1.095270   2.496612   5.824279   5.174158
    13  H    4.399369   5.631848   5.190266   1.093536   2.595099
    14  H    4.878332   5.716907   4.932196   1.094902   2.425958
    15  O    3.953243   1.433238   3.368398   5.751255   5.314753
    16  H    4.231013   1.929605   3.597340   6.571845   5.898573
    17  O    2.657401   2.393317   2.048969   6.027499   4.603900
    18  H    2.471826   2.862548   2.767536   6.193658   4.801724
    19  O    2.024479   3.040418   3.384342   4.962238   4.080616
    20  H    2.822841   2.566978   3.551995   5.161948   4.579360
    21  O    2.621251   4.444582   4.257927   2.900695   2.724932
    22  H    2.600314   4.436133   4.472327   3.851476   3.498296
    23  O    3.477580   3.249184   2.456263   2.397763   2.062217
    24  H    4.265106   3.488323   3.231622   2.304731   2.794534
    25  O    5.045047   4.854550   4.900901   1.432787   3.339096
    26  H    5.864293   5.781828   5.866541   1.946036   4.063545
                   11         12         13         14         15
    11  H    0.000000
    12  H    1.773043   0.000000
    13  H    4.994070   6.554776   0.000000
    14  H    5.005730   6.429922   1.781765   0.000000
    15  O    2.055191   2.049156   6.186457   6.621710   0.000000
    16  H    2.817541   2.158689   7.008687   7.406462   0.978363
    17  O    3.366468   2.639414   6.497761   6.657041   2.793670
    18  H    3.798749   3.318122   6.508349   6.916476   2.837398
    19  O    3.494193   3.997198   5.018735   5.882653   2.700038
    20  H    2.999023   3.523659   5.299674   6.129937   1.883827
    21  O    4.226897   5.508146   2.535619   3.857666   4.590982
    22  H    4.399996   5.512518   3.490791   4.825578   4.306204
    23  O    2.672346   3.810618   3.367083   2.700342   4.424040
    24  H    2.644871   4.024877   3.335699   2.629348   4.574840
    25  O    3.929909   5.620291   2.075379   2.039129   5.525725
    26  H    4.836351   6.552054   2.226344   2.322410   6.367507
                   16         17         18         19         20
    16  H    0.000000
    17  O    2.498987   0.000000
    18  H    2.520046   0.978993   0.000000
    19  O    3.007964   2.731751   2.129721   0.000000
    20  H    2.317828   2.878499   2.405893   0.984616   0.000000
    21  O    5.270683   4.802511   4.509676   2.711042   3.171968
    22  H    4.895327   4.580568   4.108145   2.119713   2.632690
    23  O    5.092193   4.330003   4.814705   4.364236   4.446065
    24  H    5.346205   5.004360   5.472360   4.840551   4.762331
    25  O    6.436664   6.400462   6.614470   5.338212   5.271285
    26  H    7.301028   7.342240   7.512754   6.109535   6.043274
                   21         22         23         24         25
    21  O    0.000000
    22  H    0.980017   0.000000
    23  O    3.689536   4.364369   0.000000
    24  H    4.006734   4.708336   0.982263   0.000000
    25  O    3.593838   4.415300   2.684731   2.059658   0.000000
    26  H    4.125522   4.954416   3.617721   2.975481   0.974584
                   26
    26  H    0.000000
 Stoichiometry    C6H14O6
 Framework group  C1[X(C6H14O6)]
 Deg. of freedom    72
 Full point group                 C1      NOp   1
 Largest Abelian subgroup         C1      NOp   1
 Largest concise Abelian subgroup C1      NOp   1
                         Standard orientation:                         
 ---------------------------------------------------------------------
 Center     Atomic      Atomic             Coordinates (Angstroms)
 Number     Number       Type             X           Y           Z
 ---------------------------------------------------------------------
      1          6           0       -0.782377    0.775400   -0.512869
      2          6           0        0.637415    0.712695    0.088312
      3          6           0       -1.538250   -0.555610   -0.710294
      4          6           0        1.640223   -0.075704   -0.771846
      5          1           0        0.587307    0.297355    1.101229
      6          1           0       -0.746417    1.307104   -1.471767
      7          6           0       -1.669498   -1.391352    0.566934
      8          1           0       -1.079582   -1.152550   -1.502846
      9          6           0        3.069397   -0.005876   -0.215193
     10          1           0        1.642256    0.327412   -1.790831
     11          1           0       -0.697542   -1.682995    0.971358
     12          1           0       -2.250603   -2.300661    0.379605
     13          1           0        3.389491    1.017470   -0.000432
     14          1           0        3.769137   -0.456594   -0.926549
     15          8           0       -2.361808   -0.635546    1.568750
     16          1           0       -3.297540   -0.643135    1.283193
     17          8           0       -2.880776   -0.242566   -1.148018
     18          1           0       -3.053864    0.674174   -0.851274
     19          8           0       -1.578653    1.639488    0.343562
     20          1           0       -1.783962    1.106877    1.145834
     21          8           0        1.095180    2.072306    0.229392
     22          1           0        0.312737    2.577149    0.534924
     23          8           0        1.263074   -1.457725   -0.830495
     24          1           0        1.726129   -1.873072   -0.070292
     25          8           0        3.130255   -0.793009    0.980464
     26          1           0        4.002830   -0.619430    1.378328
 ---------------------------------------------------------------------
 Rotational constants (GHZ):           1.4192704           0.5685198           0.5101553
 Standard basis: def2TZVPP (5D, 7F)
 There are   642 symmetry adapted cartesian basis functions of A   symmetry.
 There are   568 symmetry adapted basis functions of A   symmetry.
   568 basis functions,   850 primitive gaussians,   642 cartesian basis functions
    49 alpha electrons       49 beta electrons
       nuclear repulsion energy       838.1829943146 Hartrees.
 NAtoms=   26 NActive=   26 NUniq=   26 SFac= 1.00D+00 NAtFMM=   60 NAOKFM=F Big=F
 Integral buffers will be    131072 words long.
 Raffenetti 2 integral format.
 Two-electron integral symmetry is turned on.
 Nuclear repulsion after empirical dispersion term =      838.1638067454 Hartrees.
 One-electron integrals computed using PRISM.
   1 Symmetry operations used in ECPInt.
 ECPInt:  NShTT=   23436 NPrTT=   62434 LenC2=   22016 LenP2D=   45813.
 LDataN:  DoStor=T MaxTD1= 6 Len=  172
 NBasis=   568 RedAO= T EigKep=  3.50D-05  NBF=   568
 NBsUse=   568 1.00D-06 EigRej= -1.00D+00 NBFU=   568
 ExpMin= 9.52D-02 ExpMax= 2.70D+04 ExpMxC= 9.22D+02 IAcc=3 IRadAn=         5 AccDes= 0.00D+00
 Harris functional with IExCor= 4639 and IRadAn=       5 diagonalized for initial guess.
 HarFok:  IExCor= 4639 AccDes= 0.00D+00 IRadAn=         5 IDoV= 1 UseB2=F ITyADJ=14
 ICtDFT=  3500011 ScaDFX=  1.000000  1.000000  1.000000  1.000000
 FoFCou: FMM=F IPFlag=           0 FMFlag=      100000 FMFlg1=           0
         NFxFlg=           0 DoJE=T BraDBF=F KetDBF=T FulRan=T
         wScrn=  0.000000 ICntrl=       500 IOpCl=  0 I1Cent=   200000004 NGrid=           0
         NMat0=    1 NMatS0=      1 NMatT0=    0 NMatD0=    1 NMtDS0=    0 NMtDT0=    0
 Petite list used in FoFCou.
 Requested convergence on RMS density matrix=1.00D-08 within 128 cycles.
 Requested convergence on MAX density matrix=1.00D-06.
 Requested convergence on             energy=1.00D-06.
 No special actions if energy rises.
 Integral accuracy reduced to 1.0D-05 until final iterations.
 Initial convergence to 1.0D-05 achieved.  Increase integral accuracy.
 SCF Done:  E(RwB97XD) =  -688.471555208     A.U. after   14 cycles
            NFock= 14  Conv=0.21D-08     -V/T= 2.0050

 **********************************************************************

            Population analysis using the SCF Density.

 **********************************************************************

 Orbital symmetries:
       Occupied  (A) (A) (A) (A) (A) (A) (A) (A) (A) (A) (A) (A)
                 (A) (A) (A) (A) (A) (A) (A) (A) (A) (A) (A) (A)
                 (A) (A) (A) (A) (A) (A) (A) (A) (A) (A) (A) (A)
                 (A) (A) (A) (A) (A) (A) (A) (A) (A) (A) (A) (A)
                 (A)
       Virtual   (A) (A) (A) (A) (A) (A) (A) (A) (A) (A) (A) (A)
                 (A) (A) (A) (A) (A) (A) (A) (A) (A) (A) (A) (A)
                 (A) (A) (A) (A) (A) (A) (A) (A) (A) (A) (A) (A)
                 (A) (A) (A) (A) (A) (A) (A) (A) (A) (A) (A) (A)
                 (A) (A) (A) (A) (A) (A) (A) (A) (A) (A) (A) (A)
                 (A) (A) (A) (A) (A) (A) (A) (A) (A) (A) (A) (A)
                 (A) (A) (A) (A) (A) (A) (A) (A) (A) (A) (A) (A)
                 (A) (A) (A) (A) (A) (A) (A) (A) (A) (A) (A) (A)
                 (A) (A) (A) (A) (A) (A) (A) (A) (A) (A) (A) (A)
                 (A) (A) (A) (A) (A) (A) (A) (A) (A) (A) (A) (A)
                 (A) (A) (A) (A) (A) (A) (A) (A) (A) (A) (A) (A)
                 (A) (A) (A) (A) (A) (A) (A) (A) (A) (A) (A) (A)
                 (A) (A) (A) (A) (A) (A) (A) (A) (A) (A) (A) (A)
                 (A) (A) (A) (A) (A) (A) (A) (A) (A) (A) (A) (A)
                 (A) (A) (A) (A) (A) (A) (A) (A) (A) (A) (A) (A)
                 (A) (A) (A) (A) (A) (A) (A) (A) (A) (A) (A) (A)
                 (A) (A) (A) (A) (A) (A) (A) (A) (A) (A) (A) (A)
                 (A) (A) (A) (A) (A) (A) (A) (A) (A) (A) (A) (A)
                 (A) (A) (A) (A) (A) (A) (A) (A) (A) (A) (A) (A)
                 (A) (A) (A) (A) (A) (A) (A) (A) (A) (A) (A) (A)
                 (A) (A) (A) (A) (A) (A) (A) (A) (A) (A) (A) (A)
                 (A) (A) (A) (A) (A) (A) (A) (A) (A) (A) (A) (A)
                 (A) (A) (A) (A) (A) (A) (A) (A) (A) (A) (A) (A)
                 (A) (A) (A) (A) (A) (A) (A) (A) (A) (A) (A) (A)
                 (A) (A) (A) (A) (A) (A) (A) (A) (A) (A) (A) (A)
                 (A) (A) (A) (A) (A) (A) (A) (A) (A) (A) (A) (A)
                 (A) (A) (A) (A) (A) (A) (A) (A) (A) (A) (A) (A)
                 (A) (A) (A) (A) (A) (A) (A) (A) (A) (A) (A) (A)
                 (A) (A) (A) (A) (A) (A) (A) (A) (A) (A) (A) (A)
                 (A) (A) (A) (A) (A) (A) (A) (A) (A) (A) (A) (A)
                 (A) (A) (A) (A) (A) (A) (A) (A) (A) (A) (A) (A)
                 (A) (A) (A) (A) (A) (A) (A) (A) (A) (A) (A) (A)
                 (A) (A) (A) (A) (A) (A) (A) (A) (A) (A) (A) (A)
                 (A) (A) (A) (A) (A) (A) (A) (A) (A) (A) (A) (A)
                 (A) (A) (A) (A) (A) (A) (A) (A) (A) (A) (A) (A)
                 (A) (A) (A) (A) (A) (A) (A) (A) (A) (A) (A) (A)
                 (A) (A) (A) (A) (A) (A) (A) (A) (A) (A) (A) (A)
                 (A) (A) (A) (A) (A) (A) (A) (A) (A) (A) (A) (A)
                 (A) (A) (A) (A) (A) (A) (A) (A) (A) (A) (A) (A)
                 (A) (A) (A) (A) (A) (A) (A) (A) (A) (A) (A) (A)
                 (A) (A) (A) (A) (A) (A) (A) (A) (A) (A) (A) (A)
                 (A) (A) (A) (A) (A) (A) (A) (A) (A) (A) (A) (A)
                 (A) (A) (A) (A) (A) (A) (A) (A) (A) (A) (A) (A)
                 (A) (A) (A)
 The electronic state is 1-A.
 Alpha  occ. eigenvalues --  -19.27087 -19.26919 -19.25820 -19.25819 -19.24783
 Alpha  occ. eigenvalues --  -19.24670 -10.35053 -10.34705 -10.34166 -10.34120
 Alpha  occ. eigenvalues --  -10.33918 -10.33566  -1.15646  -1.15076  -1.13144
 Alpha  occ. eigenvalues --   -1.12006  -1.11267  -1.09936  -0.88109  -0.85146
 Alpha  occ. eigenvalues --   -0.80329  -0.75088  -0.70805  -0.68952  -0.63176
 Alpha  occ. eigenvalues --   -0.62945  -0.61531  -0.59247  -0.58497  -0.57342
 Alpha  occ. eigenvalues --   -0.56453  -0.55317  -0.53408  -0.51833  -0.50596
 Alpha  occ. eigenvalues --   -0.49897  -0.48590  -0.47129  -0.46020  -0.45152
 Alpha  occ. eigenvalues --   -0.43484  -0.42484  -0.41305  -0.39922  -0.38708
 Alpha  occ. eigenvalues --   -0.38096  -0.36622  -0.35774  -0.35064
 Alpha virt. eigenvalues --    0.08914   0.09602   0.12605   0.13047   0.14368
 Alpha virt. eigenvalues --    0.15339   0.15952   0.16638   0.17991   0.18631
 Alpha virt. eigenvalues --    0.18829   0.19779   0.20509   0.20816   0.21907
 Alpha virt. eigenvalues --    0.23269   0.23567   0.25261   0.25910   0.26182
 Alpha virt. eigenvalues --    0.28556   0.29481   0.31009   0.31870   0.33309
 Alpha virt. eigenvalues --    0.34626   0.35416   0.36686   0.37052   0.38021
 Alpha virt. eigenvalues --    0.38895   0.39839   0.40804   0.41243   0.41870
 Alpha virt. eigenvalues --    0.42409   0.42958   0.43709   0.44325   0.44813
 Alpha virt. eigenvalues --    0.45253   0.45858   0.47098   0.47667   0.48153
 Alpha virt. eigenvalues --    0.48620   0.48864   0.50662   0.51165   0.51360
 Alpha virt. eigenvalues --    0.51907   0.52525   0.53051   0.54104   0.54889
 Alpha virt. eigenvalues --    0.56168   0.56672   0.56974   0.58039   0.58266
 Alpha virt. eigenvalues --    0.60152   0.60799   0.61928   0.62528   0.63194
 Alpha virt. eigenvalues --    0.64717   0.65789   0.66969   0.68025   0.68878
 Alpha virt. eigenvalues --    0.70253   0.70953   0.72060   0.73125   0.74654
 Alpha virt. eigenvalues --    0.75037   0.76442   0.77261   0.78556   0.79669
 Alpha virt. eigenvalues --    0.80858   0.81399   0.84016   0.85222   0.86102
 Alpha virt. eigenvalues --    0.87250   0.88325   0.90009   0.90721   0.91253
 Alpha virt. eigenvalues --    0.93025   0.93132   0.94793   0.96143   0.96589
 Alpha virt. eigenvalues --    0.98395   0.99095   1.00723   1.00960   1.02192
 Alpha virt. eigenvalues --    1.03604   1.04206   1.05534   1.06754   1.07971
 Alpha virt. eigenvalues --    1.09355   1.10083   1.11905   1.12856   1.13636
 Alpha virt. eigenvalues --    1.15066   1.16246   1.16834   1.17110   1.18216
 Alpha virt. eigenvalues --    1.19336   1.21039   1.22175   1.23239   1.24257
 Alpha virt. eigenvalues --    1.25496   1.25802   1.26976   1.27446   1.29602
 Alpha virt. eigenvalues --    1.31118   1.32270   1.33077   1.34490   1.35684
 Alpha virt. eigenvalues --    1.37074   1.37373   1.37850   1.38798   1.41131
 Alpha virt. eigenvalues --    1.42416   1.43404   1.44617   1.45124   1.46906
 Alpha virt. eigenvalues --    1.48253   1.48450   1.49726   1.51349   1.51636
 Alpha virt. eigenvalues --    1.52880   1.55218   1.55796   1.56217   1.57880
 Alpha virt. eigenvalues --    1.59385   1.60437   1.62077   1.64545   1.65138
 Alpha virt. eigenvalues --    1.65557   1.66551   1.69644   1.70049   1.70831
 Alpha virt. eigenvalues --    1.76544   1.77824   1.81173   1.81768   1.85381
 Alpha virt. eigenvalues --    1.87425   1.89051   1.90637   1.91352   1.93845
 Alpha virt. eigenvalues --    1.95634   1.96917   1.97738   1.99012   1.99268
 Alpha virt. eigenvalues --    2.01218   2.01446   2.03139   2.03465   2.05108
 Alpha virt. eigenvalues --    2.06728   2.07627   2.07957   2.09897   2.11245
 Alpha virt. eigenvalues --    2.12717   2.13239   2.16556   2.17808   2.19583
 Alpha virt. eigenvalues --    2.20343   2.22648   2.24478   2.24859   2.25970
 Alpha virt. eigenvalues --    2.27496   2.28165   2.29169   2.30001   2.31404
 Alpha virt. eigenvalues --    2.33114   2.35736   2.39045   2.40984   2.42191
 Alpha virt. eigenvalues --    2.44332   2.46849   2.48779   2.49214   2.53567
 Alpha virt. eigenvalues --    2.56542   2.59136   2.60637   2.61678   2.63699
 Alpha virt. eigenvalues --    2.66982   2.68043   2.69547   2.71772   2.72423
 Alpha virt. eigenvalues --    2.72717   2.74157   2.75622   2.77062   2.78783
 Alpha virt. eigenvalues --    2.78954   2.79857   2.81200   2.82163   2.83839
 Alpha virt. eigenvalues --    2.85312   2.88225   2.88415   2.91334   2.92514
 Alpha virt. eigenvalues --    2.92710   2.95353   2.96251   2.97865   2.99812
 Alpha virt. eigenvalues --    3.00699   3.00778   3.01987   3.04006   3.05248
 Alpha virt. eigenvalues --    3.08482   3.08781   3.09058   3.10954   3.11645
 Alpha virt. eigenvalues --    3.11900   3.13310   3.13921   3.15562   3.17090
 Alpha virt. eigenvalues --    3.18299   3.19136   3.20032   3.21345   3.22851
 Alpha virt. eigenvalues --    3.23141   3.23854   3.25181   3.25540   3.26601
 Alpha virt. eigenvalues --    3.28751   3.29182   3.31101   3.31727   3.32397
 Alpha virt. eigenvalues --    3.33668   3.35240   3.35900   3.37175   3.38121
 Alpha virt. eigenvalues --    3.38838   3.39547   3.39970   3.42618   3.43537
 Alpha virt. eigenvalues --    3.44106   3.45709   3.46365   3.47043   3.48446
 Alpha virt. eigenvalues --    3.49663   3.50248   3.51371   3.52421   3.53124
 Alpha virt. eigenvalues --    3.54413   3.55211   3.58388   3.59476   3.60054
 Alpha virt. eigenvalues --    3.61836   3.63000   3.64275   3.64949   3.66411
 Alpha virt. eigenvalues --    3.68813   3.68934   3.69913   3.71123   3.71888
 Alpha virt. eigenvalues --    3.72822   3.74218   3.75229   3.77367   3.78460
 Alpha virt. eigenvalues --    3.79115   3.79413   3.81503   3.82375   3.83437
 Alpha virt. eigenvalues --    3.85100   3.85637   3.86589   3.88849   3.89648
 Alpha virt. eigenvalues --    3.91194   3.92896   3.93648   3.94050   3.94844
 Alpha virt. eigenvalues --    3.98277   3.98409   4.00218   4.00557   4.00840
 Alpha virt. eigenvalues --    4.01860   4.03412   4.04860   4.06161   4.06740
 Alpha virt. eigenvalues --    4.07386   4.09237   4.09963   4.10662   4.12745
 Alpha virt. eigenvalues --    4.13967   4.15053   4.15701   4.15866   4.17374
 Alpha virt. eigenvalues --    4.18439   4.19203   4.20856   4.22071   4.22834
 Alpha virt. eigenvalues --    4.24003   4.25207   4.25737   4.28243   4.28359
 Alpha virt. eigenvalues --    4.29700   4.31300   4.32518   4.33585   4.34983
 Alpha virt. eigenvalues --    4.35495   4.37079   4.37784   4.39501   4.39750
 Alpha virt. eigenvalues --    4.40809   4.42213   4.43001   4.47200   4.47714
 Alpha virt. eigenvalues --    4.49217   4.49773   4.50225   4.53171   4.54410
 Alpha virt. eigenvalues --    4.54969   4.56653   4.58837   4.61075   4.62370
 Alpha virt. eigenvalues --    4.62722   4.66757   4.68378   4.69756   4.71384
 Alpha virt. eigenvalues --    4.73021   4.76467   4.77888   4.82129   4.83018
 Alpha virt. eigenvalues --    4.84698   4.85698   4.86164   4.87719   4.88820
 Alpha virt. eigenvalues --    4.90729   4.93271   4.93861   4.95512   4.96659
 Alpha virt. eigenvalues --    4.97695   5.00218   5.01827   5.02539   5.04407
 Alpha virt. eigenvalues --    5.04859   5.06802   5.07218   5.08925   5.11409
 Alpha virt. eigenvalues --    5.12518   5.14404   5.16829   5.19570   5.21043
 Alpha virt. eigenvalues --    5.22956   5.25229   5.27825   5.28818   5.30202
 Alpha virt. eigenvalues --    5.32047   5.35568   5.38772   5.40427   5.43400
 Alpha virt. eigenvalues --    5.46328   5.50540   5.54573   5.56158   5.58534
 Alpha virt. eigenvalues --    5.61871   5.63209   5.64600   5.65278   5.66383
 Alpha virt. eigenvalues --    5.67793   5.69916   5.71456   5.72834   5.74666
 Alpha virt. eigenvalues --    5.76685   5.78082   5.78790   5.82264   5.84550
 Alpha virt. eigenvalues --    5.86757   5.87992   5.90517   5.93238   5.96334
 Alpha virt. eigenvalues --    5.97365   5.99040   6.01156   6.11862   6.12370
 Alpha virt. eigenvalues --    6.13825   6.14984   6.18889   6.20979   6.53459
 Alpha virt. eigenvalues --    6.54507   6.55070   6.56127   6.57352   6.58777
 Alpha virt. eigenvalues --    6.70379   6.72280   6.73531   6.75031   6.75953
 Alpha virt. eigenvalues --    6.76457   6.77414   6.78978   6.80394   6.81281
 Alpha virt. eigenvalues --    6.82201   6.83942   6.85595   6.87992   6.90468
 Alpha virt. eigenvalues --    6.91370   6.91602   6.96186   6.97922   7.01420
 Alpha virt. eigenvalues --    7.03408   7.04351   7.04659   7.05997   7.14920
 Alpha virt. eigenvalues --    7.16232   7.21048   7.23612   7.25573   7.27546
 Alpha virt. eigenvalues --    7.38884   7.40699   7.42617   7.43305   7.45587
 Alpha virt. eigenvalues --    7.48090   7.51382   7.56666   7.59143   7.62607
 Alpha virt. eigenvalues --    7.65091   7.70804  23.10225  23.18238  23.22570
 Alpha virt. eigenvalues --   23.24862  23.39821  23.43846  44.08446  44.13834
 Alpha virt. eigenvalues --   44.26773  44.28341  44.32270  44.36089
          Condensed to atoms (all electrons):
               1          2          3          4          5          6
     1  C    4.908580   0.289775   0.300287  -0.026691   0.002868   0.404085
     2  C    0.289775   5.031696  -0.081410   0.226860   0.362995  -0.013568
     3  C    0.300287  -0.081410   4.885338   0.020989  -0.016450  -0.052260
     4  C   -0.026691   0.226860   0.020989   4.864781  -0.015421  -0.011713
     5  H    0.002868   0.362995  -0.016450  -0.015421   0.614574   0.007882
     6  H    0.404085  -0.013568  -0.052260  -0.011713   0.007882   0.564280
     7  C    0.025284   0.038188   0.198337  -0.012387   0.005811   0.012713
     8  H   -0.013403  -0.014091   0.430758   0.002185  -0.000355  -0.005664
     9  C   -0.003255  -0.003002   0.000170   0.304400  -0.019507  -0.000945
    10  H   -0.000081  -0.053544  -0.002566   0.417072   0.007964   0.006286
    11  H   -0.022422   0.015540  -0.012468  -0.008195  -0.007740  -0.000723
    12  H    0.004104  -0.001649  -0.038381   0.000440   0.000379  -0.000370
    13  H    0.001407  -0.016800  -0.000058  -0.012757   0.000170  -0.000012
    14  H   -0.000413   0.013312  -0.000057  -0.056656   0.001070   0.000018
    15  O   -0.023391  -0.007173  -0.021081   0.000982   0.002546  -0.001892
    16  H   -0.013577   0.001341   0.023656  -0.000067  -0.000641  -0.000211
    17  O   -0.042050   0.008553   0.293451  -0.001344   0.000030   0.005597
    18  H   -0.010726   0.001174  -0.048682  -0.000311   0.000010  -0.001818
    19  O    0.193528  -0.020810  -0.030509   0.006482  -0.000683  -0.032519
    20  H   -0.045796   0.009673  -0.004819   0.001790   0.002012   0.005123
    21  O   -0.025242   0.271363   0.011020  -0.045505  -0.041449   0.007717
    22  H   -0.024782  -0.027725   0.003974   0.007491  -0.005247  -0.002226
    23  O   -0.004385  -0.046702  -0.009001   0.263684  -0.002527   0.001059
    24  H   -0.002282   0.010726   0.000917  -0.057570   0.000469  -0.000142
    25  O    0.000539  -0.001368   0.000016  -0.079231   0.017291   0.000014
    26  H   -0.000076   0.000817   0.000015   0.007678  -0.000983  -0.000000
               7          8          9         10         11         12
     1  C    0.025284  -0.013403  -0.003255  -0.000081  -0.022422   0.004104
     2  C    0.038188  -0.014091  -0.003002  -0.053544   0.015540  -0.001649
     3  C    0.198337   0.430758   0.000170  -0.002566  -0.012468  -0.038381
     4  C   -0.012387   0.002185   0.304400   0.417072  -0.008195   0.000440
     5  H    0.005811  -0.000355  -0.019507   0.007964  -0.007740   0.000379
     6  H    0.012713  -0.005664  -0.000945   0.006286  -0.000723  -0.000370
     7  C    4.921769  -0.050438   0.000046   0.000260   0.380410   0.428442
     8  H   -0.050438   0.569809   0.000226  -0.001018   0.005002  -0.002463
     9  C    0.000046   0.000226   4.768987  -0.032008  -0.000025  -0.000022
    10  H    0.000260  -0.001018  -0.032008   0.587284   0.000145   0.000006
    11  H    0.380410   0.005002  -0.000025   0.000145   0.590405  -0.020825
    12  H    0.428442  -0.002463  -0.000022   0.000006  -0.020825   0.575096
    13  H    0.000096  -0.000018   0.419138   0.000797  -0.000054   0.000000
    14  H   -0.000067   0.000008   0.444810  -0.004206   0.000023  -0.000001
    15  O    0.213248   0.004920  -0.000014  -0.000016  -0.025828  -0.034173
    16  H   -0.054441   0.001027   0.000002  -0.000005   0.010086  -0.010707
    17  O   -0.078038  -0.023393   0.000010   0.000025   0.004886   0.004128
    18  H   -0.006946   0.006154   0.000008  -0.000016  -0.000425   0.000021
    19  O   -0.007878   0.003383  -0.000004   0.000065   0.000607  -0.000618
    20  H   -0.004987   0.000061  -0.000003   0.000037  -0.001120   0.001248
    21  O   -0.001570  -0.000215  -0.005569   0.009772   0.000236   0.000007
    22  H   -0.000467  -0.000028   0.000943  -0.000681  -0.000060   0.000007
    23  O   -0.004262   0.007330  -0.022498  -0.024287   0.013172  -0.000061
    24  H   -0.001077  -0.000655  -0.007704   0.005786   0.001544   0.000072
    25  O   -0.000816  -0.000036   0.257670   0.002652   0.000767  -0.000005
    26  H    0.000010   0.000003  -0.022692  -0.000426   0.000002   0.000000
              13         14         15         16         17         18
     1  C    0.001407  -0.000413  -0.023391  -0.013577  -0.042050  -0.010726
     2  C   -0.016800   0.013312  -0.007173   0.001341   0.008553   0.001174
     3  C   -0.000058  -0.000057  -0.021081   0.023656   0.293451  -0.048682
     4  C   -0.012757  -0.056656   0.000982  -0.000067  -0.001344  -0.000311
     5  H    0.000170   0.001070   0.002546  -0.000641   0.000030   0.000010
     6  H   -0.000012   0.000018  -0.001892  -0.000211   0.005597  -0.001818
     7  C    0.000096  -0.000067   0.213248  -0.054441  -0.078038  -0.006946
     8  H   -0.000018   0.000008   0.004920   0.001027  -0.023393   0.006154
     9  C    0.419138   0.444810  -0.000014   0.000002   0.000010   0.000008
    10  H    0.000797  -0.004206  -0.000016  -0.000005   0.000025  -0.000016
    11  H   -0.000054   0.000023  -0.025828   0.010086   0.004886  -0.000425
    12  H    0.000000  -0.000001  -0.034173  -0.010707   0.004128   0.000021
    13  H    0.568213  -0.036380  -0.000000   0.000000   0.000000   0.000001
    14  H   -0.036380   0.583817   0.000000  -0.000000  -0.000000  -0.000000
    15  O   -0.000000   0.000000   7.919936   0.318485  -0.005096   0.003311
    16  H    0.000000  -0.000000   0.318485   0.520782   0.016336   0.000549
    17  O    0.000000  -0.000000  -0.005096   0.016336   7.898930   0.332306
    18  H    0.000001  -0.000000   0.003311   0.000549   0.332306   0.492117
    19  O   -0.000053   0.000011  -0.026065   0.002315  -0.013705   0.032616
    20  H   -0.000011   0.000001   0.047296  -0.003091   0.001032  -0.001357
    21  O    0.011812  -0.000084   0.000021   0.000007  -0.000154  -0.000021
    22  H   -0.000445   0.000017   0.000106   0.000007  -0.000039  -0.000128
    23  O    0.002987   0.000339   0.000133  -0.000020   0.000216  -0.000030
    24  H    0.001925  -0.001754   0.000012   0.000002  -0.000005   0.000003
    25  O   -0.040104  -0.048593   0.000002   0.000000  -0.000000  -0.000000
    26  H   -0.007622  -0.003395  -0.000000   0.000000   0.000000   0.000000
              19         20         21         22         23         24
     1  C    0.193528  -0.045796  -0.025242  -0.024782  -0.004385  -0.002282
     2  C   -0.020810   0.009673   0.271363  -0.027725  -0.046702   0.010726
     3  C   -0.030509  -0.004819   0.011020   0.003974  -0.009001   0.000917
     4  C    0.006482   0.001790  -0.045505   0.007491   0.263684  -0.057570
     5  H   -0.000683   0.002012  -0.041449  -0.005247  -0.002527   0.000469
     6  H   -0.032519   0.005123   0.007717  -0.002226   0.001059  -0.000142
     7  C   -0.007878  -0.004987  -0.001570  -0.000467  -0.004262  -0.001077
     8  H    0.003383   0.000061  -0.000215  -0.000028   0.007330  -0.000655
     9  C   -0.000004  -0.000003  -0.005569   0.000943  -0.022498  -0.007704
    10  H    0.000065   0.000037   0.009772  -0.000681  -0.024287   0.005786
    11  H    0.000607  -0.001120   0.000236  -0.000060   0.013172   0.001544
    12  H   -0.000618   0.001248   0.000007   0.000007  -0.000061   0.000072
    13  H   -0.000053  -0.000011   0.011812  -0.000445   0.002987   0.001925
    14  H    0.000011   0.000001  -0.000084   0.000017   0.000339  -0.001754
    15  O   -0.026065   0.047296   0.000021   0.000106   0.000133   0.000012
    16  H    0.002315  -0.003091   0.000007   0.000007  -0.000020   0.000002
    17  O   -0.013705   0.001032  -0.000154  -0.000039   0.000216  -0.000005
    18  H    0.032616  -0.001357  -0.000021  -0.000128  -0.000030   0.000003
    19  O    8.002058   0.324620  -0.021337   0.031632  -0.000140   0.000022
    20  H    0.324620   0.448975   0.000082  -0.000179   0.000056   0.000000
    21  O   -0.021337   0.000082   7.881209   0.327979   0.002367  -0.000134
    22  H    0.031632  -0.000179   0.327979   0.485989  -0.000384   0.000044
    23  O   -0.000140   0.000056   0.002367  -0.000384   7.906605   0.328373
    24  H    0.000022   0.000000  -0.000134   0.000044   0.328373   0.487165
    25  O    0.000001  -0.000013   0.000186  -0.000088  -0.013888   0.028934
    26  H   -0.000001   0.000000   0.000000  -0.000005   0.000546  -0.001810
              25         26
     1  C    0.000539  -0.000076
     2  C   -0.001368   0.000817
     3  C    0.000016   0.000015
     4  C   -0.079231   0.007678
     5  H    0.017291  -0.000983
     6  H    0.000014  -0.000000
     7  C   -0.000816   0.000010
     8  H   -0.000036   0.000003
     9  C    0.257670  -0.022692
    10  H    0.002652  -0.000426
    11  H    0.000767   0.000002
    12  H   -0.000005   0.000000
    13  H   -0.040104  -0.007622
    14  H   -0.048593  -0.003395
    15  O    0.000002  -0.000000
    16  H    0.000000   0.000000
    17  O   -0.000000   0.000000
    18  H   -0.000000   0.000000
    19  O    0.000001  -0.000001
    20  H   -0.000013   0.000000
    21  O    0.000186   0.000000
    22  H   -0.000088  -0.000005
    23  O   -0.013888   0.000546
    24  H    0.028934  -0.001810
    25  O    7.909933   0.325591
    26  H    0.325591   0.521457
 Mulliken charges:
               1
     1  C    0.128116
     2  C    0.005832
     3  C    0.148815
     4  C    0.203016
     5  H    0.084929
     6  H    0.109288
     7  C   -0.001238
     8  H    0.080911
     9  C   -0.079163
    10  H    0.080703
    11  H    0.077061
    12  H    0.095325
    13  H    0.107769
    14  H    0.108181
    15  O   -0.366268
    16  H    0.188167
    17  O   -0.401677
    18  H    0.202192
    19  O   -0.443019
    20  H    0.219368
    21  O   -0.382497
    22  H    0.204295
    23  O   -0.398680
    24  H    0.207139
    25  O   -0.359455
    26  H    0.180891
 Sum of Mulliken charges =  -0.00000
 Mulliken charges with hydrogens summed into heavy atoms:
               1
     1  C    0.237404
     2  C    0.090761
     3  C    0.229726
     4  C    0.283719
     7  C    0.171147
     9  C    0.136788
    15  O   -0.178101
    17  O   -0.199485
    19  O   -0.223651
    21  O   -0.178203
    23  O   -0.191541
    25  O   -0.178564
 Electronic spatial extent (au):  <R**2>=           2366.0386
 Charge=             -0.0000 electrons
 Dipole moment (field-independent basis, Debye):
    X=              1.9404    Y=             -0.5105    Z=              0.9453  Tot=              2.2179
 Quadrupole moment (field-independent basis, Debye-Ang):
   XX=            -59.7625   YY=            -75.4016   ZZ=            -75.1389
   XY=             -1.2662   XZ=             -1.4593   YZ=             -2.1500
 Traceless Quadrupole moment (field-independent basis, Debye-Ang):
   XX=             10.3385   YY=             -5.3006   ZZ=             -5.0379
   XY=             -1.2662   XZ=             -1.4593   YZ=             -2.1500
 Octapole moment (field-independent basis, Debye-Ang**2):
  XXX=             49.2034  YYY=             -8.4089  ZZZ=              2.6582  XYY=            -10.9527
  XXY=             -2.6190  XXZ=             32.6248  XZZ=             12.8156  YZZ=              9.8981
  YYZ=              7.3943  XYZ=             -0.2636
 Hexadecapole moment (field-independent basis, Debye-Ang**3):
 XXXX=          -1483.3432 YYYY=           -590.1459 ZZZZ=           -385.3607 XXXY=            -39.9661
 XXXZ=              8.5050 YYYX=             -8.1902 YYYZ=              2.8477 ZZZX=             15.7051
 ZZZY=              4.9228 XXYY=           -424.7025 XXZZ=           -369.3362 YYZZ=           -164.8974
 XXYZ=            -21.9953 YYXZ=              8.3656 ZZXY=            -15.5689
 N-N= 8.381638067454D+02 E-N=-3.293741081279D+03  KE= 6.850419819083D+02
   1 Symmetry operations used in ECPInt.
 ECPInt:  NShTT=   23436 NPrTT=   62434 LenC2=   22016 LenP2D=   45813.
 LDataN:  DoStor=T MaxTD1= 7 Len=  274
 Calling FoFJK, ICntrl=      2127 FMM=F ISym2X=0 I1Cent= 0 IOpClX= 0 NMat=1 NMatS=1 NMatT=0.
 ***** Axes restored to original set *****
 -------------------------------------------------------------------
 Center     Atomic                   Forces (Hartrees/Bohr)
 Number     Number              X              Y              Z
 -------------------------------------------------------------------
      1        6          -0.000997154    0.011632600   -0.006084282
      2        6          -0.003621563   -0.006722692   -0.016011111
      3        6          -0.014350383    0.002166844   -0.002665908
      4        6           0.009808199    0.010001763    0.002291140
      5        1          -0.000848146    0.000324475    0.007309580
      6        1           0.003092422    0.002463615    0.002293872
      7        6          -0.001019222    0.000955239   -0.003215816
      8        1           0.002440318    0.002117636   -0.003812972
      9        6           0.004714068    0.000384162    0.001415112
     10        1           0.000378464    0.003095235    0.000416150
     11        1          -0.002900218   -0.000753736   -0.002738507
     12        1           0.002188369   -0.006266266    0.001463406
     13        1          -0.006405626   -0.000737790    0.000328667
     14        1          -0.005231262   -0.004201446   -0.001398828
     15        8          -0.015522357    0.005705162    0.005691197
     16        1           0.019293432   -0.002008515   -0.003445882
     17        8           0.010397379   -0.003200966   -0.014125131
     18        1           0.001531139    0.001324254    0.016996618
     19        8           0.007434988    0.003617820    0.010575065
     20        1          -0.004394289   -0.014999419   -0.001305821
     21        8          -0.012275729    0.006205976    0.004842466
     22        1           0.010809896   -0.006221266    0.012916261
     23        8           0.016867610    0.005540676   -0.007862350
     24        1          -0.015813160   -0.011280345   -0.001207010
     25        8           0.013103970   -0.004156308   -0.008475713
     26        1          -0.018681146    0.005013295    0.005809799
 -------------------------------------------------------------------
 Cartesian Forces:  Max     0.019293432 RMS     0.007922586

 GradGradGradGradGradGradGradGradGradGradGradGradGradGradGradGradGradGrad
 Berny optimization.
 FormGI is forming the generalized inverse of G from B-inverse, IUseBI=4.
 Internal  Forces:  Max     0.019752432 RMS     0.005686059
 Search for a local minimum.
 Step number   1 out of a maximum of  140
 All quantities printed in internal units (Hartrees-Bohrs-Radians)
 Mixed Optimization -- RFO/linear search
 Second derivative matrix not updated -- first step.
 ITU=  0
     Eigenvalues ---    0.00230   0.00230   0.00256   0.00298   0.00343
     Eigenvalues ---    0.00977   0.01078   0.01142   0.01245   0.01252
     Eigenvalues ---    0.01258   0.03474   0.03905   0.03927   0.04232
     Eigenvalues ---    0.04560   0.04773   0.04797   0.04913   0.05059
     Eigenvalues ---    0.05103   0.05558   0.05654   0.07338   0.07664
     Eigenvalues ---    0.07719   0.08163   0.11367   0.11514   0.13667
     Eigenvalues ---    0.13757   0.16000   0.16000   0.16000   0.16000
     Eigenvalues ---    0.16000   0.16000   0.16674   0.16759   0.16832
     Eigenvalues ---    0.17775   0.19317   0.19527   0.19677   0.19713
     Eigenvalues ---    0.21994   0.22008   0.28225   0.28246   0.28650
     Eigenvalues ---    0.28935   0.29240   0.34012   0.34138   0.34148
     Eigenvalues ---    0.34211   0.34252   0.34407   0.34458   0.34538
     Eigenvalues ---    0.37723   0.38725   0.39377   0.40454   0.40528
     Eigenvalues ---    0.40592   0.50499   0.50948   0.51382   0.51581
     Eigenvalues ---    0.51704   0.52451
 RFO step:  Lambda=-1.58832624D-02 EMin= 2.30000000D-03
 Linear search not attempted -- first point.
 Iteration  1 RMS(Cart)=  0.07525877 RMS(Int)=  0.00257784
 Iteration  2 RMS(Cart)=  0.00321596 RMS(Int)=  0.00045727
 Iteration  3 RMS(Cart)=  0.00000683 RMS(Int)=  0.00045724
 Iteration  4 RMS(Cart)=  0.00000000 RMS(Int)=  0.00045724
 Variable       Old X    -DE/DX   Delta X   Delta X   Delta X     New X
                                 (Linear)    (Quad)   (Total)
    R1        2.91604  -0.00719   0.00000  -0.02411  -0.02411   2.89193
    R2        2.91650  -0.00553   0.00000  -0.01855  -0.01855   2.89795
    R3        2.07310  -0.00360   0.00000  -0.01011  -0.01011   2.06299
    R4        2.74770  -0.01396   0.00000  -0.03551  -0.03551   2.71219
    R5        2.90740  -0.00896   0.00000  -0.02964  -0.02964   2.87776
    R6        2.07097   0.00002   0.00000   0.00007   0.00007   2.07104
    R7        2.72409  -0.01583   0.00000  -0.03865  -0.03865   2.68543
    R8        2.89505  -0.00210   0.00000  -0.00682  -0.00682   2.88822
    R9        2.06565  -0.00400   0.00000  -0.01110  -0.01110   2.05454
   R10        2.73324  -0.01227   0.00000  -0.03045  -0.03045   2.70279
   R11        2.90138  -0.01207   0.00000  -0.03953  -0.03953   2.86184
   R12        2.07081  -0.00301   0.00000  -0.00842  -0.00842   2.06240
   R13        2.70941  -0.01065   0.00000  -0.02534  -0.02534   2.68407
   R14        2.06432  -0.00347   0.00000  -0.00960  -0.00960   2.05472
   R15        2.06976  -0.00238   0.00000  -0.00663  -0.00663   2.06313
   R16        2.70843  -0.00044   0.00000  -0.00105  -0.00105   2.70737
   R17        2.06648  -0.00204   0.00000  -0.00567  -0.00567   2.06081
   R18        2.06906  -0.00018   0.00000  -0.00050  -0.00050   2.06857
   R19        2.70757  -0.00192   0.00000  -0.00455  -0.00455   2.70302
   R20        1.84884  -0.01941   0.00000  -0.03642  -0.03642   1.81242
   R21        1.85003  -0.01711   0.00000  -0.03217  -0.03217   1.81786
   R22        1.86065  -0.01548   0.00000  -0.02973  -0.02973   1.83093
   R23        1.85196  -0.01793   0.00000  -0.03385  -0.03385   1.81811
   R24        1.85621  -0.01930   0.00000  -0.03675  -0.03675   1.81946
   R25        1.84170  -0.01975   0.00000  -0.03655  -0.03655   1.80515
    A1        2.05490  -0.00156   0.00000  -0.00136  -0.00193   2.05297
    A2        1.90718  -0.00100   0.00000  -0.02421  -0.02428   1.88289
    A3        1.87397   0.00102   0.00000   0.01767   0.01737   1.89134
    A4        1.89888   0.00036   0.00000  -0.00818  -0.00832   1.89056
    A5        1.89615   0.00255   0.00000   0.02793   0.02769   1.92384
    A6        1.81807  -0.00134   0.00000  -0.01250  -0.01226   1.80581
    A7        1.98529   0.00416   0.00000   0.00938   0.00944   1.99472
    A8        1.91073  -0.00169   0.00000   0.00204   0.00166   1.91238
    A9        1.86710   0.00272   0.00000   0.01362   0.01336   1.88046
   A10        1.93086  -0.00161   0.00000  -0.01994  -0.01964   1.91122
   A11        1.90822  -0.00788   0.00000  -0.05066  -0.05057   1.85764
   A12        1.85617   0.00446   0.00000   0.04932   0.04876   1.90493
   A13        1.98863   0.00376   0.00000   0.02292   0.02205   2.01069
   A14        1.93715  -0.00262   0.00000  -0.03767  -0.03768   1.89946
   A15        1.88247  -0.00095   0.00000   0.01414   0.01312   1.89560
   A16        1.92039  -0.00296   0.00000  -0.03487  -0.03486   1.88553
   A17        1.86592   0.00187   0.00000   0.03137   0.03067   1.89659
   A18        1.86319   0.00100   0.00000   0.00754   0.00809   1.87129
   A19        1.96137  -0.00357   0.00000  -0.01201  -0.01228   1.94909
   A20        1.90983   0.00069   0.00000  -0.00818  -0.00829   1.90154
   A21        1.92342   0.00075   0.00000   0.01112   0.01109   1.93451
   A22        1.89513   0.00011   0.00000  -0.00708  -0.00717   1.88796
   A23        1.87919   0.00390   0.00000   0.02945   0.02947   1.90866
   A24        1.89340  -0.00182   0.00000  -0.01331  -0.01322   1.88019
   A25        1.95851  -0.00255   0.00000  -0.01975  -0.02003   1.93848
   A26        1.93453  -0.00782   0.00000  -0.04233  -0.04355   1.89098
   A27        1.91394   0.01275   0.00000   0.05944   0.05956   1.97351
   A28        1.88992   0.00242   0.00000  -0.00333  -0.00425   1.88567
   A29        1.88788  -0.00596   0.00000  -0.02870  -0.02820   1.85967
   A30        1.87662   0.00121   0.00000   0.03663   0.03710   1.91372
   A31        1.96735  -0.00303   0.00000  -0.03949  -0.03976   1.92759
   A32        1.91837  -0.00205   0.00000  -0.01992  -0.01947   1.89890
   A33        1.89347  -0.01076   0.00000  -0.04561  -0.04573   1.84774
   A34        1.90260   0.00135   0.00000   0.01320   0.01136   1.91396
   A35        1.91536   0.00664   0.00000   0.03188   0.02999   1.94535
   A36        1.86385   0.00849   0.00000   0.06575   0.06512   1.92897
   A37        1.82749   0.00539   0.00000   0.03066   0.03066   1.85815
   A38        1.84944  -0.00020   0.00000  -0.00113  -0.00113   1.84831
   A39        1.84695  -0.00086   0.00000  -0.00487  -0.00487   1.84208
   A40        1.83676  -0.00161   0.00000  -0.00917  -0.00917   1.82759
   A41        1.82546   0.00448   0.00000   0.02546   0.02546   1.85092
   A42        1.85548   0.00769   0.00000   0.04370   0.04370   1.89919
    D1        1.08025   0.00061   0.00000   0.01065   0.01078   1.09104
    D2       -1.08963   0.00101   0.00000   0.02841   0.02844  -1.06119
    D3       -3.09407  -0.00482   0.00000  -0.03768  -0.03766  -3.13172
    D4       -1.09650   0.00223   0.00000   0.04435   0.04432  -1.05218
    D5        3.01679   0.00263   0.00000   0.06212   0.06198   3.07878
    D6        1.01236  -0.00320   0.00000  -0.00398  -0.00412   1.00824
    D7       -3.05825   0.00375   0.00000   0.06161   0.06172  -2.99653
    D8        1.05505   0.00415   0.00000   0.07938   0.07938   1.13443
    D9       -0.94939  -0.00168   0.00000   0.01329   0.01328  -0.93611
   D10        0.97043  -0.00182   0.00000  -0.06589  -0.06589   0.90454
   D11       -1.20898   0.00135   0.00000  -0.00645  -0.00646  -1.21544
   D12        3.03891   0.00216   0.00000  -0.00307  -0.00293   3.03598
   D13       -3.13188  -0.00411   0.00000  -0.10742  -0.10745   3.04385
   D14        0.97189  -0.00094   0.00000  -0.04798  -0.04802   0.92387
   D15       -1.06341  -0.00013   0.00000  -0.04461  -0.04449  -1.10789
   D16       -1.16295  -0.00419   0.00000  -0.11197  -0.11208  -1.27503
   D17        2.94082  -0.00102   0.00000  -0.05253  -0.05264   2.88818
   D18        0.90552  -0.00021   0.00000  -0.04915  -0.04911   0.85641
   D19       -1.31877  -0.00205   0.00000  -0.07535  -0.07564  -1.39442
   D20        0.92100  -0.00161   0.00000  -0.04649  -0.04616   0.87484
   D21        2.94284  -0.00073   0.00000  -0.04967  -0.04971   2.89313
   D22        3.04623  -0.00159   0.00000  -0.03957  -0.03944   3.00679
   D23        0.93952   0.00014   0.00000  -0.01714  -0.01710   0.92242
   D24       -1.14107   0.00150   0.00000  -0.00251  -0.00245  -1.14352
   D25       -1.07795  -0.00199   0.00000  -0.04542  -0.04558  -1.12354
   D26        3.09852  -0.00026   0.00000  -0.02299  -0.02324   3.07528
   D27        1.01793   0.00110   0.00000  -0.00836  -0.00859   1.00933
   D28        0.96057  -0.00222   0.00000  -0.02736  -0.02716   0.93341
   D29       -1.14614  -0.00049   0.00000  -0.00492  -0.00482  -1.15096
   D30        3.05646   0.00087   0.00000   0.00970   0.00983   3.06628
   D31        0.69151  -0.00030   0.00000   0.00932   0.00974   0.70125
   D32        2.84867   0.00173   0.00000  -0.00113  -0.00064   2.84804
   D33       -1.34927  -0.00186   0.00000  -0.02387  -0.02478  -1.37405
   D34       -1.06994   0.00069   0.00000   0.03254   0.03314  -1.03680
   D35        3.09785   0.00489   0.00000   0.08047   0.08007  -3.10526
   D36        1.02856   0.00019   0.00000   0.02394   0.02432   1.05289
   D37        1.11839  -0.00231   0.00000  -0.02824  -0.02769   1.09070
   D38       -0.99700   0.00189   0.00000   0.01969   0.01925  -0.97776
   D39       -3.06630  -0.00282   0.00000  -0.03684  -0.03650  -3.10280
   D40        3.13534  -0.00162   0.00000  -0.01992  -0.01986   3.11548
   D41        1.01995   0.00258   0.00000   0.02800   0.02707   1.04702
   D42       -1.04935  -0.00212   0.00000  -0.02852  -0.02868  -1.07802
   D43       -0.39652  -0.00306   0.00000  -0.04255  -0.04276  -0.43927
   D44        1.74892   0.00198   0.00000   0.01114   0.01124   1.76015
   D45       -2.47941  -0.00001   0.00000  -0.00979  -0.00968  -2.48909
   D46       -0.87672   0.00066   0.00000   0.01422   0.01392  -0.86280
   D47       -3.00296   0.00248   0.00000   0.03868   0.03858  -2.96438
   D48        1.24814  -0.00043   0.00000  -0.00309  -0.00279   1.24535
   D49        1.23844  -0.00070   0.00000  -0.00862  -0.00886   1.22958
   D50       -0.88780   0.00112   0.00000   0.01583   0.01580  -0.87200
   D51       -2.91989  -0.00179   0.00000  -0.02594  -0.02557  -2.94546
   D52       -2.99805  -0.00068   0.00000  -0.01214  -0.01241  -3.01045
   D53        1.15890   0.00114   0.00000   0.01232   0.01225   1.17115
   D54       -0.87319  -0.00177   0.00000  -0.02945  -0.02911  -0.90230
   D55       -1.57548   0.00085   0.00000   0.00373   0.00353  -1.57196
   D56        0.56932  -0.00058   0.00000   0.01477   0.01501   0.58432
   D57        2.61714   0.00069   0.00000   0.01528   0.01524   2.63238
   D58        1.30121  -0.00179   0.00000  -0.03196  -0.03093   1.27028
   D59       -2.84100  -0.00082   0.00000  -0.03768  -0.03755  -2.87855
   D60       -0.80358  -0.00043   0.00000  -0.03719  -0.03835  -0.84193
   D61       -2.99511   0.00072   0.00000   0.00442   0.00428  -2.99084
   D62       -0.83873  -0.00582   0.00000  -0.05392  -0.05552  -0.89425
   D63        1.22113   0.00415   0.00000   0.01605   0.01778   1.23891
         Item               Value     Threshold  Converged?
 Maximum Force            0.019752     0.000450     NO 
 RMS     Force            0.005686     0.000300     NO 
 Maximum Displacement     0.243476     0.001800     NO 
 RMS     Displacement     0.076314     0.001200     NO 
 Predicted change in Energy=-9.139905D-03
 GradGradGradGradGradGradGradGradGradGradGradGradGradGradGradGradGradGrad

                          Input orientation:                          
 ---------------------------------------------------------------------
 Center     Atomic      Atomic             Coordinates (Angstroms)
 Number     Number       Type             X           Y           Z
 ---------------------------------------------------------------------
      1          6           0        0.012447   -0.004884   -0.013074
      2          6           0        1.542516    0.010013    0.011598
      3          6           0       -0.724095    0.634974    1.170056
      4          6           0        2.157854   -0.761717    1.171272
      5          1           0        1.899302    1.046070    0.031236
      6          1           0       -0.311343   -1.044029   -0.097459
      7          6           0       -0.288001    2.058569    1.515235
      8          1           0       -0.577767    0.015157    2.051224
      9          6           0        3.662535   -0.867969    1.036650
     10          1           0        1.745032   -1.771928    1.183461
     11          1           0        0.769701    2.093655    1.764794
     12          1           0       -0.852771    2.388537    2.389360
     13          1           0        3.932175   -1.212873    0.037849
     14          1           0        4.034394   -1.576308    1.783783
     15          8           0       -0.484066    2.982623    0.438082
     16          1           0       -1.429420    3.132442    0.377146
     17          8           0       -2.125708    0.641900    0.885351
     18          1           0       -2.199894    0.629475   -0.073672
     19          8           0       -0.425676    0.582934   -1.246930
     20          1           0       -0.363481    1.540739   -1.114717
     21          8           0        2.000938   -0.618294   -1.177739
     22          1           0        1.406154   -0.303428   -1.865294
     23          8           0        1.838290   -0.148944    2.412151
     24          1           0        2.542559    0.484275    2.585523
     25          8           0        4.171687    0.444024    1.292430
     26          1           0        5.104538    0.457885    1.087284
 ---------------------------------------------------------------------
                    Distance matrix (angstroms):
                    1          2          3          4          5
     1  C    0.000000
     2  C    1.530341   0.000000
     3  C    1.533528   2.621092   0.000000
     4  C    2.564809   1.522843   3.202557   0.000000
     5  H    2.160252   1.095945   2.889312   2.152817   0.000000
     6  H    1.091688   2.135343   2.143830   2.790396   3.045000
     7  C    2.585312   3.131821   1.528382   3.748937   2.830495
     8  H    2.147110   2.942057   1.087217   2.976822   3.358423
     9  C    3.894866   2.513178   4.638874   1.514423   2.789873
    10  H    2.748817   2.142332   3.448179   1.091374   3.048365
    11  H    2.852738   2.830637   2.170919   3.229920   2.319194
    12  H    3.499822   4.128987   2.139683   4.524566   3.864825
    13  H    4.101964   2.684513   5.135882   2.153232   3.038987
    14  H    4.676979   3.444780   5.282958   2.135447   3.808793
    15  O    3.061905   3.622891   2.470801   4.640839   3.097775
    16  H    3.474776   4.326152   2.713584   5.353844   3.943729
    17  O    2.407738   3.823428   1.430254   4.516724   4.134438
    18  H    2.302289   3.794290   1.929993   4.740809   4.121646
    19  O    1.435228   2.405392   2.435895   3.785553   2.693274
    20  H    1.934913   2.691567   2.484078   4.109036   2.584200
    21  O    2.384704   1.421071   3.809019   2.358610   2.059625
    22  H    2.337149   1.907764   3.825168   3.161616   2.379320
    23  O    3.039107   2.423923   2.953496   1.420350   2.664683
    24  H    3.659706   2.801802   3.563324   1.923694   2.693283
    25  O    4.382367   2.956592   4.901032   2.350322   2.667734
    26  H    5.230137   3.747757   5.831909   3.190208   3.425600
                    6          7          8          9         10
     6  H    0.000000
     7  C    3.496776   0.000000
     8  H    2.410331   2.132318   0.000000
     9  C    4.136291   4.939676   4.448531   0.000000
    10  H    2.529678   4.349253   3.056482   2.124973   0.000000
    11  H    3.805483   1.087311   2.493564   4.203558   4.028889
    12  H    4.273163   1.091759   2.413068   5.729105   5.050965
    13  H    4.249031   5.540297   5.089334   1.090536   2.531514
    14  H    4.765273   5.653985   4.886340   1.094637   2.374833
    15  O    4.065779   1.432681   3.378884   5.690311   5.303793
    16  H    4.349512   1.936824   3.639411   6.508935   5.897468
    17  O    2.664619   2.404344   2.036710   5.983841   4.571440
    18  H    2.523451   2.867450   2.742967   6.151685   4.786393
    19  O    1.995335   3.134647   3.350122   4.902379   4.020465
    20  H    2.778229   2.681509   3.520866   5.161304   4.549858
    21  O    2.587450   4.433615   4.180572   2.779705   2.640383
    22  H    2.573621   4.458382   4.401880   3.719038   3.400917
    23  O    3.423484   3.193538   2.448372   2.395176   2.037757
    24  H    4.204624   3.411156   3.200309   2.341349   2.773496
    25  O    4.923784   4.748181   4.828769   1.430379   3.288004
    26  H    5.743790   5.641348   5.780465   1.959547   4.033310
                   11         12         13         14         15
    11  H    0.000000
    12  H    1.763364   0.000000
    13  H    4.890472   6.433931   0.000000
    14  H    4.911946   6.322270   1.786286   0.000000
    15  O    2.030360   2.072768   6.104553   6.558296   0.000000
    16  H    2.800139   2.221469   6.909674   7.348756   0.959089
    17  O    3.356249   2.633088   6.391901   6.608668   2.893790
    18  H    3.787119   3.312939   6.403824   6.868913   2.956900
    19  O    3.575149   4.082306   4.885330   5.808595   2.932778
    20  H    3.143470   3.638231   5.231009   6.120342   2.122441
    21  O    4.186778   5.468901   2.358147   3.717976   4.663982
    22  H    4.396433   5.518288   3.290871   4.673718   4.435832
    23  O    2.567139   3.698802   3.339702   2.693527   4.370011
    24  H    2.531150   3.897815   3.361843   2.667276   4.473667
    25  O    3.810239   5.498142   2.092044   2.083751   5.371260
    26  H    4.682475   6.396276   2.295033   2.401719   6.166706
                   16         17         18         19         20
    16  H    0.000000
    17  O    2.635505   0.000000
    18  H    2.657388   0.961969   0.000000
    19  O    3.185140   2.727675   2.127569   0.000000
    20  H    2.428045   2.813118   2.299259   0.968886   0.000000
    21  O    5.315359   4.782640   4.519168   2.708540   3.202479
    22  H    4.987406   4.575341   4.133255   2.126878   2.663817
    23  O    5.058326   4.320860   4.805432   4.364637   4.487941
    24  H    5.259879   4.970729   5.439049   4.848489   4.822132
    25  O    6.279948   6.313641   6.519024   5.253893   5.250228
    26  H    7.095785   7.235406   7.398107   6.003953   5.993380
                   21         22         23         24         25
    21  O    0.000000
    22  H    0.962103   0.000000
    23  O    3.624093   4.301993   0.000000
    24  H    3.958680   4.660651   0.962818   0.000000
    25  O    3.455779   4.263576   2.655208   2.080329   0.000000
    26  H    3.990090   4.793262   3.576575   2.968021   0.955242
                   26
    26  H    0.000000
 Stoichiometry    C6H14O6
 Framework group  C1[X(C6H14O6)]
 Deg. of freedom    72
 Full point group                 C1      NOp   1
 Largest Abelian subgroup         C1      NOp   1
 Largest concise Abelian subgroup C1      NOp   1
                         Standard orientation:                         
 ---------------------------------------------------------------------
 Center     Atomic      Atomic             Coordinates (Angstroms)
 Number     Number       Type             X           Y           Z
 ---------------------------------------------------------------------
      1          6           0       -0.767476    0.833572   -0.448985
      2          6           0        0.637466    0.685584    0.139386
      3          6           0       -1.558559   -0.449263   -0.732233
      4          6           0        1.619169   -0.052298   -0.761080
      5          1           0        0.577859    0.178224    1.108988
      6          1           0       -0.683324    1.397468   -1.379965
      7          6           0       -1.655993   -1.425899    0.439363
      8          1           0       -1.095619   -0.969974   -1.566851
      9          6           0        3.029187   -0.002244   -0.210789
     10          1           0        1.620915    0.419529   -1.745190
     11          1           0       -0.669061   -1.746568    0.763989
     12          1           0       -2.205668   -2.308413    0.106250
     13          1           0        3.299486    1.021119    0.051766
     14          1           0        3.718529   -0.381559   -0.971815
     15          8           0       -2.300351   -0.862229    1.588124
     16          1           0       -3.233183   -0.800967    1.373825
     17          8           0       -2.881544   -0.089167   -1.139257
     18          1           0       -3.048490    0.777281   -0.756136
     19          8           0       -1.524877    1.705790    0.402754
     20          1           0       -1.813961    1.155926    1.146272
     21          8           0        1.167621    1.990496    0.328022
     22          1           0        0.427698    2.509541    0.657791
     23          8           0        1.228186   -1.407071   -0.931710
     24          1           0        1.656531   -1.898971   -0.223491
     25          8           0        3.031357   -0.855098    0.937523
     26          1           0        3.862389   -0.751121    1.396937
 ---------------------------------------------------------------------
 Rotational constants (GHZ):           1.4008137           0.5822506           0.5203156
 Standard basis: def2TZVPP (5D, 7F)
 There are   642 symmetry adapted cartesian basis functions of A   symmetry.
 There are   568 symmetry adapted basis functions of A   symmetry.
   568 basis functions,   850 primitive gaussians,   642 cartesian basis functions
    49 alpha electrons       49 beta electrons
       nuclear repulsion energy       842.8690056236 Hartrees.
 NAtoms=   26 NActive=   26 NUniq=   26 SFac= 1.00D+00 NAtFMM=   60 NAOKFM=F Big=F
 Integral buffers will be    131072 words long.
 Raffenetti 2 integral format.
 Two-electron integral symmetry is turned on.
 Nuclear repulsion after empirical dispersion term =      842.8495526473 Hartrees.
 One-electron integrals computed using PRISM.
   1 Symmetry operations used in ECPInt.
 ECPInt:  NShTT=   23436 NPrTT=   62434 LenC2=   22069 LenP2D=   46005.
 LDataN:  DoStor=T MaxTD1= 6 Len=  172
 NBasis=   568 RedAO= T EigKep=  3.12D-05  NBF=   568
[...]
 -0.00135627,0.00359126,-0.00201901,0.01061761,0.00492497,0.00162543,-0
 .00290652,0.11462929,0.01934966,-0.11769897,0.05673600,0.00571759,-0.0
 0318110,0.00561147,-0.00225078,0.00734714,-0.00336261,0.00187335,0.000
 78193,-0.00195432,0.00173265,0.00228286,-0.00066239,0.01541118,-0.0186
 5997,0.03971912,0.00052736,-0.00489956,0.00667715,0.00118638,0.0004073
 9,-0.00180834,-0.00047616,-0.00043169,0.00083266,-0.00037288,0.0008151
 4,-0.00050230,-0.00020551,0.00002830,-0.00039125,0.00009539,0.00150085
 ,-0.00044615,-0.00016784,0.00006851,0.00002546,0.00036073,-0.00000750,
 0.00012812,0.00060971,-0.00726075,-0.01413980,-0.00107003,0.00028104,-
 0.00000892,-0.00019559,0.00389656,-0.00025429,-0.00042853,-0.00348302,
 -0.00060273,0.00376799,0.61951140,-0.04052245,0.01856842,-0.17079284,-
 0.01089190,0.01069591,-0.02410901,-0.01228526,0.02243333,-0.04815498,-
 0.00319185,-0.00164293,0.00330929,0.00071579,-0.00082000,0.00055917,-0
 .00293638,0.00800073,-0.00638607,-0.00021903,0.00367867,0.00091112,0.0
 0555307,-0.00490769,-0.00510615,0.00047693,0.00123815,-0.00166496,0.00
 026568,-0.00000710,0.00004491,-0.00006638,-0.00026642,-0.00006032,0.00
 016215,-0.00046430,0.00037576,-0.00021638,0.00008180,0.00010499,-0.000
 68317,0.00000317,0.00006402,0.00117939,-0.00887013,0.00035459,-0.00028
 939,0.00005165,-0.00110306,-0.00161638,0.00038353,-0.00016833,-0.00044
 914,-0.00061486,-0.00127121,0.08095331,-0.00603625,0.29778444,0.000455
 54,0.01470138,-0.00031603,0.00110756,0.00334920,0.00049388,0.00238915,
 -0.00125964,0.00047130,-0.00054236,-0.00040608,-0.00104590,-0.00077162
 ,-0.00091971,-0.00048673,0.00017165,-0.00009917,-0.00072260,0.00121184
 ,-0.00111283,0.00085329,-0.00006796,0.00014545,-0.00016602,-0.00010616
 ,-0.00003117,-0.00002895,0.00004951,-0.00027763,0.00021956,-0.00033176
 ,-0.00012937,-0.00043224,-0.00017312,0.00014828,-0.00023169,-0.0000589
 0,0.00002601,-0.00001366,0.00007904,-0.00001062,0.00004351,-0.00464218
 ,-0.00125859,-0.00375589,-0.00104546,0.00259071,0.00328964,-0.00127565
 ,0.00134308,-0.00066405,-0.00133365,-0.00260657,0.00092834,-0.02035154
 ,-0.04880574,-0.01739765,0.02614168,-0.00103213,-0.02241933,0.00388129
 ,0.00082396,0.00194327,-0.00106298,-0.00034101,0.00290837,0.00017532,-
 0.00074248,0.00018027,0.00121303,0.00023577,-0.00037866,0.00003408,0.0
 0114702,0.00140808,0.00193004,-0.00249456,0.00600632,-0.00414566,0.000
 50962,-0.00084701,-0.00090908,0.00019365,0.00045931,-0.00028418,-0.000
 05951,-0.00001968,-0.00006321,0.00024617,-0.00026306,0.00036548,0.0001
 5648,-0.00120643,0.00114137,0.00010631,-0.00005896,0.00000561,-0.00021
 505,-0.00001447,-0.00006939,0.00090545,-0.00466728,0.00610080,0.001431
 85,-0.00033616,-0.00050262,-0.00011794,-0.00131998,-0.00159761,-0.0019
 4271,0.00020210,0.00174271,-0.03287750,-0.48078478,-0.04115603,0.03345
 838,0.50089562,0.00250816,0.04299257,0.00044395,-0.00002913,0.00099803
 ,0.00056259,0.00119791,0.00193804,0.00000025,-0.00044293,0.00015713,0.
 00046025,-0.00074543,-0.00054229,0.00014728,-0.00261756,0.00331827,-0.
 00603788,-0.00096306,0.00120872,-0.00736331,-0.00050223,-0.00060156,0.
 00035804,0.00002824,0.00003099,-0.00008001,0.00005199,-0.00022612,0.00
 009419,0.00019566,-0.00007484,0.00021194,-0.00013791,-0.00025735,0.000
 59938,0.00005835,-0.00002188,-0.00001988,-0.00004144,0.00000307,-0.000
 01743,-0.00075486,0.00352020,0.00384137,0.00119083,-0.00102746,0.00050
 822,0.00012595,-0.00140843,-0.00049776,0.00068143,0.00117005,0.0004705
 8,-0.01911347,-0.08456529,-0.05201944,0.01860844,0.03520895,0.05949665
 ,-0.02326609,0.02262266,0.04087888,-0.09880641,0.02974422,0.01283368,-
 0.00468709,-0.00135473,-0.00629182,0.00576624,-0.00703958,-0.00882469,
 0.00647776,0.00175403,-0.00298530,0.00370955,0.00084201,0.00046282,-0.
 00088935,-0.00090151,0.00026792,-0.00013855,-0.00018530,0.00022341,-0.
 00187243,0.00101977,0.00024896,-0.00013385,0.00016665,-0.00031443,0.00
 016247,0.00019237,0.00000259,-0.00003531,0.00051494,0.00014016,-0.0004
 9685,-0.00038080,-0.00289244,0.00062644,-0.00027857,-0.00107111,0.0002
 6557,0.00121134,0.00025951,0.00010179,-0.00049657,-0.00000943,-0.00437
 920,0.00161894,0.00244206,0.00109751,-0.00021516,0.00039455,-0.0018543
 1,0.00362812,0.00467472,-0.00147048,-0.00100369,0.00080845,0.34165253,
 0.00548803,-0.00257225,-0.00481721,0.03622979,-0.10649437,-0.04259088,
 -0.00011746,0.00141053,0.00088321,-0.00548236,0.00835801,0.00877028,0.
 01455438,-0.01128056,-0.03801967,0.00167249,0.00176888,0.00076873,-0.0
 0105854,-0.00008234,-0.00021490,0.00020492,-0.00006573,-0.00029028,0.0
 0063674,-0.00083999,-0.00080383,-0.00043585,0.00222858,-0.00111892,0.0
 0058063,0.00029082,0.00051519,0.00047670,0.00009793,0.00005142,0.00016
 849,0.00020824,0.00149693,-0.00036436,0.00022236,0.00053828,0.00040028
 ,-0.00010480,0.00001392,-0.00006443,0.00006369,-0.00006421,0.00118839,
 0.00020254,-0.00038208,-0.00035883,-0.00013193,-0.00013651,0.00339606,
 0.00180063,-0.00288095,-0.00082111,0.00005902,-0.00007178,-0.17236390,
 0.17507378,0.01366649,-0.00875649,-0.02508088,0.05142438,-0.06368203,-
 0.19027805,0.00010937,0.00087167,0.00424094,0.01238697,-0.01854194,-0.
 03580374,0.00586623,-0.01585742,-0.01659080,-0.00105893,0.00088940,0.0
 0053655,-0.00091188,0.00091532,-0.00135648,-0.00050463,0.00013407,0.00
 037719,-0.00016988,-0.00007849,-0.00081671,0.00100407,0.00017069,0.001
 94063,0.00030456,0.00053278,0.00036120,0.00041474,-0.00029873,0.000082
 98,-0.00114978,0.00017187,-0.00186418,0.00042489,-0.00005446,-0.000247
 59,0.00051268,-0.00043173,0.00143114,-0.00002426,0.00010200,-0.0002208
 9,0.00369326,-0.00098761,-0.00010513,0.00007338,0.00014160,-0.00109017
 ,-0.00711581,0.00284948,0.00622021,-0.00016211,-0.00102525,-0.00095376
 ,0.15937888,-0.01835616,0.54378990,0.00002460,-0.00108200,0.00822560,0
 .00979374,-0.00532561,0.01109672,0.00011355,0.00059119,-0.00065570,-0.
 00248483,0.00150651,0.00188456,-0.00032475,0.00096183,0.00028783,-0.00
 027437,-0.00009143,-0.00007456,0.00052549,0.00002162,0.00054778,0.0003
 2886,-0.00013266,-0.00037725,-0.00053161,0.00076062,-0.00018629,0.0000
 1471,-0.00009449,-0.00014263,-0.00016440,-0.00014178,-0.00010196,-0.00
 007309,-0.00006436,-0.00010206,0.00015176,-0.00018089,-0.00036963,0.00
 006771,-0.00009418,-0.00012167,-0.00022624,-0.00084891,-0.00097419,-0.
 00010229,0.00029047,0.00014285,-0.00035448,-0.00008066,-0.00078108,-0.
 00078925,-0.00004678,0.00075875,-0.00182217,-0.00083962,-0.00248332,0.
 00068948,0.00179241,-0.00025275,-0.22272357,0.11439432,-0.23401023,0.2
 1763309,0.00124520,0.00322925,-0.00356491,-0.01070600,0.00497779,-0.01
 487226,-0.00005883,-0.00047272,0.00091550,0.00122404,-0.00122586,-0.00
 007731,-0.00016104,-0.00090694,-0.00165350,-0.00046935,-0.00062589,0.0
 0055939,0.00000629,0.00021441,-0.00053593,-0.00015134,0.00008359,0.000
 19300,0.00027156,-0.00011163,-0.00010658,-0.00005446,0.00009959,-0.000
 16591,0.00000464,0.00003210,-0.00000195,-0.00001605,-0.00008892,0.0000
 5205,-0.00021737,0.00003247,0.00011608,-0.00000456,-0.00001063,0.00002
 233,-0.00003550,0.00005625,0.00053279,0.00004819,-0.00005377,-0.000038
 75,0.00038630,-0.00031585,0.00025002,0.00038219,0.00021040,-0.00043800
 ,-0.00264040,-0.00335215,0.00275986,0.00181233,-0.00117325,-0.00129314
 ,0.12004145,-0.07211471,0.11794213,-0.11108311,0.07093544,0.00035600,0
 .00119985,-0.00149756,-0.02117649,0.01096596,-0.03720845,-0.00031875,0
 .00021567,-0.00139230,0.00246391,-0.00463446,-0.00335244,-0.00041603,0
 .00013942,0.00041327,0.00050582,0.00011719,-0.00008017,-0.00009227,-0.
 00020883,0.00018046,-0.00002025,-0.00005752,0.00000917,0.00042988,-0.0
 0044804,0.00047842,0.00011071,0.00009477,0.00021840,-0.00002928,-0.000
 01041,-0.00007477,-0.00006127,0.00013076,0.00003420,-0.00044251,0.0001
 6535,-0.00011480,0.00010363,0.00001804,0.00022320,-0.00005611,0.000418
 01,0.00002766,0.00004860,-0.00015989,0.00003694,-0.00109375,0.00026706
 ,0.00052560,0.00038787,-0.00005141,0.00010266,-0.00233322,0.00088113,0
 .00052134,0.00004897,-0.00036817,0.00024647,-0.19325450,0.09030038,-0.
 27385479,0.21516550,-0.09986629,0.31647458,-0.00039866,-0.00094650,0.0
 0239310,0.00662921,-0.00699858,-0.00440274,-0.00186901,-0.00114345,0.0
 0299506,-0.09356693,-0.01449891,0.01178704,-0.00027180,0.00033196,0.00
 024119,0.00002052,-0.00006126,-0.00010709,0.00099862,-0.00036210,0.000
 36976,-0.00247495,0.00215278,-0.00346914,-0.01364134,0.01695400,0.0422
 2714,0.00628716,-0.00532367,-0.01549448,-0.00111085,-0.00004764,-0.000
 24968,-0.00021452,0.00004209,-0.00002986,-0.00898607,-0.00020726,0.000
 43450,0.00342401,-0.00059416,-0.00001716,-0.00062946,0.00100078,-0.000
 90154,0.00005964,-0.00017074,-0.00007046,-0.00157946,0.00042965,-0.002
 29067,-0.00043935,0.00035999,0.00024010,0.00120659,-0.00011537,-0.0005
 5545,-0.00020037,0.00009285,0.00033771,0.00074497,0.00140453,-0.004111
 09,0.00047748,0.00012514,-0.00046190,0.38894222,0.00103791,-0.00018379
 ,-0.00056183,-0.00412231,0.00652727,0.00562482,-0.00088118,-0.00030268
 ,-0.00115055,0.01098661,-0.10452518,-0.07058812,-0.00045662,0.00317521
 ,-0.00109037,0.00036075,0.00023537,0.00035358,-0.00285395,-0.00068549,
 -0.00103460,0.00031398,-0.00062103,0.00024454,0.00486067,-0.00839087,-
 0.01777409,0.00870122,-0.01157441,-0.03565394,0.00190154,0.00076012,0.
 00020527,0.00033055,0.00014520,0.00010414,0.00343867,0.00182432,0.0002
 4770,-0.00193820,0.00047220,0.00004098,0.00158966,-0.00026898,0.001354
 05,-0.00004227,-0.00014293,0.00020415,0.00056603,0.00080197,0.00089315
 ,0.00020237,-0.00020892,-0.00018338,-0.00125751,0.00076198,-0.00002829
 ,0.00021435,-0.00049219,-0.00048865,0.00108294,0.00114103,0.00305574,0
 .00004983,0.00042320,0.00059408,0.23917710,0.34411254,0.00229955,-0.00
 119036,0.00119170,0.01159633,-0.02265177,-0.03504988,-0.00107152,-0.00
 007883,-0.00117559,0.04963512,-0.04354959,-0.19874659,0.00131786,0.000
 00026,0.00243253,-0.00018501,0.00002997,-0.00011895,-0.00063130,0.0006
 3506,-0.00013860,-0.00126444,-0.00015985,-0.00063443,0.01157451,-0.012
 71668,-0.02499475,0.00151405,-0.01030957,-0.01151801,-0.00017206,0.000
 13335,-0.00077543,-0.00054570,0.00034948,0.00007531,0.00354409,0.00008
 190,0.00131930,0.00050465,-0.00048481,0.00170248,0.00020051,0.00021812
 ,0.00094903,0.00002995,-0.00019515,-0.00004023,-0.00068853,0.00066443,
 0.00084690,0.00044743,-0.00018657,-0.00016370,-0.00187866,0.00119943,0
 .00023626,0.00045124,-0.00058814,-0.00034490,-0.00688830,0.00521731,-0
 .01078791,0.00233459,-0.00107824,-0.00193441,-0.00661443,0.16137111,0.
 32337961,-0.00017697,-0.00006753,-0.00019928,-0.00083632,-0.00023444,-
 0.00050330,-0.00081651,-0.00055648,0.00014247,0.00827103,0.00658647,0.
 00220349,0.00028992,0.00017090,-0.00031052,-0.00000131,0.00008788,0.00
 006995,-0.00129495,-0.00003954,-0.00057505,-0.00011029,-0.00007905,-0.
 00034544,0.00144223,0.00604418,0.00496890,-0.00039763,0.00274217,0.002
 78534,0.00023766,0.00091463,-0.00038215,0.00011264,0.00003016,0.000035
 18,-0.00032228,-0.00110657,-0.00037366,-0.00033837,-0.00028899,-0.0000
 3000,0.00070950,-0.00025143,0.00060207,-0.00004650,-0.00001846,0.00009
 120,0.00031564,0.00033148,0.00007534,-0.00005608,0.00000519,-0.0000575
 9,0.00001433,0.00006225,0.00028291,0.00001172,-0.00006551,-0.00018127,
 -0.00012665,0.00021378,0.00121011,-0.00004541,0.00008736,0.00007242,-0
 .28271671,-0.25870276,-0.06304760,0.27753975,-0.00027674,-0.00007858,-
 0.00012182,-0.00022460,0.00234757,0.00049001,0.00030481,0.00067061,-0.
 00009160,-0.01195880,-0.01788605,-0.00774586,-0.00020987,-0.00040274,0
 .00014747,0.00001285,-0.00007548,-0.00004927,0.00104836,0.00001181,0.0
 0033538,-0.00024621,-0.00003441,0.00020544,-0.00110484,0.00060880,-0.0
 0019358,0.00110909,-0.00090213,-0.00442713,0.00006262,-0.00034461,0.00
 033746,-0.00005092,-0.00004955,-0.00005110,-0.00117760,-0.00066397,0.0
 0034595,0.00060195,-0.00075097,-0.00009226,-0.00043021,-0.00009363,-0.
 00038497,0.00001793,0.00005526,-0.00004276,0.00001178,-0.00044668,0.00
 008669,0.00002574,0.00000370,0.00004371,0.00026449,-0.00023629,0.00009
 697,-0.00001485,0.00018211,0.00012854,0.00032700,-0.00056981,0.0008017
 5,-0.00008851,0.00005475,0.00016505,-0.23345892,-0.23669090,-0.0766684
 8,0.24562931,0.25610239,-0.00028313,0.00009036,0.00002892,-0.00031944,
 -0.00309416,-0.00116264,-0.00028629,-0.00009993,0.00002480,-0.02782468
 ,-0.03228848,-0.01462808,-0.00011383,0.00106089,-0.00063758,0.00017052
 ,0.00010307,0.00001074,-0.00041254,-0.00000745,-0.00001457,-0.00030239
 ,0.00014747,-0.00007712,0.00033686,-0.00428686,-0.00002998,0.00135459,
 -0.00070025,-0.00421613,-0.00015721,0.00046460,0.00019340,0.00026952,-
 0.00005391,-0.00002714,-0.00046092,0.00038763,0.00011302,0.00012120,0.
 00056591,-0.00003168,0.00021798,-0.00021556,-0.00003364,-0.00001808,0.
 00004644,0.00004130,0.00031352,-0.00000821,0.00001579,-0.00006236,0.00
 000214,0.00000464,0.00027308,-0.00006176,0.00013617,-0.00010769,0.0000
 7231,-0.00002795,0.00023365,0.00100443,-0.00012867,0.00006860,0.000129
 56,-0.00016346,-0.02729364,-0.05011519,-0.04932166,0.05559131,0.085111
 66,0.07019152,0.00069548,-0.00096132,0.00059821,0.00159410,-0.00020556
 ,0.00124741,0.00054982,-0.00021923,0.00004714,-0.02891458,-0.04737488,
 -0.00463425,-0.00110562,-0.00025507,-0.00072958,0.00003296,0.00020939,
 0.00006384,0.00009558,-0.00033940,0.00012515,0.00020409,-0.00000360,-0
 .00018130,-0.10863694,-0.06263502,-0.01236372,-0.00834931,0.00173057,0
 .00145588,0.00001646,-0.00023281,-0.00005753,-0.00009444,0.00008586,0.
 00002701,0.00356462,0.00042965,-0.00338517,0.00545883,0.00045186,0.004
 44183,-0.00013861,0.00056658,-0.00012378,0.00004983,-0.00016010,-0.000
 01058,-0.00059707,0.00024676,-0.00004073,0.00016632,-0.00004682,0.0000
 1213,-0.00052795,0.00068835,-0.00053900,0.00009754,-0.00026012,-0.0000
 0961,0.00005876,0.00011058,-0.00134909,0.00009699,-0.00000745,0.000145
 66,-0.00176066,-0.00390889,-0.00153389,-0.00137357,-0.00042517,-0.0008
 8369,0.68756236,0.00070712,0.00064709,-0.00001437,-0.00001899,-0.00143
 557,0.00108389,0.00016269,-0.00031745,-0.00008019,-0.01007674,-0.00754
 809,-0.00264062,-0.00026795,0.00148230,-0.00030361,0.00032956,0.000129
 93,0.00006965,-0.00031813,-0.00017118,-0.00001009,0.00008180,-0.000006
 20,-0.00006238,-0.01925944,-0.21159151,-0.03075114,0.00076913,0.001619
 59,0.00000447,-0.00004714,-0.00012916,0.00000479,-0.00001377,0.0000645
 1,0.00002888,-0.01259512,-0.02459343,-0.00586174,-0.01817401,-0.038499
 96,-0.00694696,0.00009374,0.00040500,0.00006815,0.00000848,-0.00010965
 ,-0.00002652,-0.00016770,0.00030952,0.00011309,0.00010246,-0.00007043,
 -0.00003740,-0.00079655,0.00055869,-0.00037564,-0.00000890,-0.00031782
 ,-0.00007415,-0.00061136,0.00125823,-0.00073198,-0.00018796,0.00006489
 ,0.00018351,0.00038196,0.00306662,0.00047385,-0.00092086,-0.00064581,0
 .00055017,0.04772344,0.31781634,0.00010353,-0.00029723,-0.00003481,0.0
 0043005,-0.00024022,-0.00102730,-0.00004908,-0.00003330,-0.00036528,0.
 00162534,-0.00175495,-0.00127031,-0.00022433,-0.00036353,-0.00013316,-
 0.00011912,0.00002672,-0.00001681,-0.00017194,0.00008281,-0.00012204,-
 0.00010742,-0.00004805,0.00007559,-0.00500676,-0.02962536,-0.07125842,
 0.00054987,0.00011256,0.00080625,0.00002979,0.00002459,-0.00011116,-0.
 00005433,0.00004060,0.00003961,-0.01544199,-0.03358432,0.00239137,0.00
 883481,0.01608239,0.01096736,0.00005312,-0.00000016,0.00026013,0.00000
 441,-0.00003875,-0.00000800,-0.00004575,0.00009151,0.00026388,0.000114
 78,-0.00004231,-0.00006120,-0.00029778,0.00011638,0.00031831,0.0001549
 6,-0.00011246,-0.00010811,-0.00108729,0.00018063,0.00045596,0.00021283
 ,0.00023774,0.00019125,0.00325348,0.00290073,0.00353273,-0.00092074,0.
 00156643,-0.00173269,-0.00249395,0.05513205,0.06071491,-0.00017162,-0.
 00006131,0.00001880,0.00049138,-0.00001150,0.00017105,-0.00006400,0.00
 002089,0.00002689,-0.00067634,-0.00338591,0.00002670,0.00004542,-0.000
 05633,0.00009801,-0.00000141,0.00002960,-0.00000710,-0.00003307,0.0000
 4712,-0.00002112,-0.00002687,-0.00000517,0.00000379,-0.01380276,0.0061
 7545,0.00124299,-0.00066629,0.00030723,0.00016902,0.00001321,0.0000211
 3,0.00000528,0.00001310,-0.00001214,-0.00000626,0.00085791,0.00128716,
 -0.00032569,0.00125300,0.00132483,0.00069864,0.00003760,-0.00008176,0.
 00001245,-0.00001147,0.00002830,0.00000044,0.00011961,-0.00002708,-0.0
 0000921,-0.00003994,0.00000484,0.00000420,0.00020081,-0.00008267,0.000
 07920,-0.00003350,0.00005228,-0.00000148,0.00021653,-0.00005324,0.0000
 9767,-0.00000100,-0.00002922,-0.00008262,0.00106969,-0.00065048,-0.000
 92845,-0.00028486,0.00025131,-0.00042497,-0.54874501,0.01310421,0.0106
 5349,0.56023987,-0.00016515,0.00015553,-0.00005552,0.00052876,-0.00050
 757,-0.00002014,-0.00006025,0.00003257,0.00000655,-0.00238716,-0.00810
 845,-0.00165359,-0.00009791,0.00038493,-0.00021249,0.00011691,0.000024
 03,0.00002667,-0.00007586,0.00006027,-0.00005898,-0.00002849,-0.000021
 18,0.00000408,-0.04357817,-0.00195219,0.00038200,-0.00185992,0.0003963
 1,0.00025071,-0.00001576,0.00007510,0.00001823,0.00002902,-0.00000755,
 0.00000103,0.00006696,0.00049332,-0.00093693,-0.00022736,0.00018501,0.
 00103640,0.00003622,-0.00011218,0.00003982,-0.00000409,0.00002703,0.00
 000648,0.00009518,-0.00004089,0.00001100,-0.00002001,0.00000971,-0.000
 00165,0.00009897,-0.00004665,0.00007842,-0.00002720,0.00005459,-0.0000
 2162,0.00006472,0.00007224,0.00022379,0.00001418,0.00003821,-0.0000512
 3,0.00147572,0.00064035,-0.00051624,-0.00057415,-0.00016539,0.00119512
 ,0.06479239,-0.04198645,-0.01045450,-0.01819754,0.05029928,0.00003511,
 -0.00014130,-0.00001971,-0.00019770,0.00008030,0.00055222,0.00000010,0
 .00000784,-0.00000113,0.00033664,-0.00212068,-0.00183137,0.00003115,-0
 .00012550,-0.00000050,-0.00004154,0.00002597,-0.00001300,-0.00000193,-
 0.00000681,0.00003826,-0.00001150,-0.00000488,0.00001005,-0.00920161,0
 .00013545,-0.00102789,-0.00037152,0.00001475,0.00029211,-0.00000553,0.
 00001601,0.00001665,0.00002053,-0.00000516,-0.00001123,-0.00105926,-0.
 00009527,-0.00008386,0.00088452,-0.00018109,0.00050710,0.00000952,-0.0
 0001302,-0.00005213,-0.00000363,0.00001061,0.00000935,0.00004621,-0.00
 000422,-0.00001884,-0.00001700,-0.00000403,0.00001254,0.00004650,0.000
 01999,-0.00010421,-0.00003193,0.00001378,0.00002925,0.00036909,0.00000
 669,-0.00025693,-0.00009228,-0.00001768,-0.00001049,0.00179028,0.00147
 500,0.00007919,-0.00120410,0.00000634,0.00147266,0.02017160,-0.0097957
 1,-0.00376804,-0.01150170,0.01070262,0.00417996\\-0.00002783,0.0000048
 8,0.00000354,0.00000467,-0.00000029,0.00000664,0.00001033,-0.00000141,
 -0.00002548,0.00003220,-0.00001690,-0.00003085,-0.00000331,0.00000705,
 -0.00000101,-0.00000119,-0.00000067,0.00000288,-0.00001175,0.00000049,
 -0.00000730,0.00000144,0.00000091,0.00001138,-0.00000687,0.00000594,0.
 00000433,0.00000277,-0.00000781,-0.00000733,0.00000642,-0.00000582,0.0
 0000219,-0.00000264,0.00000146,0.00000018,-0.00000182,-0.00000047,-0.0
 0000274,-0.00000244,0.00000507,0.00000168,0.00001123,-0.00000642,0.000
 01897,-0.00001124,0.00000176,-0.00000172,0.00000885,-0.00001268,0.0000
 0214,-0.00000282,0.00000831,-0.00000582,0.00001100,0.00000824,0.000002
 36,-0.00000189,0.00000088,-0.00000579,-0.00000115,-0.00000180,0.000007
 47,-0.00000074,0.00000856,-0.00000597,0.00000388,0.00000574,0.00001575
 ,0.00000384,0.00000792,0.00000468,-0.00002881,-0.00000318,0.00001093,0
 .00000785,-0.00000978,-0.00000112\\\@
 The archive entry for this job was punched.


 THE LENGTH OF A MEETING IS PROPORTIONAL TO THE
 SQUARE OF THE PARTICIPANTS.
 Job cpu time:       0 days 10 hours 53 minutes 60.0 seconds.
 Elapsed time:       0 days  0 hours 41 minutes  1.4 seconds.
 File lengths (MBytes):  RWF=    704 Int=      0 D2E=      0 Chk=     27 Scr=      1
 Normal termination of Gaussian 16 at Wed Oct 11 15:27:49 2023.
