 Entering Gaussian System, Link 0=/opt/software/gaussian/g16.c01/g16
 Initial command:
 /opt/software/gaussian/g16.c01/l1.exe "/scratch/arhender/14836901/Gau-227110.inp" -scrdir="/scratch/arhender/14836901/"
 Entering Link 1 = /opt/software/gaussian/g16.c01/l1.exe PID=    227111.
  
 Copyright (c) 1988-2019, Gaussian, Inc.  All Rights Reserved.
  
 This is part of the Gaussian(R) 16 program.  It is based on
 the Gaussian(R) 09 system (copyright 2009, Gaussian, Inc.),
 the Gaussian(R) 03 system (copyright 2003, Gaussian, Inc.),
 the Gaussian(R) 98 system (copyright 1998, Gaussian, Inc.),
 the Gaussian(R) 94 system (copyright 1995, Gaussian, Inc.),
 the Gaussian 92(TM) system (copyright 1992, Gaussian, Inc.),
 the Gaussian 90(TM) system (copyright 1990, Gaussian, Inc.),
 the Gaussian 88(TM) system (copyright 1988, Gaussian, Inc.),
 the Gaussian 86(TM) system (copyright 1986, Carnegie Mellon
 University), and the Gaussian 82(TM) system (copyright 1983,
 Carnegie Mellon University). Gaussian is a federally registered
 trademark of Gaussian, Inc.
  
 This software contains proprietary and confidential information,
 including trade secrets, belonging to Gaussian, Inc.
  
 This software is provided under written license and may be
 used, copied, transmitted, or stored only in accord with that
 written license.
  
 The following legend is applicable only to US Government
 contracts under FAR:
  
                    RESTRICTED RIGHTS LEGEND
  
 Use, reproduction and disclosure by the US Government is
 subject to restrictions as set forth in subparagraphs (a)
 and (c) of the Commercial Computer Software - Restricted
 Rights clause in FAR 52.227-19.
  
 Gaussian, Inc.
 340 Quinnipiac St., Bldg. 40, Wallingford CT 06492
  
  
 ---------------------------------------------------------------
 Warning -- This program may not be used in any manner that
 competes with the business of Gaussian, Inc. or will provide
 assistance to any competitor of Gaussian, Inc.  The licensee
 of this program is prohibited from giving any competitor of
 Gaussian, Inc. access to this program.  By using this program,
 the user acknowledges that Gaussian, Inc. is engaged in the
 business of creating and licensing software in the field of
 computational chemistry and represents and warrants to the
 licensee that it is not a competitor of Gaussian, Inc. and that
 it will not use this program in any manner prohibited above.
 ---------------------------------------------------------------
  

 Cite this work as:
 Gaussian 16, Revision C.01,
 M. J. Frisch, G. W. Trucks, H. B. Schlegel, G. E. Scuseria, 
 M. A. Robb, J. R. Cheeseman, G. Scalmani, V. Barone, 
 G. A. Petersson, H. Nakatsuji, X. Li, M. Caricato, A. V. Marenich, 
 J. Bloino, B. G. Janesko, R. Gomperts, B. Mennucci, H. P. Hratchian, 
 J. V. Ortiz, A. F. Izmaylov, J. L. Sonnenberg, D. Williams-Young, 
 F. Ding, F. Lipparini, F. Egidi, J. Goings, B. Peng, A. Petrone, 
 T. Henderson, D. Ranasinghe, V. G. Zakrzewski, J. Gao, N. Rega, 
 G. Zheng, W. Liang, M. Hada, M. Ehara, K. Toyota, R. Fukuda, 
 J. Hasegawa, M. Ishida, T. Nakajima, Y. Honda, O. Kitao, H. Nakai, 
 T. Vreven, K. Throssell, J. A. Montgomery, Jr., J. E. Peralta, 
 F. Ogliaro, M. J. Bearpark, J. J. Heyd, E. N. Brothers, K. N. Kudin, 
 V. N. Staroverov, T. A. Keith, R. Kobayashi, J. Normand, 
 K. Raghavachari, A. P. Rendell, J. C. Burant, S. S. Iyengar, 
 J. Tomasi, M. Cossi, J. M. Millam, M. Klene, C. Adamo, R. Cammi, 
 J. W. Ochterski, R. L. Martin, K. Morokuma, O. Farkas, 
 J. B. Foresman, and D. J. Fox, Gaussian, Inc., Wallingford CT, 2019.
 
 ******************************************
 Gaussian 16:  ES64L-G16RevC.01  3-Jul-2019
                11-Oct-2023 
 ******************************************
 %chk=MannitolConformerOpt_29.chk
 %mem=8GB
 %nprocs=16
 Will use up to   16 processors via shared memory.
 ---------------------------------------------
 # opt freq wb97xd/Def2TZVPP geom=connectivity
 ---------------------------------------------
 1/18=20,19=15,26=3,38=1,57=2/1,3;
 2/9=110,12=2,17=6,18=5,40=1/2;
 3/5=44,7=202,11=2,25=1,30=1,71=1,74=-58/1,2,3;
 4//1;
 5/5=2,38=5/2;
 6/7=2,8=2,9=2,10=2,28=1/1;
 7//1,2,3,16;
 1/18=20,19=15,26=3/3(2);
 2/9=110/2;
 99//99;
 2/9=110/2;
 3/5=44,7=202,11=2,25=1,30=1,71=1,74=-58/1,2,3;
 4/5=5,16=3,69=1/1;
 5/5=2,38=5/2;
 7//1,2,3,16;
 1/18=20,19=15,26=3/3(-5);
 2/9=110/2;
 6/7=2,8=2,9=2,10=2,19=2,28=1/1;
 99/9=1/99;
 -------------------
 Title Card Required
 -------------------
 Symbolic Z-matrix:
 Charge =  0 Multiplicity = 1
 C                     0.        0.        0. 
 C                     1.5481    0.        0. 
 C                    -0.6273    0.8292    1.1464 
 C                     2.1873   -0.7688    1.1648 
 H                     1.8989    1.0396    0. 
 H                    -0.3457   -1.0408    0.0435 
 C                    -2.0577    1.2905    0.8414 
 H                    -0.0247    1.7182    1.3652 
 C                     3.713    -0.8529    1.0233 
 H                     1.7874   -1.7887    1.213 
 H                    -2.5188    1.7472    1.7235 
 H                    -2.0804    2.0187    0.0252 
 H                     4.1536    0.1442    0.9228 
 H                     4.0085   -1.4754    0.1737 
 O                    -2.8601    0.1695    0.4655 
 H                    -2.8039   -0.4411    1.2284 
 O                    -0.7045    0.032     2.3373 
 H                     0.2222   -0.0607    2.6557 
 O                    -0.397     0.5086   -1.2923 
 H                    -1.3533    0.307    -1.3709 
 O                     1.9875   -0.5777   -1.2436 
 H                     1.3586   -0.2229   -1.9089 
 O                     1.8923   -0.1471    2.4273 
 H                     2.5792   -0.5127    3.0305 
 O                     4.2353   -1.4296    2.2275 
 H                     5.1897   -1.5579    2.078 
 

 GradGradGradGradGradGradGradGradGradGradGradGradGradGradGradGradGradGrad
 Berny optimization.
 Initialization pass.
                           ----------------------------
                           !    Initial Parameters    !
                           ! (Angstroms and Degrees)  !
 --------------------------                            --------------------------
 ! Name  Definition              Value          Derivative Info.                !
 --------------------------------------------------------------------------------
 ! R1    R(1,2)                  1.5481         estimate D2E/DX2                !
 ! R2    R(1,3)                  1.5477         estimate D2E/DX2                !
 ! R3    R(1,6)                  1.0976         estimate D2E/DX2                !
 ! R4    R(1,19)                 1.4444         estimate D2E/DX2                !
 ! R5    R(2,4)                  1.5351         estimate D2E/DX2                !
 ! R6    R(2,5)                  1.0972         estimate D2E/DX2                !
 ! R7    R(2,21)                 1.4399         estimate D2E/DX2                !
 ! R8    R(3,7)                  1.5336         estimate D2E/DX2                !
 ! R9    R(3,8)                  1.096          estimate D2E/DX2                !
 ! R10   R(3,17)                 1.4352         estimate D2E/DX2                !
 ! R11   R(4,9)                  1.5346         estimate D2E/DX2                !
 ! R12   R(4,10)                 1.0966         estimate D2E/DX2                !
 ! R13   R(4,23)                 1.4379         estimate D2E/DX2                !
 ! R14   R(7,11)                 1.0951         estimate D2E/DX2                !
 ! R15   R(7,12)                 1.0941         estimate D2E/DX2                !
 ! R16   R(7,15)                 1.4289         estimate D2E/DX2                !
 ! R17   R(9,13)                 1.0947         estimate D2E/DX2                !
 ! R18   R(9,14)                 1.0939         estimate D2E/DX2                !
 ! R19   R(9,25)                 1.4337         estimate D2E/DX2                !
 ! R20   R(15,16)                0.9788         estimate D2E/DX2                !
 ! R21   R(17,18)                0.9842         estimate D2E/DX2                !
 ! R22   R(19,20)                0.9805         estimate D2E/DX2                !
 ! R23   R(21,22)                0.9818         estimate D2E/DX2                !
 ! R24   R(23,24)                0.9846         estimate D2E/DX2                !
 ! R25   R(25,26)                0.9745         estimate D2E/DX2                !
 ! A1    A(2,1,3)              113.911          estimate D2E/DX2                !
 ! A2    A(2,1,6)              108.3589         estimate D2E/DX2                !
 ! A3    A(2,1,19)             105.9532         estimate D2E/DX2                !
 ! A4    A(3,1,6)              110.5508         estimate D2E/DX2                !
 ! A5    A(3,1,19)             111.2637         estimate D2E/DX2                !
 ! A6    A(6,1,19)             106.4269         estimate D2E/DX2                !
 ! A7    A(1,2,4)              114.6077         estimate D2E/DX2                !
 ! A8    A(1,2,5)              108.6463         estimate D2E/DX2                !
 ! A9    A(1,2,21)             107.7676         estimate D2E/DX2                !
 ! A10   A(4,2,5)              109.9626         estimate D2E/DX2                !
 ! A11   A(4,2,21)             109.1077         estimate D2E/DX2                !
 ! A12   A(5,2,21)             106.4142         estimate D2E/DX2                !
 ! A13   A(1,3,7)              113.0722         estimate D2E/DX2                !
 ! A14   A(1,3,8)              111.0749         estimate D2E/DX2                !
 ! A15   A(1,3,17)             109.8064         estimate D2E/DX2                !
 ! A16   A(7,3,8)              107.9705         estimate D2E/DX2                !
 ! A17   A(7,3,17)             106.3762         estimate D2E/DX2                !
 ! A18   A(8,3,17)             108.3286         estimate D2E/DX2                !
 ! A19   A(2,4,9)              111.8069         estimate D2E/DX2                !
 ! A20   A(2,4,10)             110.3232         estimate D2E/DX2                !
 ! A21   A(2,4,23)             111.3632         estimate D2E/DX2                !
 ! A22   A(9,4,10)             108.4008         estimate D2E/DX2                !
 ! A23   A(9,4,23)             107.9774         estimate D2E/DX2                !
 ! A24   A(10,4,23)            106.7823         estimate D2E/DX2                !
 ! A25   A(3,7,11)             110.9755         estimate D2E/DX2                !
 ! A26   A(3,7,12)             111.5882         estimate D2E/DX2                !
 ! A27   A(3,7,15)             109.8832         estimate D2E/DX2                !
 ! A28   A(11,7,12)            108.3368         estimate D2E/DX2                !
 ! A29   A(11,7,15)            107.6153         estimate D2E/DX2                !
 ! A30   A(12,7,15)            108.3161         estimate D2E/DX2                !
 ! A31   A(4,9,13)             111.0203         estimate D2E/DX2                !
 ! A32   A(4,9,14)             111.8004         estimate D2E/DX2                !
 ! A33   A(4,9,25)             107.8663         estimate D2E/DX2                !
 ! A34   A(13,9,14)            109.7725         estimate D2E/DX2                !
 ! A35   A(13,9,25)            107.2691         estimate D2E/DX2                !
 ! A36   A(14,9,25)            108.9673         estimate D2E/DX2                !
 ! A37   A(7,15,16)            104.6031         estimate D2E/DX2                !
 ! A38   A(3,17,18)            105.6705         estimate D2E/DX2                !
 ! A39   A(1,19,20)            105.5095         estimate D2E/DX2                !
 ! A40   A(2,21,22)            104.1687         estimate D2E/DX2                !
 ! A41   A(4,23,24)            103.5472         estimate D2E/DX2                !
 ! A42   A(9,25,26)            106.3132         estimate D2E/DX2                !
 ! D1    D(3,1,2,4)             69.3044         estimate D2E/DX2                !
 ! D2    D(3,1,2,5)            -54.1215         estimate D2E/DX2                !
 ! D3    D(3,1,2,21)          -169.0382         estimate D2E/DX2                !
 ! D4    D(6,1,2,4)            -54.1808         estimate D2E/DX2                !
 ! D5    D(6,1,2,5)           -177.6067         estimate D2E/DX2                !
 ! D6    D(6,1,2,21)            67.4766         estimate D2E/DX2                !
 ! D7    D(19,1,2,4)          -168.0568         estimate D2E/DX2                !
 ! D8    D(19,1,2,5)            68.5173         estimate D2E/DX2                !
 ! D9    D(19,1,2,21)          -46.3994         estimate D2E/DX2                !
 ! D10   D(2,1,3,7)            156.9454         estimate D2E/DX2                !
 ! D11   D(2,1,3,8)             35.3752         estimate D2E/DX2                !
 ! D12   D(2,1,3,17)           -84.4256         estimate D2E/DX2                !
 ! D13   D(6,1,3,7)            -80.7669         estimate D2E/DX2                !
 ! D14   D(6,1,3,8)            157.6629         estimate D2E/DX2                !
 ! D15   D(6,1,3,17)            37.862          estimate D2E/DX2                !
 ! D16   D(19,1,3,7)            37.2652         estimate D2E/DX2                !
 ! D17   D(19,1,3,8)           -84.3049         estimate D2E/DX2                !
 ! D18   D(19,1,3,17)          155.8942         estimate D2E/DX2                !
 ! D19   D(2,1,19,20)          166.7601         estimate D2E/DX2                !
 ! D20   D(3,1,19,20)          -68.9353         estimate D2E/DX2                !
 ! D21   D(6,1,19,20)           51.5585         estimate D2E/DX2                !
 ! D22   D(1,2,4,9)            174.0319         estimate D2E/DX2                !
 ! D23   D(1,2,4,10)            53.3181         estimate D2E/DX2                !
 ! D24   D(1,2,4,23)           -65.0734         estimate D2E/DX2                !
 ! D25   D(5,2,4,9)            -63.2502         estimate D2E/DX2                !
 ! D26   D(5,2,4,10)           176.0359         estimate D2E/DX2                !
 ! D27   D(5,2,4,23)            57.6445         estimate D2E/DX2                !
 ! D28   D(21,2,4,9)            53.1096         estimate D2E/DX2                !
 ! D29   D(21,2,4,10)          -67.6042         estimate D2E/DX2                !
 ! D30   D(21,2,4,23)          174.0043         estimate D2E/DX2                !
 ! D31   D(1,2,21,22)           39.2302         estimate D2E/DX2                !
 ! D32   D(4,2,21,22)          164.2434         estimate D2E/DX2                !
 ! D33   D(5,2,21,22)          -77.1549         estimate D2E/DX2                !
 ! D34   D(1,3,7,11)           171.8856         estimate D2E/DX2                !
 ! D35   D(1,3,7,12)           -67.1808         estimate D2E/DX2                !
 ! D36   D(1,3,7,15)            52.9845         estimate D2E/DX2                !
 ! D37   D(8,3,7,11)           -64.812          estimate D2E/DX2                !
 ! D38   D(8,3,7,12)            56.1216         estimate D2E/DX2                !
 ! D39   D(8,3,7,15)           176.287          estimate D2E/DX2                !
 ! D40   D(17,3,7,11)           51.2848         estimate D2E/DX2                !
 ! D41   D(17,3,7,12)          172.2184         estimate D2E/DX2                !
 ! D42   D(17,3,7,15)          -67.6162         estimate D2E/DX2                !
 ! D43   D(1,3,17,18)           71.7303         estimate D2E/DX2                !
 ! D44   D(7,3,17,18)         -165.5874         estimate D2E/DX2                !
 ! D45   D(8,3,17,18)          -49.7315         estimate D2E/DX2                !
 ! D46   D(2,4,9,13)            55.4516         estimate D2E/DX2                !
 ! D47   D(2,4,9,14)           -67.5061         estimate D2E/DX2                !
 ! D48   D(2,4,9,25)           172.71           estimate D2E/DX2                !
 ! D49   D(10,4,9,13)          177.2779         estimate D2E/DX2                !
 ! D50   D(10,4,9,14)           54.3202         estimate D2E/DX2                !
 ! D51   D(10,4,9,25)          -65.4637         estimate D2E/DX2                !
 ! D52   D(23,4,9,13)          -67.3903         estimate D2E/DX2                !
 ! D53   D(23,4,9,14)          169.652          estimate D2E/DX2                !
 ! D54   D(23,4,9,25)           49.8681         estimate D2E/DX2                !
 ! D55   D(2,4,23,24)         -160.9993         estimate D2E/DX2                !
 ! D56   D(9,4,23,24)          -37.8869         estimate D2E/DX2                !
 ! D57   D(10,4,23,24)          78.5036         estimate D2E/DX2                !
 ! D58   D(3,7,15,16)           58.0195         estimate D2E/DX2                !
 ! D59   D(11,7,15,16)         -62.9259         estimate D2E/DX2                !
 ! D60   D(12,7,15,16)        -179.8494         estimate D2E/DX2                !
 ! D61   D(4,9,25,26)          174.267          estimate D2E/DX2                !
 ! D62   D(13,9,25,26)         -66.0716         estimate D2E/DX2                !
 ! D63   D(14,9,25,26)          52.7078         estimate D2E/DX2                !
 --------------------------------------------------------------------------------
 Trust Radius=3.00D-01 FncErr=1.00D-07 GrdErr=1.00D-06 EigMax=2.50D+02 EigMin=1.00D-04
 Number of steps in this run=    140 maximum allowed number of steps=    156.
 GradGradGradGradGradGradGradGradGradGradGradGradGradGradGradGradGradGrad

                          Input orientation:                          
 ---------------------------------------------------------------------
 Center     Atomic      Atomic             Coordinates (Angstroms)
 Number     Number       Type             X           Y           Z
 ---------------------------------------------------------------------
      1          6           0        0.000000    0.000000    0.000000
      2          6           0        1.548100    0.000000    0.000000
      3          6           0       -0.627300    0.829200    1.146400
      4          6           0        2.187300   -0.768800    1.164800
      5          1           0        1.898900    1.039600    0.000000
      6          1           0       -0.345700   -1.040800    0.043500
      7          6           0       -2.057700    1.290500    0.841400
      8          1           0       -0.024700    1.718200    1.365200
      9          6           0        3.713000   -0.852900    1.023300
     10          1           0        1.787400   -1.788700    1.213000
     11          1           0       -2.518800    1.747200    1.723500
     12          1           0       -2.080400    2.018700    0.025200
     13          1           0        4.153600    0.144200    0.922800
     14          1           0        4.008500   -1.475400    0.173700
     15          8           0       -2.860100    0.169500    0.465500
     16          1           0       -2.803900   -0.441100    1.228400
     17          8           0       -0.704500    0.032000    2.337300
     18          1           0        0.222200   -0.060700    2.655700
     19          8           0       -0.397000    0.508600   -1.292300
     20          1           0       -1.353300    0.307000   -1.370900
     21          8           0        1.987500   -0.577700   -1.243600
     22          1           0        1.358600   -0.222900   -1.908900
     23          8           0        1.892300   -0.147100    2.427300
     24          1           0        2.579200   -0.512700    3.030500
     25          8           0        4.235300   -1.429600    2.227500
     26          1           0        5.189700   -1.557900    2.078000
 ---------------------------------------------------------------------
                    Distance matrix (angstroms):
                    1          2          3          4          5
     1  C    0.000000
     2  C    1.548100   0.000000
     3  C    1.547679   2.595028   0.000000
     4  C    2.594628   1.535053   3.236652   0.000000
     5  H    2.164853   1.097191   2.782119   2.170310   0.000000
     6  H    1.097572   2.161397   2.189198   2.783413   3.060749
     7  C    2.570501   3.921114   1.533580   4.729200   4.052849
     8  H    2.194674   2.699941   1.096048   3.334407   2.454487
     9  C    3.944737   2.541923   4.656481   1.534554   2.814189
    10  H    2.804570   2.174415   3.562108   1.096558   3.079461
    11  H    3.516748   4.750035   2.180262   5.365611   4.794499
    12  H    2.898939   4.152324   2.187121   5.223228   4.098061
    13  H    4.257317   2.767848   4.834897   2.181391   2.595568
    14  H    4.274933   2.874116   5.267634   2.190510   3.287219
    15  O    2.902687   4.435949   2.425742   5.181281   4.860231
    16  H    3.092797   4.543505   2.521502   5.002350   5.081119
    17  O    2.441376   3.246260   1.435176   3.221575   3.640868
    18  H    2.665671   2.968912   1.947193   2.566283   3.327871
    19  O    1.444411   2.390006   2.470441   3.787835   2.687593
    20  H    1.950650   3.223622   2.671436   4.485863   3.604563
    21  O    2.414629   1.439913   3.811646   2.424217   2.042070
    22  H    2.353588   1.931190   3.792832   3.229920   2.351538
    23  O    3.081270   2.455992   2.990360   1.437860   2.701867
    24  H    4.012364   3.241907   3.953754   1.923541   3.472229
    25  O    4.994325   3.771811   5.469537   2.400061   4.064169
    26  H    5.803285   4.472850   6.356384   3.235895   4.679151
                    6          7          8          9         10
     6  H    0.000000
     7  C    3.000425   0.000000
     8  H    3.076039   2.142518   0.000000
     9  C    4.179517   6.158590   4.549489   0.000000
    10  H    2.545034   4.940076   3.950344   2.149335   0.000000
    11  H    3.913784   1.095120   2.519872   6.788677   5.595226
    12  H    3.517109   1.094063   2.472206   6.542612   5.555811
    13  H    4.735092   6.316714   4.486801   1.094731   3.069075
    14  H    4.377772   6.700359   5.280668   1.093913   2.472162
    15  O    2.822254   1.428911   3.353718   6.675484   5.098290
    16  H    2.793989   1.924843   3.522108   6.533118   4.785008
    17  O    2.557568   2.377538   2.061644   4.692968   3.284595
    18  H    2.847226   3.211755   2.211523   3.934208   2.741755
    19  O    2.046371   2.814599   2.943475   4.909968   4.040510
    20  H    2.198261   2.521453   3.353044   5.722321   4.575204
    21  O    2.704609   4.919455   4.015712   2.862153   2.746169
    22  H    2.717621   4.639573   4.049829   3.812859   3.518787
    23  O    3.389668   4.492691   2.877897   2.405061   2.044598
    24  H    4.213799   5.435488   3.811881   2.330255   2.357632
    25  O    5.089851   6.994431   5.366545   1.433694   2.674019
    26  H    5.920071   7.884629   6.199265   1.946808   3.518116
                   11         12         13         14         15
    11  H    0.000000
    12  H    1.774860   0.000000
    13  H    6.908810   6.571316   0.000000
    14  H    7.442626   7.021787   1.790338   0.000000
    15  O    2.046506   2.054589   7.028638   7.068841   0.000000
    16  H    2.261650   2.832271   6.988761   6.970722   0.978778
    17  O    2.571059   3.344530   5.061080   5.400536   2.858173
    18  H    3.413295   4.067604   4.301259   4.743181   3.788211
    19  O    3.889886   2.617259   5.074191   5.049143   3.044948
    20  H    3.606644   2.325443   5.967706   5.857614   2.379436
    21  O    5.874996   4.989885   3.147446   2.626603   5.194089
    22  H    5.666556   4.537867   3.995662   3.595546   4.856870
    23  O    4.851959   5.122804   2.731639   3.364728   5.151136
    24  H    5.727565   6.095218   2.711577   3.336315   6.052322
    25  O    7.480905   7.525222   2.045914   2.066792   7.483747
    26  H    8.394661   8.358254   2.303288   2.242409   8.389478
                   16         17         18         19         20
    16  H    0.000000
    17  O    2.420943   0.000000
    18  H    3.367369   0.984248   0.000000
    19  O    3.612344   3.673649   4.036609   0.000000
    20  H    3.069243   3.774561   4.339460   0.980474   0.000000
    21  O    5.393233   4.521221   4.311393   2.620736   3.458301
    22  H    5.216960   4.727745   4.706728   1.999355   2.815074
    23  O    4.855728   2.604524   1.687858   4.416589   5.016617
    24  H    5.677187   3.399987   2.429039   5.346720   5.958925
    25  O    7.178138   5.152665   4.261715   6.132195   6.869986
    26  H    8.115830   6.110369   5.220287   6.844016   7.627818
                   21         22         23         24         25
    21  O    0.000000
    22  H    0.981846   0.000000
    23  O    3.697294   4.369578   0.000000
    24  H    4.315352   5.096226   0.984553   0.000000
    25  O    4.222188   5.180862   2.678502   2.056254   0.000000
    26  H    4.716768   5.688139   3.603500   2.968907   0.974521
                   26
    26  H    0.000000
 Stoichiometry    C6H14O6
 Framework group  C1[X(C6H14O6)]
 Deg. of freedom    72
 Full point group                 C1      NOp   1
 Largest Abelian subgroup         C1      NOp   1
 Largest concise Abelian subgroup C1      NOp   1
                         Standard orientation:                         
 ---------------------------------------------------------------------
 Center     Atomic      Atomic             Coordinates (Angstroms)
 Number     Number       Type             X           Y           Z
 ---------------------------------------------------------------------
      1          6           0       -0.865677    0.632367   -0.148819
      2          6           0        0.597989    0.892194    0.283367
      3          6           0       -1.500882   -0.617440    0.506778
      4          6           0        1.611144   -0.135116   -0.240600
      5          1           0        0.638282    0.932811    1.379066
      6          1           0       -0.893591    0.549752   -1.242921
      7          6           0       -3.033185   -0.564990    0.540905
      8          1           0       -1.143996   -0.747579    1.534891
      9          6           0        3.053716    0.261900    0.100311
     10          1           0        1.526908   -0.231827   -1.329632
     11          1           0       -3.450722   -1.519850    0.877346
     12          1           0       -3.394221    0.222904    1.208624
     13          1           0        3.174141    0.417393    1.177231
     14          1           0        3.366549    1.159845   -0.440500
     15          8           0       -3.540027   -0.309462   -0.770432
     16          1           0       -3.189125   -1.041263   -1.317554
     17          8           0       -1.152763   -1.790215   -0.243651
     18          1           0       -0.197774   -1.946886   -0.064222
     19          8           0       -1.598076    1.830569    0.189154
     20          1           0       -2.458762    1.751081   -0.273697
     21          8           0        0.968920    2.201854   -0.186264
     22          1           0        0.164448    2.745828   -0.041560
     23          8           0        1.367543   -1.439941    0.312149
     24          1           0        2.219570   -1.912782    0.171381
     25          8           0        3.909045   -0.827240   -0.270723
     26          1           0        4.822536   -0.517447   -0.131968
 ---------------------------------------------------------------------
 Rotational constants (GHZ):           1.6127403           0.5173673           0.4150420
 Standard basis: def2TZVPP (5D, 7F)
 There are   642 symmetry adapted cartesian basis functions of A   symmetry.
 There are   568 symmetry adapted basis functions of A   symmetry.
   568 basis functions,   850 primitive gaussians,   642 cartesian basis functions
    49 alpha electrons       49 beta electrons
       nuclear repulsion energy       824.4941169480 Hartrees.
 NAtoms=   26 NActive=   26 NUniq=   26 SFac= 1.00D+00 NAtFMM=   60 NAOKFM=F Big=F
 Integral buffers will be    131072 words long.
 Raffenetti 2 integral format.
 Two-electron integral symmetry is turned on.
 Nuclear repulsion after empirical dispersion term =      824.4761357710 Hartrees.
 One-electron integrals computed using PRISM.
   1 Symmetry operations used in ECPInt.
 ECPInt:  NShTT=   23436 NPrTT=   62434 LenC2=   21641 LenP2D=   44968.
 LDataN:  DoStor=T MaxTD1= 6 Len=  172
 NBasis=   568 RedAO= T EigKep=  5.83D-05  NBF=   568
 NBsUse=   568 1.00D-06 EigRej= -1.00D+00 NBFU=   568
 ExpMin= 9.52D-02 ExpMax= 2.70D+04 ExpMxC= 9.22D+02 IAcc=3 IRadAn=         5 AccDes= 0.00D+00
 Harris functional with IExCor= 4639 and IRadAn=       5 diagonalized for initial guess.
 HarFok:  IExCor= 4639 AccDes= 0.00D+00 IRadAn=         5 IDoV= 1 UseB2=F ITyADJ=14
 ICtDFT=  3500011 ScaDFX=  1.000000  1.000000  1.000000  1.000000
 FoFCou: FMM=F IPFlag=           0 FMFlag=      100000 FMFlg1=           0
         NFxFlg=           0 DoJE=T BraDBF=F KetDBF=T FulRan=T
         wScrn=  0.000000 ICntrl=       500 IOpCl=  0 I1Cent=   200000004 NGrid=           0
         NMat0=    1 NMatS0=      1 NMatT0=    0 NMatD0=    1 NMtDS0=    0 NMtDT0=    0
 Petite list used in FoFCou.
 Requested convergence on RMS density matrix=1.00D-08 within 128 cycles.
 Requested convergence on MAX density matrix=1.00D-06.
 Requested convergence on             energy=1.00D-06.
 No special actions if energy rises.
 Integral accuracy reduced to 1.0D-05 until final iterations.
 Initial convergence to 1.0D-05 achieved.  Increase integral accuracy.
 SCF Done:  E(RwB97XD) =  -688.472655224     A.U. after   14 cycles
            NFock= 14  Conv=0.17D-08     -V/T= 2.0050

 **********************************************************************

            Population analysis using the SCF Density.

 **********************************************************************

 Orbital symmetries:
       Occupied  (A) (A) (A) (A) (A) (A) (A) (A) (A) (A) (A) (A)
                 (A) (A) (A) (A) (A) (A) (A) (A) (A) (A) (A) (A)
                 (A) (A) (A) (A) (A) (A) (A) (A) (A) (A) (A) (A)
                 (A) (A) (A) (A) (A) (A) (A) (A) (A) (A) (A) (A)
                 (A)
       Virtual   (A) (A) (A) (A) (A) (A) (A) (A) (A) (A) (A) (A)
                 (A) (A) (A) (A) (A) (A) (A) (A) (A) (A) (A) (A)
                 (A) (A) (A) (A) (A) (A) (A) (A) (A) (A) (A) (A)
                 (A) (A) (A) (A) (A) (A) (A) (A) (A) (A) (A) (A)
                 (A) (A) (A) (A) (A) (A) (A) (A) (A) (A) (A) (A)
                 (A) (A) (A) (A) (A) (A) (A) (A) (A) (A) (A) (A)
                 (A) (A) (A) (A) (A) (A) (A) (A) (A) (A) (A) (A)
                 (A) (A) (A) (A) (A) (A) (A) (A) (A) (A) (A) (A)
                 (A) (A) (A) (A) (A) (A) (A) (A) (A) (A) (A) (A)
                 (A) (A) (A) (A) (A) (A) (A) (A) (A) (A) (A) (A)
                 (A) (A) (A) (A) (A) (A) (A) (A) (A) (A) (A) (A)
                 (A) (A) (A) (A) (A) (A) (A) (A) (A) (A) (A) (A)
                 (A) (A) (A) (A) (A) (A) (A) (A) (A) (A) (A) (A)
                 (A) (A) (A) (A) (A) (A) (A) (A) (A) (A) (A) (A)
                 (A) (A) (A) (A) (A) (A) (A) (A) (A) (A) (A) (A)
                 (A) (A) (A) (A) (A) (A) (A) (A) (A) (A) (A) (A)
                 (A) (A) (A) (A) (A) (A) (A) (A) (A) (A) (A) (A)
                 (A) (A) (A) (A) (A) (A) (A) (A) (A) (A) (A) (A)
                 (A) (A) (A) (A) (A) (A) (A) (A) (A) (A) (A) (A)
                 (A) (A) (A) (A) (A) (A) (A) (A) (A) (A) (A) (A)
                 (A) (A) (A) (A) (A) (A) (A) (A) (A) (A) (A) (A)
                 (A) (A) (A) (A) (A) (A) (A) (A) (A) (A) (A) (A)
                 (A) (A) (A) (A) (A) (A) (A) (A) (A) (A) (A) (A)
                 (A) (A) (A) (A) (A) (A) (A) (A) (A) (A) (A) (A)
                 (A) (A) (A) (A) (A) (A) (A) (A) (A) (A) (A) (A)
                 (A) (A) (A) (A) (A) (A) (A) (A) (A) (A) (A) (A)
                 (A) (A) (A) (A) (A) (A) (A) (A) (A) (A) (A) (A)
                 (A) (A) (A) (A) (A) (A) (A) (A) (A) (A) (A) (A)
                 (A) (A) (A) (A) (A) (A) (A) (A) (A) (A) (A) (A)
                 (A) (A) (A) (A) (A) (A) (A) (A) (A) (A) (A) (A)
                 (A) (A) (A) (A) (A) (A) (A) (A) (A) (A) (A) (A)
                 (A) (A) (A) (A) (A) (A) (A) (A) (A) (A) (A) (A)
                 (A) (A) (A) (A) (A) (A) (A) (A) (A) (A) (A) (A)
                 (A) (A) (A) (A) (A) (A) (A) (A) (A) (A) (A) (A)
                 (A) (A) (A) (A) (A) (A) (A) (A) (A) (A) (A) (A)
                 (A) (A) (A) (A) (A) (A) (A) (A) (A) (A) (A) (A)
                 (A) (A) (A) (A) (A) (A) (A) (A) (A) (A) (A) (A)
                 (A) (A) (A) (A) (A) (A) (A) (A) (A) (A) (A) (A)
                 (A) (A) (A) (A) (A) (A) (A) (A) (A) (A) (A) (A)
                 (A) (A) (A) (A) (A) (A) (A) (A) (A) (A) (A) (A)
                 (A) (A) (A) (A) (A) (A) (A) (A) (A) (A) (A) (A)
                 (A) (A) (A) (A) (A) (A) (A) (A) (A) (A) (A) (A)
                 (A) (A) (A) (A) (A) (A) (A) (A) (A) (A) (A) (A)
                 (A) (A) (A)
 The electronic state is 1-A.
 Alpha  occ. eigenvalues --  -19.27873 -19.27593 -19.26241 -19.25199 -19.24938
 Alpha  occ. eigenvalues --  -19.23179 -10.35837 -10.35015 -10.34663 -10.34333
 Alpha  occ. eigenvalues --  -10.33550 -10.32919  -1.16381  -1.14479  -1.13357
 Alpha  occ. eigenvalues --   -1.12697  -1.10775  -1.09916  -0.88576  -0.84685
 Alpha  occ. eigenvalues --   -0.81023  -0.74683  -0.69941  -0.68075  -0.64405
 Alpha  occ. eigenvalues --   -0.63676  -0.61729  -0.60663  -0.58690  -0.57166
 Alpha  occ. eigenvalues --   -0.56091  -0.54783  -0.52787  -0.51946  -0.51360
 Alpha  occ. eigenvalues --   -0.50236  -0.48547  -0.48090  -0.46401  -0.45096
 Alpha  occ. eigenvalues --   -0.42963  -0.42020  -0.41204  -0.39347  -0.39048
 Alpha  occ. eigenvalues --   -0.37990  -0.36385  -0.36157  -0.34485
 Alpha virt. eigenvalues --    0.08367   0.10626   0.11784   0.12792   0.14177
 Alpha virt. eigenvalues --    0.15030   0.16308   0.17377   0.17799   0.18634
 Alpha virt. eigenvalues --    0.19183   0.20279   0.21241   0.21379   0.21538
 Alpha virt. eigenvalues --    0.22690   0.23343   0.24523   0.25514   0.27432
 Alpha virt. eigenvalues --    0.28300   0.29362   0.30931   0.31236   0.33008
 Alpha virt. eigenvalues --    0.34244   0.34788   0.36601   0.37207   0.38492
 Alpha virt. eigenvalues --    0.39081   0.39598   0.40243   0.41068   0.41602
 Alpha virt. eigenvalues --    0.42332   0.43256   0.44256   0.44705   0.45387
 Alpha virt. eigenvalues --    0.46014   0.46590   0.47252   0.47748   0.48257
 Alpha virt. eigenvalues --    0.48832   0.49071   0.49388   0.49740   0.50916
 Alpha virt. eigenvalues --    0.51447   0.52135   0.52968   0.53414   0.54269
 Alpha virt. eigenvalues --    0.54909   0.55534   0.57286   0.57669   0.59034
 Alpha virt. eigenvalues --    0.59327   0.60178   0.61104   0.63252   0.64500
 Alpha virt. eigenvalues --    0.65518   0.65899   0.67200   0.67509   0.69447
 Alpha virt. eigenvalues --    0.70241   0.70686   0.71217   0.72375   0.73503
 Alpha virt. eigenvalues --    0.74938   0.76414   0.77942   0.78588   0.80172
 Alpha virt. eigenvalues --    0.82116   0.84229   0.85205   0.85690   0.86070
 Alpha virt. eigenvalues --    0.87796   0.88654   0.89333   0.89983   0.90387
 Alpha virt. eigenvalues --    0.91431   0.92903   0.93458   0.94896   0.95452
 Alpha virt. eigenvalues --    0.97319   0.97535   0.98739   1.00017   1.00634
 Alpha virt. eigenvalues --    1.01602   1.03219   1.05203   1.06368   1.07951
 Alpha virt. eigenvalues --    1.08591   1.09947   1.11367   1.11976   1.12774
 Alpha virt. eigenvalues --    1.13179   1.14250   1.16003   1.17476   1.18055
 Alpha virt. eigenvalues --    1.18471   1.20571   1.21366   1.23133   1.23992
 Alpha virt. eigenvalues --    1.25212   1.26497   1.27466   1.28806   1.29936
 Alpha virt. eigenvalues --    1.30209   1.30853   1.32076   1.33030   1.33555
 Alpha virt. eigenvalues --    1.35028   1.36187   1.38539   1.39029   1.40354
 Alpha virt. eigenvalues --    1.41593   1.42501   1.43143   1.45270   1.46747
 Alpha virt. eigenvalues --    1.48045   1.49060   1.50147   1.50489   1.52628
 Alpha virt. eigenvalues --    1.52895   1.53553   1.54226   1.55591   1.56238
 Alpha virt. eigenvalues --    1.57907   1.58462   1.59654   1.62095   1.62926
 Alpha virt. eigenvalues --    1.65114   1.66106   1.67055   1.69360   1.71155
 Alpha virt. eigenvalues --    1.74905   1.76018   1.79028   1.80860   1.83056
 Alpha virt. eigenvalues --    1.86248   1.89143   1.90375   1.91247   1.92619
 Alpha virt. eigenvalues --    1.92848   1.96086   1.97777   1.98144   2.00479
 Alpha virt. eigenvalues --    2.01760   2.02361   2.02932   2.03310   2.04931
 Alpha virt. eigenvalues --    2.05134   2.06206   2.07002   2.09848   2.11199
 Alpha virt. eigenvalues --    2.11935   2.13096   2.13529   2.14503   2.15288
 Alpha virt. eigenvalues --    2.17006   2.17690   2.20869   2.22221   2.24419
 Alpha virt. eigenvalues --    2.25811   2.26488   2.28406   2.29068   2.30937
 Alpha virt. eigenvalues --    2.34216   2.35172   2.36924   2.40513   2.42804
 Alpha virt. eigenvalues --    2.44800   2.46406   2.46992   2.48872   2.51073
 Alpha virt. eigenvalues --    2.54873   2.58465   2.59498   2.60123   2.64480
 Alpha virt. eigenvalues --    2.65740   2.67934   2.70554   2.71334   2.71973
 Alpha virt. eigenvalues --    2.74615   2.75500   2.76156   2.76883   2.78356
 Alpha virt. eigenvalues --    2.79069   2.80294   2.81881   2.83392   2.85219
 Alpha virt. eigenvalues --    2.86178   2.87057   2.87611   2.90313   2.92398
 Alpha virt. eigenvalues --    2.93083   2.93740   2.94618   2.96600   2.98080
 Alpha virt. eigenvalues --    2.99214   2.99967   3.00739   3.03351   3.04349
 Alpha virt. eigenvalues --    3.05748   3.06262   3.08229   3.09863   3.10872
 Alpha virt. eigenvalues --    3.11795   3.12837   3.14125   3.15296   3.15664
 Alpha virt. eigenvalues --    3.16408   3.17376   3.18622   3.19325   3.21340
 Alpha virt. eigenvalues --    3.22924   3.23425   3.24428   3.26260   3.27483
 Alpha virt. eigenvalues --    3.28158   3.30367   3.31255   3.32126   3.32644
 Alpha virt. eigenvalues --    3.33565   3.34393   3.35737   3.36686   3.37466
 Alpha virt. eigenvalues --    3.38895   3.39358   3.40860   3.42126   3.43920
 Alpha virt. eigenvalues --    3.44318   3.45466   3.45912   3.46939   3.48299
 Alpha virt. eigenvalues --    3.49218   3.50249   3.50629   3.52354   3.52902
 Alpha virt. eigenvalues --    3.54501   3.55612   3.55851   3.56090   3.60122
 Alpha virt. eigenvalues --    3.61364   3.61592   3.62695   3.64309   3.65600
 Alpha virt. eigenvalues --    3.66286   3.67240   3.69082   3.69866   3.70952
 Alpha virt. eigenvalues --    3.72296   3.74636   3.75363   3.76696   3.77971
 Alpha virt. eigenvalues --    3.79881   3.80986   3.81950   3.82845   3.83612
 Alpha virt. eigenvalues --    3.84623   3.85269   3.86527   3.88869   3.89759
 Alpha virt. eigenvalues --    3.92402   3.92454   3.94140   3.95124   3.97214
 Alpha virt. eigenvalues --    3.98199   3.98873   4.00784   4.01052   4.01351
 Alpha virt. eigenvalues --    4.02503   4.03320   4.04062   4.05193   4.07115
 Alpha virt. eigenvalues --    4.07675   4.08782   4.09382   4.09546   4.11666
 Alpha virt. eigenvalues --    4.13078   4.13917   4.15322   4.16640   4.17822
 Alpha virt. eigenvalues --    4.18697   4.19631   4.19988   4.21432   4.22887
 Alpha virt. eigenvalues --    4.23522   4.25094   4.26516   4.27439   4.28669
 Alpha virt. eigenvalues --    4.29616   4.30663   4.31296   4.32718   4.33048
 Alpha virt. eigenvalues --    4.35166   4.36496   4.38514   4.39181   4.39754
 Alpha virt. eigenvalues --    4.40288   4.42527   4.45322   4.46852   4.47456
 Alpha virt. eigenvalues --    4.49081   4.50536   4.51200   4.53282   4.54925
 Alpha virt. eigenvalues --    4.57236   4.58633   4.60065   4.60419   4.61844
 Alpha virt. eigenvalues --    4.64062   4.67943   4.68642   4.69978   4.71524
 Alpha virt. eigenvalues --    4.73757   4.73911   4.74852   4.76616   4.80031
 Alpha virt. eigenvalues --    4.80386   4.81372   4.84208   4.87096   4.89606
 Alpha virt. eigenvalues --    4.90312   4.91041   4.91984   4.93863   4.94646
 Alpha virt. eigenvalues --    4.96344   4.97791   5.00941   5.01840   5.03617
 Alpha virt. eigenvalues --    5.05423   5.05730   5.08287   5.09473   5.13146
 Alpha virt. eigenvalues --    5.14863   5.16366   5.17710   5.18474   5.19586
 Alpha virt. eigenvalues --    5.21665   5.23451   5.24432   5.26288   5.29543
 Alpha virt. eigenvalues --    5.33407   5.35566   5.38812   5.40107   5.43432
 Alpha virt. eigenvalues --    5.46254   5.50577   5.55995   5.56256   5.57969
 Alpha virt. eigenvalues --    5.60451   5.63767   5.64225   5.64418   5.67104
 Alpha virt. eigenvalues --    5.68420   5.71329   5.71508   5.73153   5.76513
 Alpha virt. eigenvalues --    5.77360   5.78565   5.82643   5.84282   5.87025
 Alpha virt. eigenvalues --    5.87911   5.90781   5.94659   5.95247   5.96216
 Alpha virt. eigenvalues --    5.97376   5.99517   6.03214   6.11031   6.12127
 Alpha virt. eigenvalues --    6.13603   6.15443   6.17920   6.21015   6.51191
 Alpha virt. eigenvalues --    6.53384   6.53934   6.56283   6.57911   6.60983
 Alpha virt. eigenvalues --    6.68000   6.72329   6.74737   6.75307   6.75756
 Alpha virt. eigenvalues --    6.76437   6.77359   6.79058   6.81028   6.81388
 Alpha virt. eigenvalues --    6.83585   6.84919   6.86863   6.87276   6.89181
 Alpha virt. eigenvalues --    6.90589   6.92769   6.95599   6.97542   7.00198
 Alpha virt. eigenvalues --    7.01970   7.03154   7.05725   7.08614   7.15311
 Alpha virt. eigenvalues --    7.16153   7.20653   7.23837   7.26317   7.29090
 Alpha virt. eigenvalues --    7.39364   7.41127   7.42426   7.45425   7.46142
 Alpha virt. eigenvalues --    7.48460   7.53946   7.57278   7.58066   7.59346
 Alpha virt. eigenvalues --    7.60823   7.73055  23.09728  23.13923  23.20365
 Alpha virt. eigenvalues --   23.23983  23.39873  23.43838  44.10835  44.11218
 Alpha virt. eigenvalues --   44.21163  44.26304  44.30514  44.41630
          Condensed to atoms (all electrons):
               1          2          3          4          5          6
     1  C    5.138523   0.294783   0.103467  -0.004987  -0.032479   0.411610
     2  C    0.294783   5.012241  -0.062740   0.153210   0.403065  -0.048383
     3  C    0.103467  -0.062740   5.124495  -0.004461   0.000592  -0.024462
     4  C   -0.004987   0.153210  -0.004461   4.987281  -0.032192   0.002101
     5  H   -0.032479   0.403065   0.000592  -0.032192   0.611971   0.008593
     6  H    0.411610  -0.048383  -0.024462   0.002101   0.008593   0.587015
     7  C   -0.002473   0.003646   0.237338   0.001032   0.000165  -0.011240
     8  H   -0.087010   0.001290   0.453276   0.000343   0.007950   0.010006
     9  C   -0.006126  -0.014300   0.000112   0.287253  -0.015660   0.000153
    10  H   -0.014272  -0.028799   0.002300   0.418848   0.008543   0.005874
    11  H    0.016549   0.000498  -0.054586  -0.000232   0.000034   0.000517
    12  H   -0.013612  -0.001274  -0.030960   0.000130   0.000115   0.001818
    13  H    0.000454   0.013355  -0.000430  -0.051802   0.005819   0.000026
    14  H   -0.000283  -0.014346   0.000361  -0.021333   0.001726   0.000081
    15  O    0.017144   0.006287  -0.052544  -0.000484  -0.000016   0.008713
    16  H   -0.008351  -0.000163   0.004748   0.000115  -0.000018   0.001444
    17  O   -0.060204  -0.014828   0.279612   0.024937   0.000715   0.008879
    18  H    0.023508  -0.002360  -0.042999  -0.004430  -0.000705  -0.002057
    19  O    0.225921  -0.040681  -0.050059   0.004045   0.001800  -0.037989
    20  H   -0.027151   0.008482  -0.008794  -0.001119  -0.000620  -0.010558
    21  O   -0.028304   0.275384   0.010267  -0.045869  -0.040263   0.009158
    22  H   -0.004887  -0.044542   0.001906   0.008911  -0.003901  -0.000512
    23  O   -0.009535  -0.025126   0.006134   0.230366   0.006236   0.000522
    24  H    0.001213   0.003383  -0.001721  -0.031550  -0.000096  -0.000116
    25  O   -0.000163   0.005360  -0.000023  -0.066633  -0.000293  -0.000004
    26  H    0.000029  -0.000999  -0.000000   0.009910  -0.000030   0.000001
               7          8          9         10         11         12
     1  C   -0.002473  -0.087010  -0.006126  -0.014272   0.016549  -0.013612
     2  C    0.003646   0.001290  -0.014300  -0.028799   0.000498  -0.001274
     3  C    0.237338   0.453276   0.000112   0.002300  -0.054586  -0.030960
     4  C    0.001032   0.000343   0.287253   0.418848  -0.000232   0.000130
     5  H    0.000165   0.007950  -0.015660   0.008543   0.000034   0.000115
     6  H   -0.011240   0.010006   0.000153   0.005874   0.000517   0.001818
     7  C    4.788801  -0.041078  -0.000015   0.000358   0.434118   0.413174
     8  H   -0.041078   0.629118   0.000792   0.000630  -0.000744   0.002708
     9  C   -0.000015   0.000792   4.739592  -0.024703  -0.000004  -0.000004
    10  H    0.000358   0.000630  -0.024703   0.600868   0.000003  -0.000005
    11  H    0.434118  -0.000744  -0.000004   0.000003   0.573833  -0.026318
    12  H    0.413174   0.002708  -0.000004  -0.000005  -0.026318   0.592133
    13  H    0.000012   0.000053   0.419695   0.009274  -0.000000  -0.000000
    14  H   -0.000000   0.000003   0.435407  -0.006087  -0.000000  -0.000000
    15  O    0.230415   0.004856   0.000007  -0.000025  -0.035862  -0.034177
    16  H   -0.039241   0.000987   0.000003  -0.000020  -0.007162   0.009077
    17  O   -0.052650  -0.043317   0.000974   0.000379   0.005363   0.003330
    18  H    0.004953  -0.010606  -0.000168  -0.002196   0.000452  -0.000367
    19  O    0.005275   0.006075   0.000208  -0.000325   0.000066   0.009235
    20  H    0.004193  -0.000588   0.000049  -0.000072   0.000530  -0.005934
    21  O   -0.000251   0.000228   0.002129   0.003264   0.000009  -0.000022
    22  H   -0.000328  -0.000106  -0.000411  -0.000479   0.000002   0.000011
    23  O    0.000593   0.002334  -0.021673  -0.049787   0.000011   0.000013
    24  H   -0.000073  -0.000082  -0.008765  -0.003125   0.000001  -0.000001
    25  O   -0.000001   0.000006   0.271833   0.005835  -0.000000   0.000000
    26  H    0.000000  -0.000000  -0.028551  -0.000145  -0.000000   0.000000
              13         14         15         16         17         18
     1  C    0.000454  -0.000283   0.017144  -0.008351  -0.060204   0.023508
     2  C    0.013355  -0.014346   0.006287  -0.000163  -0.014828  -0.002360
     3  C   -0.000430   0.000361  -0.052544   0.004748   0.279612  -0.042999
     4  C   -0.051802  -0.021333  -0.000484   0.000115   0.024937  -0.004430
     5  H    0.005819   0.001726  -0.000016  -0.000018   0.000715  -0.000705
     6  H    0.000026   0.000081   0.008713   0.001444   0.008879  -0.002057
     7  C    0.000012  -0.000000   0.230415  -0.039241  -0.052650   0.004953
     8  H    0.000053   0.000003   0.004856   0.000987  -0.043317  -0.010606
     9  C    0.419695   0.435407   0.000007   0.000003   0.000974  -0.000168
    10  H    0.009274  -0.006087  -0.000025  -0.000020   0.000379  -0.002196
    11  H   -0.000000  -0.000000  -0.035862  -0.007162   0.005363   0.000452
    12  H   -0.000000  -0.000000  -0.034177   0.009077   0.003330  -0.000367
    13  H    0.603978  -0.034219  -0.000000  -0.000000  -0.000006  -0.000043
    14  H   -0.034219   0.564476  -0.000000  -0.000000   0.000009  -0.000103
    15  O   -0.000000  -0.000000   7.928453   0.319205  -0.008270  -0.000273
    16  H   -0.000000  -0.000000   0.319205   0.503934   0.012975  -0.000616
    17  O   -0.000006   0.000009  -0.008270   0.012975   7.950865   0.354460
    18  H   -0.000043  -0.000103  -0.000273  -0.000616   0.354460   0.411483
    19  O   -0.000010   0.000006  -0.010534   0.000480   0.004180  -0.000419
    20  H   -0.000000   0.000001   0.016444  -0.001070   0.000301   0.000021
    21  O   -0.000372   0.009042   0.000009  -0.000002  -0.000074  -0.000095
    22  H   -0.000255  -0.000159  -0.000012   0.000004  -0.000104   0.000026
    23  O   -0.000115   0.003242  -0.000013   0.000020  -0.040048   0.054349
    24  H   -0.001672   0.001670   0.000000  -0.000001   0.001552  -0.002064
    25  O   -0.051636  -0.041741  -0.000000   0.000000   0.000007  -0.000215
    26  H   -0.004607  -0.005678   0.000000  -0.000000   0.000001   0.000018
              19         20         21         22         23         24
     1  C    0.225921  -0.027151  -0.028304  -0.004887  -0.009535   0.001213
     2  C   -0.040681   0.008482   0.275384  -0.044542  -0.025126   0.003383
     3  C   -0.050059  -0.008794   0.010267   0.001906   0.006134  -0.001721
     4  C    0.004045  -0.001119  -0.045869   0.008911   0.230366  -0.031550
     5  H    0.001800  -0.000620  -0.040263  -0.003901   0.006236  -0.000096
     6  H   -0.037989  -0.010558   0.009158  -0.000512   0.000522  -0.000116
     7  C    0.005275   0.004193  -0.000251  -0.000328   0.000593  -0.000073
     8  H    0.006075  -0.000588   0.000228  -0.000106   0.002334  -0.000082
     9  C    0.000208   0.000049   0.002129  -0.000411  -0.021673  -0.008765
    10  H   -0.000325  -0.000072   0.003264  -0.000479  -0.049787  -0.003125
    11  H    0.000066   0.000530   0.000009   0.000002   0.000011   0.000001
    12  H    0.009235  -0.005934  -0.000022   0.000011   0.000013  -0.000001
    13  H   -0.000010  -0.000000  -0.000372  -0.000255  -0.000115  -0.001672
    14  H    0.000006   0.000001   0.009042  -0.000159   0.003242   0.001670
    15  O   -0.010534   0.016444   0.000009  -0.000012  -0.000013   0.000000
    16  H    0.000480  -0.001070  -0.000002   0.000004   0.000020  -0.000001
    17  O    0.004180   0.000301  -0.000074  -0.000104  -0.040048   0.001552
    18  H   -0.000419   0.000021  -0.000095   0.000026   0.054349  -0.002064
    19  O    7.939993   0.330103  -0.022036   0.031346  -0.000034   0.000007
    20  H    0.330103   0.479100   0.000378  -0.001551   0.000010  -0.000002
    21  O   -0.022036   0.000378   7.881190   0.333430   0.001796  -0.000171
    22  H    0.031346  -0.001551   0.333430   0.466640  -0.000191   0.000034
    23  O   -0.000034   0.000010   0.001796  -0.000191   7.904824   0.322252
    24  H    0.000007  -0.000002  -0.000171   0.000034   0.322252   0.475062
    25  O    0.000000  -0.000000   0.000097  -0.000002  -0.016329   0.031562
    26  H   -0.000000   0.000000   0.000045  -0.000004   0.000629  -0.002094
              25         26
     1  C   -0.000163   0.000029
     2  C    0.005360  -0.000999
     3  C   -0.000023  -0.000000
     4  C   -0.066633   0.009910
     5  H   -0.000293  -0.000030
     6  H   -0.000004   0.000001
     7  C   -0.000001   0.000000
     8  H    0.000006  -0.000000
     9  C    0.271833  -0.028551
    10  H    0.005835  -0.000145
    11  H   -0.000000  -0.000000
    12  H    0.000000   0.000000
    13  H   -0.051636  -0.004607
    14  H   -0.041741  -0.005678
    15  O   -0.000000   0.000000
    16  H    0.000000  -0.000000
    17  O    0.000007   0.000001
    18  H   -0.000215   0.000018
    19  O    0.000000  -0.000000
    20  H   -0.000000   0.000000
    21  O    0.000097   0.000045
    22  H   -0.000002  -0.000004
    23  O   -0.016329   0.000629
    24  H    0.031562  -0.002094
    25  O    7.891887   0.327294
    26  H    0.327294   0.518975
 Mulliken charges:
               1
     1  C    0.066639
     2  C    0.117556
     3  C    0.109171
     4  C    0.136611
     5  H    0.068947
     6  H    0.078810
     7  C    0.023279
     8  H    0.062877
     9  C   -0.037827
    10  H    0.073865
    11  H    0.092922
    12  H    0.080933
    13  H    0.092501
    14  H    0.107927
    15  O   -0.389323
    16  H    0.203652
    17  O   -0.429037
    18  H    0.220448
    19  O   -0.396652
    20  H    0.217848
    21  O   -0.388966
    22  H    0.215135
    23  O   -0.370480
    24  H    0.214799
    25  O   -0.356842
    26  H    0.185205
 Sum of Mulliken charges =  -0.00000
 Mulliken charges with hydrogens summed into heavy atoms:
               1
     1  C    0.145449
     2  C    0.186504
     3  C    0.172047
     4  C    0.210475
     7  C    0.197134
     9  C    0.162601
    15  O   -0.185671
    17  O   -0.208588
    19  O   -0.178804
    21  O   -0.173831
    23  O   -0.155681
    25  O   -0.171637
 Electronic spatial extent (au):  <R**2>=           2630.3146
 Charge=              0.0000 electrons
 Dipole moment (field-independent basis, Debye):
    X=              2.8709    Y=             -0.0549    Z=              0.8566  Tot=              2.9965
 Quadrupole moment (field-independent basis, Debye-Ang):
   XX=            -61.7933   YY=            -76.9153   ZZ=            -71.4317
   XY=             -1.2324   XZ=              0.1192   YZ=             -0.2041
 Traceless Quadrupole moment (field-independent basis, Debye-Ang):
   XX=              8.2535   YY=             -6.8685   ZZ=             -1.3849
   XY=             -1.2324   XZ=              0.1192   YZ=             -0.2041
 Octapole moment (field-independent basis, Debye-Ang**2):
  XXX=            106.0974  YYY=             -2.9670  ZZZ=             -5.5907  XYY=             -5.4980
  XXY=              0.9193  XXZ=             14.1306  XZZ=             -5.0444  YZZ=             -2.6215
  YYZ=             -2.4028  XYZ=              0.5239
 Hexadecapole moment (field-independent basis, Debye-Ang**3):
 XXXX=          -1947.9316 YYYY=           -673.9863 ZZZZ=           -168.4330 XXXY=             12.2858
 XXXZ=            -13.7000 YYYX=            -54.9600 YYYZ=             -2.5487 ZZZX=             18.9401
 ZZZY=              6.6293 XXYY=           -492.0398 XXZZ=           -409.8720 YYZZ=           -147.3791
 XXYZ=             -3.0764 YYXZ=             14.9889 ZZXY=              7.8663
 N-N= 8.244761357710D+02 E-N=-3.266308500721D+03  KE= 6.850328000722D+02
   1 Symmetry operations used in ECPInt.
 ECPInt:  NShTT=   23436 NPrTT=   62434 LenC2=   21641 LenP2D=   44968.
 LDataN:  DoStor=T MaxTD1= 7 Len=  274
 Calling FoFJK, ICntrl=      2127 FMM=F ISym2X=0 I1Cent= 0 IOpClX= 0 NMat=1 NMatS=1 NMatT=0.
 ***** Axes restored to original set *****
 -------------------------------------------------------------------
 Center     Atomic                   Forces (Hartrees/Bohr)
 Number     Number              X              Y              Z
 -------------------------------------------------------------------
      1        6          -0.002171000    0.004076028   -0.008005196
      2        6          -0.004990691    0.000496547   -0.017963909
      3        6          -0.006563484   -0.004326521    0.014889940
      4        6           0.007385645   -0.004418964    0.002320786
      5        1          -0.001172306    0.000752791    0.006900947
      6        1           0.000983441    0.003067356    0.007047928
      7        6          -0.001099909   -0.010384013   -0.000131855
      8        1           0.001262522    0.000348961   -0.004408698
      9        6           0.003786067   -0.002078852    0.002598510
     10        1           0.000200773    0.000747459   -0.005322443
     11        1           0.007776973    0.002756422    0.000467960
     12        1           0.000323893   -0.004418540    0.001338980
     13        1          -0.004843404    0.001697827   -0.004843214
     14        1          -0.006013458    0.003918866   -0.001361037
     15        8           0.004344818   -0.005970847    0.012410120
     16        1          -0.001721852    0.009327229   -0.016242495
     17        8           0.007932301    0.006536711   -0.007656901
     18        1          -0.014967340   -0.001412794   -0.004220529
     19        8          -0.012561195   -0.004038425    0.010107911
     20        1           0.019808622    0.003431236    0.000287177
     21        8          -0.011798393    0.006287902    0.007122997
     22        1           0.011294136   -0.008195125    0.012790333
     23        8           0.025181389   -0.007470342    0.001087126
     24        1          -0.015678424    0.009790148   -0.009111842
     25        8           0.011798883   -0.002334579   -0.007300234
     26        1          -0.018498008    0.001813519    0.007197638
 -------------------------------------------------------------------
 Cartesian Forces:  Max     0.025181389 RMS     0.008190833

 GradGradGradGradGradGradGradGradGradGradGradGradGradGradGradGradGradGrad
 Berny optimization.
 FormGI is forming the generalized inverse of G from B-inverse, IUseBI=4.
 Internal  Forces:  Max     0.020156425 RMS     0.006654741
 Search for a local minimum.
 Step number   1 out of a maximum of  140
 All quantities printed in internal units (Hartrees-Bohrs-Radians)
 Mixed Optimization -- RFO/linear search
 Second derivative matrix not updated -- first step.
 ITU=  0
     Eigenvalues ---    0.00230   0.00230   0.00302   0.00309   0.00322
     Eigenvalues ---    0.01104   0.01164   0.01191   0.01226   0.01246
     Eigenvalues ---    0.01309   0.03899   0.03937   0.04115   0.04230
     Eigenvalues ---    0.04653   0.04712   0.04733   0.04834   0.05049
     Eigenvalues ---    0.05281   0.05567   0.05575   0.07360   0.07510
     Eigenvalues ---    0.07655   0.07718   0.11315   0.11525   0.13599
     Eigenvalues ---    0.13776   0.16000   0.16000   0.16000   0.16000
     Eigenvalues ---    0.16000   0.16000   0.16658   0.16673   0.16892
     Eigenvalues ---    0.17119   0.19532   0.19656   0.19710   0.19846
     Eigenvalues ---    0.22004   0.22024   0.27813   0.27849   0.28962
     Eigenvalues ---    0.29007   0.29095   0.33952   0.33995   0.34066
     Eigenvalues ---    0.34123   0.34228   0.34272   0.34347   0.34364
     Eigenvalues ---    0.38987   0.39597   0.39880   0.40255   0.40463
     Eigenvalues ---    0.41146   0.50511   0.50568   0.51028   0.51293
     Eigenvalues ---    0.51623   0.52464
 RFO step:  Lambda=-2.47551394D-02 EMin= 2.30000000D-03
 Linear search not attempted -- first point.
 Iteration  1 RMS(Cart)=  0.18181720 RMS(Int)=  0.00753578
 Iteration  2 RMS(Cart)=  0.01426643 RMS(Int)=  0.00056712
 Iteration  3 RMS(Cart)=  0.00006226 RMS(Int)=  0.00056619
 Iteration  4 RMS(Cart)=  0.00000002 RMS(Int)=  0.00056619
 Variable       Old X    -DE/DX   Delta X   Delta X   Delta X     New X
                                 (Linear)    (Quad)   (Total)
    R1        2.92549  -0.00335   0.00000  -0.01105  -0.01105   2.91443
    R2        2.92469  -0.00558   0.00000  -0.01840  -0.01840   2.90629
    R3        2.07411  -0.00294   0.00000  -0.00807  -0.00807   2.06604
    R4        2.72954  -0.01150   0.00000  -0.02775  -0.02775   2.70179
    R5        2.90083  -0.01063   0.00000  -0.03380  -0.03380   2.86703
    R6        2.07339   0.00034   0.00000   0.00093   0.00093   2.07432
    R7        2.72104  -0.01659   0.00000  -0.03943  -0.03943   2.68162
    R8        2.89805  -0.01116   0.00000  -0.03535  -0.03535   2.86270
    R9        2.07123   0.00010   0.00000   0.00026   0.00026   2.07149
   R10        2.71209  -0.01232   0.00000  -0.02884  -0.02884   2.68325
   R11        2.89989  -0.01352   0.00000  -0.04293  -0.04293   2.85696
   R12        2.07219  -0.00100   0.00000  -0.00274  -0.00274   2.06945
   R13        2.71716  -0.00799   0.00000  -0.01887  -0.01887   2.69829
   R14        2.06948  -0.00175   0.00000  -0.00476  -0.00476   2.06471
   R15        2.06748  -0.00395   0.00000  -0.01072  -0.01072   2.05676
   R16        2.70025  -0.00310   0.00000  -0.00710  -0.00710   2.69315
   R17        2.06874   0.00004   0.00000   0.00011   0.00011   2.06886
   R18        2.06720  -0.00280   0.00000  -0.00760  -0.00760   2.05960
   R19        2.70929  -0.00232   0.00000  -0.00539  -0.00539   2.70390
   R20        1.84962  -0.01858   0.00000  -0.03434  -0.03434   1.81528
   R21        1.85996  -0.01533   0.00000  -0.02889  -0.02889   1.83107
   R22        1.85283  -0.02005   0.00000  -0.03729  -0.03729   1.81554
   R23        1.85542  -0.01886   0.00000  -0.03526  -0.03526   1.82017
   R24        1.86054  -0.02016   0.00000  -0.03804  -0.03804   1.82250
   R25        1.84158  -0.01946   0.00000  -0.03542  -0.03542   1.80616
    A1        1.98812   0.01643   0.00000   0.06946   0.06931   2.05743
    A2        1.89122  -0.00071   0.00000   0.01291   0.01340   1.90462
    A3        1.84923  -0.01280   0.00000  -0.06480  -0.06409   1.78514
    A4        1.92948  -0.00842   0.00000  -0.04107  -0.04186   1.88762
    A5        1.94192  -0.00149   0.00000  -0.01377  -0.01265   1.92927
    A6        1.85750   0.00642   0.00000   0.03588   0.03576   1.89326
    A7        2.00028   0.01632   0.00000   0.06715   0.06708   2.06736
    A8        1.89624  -0.00441   0.00000   0.00164   0.00154   1.89778
    A9        1.88090  -0.00069   0.00000  -0.00504  -0.00342   1.87748
   A10        1.91921  -0.00451   0.00000  -0.02621  -0.02681   1.89240
   A11        1.90429  -0.01437   0.00000  -0.08339  -0.08317   1.82112
   A12        1.85728   0.00730   0.00000   0.04584   0.04449   1.90176
   A13        1.97348  -0.00389   0.00000  -0.03220  -0.03245   1.94103
   A14        1.93862  -0.00130   0.00000  -0.00785  -0.00846   1.93016
   A15        1.91648   0.00420   0.00000   0.01683   0.01588   1.93236
   A16        1.88444   0.00208   0.00000   0.00444   0.00436   1.88881
   A17        1.85662  -0.00394   0.00000  -0.02869  -0.02860   1.82802
   A18        1.89069   0.00299   0.00000   0.05016   0.05014   1.94083
   A19        1.95140  -0.00228   0.00000  -0.02638  -0.02687   1.92453
   A20        1.92550  -0.00059   0.00000  -0.00510  -0.00523   1.92027
   A21        1.94365  -0.00034   0.00000  -0.00999  -0.01063   1.93303
   A22        1.89195   0.00057   0.00000   0.00211   0.00197   1.89392
   A23        1.88456  -0.00113   0.00000  -0.01473  -0.01528   1.86928
   A24        1.86370   0.00408   0.00000   0.05800   0.05813   1.92183
   A25        1.93689  -0.00775   0.00000  -0.04114  -0.04182   1.89506
   A26        1.94758  -0.00040   0.00000  -0.01198  -0.01223   1.93535
   A27        1.91782   0.00484   0.00000   0.02227   0.02232   1.94014
   A28        1.89083   0.00209   0.00000   0.00458   0.00410   1.89494
   A29        1.87824   0.00578   0.00000   0.05780   0.05821   1.93645
   A30        1.89047  -0.00432   0.00000  -0.02907  -0.02885   1.86162
   A31        1.93767  -0.00193   0.00000  -0.02440  -0.02407   1.91360
   A32        1.95129  -0.00196   0.00000  -0.02741  -0.02723   1.92406
   A33        1.88262  -0.01297   0.00000  -0.05067  -0.05050   1.83212
   A34        1.91589   0.00007   0.00000   0.00099  -0.00104   1.91485
   A35        1.87220   0.00885   0.00000   0.05654   0.05554   1.92774
   A36        1.90184   0.00845   0.00000   0.04937   0.04813   1.94997
   A37        1.82567   0.00498   0.00000   0.02698   0.02698   1.85265
   A38        1.84430   0.00430   0.00000   0.02329   0.02329   1.86759
   A39        1.84149   0.00167   0.00000   0.00904   0.00904   1.85053
   A40        1.81809   0.00058   0.00000   0.00316   0.00316   1.82124
   A41        1.80724   0.00798   0.00000   0.04321   0.04321   1.85045
   A42        1.85551   0.00776   0.00000   0.04200   0.04200   1.89752
    D1        1.20959   0.00305   0.00000   0.01161   0.01265   1.22224
    D2       -0.94460   0.00082   0.00000  -0.00284  -0.00244  -0.94704
    D3       -2.95027  -0.00513   0.00000  -0.05478  -0.05384  -3.00411
    D4       -0.94563   0.00312   0.00000   0.00705   0.00686  -0.93877
    D5       -3.09982   0.00089   0.00000  -0.00740  -0.00823  -3.10805
    D6        1.17769  -0.00506   0.00000  -0.05934  -0.05963   1.11806
    D7       -2.93314   0.00233   0.00000  -0.00842  -0.00852  -2.94166
    D8        1.19585   0.00010   0.00000  -0.02286  -0.02361   1.17224
    D9       -0.80982  -0.00584   0.00000  -0.07480  -0.07501  -0.88483
   D10        2.73921  -0.00469   0.00000  -0.10459  -0.10408   2.63513
   D11        0.61741  -0.00366   0.00000  -0.08159  -0.08142   0.53600
   D12       -1.47351  -0.00930   0.00000  -0.15004  -0.14979  -1.62329
   D13       -1.40965  -0.00014   0.00000  -0.06867  -0.06891  -1.47856
   D14        2.75174   0.00089   0.00000  -0.04566  -0.04625   2.70549
   D15        0.66082  -0.00475   0.00000  -0.11412  -0.11461   0.54620
   D16        0.65040   0.00152   0.00000  -0.05899  -0.05867   0.59173
   D17       -1.47140   0.00254   0.00000  -0.03599  -0.03600  -1.50740
   D18        2.72087  -0.00309   0.00000  -0.10445  -0.10437   2.61649
   D19        2.91051  -0.00560   0.00000  -0.03119  -0.03188   2.87864
   D20       -1.20315   0.00526   0.00000   0.00301   0.00375  -1.19940
   D21        0.89987  -0.00182   0.00000  -0.03236  -0.03241   0.86746
   D22        3.03743  -0.00221   0.00000  -0.07741  -0.07777   2.95966
   D23        0.93058  -0.00100   0.00000  -0.05895  -0.05936   0.87121
   D24       -1.13574  -0.00548   0.00000  -0.12163  -0.12183  -1.25758
   D25       -1.10392   0.00032   0.00000  -0.04688  -0.04768  -1.15160
   D26        3.07241   0.00152   0.00000  -0.02843  -0.02927   3.04314
   D27        1.00609  -0.00296   0.00000  -0.09111  -0.09174   0.91435
   D28        0.92694  -0.00173   0.00000  -0.05460  -0.05357   0.87337
   D29       -1.17992  -0.00052   0.00000  -0.03615  -0.03515  -1.21507
   D30        3.03695  -0.00500   0.00000  -0.09883  -0.09762   2.93932
   D31        0.68470  -0.00505   0.00000  -0.02701  -0.02735   0.65735
   D32        2.86659   0.00553   0.00000  -0.00030   0.00102   2.86761
   D33       -1.34661  -0.00328   0.00000  -0.04955  -0.05053  -1.39714
   D34        2.99997   0.00347   0.00000   0.02250   0.02242   3.02239
   D35       -1.17253   0.00051   0.00000  -0.00828  -0.00778  -1.18030
   D36        0.92475  -0.00194   0.00000  -0.03767  -0.03722   0.88754
   D37       -1.13118   0.00072   0.00000  -0.00581  -0.00620  -1.13738
   D38        0.97951  -0.00224   0.00000  -0.03659  -0.03640   0.94311
   D39        3.07679  -0.00469   0.00000  -0.06598  -0.06583   3.01095
   D40        0.89509   0.00321   0.00000   0.03995   0.03930   0.93439
   D41        3.00578   0.00025   0.00000   0.00917   0.00910   3.01488
   D42       -1.18013  -0.00220   0.00000  -0.02022  -0.02034  -1.20046
   D43        1.25193   0.00137   0.00000  -0.00449  -0.00390   1.24803
   D44       -2.89005  -0.00333   0.00000  -0.05140  -0.05131  -2.94136
   D45       -0.86798  -0.00146   0.00000  -0.03646  -0.03714  -0.90512
   D46        0.96781  -0.00182   0.00000  -0.02655  -0.02643   0.94138
   D47       -1.17820   0.00090   0.00000   0.00954   0.00975  -1.16845
   D48        3.01436   0.00003   0.00000  -0.00218  -0.00212   3.01224
   D49        3.09408  -0.00364   0.00000  -0.04838  -0.04838   3.04571
   D50        0.94807  -0.00092   0.00000  -0.01229  -0.01220   0.93587
   D51       -1.14256  -0.00179   0.00000  -0.02401  -0.02406  -1.16662
   D52       -1.17618   0.00085   0.00000   0.01309   0.01294  -1.16325
   D53        2.96099   0.00357   0.00000   0.04918   0.04911   3.01010
   D54        0.87036   0.00270   0.00000   0.03746   0.03725   0.90761
   D55       -2.80997   0.00184   0.00000   0.02495   0.02503  -2.78493
   D56       -0.66125  -0.00200   0.00000  -0.02448  -0.02446  -0.68571
   D57        1.37015   0.00019   0.00000   0.00033   0.00023   1.37037
   D58        1.01263  -0.00164   0.00000  -0.01269  -0.01211   1.00052
   D59       -1.09826   0.00140   0.00000  -0.01118  -0.01191  -1.11018
   D60       -3.13896  -0.00188   0.00000  -0.03211  -0.03196   3.11226
   D61        3.04153   0.00030   0.00000   0.01170   0.01173   3.05327
   D62       -1.15317  -0.00415   0.00000  -0.01358  -0.01545  -1.16861
   D63        0.91992   0.00550   0.00000   0.04625   0.04808   0.96801
         Item               Value     Threshold  Converged?
 Maximum Force            0.020156     0.000450     NO 
 RMS     Force            0.006655     0.000300     NO 
 Maximum Displacement     0.722689     0.001800     NO 
 RMS     Displacement     0.178056     0.001200     NO 
 Predicted change in Energy=-1.540298D-02
 GradGradGradGradGradGradGradGradGradGradGradGradGradGradGradGradGradGrad

                          Input orientation:                          
 ---------------------------------------------------------------------
 Center     Atomic      Atomic             Coordinates (Angstroms)
 Number     Number       Type             X           Y           Z
 ---------------------------------------------------------------------
      1          6           0       -0.004408   -0.001063    0.132750
      2          6           0        1.537787   -0.006912    0.120879
      3          6           0       -0.712121    0.805929    1.234189
      4          6           0        2.266271   -0.750858    1.224349
      5          1           0        1.894202    1.031222    0.108438
      6          1           0       -0.366194   -1.031697    0.179801
      7          6           0       -2.061803    1.308290    0.764258
      8          1           0       -0.107011    1.671853    1.526839
      9          6           0        3.739295   -0.856419    0.900768
     10          1           0        1.859342   -1.762401    1.326566
     11          1           0       -2.576835    1.767014    1.611657
     12          1           0       -1.946584    2.056524   -0.017706
     13          1           0        4.143909    0.140476    0.698147
     14          1           0        3.889578   -1.497650    0.032375
     15          8           0       -2.838713    0.251328    0.207205
     16          1           0       -2.913144   -0.416166    0.893990
     17          8           0       -1.003140   -0.018811    2.352790
     18          1           0       -0.160231   -0.210170    2.790704
     19          8           0       -0.316449    0.530211   -1.157404
     20          1           0       -1.246027    0.338045   -1.305666
     21          8           0        1.954579   -0.651891   -1.072431
     22          1           0        1.318401   -0.362211   -1.735075
     23          8           0        2.157792   -0.050405    2.463876
     24          1           0        2.879409   -0.373393    3.016198
     25          8           0        4.337515   -1.409160    2.077168
     26          1           0        5.262778   -1.573284    1.902633
 ---------------------------------------------------------------------
                    Distance matrix (angstroms):
                    1          2          3          4          5
     1  C    0.000000
     2  C    1.542252   0.000000
     3  C    1.537940   2.638608   0.000000
     4  C    2.628643   1.517165   3.360729   0.000000
     5  H    2.161232   1.097683   2.847980   2.135298   0.000000
     6  H    1.093302   2.163053   2.146688   2.846018   3.061065
     7  C    2.519143   3.885967   1.514874   4.814976   4.019558
     8  H    2.180060   2.738673   1.096188   3.404921   2.535177
     9  C    3.916223   2.485262   4.763368   1.511836   2.755965
    10  H    2.828617   2.153792   3.635557   1.095106   3.047848
    11  H    3.454077   4.722218   2.131508   5.472235   4.774017
    12  H    2.833434   4.051890   2.157574   5.212699   3.977285
    13  H    4.189062   2.673357   4.930639   2.144036   2.490455
    14  H    4.172886   2.785867   5.284550   2.147936   3.222189
    15  O    2.846494   4.384962   2.425835   5.300926   4.797758
    16  H    3.035217   4.536075   2.540424   5.200721   5.081595
    17  O    2.434412   3.381993   1.419915   3.535296   3.812385
    18  H    2.670717   3.170574   1.939015   2.938319   3.599486
    19  O    1.429727   2.315319   2.439732   3.739562   2.596218
    20  H    1.930195   3.147006   2.637202   4.463510   3.513008
    21  O    2.390328   1.419050   3.815366   2.319945   2.056931
    22  H    2.317115   1.902350   3.782076   3.131724   2.381542
    23  O    3.179889   2.424032   3.237567   1.427876   2.605280
    24  H    4.095034   3.212029   4.179168   1.931098   3.376187
    25  O    4.961431   3.692132   5.578177   2.334677   3.975064
    26  H    5.774739   4.416302   6.465824   3.180489   4.620593
                    6          7          8          9         10
     6  H    0.000000
     7  C    2.948257   0.000000
     8  H    3.031645   2.129535   0.000000
     9  C    4.171996   6.193330   4.645233   0.000000
    10  H    2.608066   5.012057   3.962417   2.129866   0.000000
    11  H    3.843167   1.092599   2.473112   6.876138   5.676065
    12  H    3.474730   1.088392   2.432616   6.454305   5.556647
    13  H    4.688678   6.314984   4.593709   1.094792   3.038930
    14  H    4.283741   6.620263   5.315251   1.089894   2.422165
    15  O    2.785724   1.425155   3.349855   6.706588   5.232571
    16  H    2.715861   1.927528   3.554534   6.666995   4.977559
    17  O    2.480629   2.324952   2.084128   5.029975   3.505288
    18  H    2.744839   3.166731   2.267641   4.381301   2.937992
    19  O    2.056733   2.710065   2.924444   4.754774   4.019981
    20  H    2.203841   2.427231   3.331589   5.581087   4.580811
    21  O    2.664268   4.831879   4.050449   2.668437   2.645276
    22  H    2.636820   4.523606   4.099914   3.612844   3.409808
    23  O    3.542660   4.747603   2.995587   2.365189   2.076891
    24  H    4.360327   5.684617   3.914067   2.334044   2.413449
    25  O    5.085996   7.075276   5.435928   1.430841   2.613336
    26  H    5.911581   7.952914   6.285440   1.959242   3.457021
                   11         12         13         14         15
    11  H    0.000000
    12  H    1.770836   0.000000
    13  H    6.974850   6.424779   0.000000
    14  H    7.413951   6.833406   1.786447   0.000000
    15  O    2.082876   2.026132   7.000738   6.954092   0.000000
    16  H    2.322591   2.807067   7.081681   6.941831   0.960605
    17  O    2.492984   3.288823   5.408820   5.613375   2.836520
    18  H    3.337572   4.026925   4.798684   5.066255   3.749896
    19  O    3.782424   2.507166   4.846623   4.818553   2.881276
    20  H    3.510524   2.258936   5.753756   5.615564   2.198397
    21  O    5.795614   4.864877   2.925057   2.383301   5.042710
    22  H    5.559414   4.411321   3.762547   3.320249   4.629306
    23  O    5.142566   5.238635   2.664375   3.317499   5.490781
    24  H    6.026996   6.196715   2.690052   3.344786   6.401378
    25  O    7.623190   7.475919   2.083399   2.095151   7.599489
    26  H    8.526534   8.296873   2.374790   2.321479   8.475721
                   16         17         18         19         20
    16  H    0.000000
    17  O    2.436002   0.000000
    18  H    3.349402   0.968959   0.000000
    19  O    3.441900   3.618624   4.019966   0.000000
    20  H    2.861224   3.683836   4.273142   0.960742   0.000000
    21  O    5.255198   4.569576   4.426211   2.561670   3.358311
    22  H    4.982054   4.713610   4.763627   1.950091   2.692775
    23  O    5.320970   3.163041   2.346396   4.424099   5.093754
    24  H    6.169220   3.954747   3.052360   5.333757   6.016966
    25  O    7.413367   5.525544   4.709186   5.990242   6.758123
    26  H    8.318773   6.471534   5.661781   6.701962   7.504059
                   21         22         23         24         25
    21  O    0.000000
    22  H    0.963190   0.000000
    23  O    3.592846   4.293366   0.000000
    24  H    4.201161   5.001146   0.964423   0.000000
    25  O    4.021419   4.974369   2.597489   2.020065   0.000000
    26  H    4.543583   5.500702   3.503582   2.891403   0.955777
                   26
    26  H    0.000000
 Stoichiometry    C6H14O6
 Framework group  C1[X(C6H14O6)]
 Deg. of freedom    72
 Full point group                 C1      NOp   1
 Largest Abelian subgroup         C1      NOp   1
 Largest concise Abelian subgroup C1      NOp   1
                         Standard orientation:                         
 ---------------------------------------------------------------------
 Center     Atomic      Atomic             Coordinates (Angstroms)
 Number     Number       Type             X           Y           Z
 ---------------------------------------------------------------------
      1          6           0       -0.851293    0.519139   -0.138105
      2          6           0        0.612372    0.762837    0.282416
      3          6           0       -1.573470   -0.705849    0.447665
      4          6           0        1.678464   -0.189714   -0.225405
      5          1           0        0.664509    0.789450    1.378537
      6          1           0       -0.905220    0.457243   -1.228320
      7          6           0       -3.064962   -0.463402    0.554977
      8          1           0       -1.190863   -0.936761    1.448624
      9          6           0        3.055500    0.355305    0.078529
     10          1           0        1.585001   -0.313614   -1.309458
     11          1           0       -3.548222   -1.395301    0.857959
     12          1           0       -3.281569    0.298151    1.301780
     13          1           0        3.135228    0.578602    1.147337
     14          1           0        3.239250    1.260029   -0.500762
     15          8           0       -3.599285    0.010123   -0.678449
     16          1           0       -3.380808   -0.654323   -1.336888
     17          8           0       -1.450656   -1.823500   -0.419474
     18          1           0       -0.530326   -2.122225   -0.368122
     19          8           0       -1.492761    1.726738    0.279436
     20          1           0       -2.345489    1.740782   -0.162925
     21          8           0        0.999810    2.028745   -0.228537
     22          1           0        0.213990    2.576836   -0.129451
     23          8           0        1.575656   -1.457046    0.424310
     24          1           0        2.434612   -1.882049    0.316245
     25          8           0        3.956881   -0.696098   -0.281151
     26          1           0        4.853081   -0.378426   -0.184094
 ---------------------------------------------------------------------
 Rotational constants (GHZ):           1.7358334           0.4963054           0.4095928
 Standard basis: def2TZVPP (5D, 7F)
 There are   642 symmetry adapted cartesian basis functions of A   symmetry.
 There are   568 symmetry adapted basis functions of A   symmetry.
   568 basis functions,   850 primitive gaussians,   642 cartesian basis functions
    49 alpha electrons       49 beta electrons
       nuclear repulsion energy       826.2816251049 Hartrees.
 NAtoms=   26 NActive=   26 NUniq=   26 SFac= 1.00D+00 NAtFMM=   60 NAOKFM=F Big=F
 Integral buffers will be    131072 words long.
 Raffenetti 2 integral format.
 Two-electron integral symmetry is turned on.
 Nuclear repulsion after empirical dispersion term =      826.2637532372 Hartrees.
 One-electron integrals computed using PRISM.
   1 Symmetry operations used in ECPInt.
 ECPInt:  NShTT=   23436 NPrTT=   62434 LenC2=   21611 LenP2D=   44888.
 LDataN:  DoStor=T MaxTD1= 6 Len=  172
 NBasis=   568 RedAO= T EigKep=  5.76D-05  NBF=   568
[...]
 00036751,0.00140190,-0.00005232,0.00459160,-0.00172198,0.00020983,0.00
 046660,0.62324846,-0.00826928,-0.09585274,0.04794307,0.00490481,-0.000
 49443,-0.00092490,-0.00246553,0.00919191,-0.00561568,-0.00020549,-0.00
 006105,-0.00054109,0.00130180,0.00111337,-0.00033976,0.01275775,-0.009
 51594,0.03871990,0.00153595,-0.00351695,0.00048097,-0.00035967,0.00089
 297,0.00179116,-0.00021432,0.00037325,-0.00005944,-0.00023259,0.000765
 53,-0.00037334,-0.00007146,0.00136297,-0.00098766,-0.00015332,0.001804
 24,-0.00203216,0.00016677,0.00003928,-0.00000061,-0.00011791,0.0000370
 6,0.00003410,-0.00120950,0.00165617,0.00071580,0.00062461,-0.00026684,
 -0.00032883,0.00030263,0.00238550,-0.00336755,0.00046107,-0.00047795,-
 0.00045770,0.09071691,0.13197059,-0.00711084,0.06188610,-0.18810603,-0
 .01071692,0.00636060,-0.01691858,-0.01090812,0.01854701,-0.03268698,-0
 .00124705,-0.00073490,0.00162428,0.00030139,-0.00051335,0.00077748,-0.
 00666795,0.01238804,-0.01876462,-0.00303840,0.00039722,-0.00029730,-0.
 00015739,-0.00260378,-0.00005009,0.00067770,0.00005813,-0.00107755,0.0
 0012682,-0.00029395,0.00005897,-0.00035453,0.00020326,0.00026764,0.001
 27921,-0.00031660,-0.00111859,-0.00014538,-0.00008411,-0.00006518,-0.0
 0018940,0.00020821,0.00007832,0.00283285,0.00178862,0.00088350,-0.0007
 6218,-0.00023209,-0.00019423,0.00363309,-0.00277343,-0.01347309,0.0023
 3040,-0.00005743,0.00110659,0.10647450,-0.08583213,0.30835647,-0.01233
 610,-0.00226866,-0.00255259,-0.00051961,0.00139909,-0.00149796,0.00142
 281,-0.00151035,-0.00056302,-0.00030331,-0.00019837,0.00005106,0.00036
 474,0.00009704,0.00006127,0.00124315,-0.00066302,0.00223317,0.00237176
 ,0.00348228,0.00307146,-0.00035169,0.00028140,0.00000837,-0.00008496,0
 .00014565,-0.00018741,-0.00001032,0.00008423,-0.00001319,-0.00058194,-
 0.00059736,-0.00046002,0.00006575,0.00016436,0.00068211,0.00001288,-0.
 00000555,0.00001141,-0.00002073,0.00001309,0.00000595,-0.00314486,-0.0
 0069594,-0.00103129,0.00037652,-0.00101288,-0.00066616,-0.00113263,0.0
 0042251,0.00147179,0.00002527,-0.00011112,-0.00025009,-0.49240539,-0.1
 0322411,-0.07619116,0.50487115,0.01794767,0.00209471,0.00624861,0.0016
 0101,-0.00180733,0.00295693,-0.00168813,0.00041468,-0.00070026,0.00119
 602,0.00057230,-0.00022520,0.00011474,0.00011739,0.00005957,0.00117616
 ,0.00031107,0.00028353,0.00143335,0.00288118,-0.00208708,-0.00001369,-
 0.00007071,-0.00003913,-0.00003211,-0.00012924,0.00033351,-0.00004049,
 -0.00005972,-0.00005907,-0.00040204,-0.00084834,0.00031219,0.00046787,
 -0.00189926,-0.00057753,-0.00002832,0.00000354,-0.00000218,0.00000745,
 -0.00000551,-0.00001023,0.00095991,-0.00324041,-0.00134872,-0.00055016
 ,0.00031686,0.00085171,0.00050307,-0.00073341,0.00049052,-0.00009945,-
 0.00000911,0.00009635,-0.12764663,-0.04053767,-0.00709095,0.10477466,0
 .04279795,-0.04157149,-0.00718499,-0.01049375,-0.00052031,0.00288687,-
 0.00716136,-0.00154487,0.00018436,-0.00153345,-0.00169302,-0.00008025,
 0.00100016,0.00034276,-0.00012172,0.00000933,0.00034016,0.00106995,0.0
 0102060,0.00027134,-0.00407714,-0.00477918,0.00030501,0.00006222,0.000
 43334,0.00016719,0.00019607,-0.00043279,0.00000470,0.00001526,0.000002
 21,-0.00005228,0.00009253,0.00057973,0.00059819,-0.00068594,-0.0002187
 5,-0.00001046,-0.00001855,-0.00000393,-0.00001358,0.00001307,0.0000173
 6,-0.00059216,0.00111140,0.00147515,-0.00008418,0.00072261,0.00005721,
 0.00090892,-0.00032777,0.00102292,-0.00057496,0.00007940,0.00005457,-0
 .03368831,0.00665943,-0.04485205,0.07625231,-0.00081542,0.06213444,-0.
 02016968,0.02383163,0.03723710,-0.09920450,0.02865415,0.00964856,-0.00
 795767,0.00009473,-0.00657356,0.00730855,-0.00830675,-0.00914685,0.006
 56054,0.00194234,-0.00333494,0.00324364,0.00010257,0.00006518,0.000314
 09,0.00127884,0.00290807,-0.00010490,0.00021396,0.00019031,-0.00212047
 ,0.00039852,0.00055828,-0.00007324,0.00040438,-0.00030672,-0.00113828,
 0.00024605,-0.00002508,0.00016917,-0.00012502,-0.00003435,0.00005247,0
 .00016623,0.00018544,-0.00057840,-0.00083153,-0.00239883,-0.00065767,-
 0.00031610,0.00010672,0.00030921,0.00017156,-0.00013381,0.00109944,-0.
 00095378,0.00242844,-0.00171641,0.00005012,-0.00046583,-0.00687519,0.0
 0448706,0.00440281,0.00084337,0.00089511,0.00222317,0.34817812,0.00621
 812,-0.00267341,-0.00600160,0.03736342,-0.11206712,-0.04661806,0.00097
 883,0.00050473,0.00093114,-0.00547118,0.00777854,0.00699343,0.01384553
 ,-0.01323652,-0.03823443,0.00199158,0.00153593,0.00032521,-0.00037875,
 0.00006474,-0.00047591,-0.00024741,0.00085414,0.00063297,0.00117857,-0
 .00077557,-0.00093453,-0.00035958,0.00210180,-0.00109443,0.00017227,-0
 .00004525,-0.00001182,-0.00007875,0.00004234,-0.00000414,0.00023531,0.
 00030170,0.00014815,0.00000443,0.00040287,0.00125749,0.00064231,0.0003
 6457,0.00010030,-0.00010035,-0.00016165,-0.00002244,0.00019708,0.00081
 719,-0.00099919,0.00033597,-0.00032333,0.00010340,0.00383796,0.0020754
 7,-0.00061059,-0.00004319,-0.00059537,-0.00139610,-0.16590899,0.175371
 82,0.01248225,-0.01041965,-0.02344192,0.05052212,-0.06871316,-0.191142
 59,0.00285532,0.00029198,0.00414685,0.01299593,-0.02085510,-0.03819689
 ,0.00423642,-0.01624881,-0.01436987,-0.00064104,0.00081180,0.00064866,
 -0.00085695,-0.00087801,-0.00216410,-0.00040592,0.00034484,0.00019902,
 -0.00077018,0.00003904,0.00024813,0.00094615,0.00025491,0.00170453,0.0
 0062755,-0.00016337,0.00019259,0.00008517,-0.00017536,0.00013236,-0.00
 022187,-0.00064426,-0.00009284,-0.00138528,0.00017416,-0.00211707,0.00
 075341,0.00047222,0.00079893,-0.00040959,-0.00008995,-0.00001065,0.000
 75728,0.00032658,0.00020109,-0.00129077,0.00000566,0.00047549,-0.00705
 454,0.00257508,0.00437332,-0.00053286,0.00089060,0.00097143,0.16963296
 ,0.00068205,0.54176448,0.00133760,-0.00044496,0.00867329,0.01037766,-0
 .00490696,0.00969188,-0.00031682,0.00067138,0.00011703,-0.00234569,0.0
 0148905,0.00199073,-0.00029816,0.00108151,0.00043723,-0.00037443,0.000
 18060,-0.00047324,-0.00004366,0.00017671,0.00051452,0.00005829,-0.0003
 2871,-0.00018356,-0.00042496,0.00076466,-0.00011904,0.00001494,-0.0001
 2602,-0.00009722,0.00004008,0.00002892,-0.00017153,-0.00012831,0.00023
 637,-0.00002376,0.00002524,-0.00004449,0.00005905,-0.00002448,-0.00015
 618,-0.00030387,0.00034869,-0.00013212,-0.00064230,-0.00007367,-0.0000
 9555,0.00006587,-0.00030482,0.00015909,-0.00154488,0.00083362,-0.00003
 700,0.00008822,0.00049186,-0.00084451,-0.00273287,-0.00079986,-0.00080
 377,-0.00128042,-0.22818555,0.10426416,-0.23812858,0.21931002,0.000906
 58,0.00242120,-0.00277517,-0.01178469,0.00504136,-0.01704975,0.0002504
 3,-0.00026364,0.00052459,0.00126019,-0.00141196,-0.00036206,-0.0001834
 4,-0.00090351,-0.00172597,-0.00030576,-0.00053341,0.00075800,0.0000774
 6,-0.00004463,-0.00037326,-0.00003804,-0.00009341,-0.00009871,0.000348
 62,-0.00020642,0.00001190,-0.00006333,0.00006180,-0.00015849,0.0000493
 3,-0.00004017,0.00005270,0.00006279,-0.00009970,0.00001295,0.00002695,
 0.00007730,0.00011458,-0.00020629,0.00014790,0.00012429,-0.00016947,-0
 .00019281,0.00024998,-0.00004902,0.00010183,0.00005527,-0.00003500,-0.
 00014308,0.00048205,-0.00015255,0.00004111,-0.00000333,-0.00097913,-0.
 00329453,-0.00091770,-0.00050494,0.00060151,0.00171227,0.11229865,-0.0
 6391054,0.10736324,-0.10090441,0.06228762,0.00050951,0.00083488,-0.001
 55010,-0.02152648,0.00874252,-0.03814396,-0.00101765,0.00043483,-0.001
 41844,0.00264792,-0.00474394,-0.00356914,-0.00037835,0.00024113,0.0005
 3933,0.00032942,0.00006899,-0.00017044,0.00010724,0.00015709,0.0005835
 8,-0.00002652,0.00003471,0.00005713,0.00016690,-0.00028420,0.00001271,
 0.00010106,0.00012015,0.00020820,-0.00025136,0.00003591,0.00002918,0.0
 0006598,-0.00003872,-0.00001087,-0.00009921,0.00000243,-0.00003007,-0.
 00023173,0.00018062,-0.00000576,-0.00039397,-0.00003319,0.00002468,0.0
 0015113,0.00004486,-0.00003224,0.00007387,-0.00016001,0.00036931,-0.00
 020014,0.00000020,-0.00013234,-0.00302264,0.00087945,-0.00074482,-0.00
 025691,0.00044546,0.00088873,-0.19775803,0.07938944,-0.27306638,0.2214
 9170,-0.08700778,0.31738273,-0.00036371,-0.00017872,0.00200459,0.00590
 161,-0.01194276,-0.01203694,-0.00227596,-0.00357431,0.00574652,-0.0904
 5792,0.01651054,-0.01055748,0.00021662,0.00009394,0.00031546,0.0000614
 5,0.00015144,0.00010471,0.00064579,0.00047356,-0.00065004,-0.00000779,
 0.00036839,-0.00049795,-0.01095544,0.02575104,0.03706910,0.00667357,-0
 .00194593,-0.00893630,0.00022530,-0.00018266,0.00000106,-0.00042536,0.
 00011307,-0.00037156,0.00366021,-0.00005405,-0.00053860,-0.00870734,0.
 00150608,0.00020710,-0.00066129,-0.00011477,-0.00053911,0.00068120,0.0
 0019037,0.00042075,-0.01971074,0.00372841,-0.00405941,0.00014524,-0.00
 182460,-0.00283719,0.00109554,0.00003098,-0.00118449,0.00003746,0.0000
 1802,0.00047208,-0.00040375,0.00166120,-0.00582781,0.00050203,-0.00007
 511,-0.00095456,0.37144758,0.00033625,0.00010552,-0.00060323,-0.003789
 79,0.00852234,0.00776687,-0.00002116,-0.00085097,-0.00040545,0.0285902
 2,-0.11987594,-0.04898609,-0.00043197,0.00263723,-0.00067536,0.0005007
 2,0.00019981,0.00015194,-0.00025516,0.00028203,-0.00026464,0.00017899,
 0.00071709,-0.00000572,0.00708181,-0.00604579,-0.01224400,0.00799419,-
 0.01559694,-0.03893971,-0.00004070,-0.00000647,0.00003879,-0.00002198,
 -0.00000115,-0.00002781,0.00156455,0.00163169,0.00044465,0.00185918,0.
 00165433,0.00045173,0.00038464,0.00032920,0.00028646,-0.00002645,-0.00
 013281,-0.00004058,0.00243679,0.00308076,0.00101473,-0.00093155,-0.004
 81694,-0.00009392,-0.00060722,0.00041457,-0.00010385,0.00004662,-0.000
 11353,-0.00014348,0.00139841,0.00071619,0.00490384,-0.00025403,0.00023
 443,0.00089266,-0.17355494,0.20894933,0.00129377,-0.00085065,0.0008175
 4,0.01001828,-0.02361862,-0.03101543,0.00009691,0.00177567,-0.00325898
 ,0.02953807,-0.07273722,-0.18022153,0.00116644,-0.00046803,0.00193162,
 -0.00005363,0.00005552,-0.00006802,-0.00012596,-0.00068265,0.00078642,
 -0.00053985,-0.00035271,-0.00014887,0.00882418,-0.01543225,-0.02912752
 ,0.00051159,-0.01465357,-0.01297915,-0.00037925,0.00019453,0.00002401,
 0.00031861,-0.00013471,0.00010286,-0.00106149,0.00099424,0.00094302,0.
 00453154,-0.00075663,0.00126469,-0.00034181,0.00019737,0.00036625,-0.0
 0002962,-0.00003224,-0.00030980,0.00045739,-0.00107257,0.00664589,-0.0
 0528580,0.00139013,-0.00828958,-0.00138988,0.00081342,0.00056905,0.000
 25688,-0.00007144,-0.00011665,-0.00659478,0.00439554,-0.00930802,0.002
 26404,-0.00098715,-0.00133898,0.19078752,0.00586804,0.48866682,-0.0002
 1714,0.00014973,-0.00010260,-0.00128410,0.00098035,0.00176623,0.000342
 12,-0.00011906,0.00006213,0.00759014,-0.00415719,0.00275065,-0.0000294
 8,-0.00000355,-0.00004929,-0.00002193,-0.00001553,-0.00000093,-0.00011
 382,-0.00003094,0.00007740,-0.00000701,-0.00003078,-0.00001542,0.00182
 131,0.00007844,0.00789288,-0.00030695,0.00081074,0.00038719,-0.0000030
 6,0.00001758,-0.00002617,0.00003188,-0.00001536,0.00002448,-0.00039654
 ,0.00015507,-0.00035272,-0.00037403,0.00026701,-0.00105801,0.00014787,
 0.00003384,0.00004141,-0.00007607,0.00000198,-0.00001667,-0.00144482,-
 0.00046687,0.00083672,-0.00086626,0.00144872,-0.00266746,0.00011089,-0
 .00009876,0.00026396,-0.00003570,0.00000540,-0.00004063,0.00026178,-0.
 00000918,0.00171694,-0.00011231,0.00015506,0.00023743,-0.25481228,0.12
 547005,-0.22850183,0.25063127,0.00005892,-0.00018154,0.00008264,0.0009
 8556,-0.00227793,-0.00041621,0.00011633,-0.00032010,0.00005274,-0.0146
 7000,0.00653067,-0.01712114,0.00001017,0.00019525,-0.00004923,-0.00003
 689,0.00002258,0.00000379,-0.00000250,0.00014813,0.00002569,-0.0000034
 8,0.00016213,0.00003731,0.00054583,0.00238185,-0.00343902,-0.00052907,
 -0.00102368,-0.00163551,0.00001710,-0.00000960,-0.00001741,-0.00000407
 ,-0.00000405,0.00000076,-0.00017252,-0.00051183,0.00078695,0.00025483,
 -0.00057883,0.00051078,0.00003382,-0.00003755,0.00000165,0.00000448,0.
 00002531,0.00000940,-0.00114932,0.00012918,0.00005306,0.00068176,-0.00
 008859,-0.00040251,-0.00000518,-0.00001493,0.00000771,0.00000875,0.000
 01495,0.00000705,-0.00002102,0.00037896,-0.00107793,0.00022072,0.00011
 156,-0.00014487,0.13838484,-0.08287294,0.11295357,-0.12301654,0.079826
 36,-0.00013578,-0.00008065,-0.00003217,0.00226802,-0.00515898,-0.00329
 083,-0.00016839,0.00024511,-0.00045256,-0.02468931,0.01107274,-0.03381
 641,0.00021184,-0.00002856,0.00027623,-0.00003879,0.00000797,-0.000022
 47,-0.00015433,0.00006378,0.00000988,-0.00007646,0.00011188,0.00002071
 ,-0.00010254,0.00103007,-0.00229227,-0.00033732,0.00009562,0.00054886,
 0.00002506,-0.00000660,-0.00001308,0.00002508,-0.00000148,0.00003723,0
 .00036924,-0.00001826,-0.00022276,-0.00112663,0.00053730,-0.00014894,0
 .00022219,0.00002019,0.00004255,-0.00011608,-0.00002639,-0.00000416,0.
 00290283,-0.00028100,0.00007064,-0.00296282,-0.00038667,0.00169645,0.0
 0018381,-0.00001174,0.00024312,-0.00004567,-0.00001065,-0.00000401,-0.
 00104415,0.00076455,-0.00163657,0.00032813,-0.00014923,-0.00046695,-0.
 19415598,0.08283048,-0.23159583,0.22021894,-0.09170631,0.27028647,0.00
 191246,0.00113613,-0.00170490,-0.00840097,-0.00043617,0.00538892,0.000
 16725,-0.00031479,-0.00035053,-0.02663069,0.02577599,-0.04043804,-0.00
 025825,0.00018343,-0.00013103,-0.00004569,-0.00009358,-0.00001272,0.00
 029807,-0.00000496,0.00013327,0.00006709,-0.00004532,0.00001622,-0.107
 31370,0.02596034,-0.05638124,0.00294135,-0.00054195,-0.00023765,-0.000
 12306,0.00001925,0.00005064,0.00001032,-0.00003014,-0.00005438,0.00658
 663,0.00177014,0.00580872,0.00308227,-0.00247532,-0.00244215,-0.000494
 20,-0.00003169,0.00002736,0.00023404,0.00005265,-0.00003189,-0.0007152
 0,0.00014460,0.00036922,0.00075768,-0.00002538,-0.00050906,-0.00205452
 ,0.00024731,-0.00095649,0.00011547,0.00019270,-0.00019316,0.00052088,-
 0.00022504,-0.00032466,0.00010171,0.00002332,0.00030892,-0.00356487,0.
 00252856,-0.00479252,-0.00039200,-0.00120694,-0.00145483,0.68259866,-0
 .00055178,0.00017211,0.00021157,0.00084362,0.00029711,-0.00118856,-0.0
 0011623,0.00000653,0.00012177,0.00803570,-0.00344239,0.00379746,-0.000
 30342,0.00067551,-0.00024885,0.00019607,0.00003773,0.00001917,-0.00019
 746,-0.00003592,-0.00007242,-0.00003024,0.00008504,0.00000594,0.003975
 87,-0.09243158,0.05833419,0.00092617,0.00083451,-0.00070636,0.00004814
 ,-0.00000557,-0.00001407,-0.00000451,0.00001468,0.00001775,0.01665581,
 -0.01054889,0.03535510,-0.00478178,0.01324150,-0.00677568,0.00029554,0
 .00009651,0.00002589,-0.00011989,-0.00005726,0.00001211,0.00050668,0.0
 0006993,-0.00014165,-0.00059788,-0.00011064,0.00027054,0.00050132,-0.0
 0002988,0.00030205,-0.00009127,-0.00006681,0.00000113,-0.00005888,0.00
 062047,0.00022593,-0.00022530,-0.00001799,-0.00009973,0.00383618,0.001
 15161,0.00237217,-0.00104473,-0.00247236,0.00061513,-0.01895930,0.1006
 5340,0.00064592,0.00005447,-0.00038083,0.00100172,-0.00121253,0.000207
 53,-0.00005947,0.00011814,-0.00091234,-0.00636578,0.00294402,-0.008435
 87,0.00002141,-0.00002597,0.00000405,-0.00008909,-0.00001022,-0.000036
 88,0.00012260,-0.00001791,0.00011963,-0.00000218,0.00001799,0.00000683
 ,-0.01761562,0.05947893,-0.19323396,-0.00015494,-0.00056236,0.00066832
 ,-0.00012783,0.00003580,0.00004651,0.00005546,-0.00004207,-0.00000229,
 -0.00903863,0.01298041,-0.01735886,-0.01801891,0.01992995,-0.03321178,
 -0.00027583,0.00003678,0.00013879,0.00011573,0.00001865,-0.00008283,0.
 00025304,-0.00017333,0.00084490,-0.00046195,-0.00006139,-0.00025640,-0
 .00104023,0.00028700,0.00007873,0.00016997,0.00003074,-0.00003221,-0.0
 0204159,0.00075756,-0.00044985,0.00002547,0.00013940,0.00058774,0.0037
 0036,-0.00076448,0.00469003,-0.00219858,-0.00041811,-0.00030712,0.0547
 1977,-0.10851485,0.28326466,0.00005621,0.00015011,-0.00016494,-0.00070
 063,0.00003550,0.00060078,0.00000207,0.00002005,0.00000426,-0.00075986
 ,0.00204057,-0.00250364,-0.00004429,0.00007350,-0.00006281,0.00000512,
 -0.00001623,0.00000538,-0.00004434,0.00000254,-0.00001617,-0.00000677,
 0.00000719,0.00000361,-0.01257759,-0.00305619,0.00512377,0.00056431,0.
 00004465,0.00000370,0.00001223,-0.00000096,-0.00000671,-0.00000007,0.0
 0000202,0.00000877,0.00157941,-0.00023028,0.00160119,0.00057249,-0.000
 74459,0.00075272,0.00007372,0.00000465,0.00000440,-0.00003705,-0.00000
 371,0.00000222,0.00013666,-0.00004726,0.00002410,-0.00019130,0.0000190
 7,0.00001400,0.00004330,-0.00007119,0.00004047,-0.00002324,0.00001165,
 -0.00002600,0.00032446,-0.00010430,0.00023858,-0.00000902,-0.00000818,
 -0.00007349,0.00105283,-0.00043606,-0.00096881,-0.00044375,-0.00050558
 ,-0.00014604,-0.54940073,-0.00873841,-0.00334080,0.55981581,-0.0000331
 6,-0.00016165,0.00026027,0.00107950,0.00058587,-0.00027277,0.00000051,
 0.00005991,0.00002758,0.00165486,-0.00227625,0.00242997,-0.00002476,-0
 .00009012,-0.00010819,-0.00003403,-0.00000204,-0.00000496,0.00002920,0
 .00001726,0.00000710,-0.00000477,-0.00002243,-0.00000681,0.01937829,-0
 .00156663,0.00138523,0.00006334,0.00013867,0.00006050,0.00000377,-0.00
 000181,-0.00000347,0.00000025,-0.00000023,0.00000196,0.00078182,0.0001
 1985,-0.00038030,-0.00092248,0.00044635,-0.00025396,-0.00003738,-0.000
 03611,-0.00001793,0.00001066,0.00001146,0.00000308,-0.00002800,-0.0000
 2742,-0.00004502,0.00007136,0.00000161,0.00003913,0.00011340,-0.000019
 99,0.00001791,0.00000707,-0.00000973,0.00003774,-0.00011222,-0.0001427
 0,-0.00009636,0.00003085,0.00002819,0.00000710,0.00062980,-0.00031265,
 0.00084026,-0.00056548,0.00046699,0.00047168,-0.03364384,-0.00873738,0
 .01497338,0.01155144,0.01153098,0.00018478,0.00021564,-0.00037257,-0.0
 0169136,0.00001115,0.00080009,0.00000033,0.00003230,-0.00009281,-0.001
 01586,0.00242423,-0.00722632,0.00000434,0.00002163,0.00000119,-0.00000
 998,-0.00002193,-0.00000306,-0.00002716,0.00000723,0.00001036,-0.00001
 351,0.00001341,0.00000739,-0.04048789,0.00006944,-0.00272239,0.0002487
 4,-0.00014343,-0.00003400,0.00000226,0.00000076,-0.00000489,0.00000540
 ,-0.00000161,0.00000703,0.00044661,0.00091267,0.00091488,-0.00072752,-
 0.00067153,-0.00055997,0.00003974,-0.00000246,0.00000471,-0.00002480,0
 .00000064,0.00000039,0.00020649,-0.00007033,0.00006369,-0.00030308,0.0
 0001708,0.00005321,-0.00018149,-0.00002678,-0.00006835,-0.00002741,0.0
 0003816,-0.00003904,0.00027147,-0.00007799,0.00013983,-0.00004589,0.00
 000737,-0.00000281,0.00231819,-0.00135189,0.00097015,-0.00124606,0.001
 89516,0.00107399,0.04319220,0.01607427,-0.03595648,-0.00111854,-0.0193
 7317,0.04303578\\0.00000714,0.00000491,-0.00001143,-0.00000448,0.00000
 551,0.00001630,0.00000672,-0.00002378,0.00000195,-0.00000765,0.0000018
 9,0.00000492,0.00000103,0.00000573,-0.00000175,-0.00000365,-0.00000343
 ,-0.00000210,0.00000391,-0.00000471,-0.00000387,-0.00000354,0.00000692
 ,0.00000613,0.00001125,-0.00000230,0.00000015,-0.00000277,0.00000440,0
 .00000323,-0.00000057,0.00000154,0.00000151,-0.00000131,0.00000397,-0.
 00000002,-0.00000260,0.00000156,0.00000401,0.00000040,-0.00000104,0.00
 000568,0.00000745,-0.00000134,-0.00000797,-0.00000513,0.00000095,0.000
 00227,0.00001733,0.00001927,0.00000021,-0.00002044,-0.00000322,-0.0000
 0506,-0.00000165,-0.00000030,0.00000209,-0.00000560,0.00000536,-0.0000
 0148,0.00001730,-0.00001036,-0.00000486,-0.00000639,0.00000269,-0.0000
 0621,-0.00000932,-0.00000780,-0.00000586,0.00000184,-0.00000239,0.0000
 0142,-0.00000116,-0.00000412,-0.00000005,0.00000189,0.00000008,0.00000
 078\\\@
 The archive entry for this job was punched.


 IF OTHER PEOPLE ARE GOING TO TALK, CONVERSATION IS SIMPLY IMPOSSIBLE.

                                               -- WHISTLER'S PRINCIPLE
 Job cpu time:       0 days 10 hours 36 minutes 13.0 seconds.
 Elapsed time:       0 days  0 hours 39 minutes 52.9 seconds.
 File lengths (MBytes):  RWF=    704 Int=      0 D2E=      0 Chk=     27 Scr=      1
 Normal termination of Gaussian 16 at Wed Oct 11 15:30:12 2023.
