 Entering Gaussian System, Link 0=/opt/software/gaussian/g16.c01/g16
 Initial command:
 /opt/software/gaussian/g16.c01/l1.exe "/scratch/arhender/13209904/Gau-197279.inp" -scrdir="/scratch/arhender/13209904/"
 Entering Link 1 = /opt/software/gaussian/g16.c01/l1.exe PID=    197280.
  
 Copyright (c) 1988-2019, Gaussian, Inc.  All Rights Reserved.
  
 This is part of the Gaussian(R) 16 program.  It is based on
 the Gaussian(R) 09 system (copyright 2009, Gaussian, Inc.),
 the Gaussian(R) 03 system (copyright 2003, Gaussian, Inc.),
 the Gaussian(R) 98 system (copyright 1998, Gaussian, Inc.),
 the Gaussian(R) 94 system (copyright 1995, Gaussian, Inc.),
 the Gaussian 92(TM) system (copyright 1992, Gaussian, Inc.),
 the Gaussian 90(TM) system (copyright 1990, Gaussian, Inc.),
 the Gaussian 88(TM) system (copyright 1988, Gaussian, Inc.),
 the Gaussian 86(TM) system (copyright 1986, Carnegie Mellon
 University), and the Gaussian 82(TM) system (copyright 1983,
 Carnegie Mellon University). Gaussian is a federally registered
 trademark of Gaussian, Inc.
  
 This software contains proprietary and confidential information,
 including trade secrets, belonging to Gaussian, Inc.
  
 This software is provided under written license and may be
 used, copied, transmitted, or stored only in accord with that
 written license.
  
 The following legend is applicable only to US Government
 contracts under FAR:
  
                    RESTRICTED RIGHTS LEGEND
  
 Use, reproduction and disclosure by the US Government is
 subject to restrictions as set forth in subparagraphs (a)
 and (c) of the Commercial Computer Software - Restricted
 Rights clause in FAR 52.227-19.
  
 Gaussian, Inc.
 340 Quinnipiac St., Bldg. 40, Wallingford CT 06492
  
  
 ---------------------------------------------------------------
 Warning -- This program may not be used in any manner that
 competes with the business of Gaussian, Inc. or will provide
 assistance to any competitor of Gaussian, Inc.  The licensee
 of this program is prohibited from giving any competitor of
 Gaussian, Inc. access to this program.  By using this program,
 the user acknowledges that Gaussian, Inc. is engaged in the
 business of creating and licensing software in the field of
 computational chemistry and represents and warrants to the
 licensee that it is not a competitor of Gaussian, Inc. and that
 it will not use this program in any manner prohibited above.
 ---------------------------------------------------------------
  

 Cite this work as:
 Gaussian 16, Revision C.01,
 M. J. Frisch, G. W. Trucks, H. B. Schlegel, G. E. Scuseria, 
 M. A. Robb, J. R. Cheeseman, G. Scalmani, V. Barone, 
 G. A. Petersson, H. Nakatsuji, X. Li, M. Caricato, A. V. Marenich, 
 J. Bloino, B. G. Janesko, R. Gomperts, B. Mennucci, H. P. Hratchian, 
 J. V. Ortiz, A. F. Izmaylov, J. L. Sonnenberg, D. Williams-Young, 
 F. Ding, F. Lipparini, F. Egidi, J. Goings, B. Peng, A. Petrone, 
 T. Henderson, D. Ranasinghe, V. G. Zakrzewski, J. Gao, N. Rega, 
 G. Zheng, W. Liang, M. Hada, M. Ehara, K. Toyota, R. Fukuda, 
 J. Hasegawa, M. Ishida, T. Nakajima, Y. Honda, O. Kitao, H. Nakai, 
 T. Vreven, K. Throssell, J. A. Montgomery, Jr., J. E. Peralta, 
 F. Ogliaro, M. J. Bearpark, J. J. Heyd, E. N. Brothers, K. N. Kudin, 
 V. N. Staroverov, T. A. Keith, R. Kobayashi, J. Normand, 
 K. Raghavachari, A. P. Rendell, J. C. Burant, S. S. Iyengar, 
 J. Tomasi, M. Cossi, J. M. Millam, M. Klene, C. Adamo, R. Cammi, 
 J. W. Ochterski, R. L. Martin, K. Morokuma, O. Farkas, 
 J. B. Foresman, and D. J. Fox, Gaussian, Inc., Wallingford CT, 2019.
 
 ******************************************
 Gaussian 16:  ES64L-G16RevC.01  3-Jul-2019
                27-Sep-2023 
 ******************************************
 %chk=MannitolConformerOpt_3.chk
 %mem=8GB
 %nprocs=16
 Will use up to   16 processors via shared memory.
 ---------------------------------------------
 # opt freq wb97xd/def2tzvpp geom=connectivity
 ---------------------------------------------
 1/18=20,19=15,26=3,38=1,57=2/1,3;
 2/9=110,12=2,17=6,18=5,40=1/2;
 3/5=44,7=202,11=2,25=1,30=1,71=1,74=-58/1,2,3;
 4//1;
 5/5=2,38=5/2;
 6/7=2,8=2,9=2,10=2,28=1/1;
 7//1,2,3,16;
 1/18=20,19=15,26=3/3(2);
 2/9=110/2;
 99//99;
 2/9=110/2;
 3/5=44,7=202,11=2,25=1,30=1,71=1,74=-58/1,2,3;
 4/5=5,16=3,69=1/1;
 5/5=2,38=5/2;
 7//1,2,3,16;
 1/18=20,19=15,26=3/3(-5);
 2/9=110/2;
 6/7=2,8=2,9=2,10=2,19=2,28=1/1;
 99/9=1/99;
 --------------------------------
 Mannitol Conformer Optimziations
 --------------------------------
 Symbolic Z-matrix:
 Charge =  0 Multiplicity = 1
 C                     0.        0.        0. 
 C                     1.5418    0.        0. 
 C                    -0.6968    0.6511    1.2127 
 C                     2.1575   -0.7745    1.1716 
 H                     1.9049    1.0344    0. 
 H                    -0.3653   -1.028    -0.1131 
 C                    -0.2992    2.1134    1.4594 
 H                    -0.5332    0.0663    2.1218 
 C                     3.6717   -0.9578    1.0128 
 H                     1.6942   -1.7642    1.2625 
 H                    -0.9802    2.5727    2.1836 
 H                     0.7256    2.1965    1.8299 
 H                     4.1739    0.008     0.8962 
 H                     3.9156   -1.6064    0.1663 
 O                    -0.3882    2.8662    0.2414 
 H                    -0.3152    3.8042    0.5004 
 O                    -2.1181    0.6192    0.967 
 H                    -2.2304    0.9106    0.0404 
 O                    -0.4245    0.6672   -1.2199 
 H                    -0.3658    1.632    -1.0286 
 O                     1.9763   -0.576    -1.2457 
 H                     1.326    -0.263    -1.9103 
 O                     1.9233   -0.0852    2.4078 
 H                     2.5396   -0.5159    3.0394 
 O                     4.1741   -1.5577    2.2141 
 H                     5.1185   -1.7371    2.0563 
 

 GradGradGradGradGradGradGradGradGradGradGradGradGradGradGradGradGradGrad
 Berny optimization.
 Initialization pass.
                           ----------------------------
                           !    Initial Parameters    !
                           ! (Angstroms and Degrees)  !
 --------------------------                            --------------------------
 ! Name  Definition              Value          Derivative Info.                !
 --------------------------------------------------------------------------------
 ! R1    R(1,2)                  1.5418         estimate D2E/DX2                !
 ! R2    R(1,3)                  1.5428         estimate D2E/DX2                !
 ! R3    R(1,6)                  1.0968         estimate D2E/DX2                !
 ! R4    R(1,19)                 1.4538         estimate D2E/DX2                !
 ! R5    R(2,4)                  1.5335         estimate D2E/DX2                !
 ! R6    R(2,5)                  1.0963         estimate D2E/DX2                !
 ! R7    R(2,21)                 1.4396         estimate D2E/DX2                !
 ! R8    R(3,7)                  1.5353         estimate D2E/DX2                !
 ! R9    R(3,8)                  1.0933         estimate D2E/DX2                !
 ! R10   R(3,17)                 1.4427         estimate D2E/DX2                !
 ! R11   R(4,9)                  1.5335         estimate D2E/DX2                !
 ! R12   R(4,10)                 1.0965         estimate D2E/DX2                !
 ! R13   R(4,23)                 1.4346         estimate D2E/DX2                !
 ! R14   R(7,11)                 1.0951         estimate D2E/DX2                !
 ! R15   R(7,12)                 1.0929         estimate D2E/DX2                !
 ! R16   R(7,15)                 1.4346         estimate D2E/DX2                !
 ! R17   R(9,13)                 1.0948         estimate D2E/DX2                !
 ! R18   R(9,14)                 1.094          estimate D2E/DX2                !
 ! R19   R(9,25)                 1.4337         estimate D2E/DX2                !
 ! R20   R(15,16)                0.9758         estimate D2E/DX2                !
 ! R21   R(17,18)                0.9778         estimate D2E/DX2                !
 ! R22   R(19,20)                0.9853         estimate D2E/DX2                !
 ! R23   R(21,22)                0.9811         estimate D2E/DX2                !
 ! R24   R(23,24)                0.982          estimate D2E/DX2                !
 ! R25   R(25,26)                0.9742         estimate D2E/DX2                !
 ! A1    A(2,1,3)              116.8501         estimate D2E/DX2                !
 ! A2    A(2,1,6)              109.4542         estimate D2E/DX2                !
 ! A3    A(2,1,19)             106.9774         estimate D2E/DX2                !
 ! A4    A(3,1,6)              109.0373         estimate D2E/DX2                !
 ! A5    A(3,1,19)             109.5132         estimate D2E/DX2                !
 ! A6    A(6,1,19)             104.2625         estimate D2E/DX2                !
 ! A7    A(1,2,4)              113.6722         estimate D2E/DX2                !
 ! A8    A(1,2,5)              109.3423         estimate D2E/DX2                !
 ! A9    A(1,2,21)             107.5674         estimate D2E/DX2                !
 ! A10   A(4,2,5)              110.0944         estimate D2E/DX2                !
 ! A11   A(4,2,21)             109.7462         estimate D2E/DX2                !
 ! A12   A(5,2,21)             106.1152         estimate D2E/DX2                !
 ! A13   A(1,3,7)              114.2865         estimate D2E/DX2                !
 ! A14   A(1,3,8)              111.119          estimate D2E/DX2                !
 ! A15   A(1,3,17)             107.5627         estimate D2E/DX2                !
 ! A16   A(7,3,8)              109.7003         estimate D2E/DX2                !
 ! A17   A(7,3,17)             107.6704         estimate D2E/DX2                !
 ! A18   A(8,3,17)             106.0936         estimate D2E/DX2                !
 ! A19   A(2,4,9)              112.1915         estimate D2E/DX2                !
 ! A20   A(2,4,10)             110.4592         estimate D2E/DX2                !
 ! A21   A(2,4,23)             110.4949         estimate D2E/DX2                !
 ! A22   A(9,4,10)             108.5355         estimate D2E/DX2                !
 ! A23   A(9,4,23)             107.93           estimate D2E/DX2                !
 ! A24   A(10,4,23)            107.0526         estimate D2E/DX2                !
 ! A25   A(3,7,11)             110.1628         estimate D2E/DX2                !
 ! A26   A(3,7,12)             111.6987         estimate D2E/DX2                !
 ! A27   A(3,7,15)             110.3216         estimate D2E/DX2                !
 ! A28   A(11,7,12)            109.0896         estimate D2E/DX2                !
 ! A29   A(11,7,15)            107.6259         estimate D2E/DX2                !
 ! A30   A(12,7,15)            107.824          estimate D2E/DX2                !
 ! A31   A(4,9,13)             111.0097         estimate D2E/DX2                !
 ! A32   A(4,9,14)             111.7863         estimate D2E/DX2                !
 ! A33   A(4,9,25)             108.015          estimate D2E/DX2                !
 ! A34   A(13,9,14)            109.7766         estimate D2E/DX2                !
 ! A35   A(13,9,25)            107.3153         estimate D2E/DX2                !
 ! A36   A(14,9,25)            108.7938         estimate D2E/DX2                !
 ! A37   A(7,15,16)            105.9271         estimate D2E/DX2                !
 ! A38   A(3,17,18)            105.5415         estimate D2E/DX2                !
 ! A39   A(1,19,20)            105.6087         estimate D2E/DX2                !
 ! A40   A(2,21,22)            104.9793         estimate D2E/DX2                !
 ! A41   A(4,23,24)            103.9479         estimate D2E/DX2                !
 ! A42   A(9,25,26)            106.3231         estimate D2E/DX2                !
 ! D1    D(3,1,2,4)             61.6986         estimate D2E/DX2                !
 ! D2    D(3,1,2,5)            -61.7686         estimate D2E/DX2                !
 ! D3    D(3,1,2,21)          -176.584          estimate D2E/DX2                !
 ! D4    D(6,1,2,4)            -62.8112         estimate D2E/DX2                !
 ! D5    D(6,1,2,5)            173.7216         estimate D2E/DX2                !
 ! D6    D(6,1,2,21)            58.9062         estimate D2E/DX2                !
 ! D7    D(19,1,2,4)          -175.2084         estimate D2E/DX2                !
 ! D8    D(19,1,2,5)            61.3244         estimate D2E/DX2                !
 ! D9    D(19,1,2,21)          -53.491          estimate D2E/DX2                !
 ! D10   D(2,1,3,7)             56.8474         estimate D2E/DX2                !
 ! D11   D(2,1,3,8)            -67.9549         estimate D2E/DX2                !
 ! D12   D(2,1,3,17)           176.3269         estimate D2E/DX2                !
 ! D13   D(6,1,3,7)           -178.4319         estimate D2E/DX2                !
 ! D14   D(6,1,3,8)             56.7657         estimate D2E/DX2                !
 ! D15   D(6,1,3,17)           -58.9525         estimate D2E/DX2                !
 ! D16   D(19,1,3,7)           -64.93           estimate D2E/DX2                !
 ! D17   D(19,1,3,8)           170.2677         estimate D2E/DX2                !
 ! D18   D(19,1,3,17)           54.5495         estimate D2E/DX2                !
 ! D19   D(2,1,19,20)          -81.3751         estimate D2E/DX2                !
 ! D20   D(3,1,19,20)           46.1571         estimate D2E/DX2                !
 ! D21   D(6,1,19,20)          162.718          estimate D2E/DX2                !
 ! D22   D(1,2,4,9)            170.2492         estimate D2E/DX2                !
 ! D23   D(1,2,4,10)            49.0093         estimate D2E/DX2                !
 ! D24   D(1,2,4,23)           -69.2584         estimate D2E/DX2                !
 ! D25   D(5,2,4,9)            -66.6946         estimate D2E/DX2                !
 ! D26   D(5,2,4,10)           172.0655         estimate D2E/DX2                !
 ! D27   D(5,2,4,23)            53.7978         estimate D2E/DX2                !
 ! D28   D(21,2,4,9)            49.7509         estimate D2E/DX2                !
 ! D29   D(21,2,4,10)          -71.4889         estimate D2E/DX2                !
 ! D30   D(21,2,4,23)          170.2433         estimate D2E/DX2                !
 ! D31   D(1,2,21,22)           36.4459         estimate D2E/DX2                !
 ! D32   D(4,2,21,22)          160.5778         estimate D2E/DX2                !
 ! D33   D(5,2,21,22)          -80.4965         estimate D2E/DX2                !
 ! D34   D(1,3,7,11)           167.6874         estimate D2E/DX2                !
 ! D35   D(1,3,7,12)           -70.9078         estimate D2E/DX2                !
 ! D36   D(1,3,7,15)            49.0043         estimate D2E/DX2                !
 ! D37   D(8,3,7,11)           -66.7613         estimate D2E/DX2                !
 ! D38   D(8,3,7,12)            54.6436         estimate D2E/DX2                !
 ! D39   D(8,3,7,15)           174.5557         estimate D2E/DX2                !
 ! D40   D(17,3,7,11)           48.2685         estimate D2E/DX2                !
 ! D41   D(17,3,7,12)          169.6733         estimate D2E/DX2                !
 ! D42   D(17,3,7,15)          -70.4146         estimate D2E/DX2                !
 ! D43   D(1,3,17,18)          -45.1234         estimate D2E/DX2                !
 ! D44   D(7,3,17,18)           78.491          estimate D2E/DX2                !
 ! D45   D(8,3,17,18)         -164.1132         estimate D2E/DX2                !
 ! D46   D(2,4,9,13)            56.4139         estimate D2E/DX2                !
 ! D47   D(2,4,9,14)           -66.5312         estimate D2E/DX2                !
 ! D48   D(2,4,9,25)           173.8113         estimate D2E/DX2                !
 ! D49   D(10,4,9,13)          178.7528         estimate D2E/DX2                !
 ! D50   D(10,4,9,14)           55.8077         estimate D2E/DX2                !
 ! D51   D(10,4,9,25)          -63.8498         estimate D2E/DX2                !
 ! D52   D(23,4,9,13)          -65.5529         estimate D2E/DX2                !
 ! D53   D(23,4,9,14)          171.502          estimate D2E/DX2                !
 ! D54   D(23,4,9,25)           51.8445         estimate D2E/DX2                !
 ! D55   D(2,4,23,24)         -165.6032         estimate D2E/DX2                !
 ! D56   D(9,4,23,24)          -42.5952         estimate D2E/DX2                !
 ! D57   D(10,4,23,24)          74.0672         estimate D2E/DX2                !
 ! D58   D(3,7,15,16)          168.0506         estimate D2E/DX2                !
 ! D59   D(11,7,15,16)          47.8297         estimate D2E/DX2                !
 ! D60   D(12,7,15,16)         -69.7262         estimate D2E/DX2                !
 ! D61   D(4,9,25,26)          174.9655         estimate D2E/DX2                !
 ! D62   D(13,9,25,26)         -65.2796         estimate D2E/DX2                !
 ! D63   D(14,9,25,26)          53.4365         estimate D2E/DX2                !
 --------------------------------------------------------------------------------
 Trust Radius=3.00D-01 FncErr=1.00D-07 GrdErr=1.00D-06 EigMax=2.50D+02 EigMin=1.00D-04
 Number of steps in this run=    140 maximum allowed number of steps=    156.
 GradGradGradGradGradGradGradGradGradGradGradGradGradGradGradGradGradGrad

                          Input orientation:                          
 ---------------------------------------------------------------------
 Center     Atomic      Atomic             Coordinates (Angstroms)
 Number     Number       Type             X           Y           Z
 ---------------------------------------------------------------------
      1          6           0        0.000000    0.000000    0.000000
      2          6           0        1.541800    0.000000    0.000000
      3          6           0       -0.696800    0.651100    1.212700
      4          6           0        2.157500   -0.774500    1.171600
      5          1           0        1.904900    1.034400    0.000000
      6          1           0       -0.365300   -1.028000   -0.113100
      7          6           0       -0.299200    2.113400    1.459400
      8          1           0       -0.533200    0.066300    2.121800
      9          6           0        3.671700   -0.957800    1.012800
     10          1           0        1.694200   -1.764200    1.262500
     11          1           0       -0.980200    2.572700    2.183600
     12          1           0        0.725600    2.196500    1.829900
     13          1           0        4.173900    0.008000    0.896200
     14          1           0        3.915600   -1.606400    0.166300
     15          8           0       -0.388200    2.866200    0.241400
     16          1           0       -0.315200    3.804200    0.500400
     17          8           0       -2.118100    0.619200    0.967000
     18          1           0       -2.230400    0.910600    0.040400
     19          8           0       -0.424500    0.667200   -1.219900
     20          1           0       -0.365800    1.632000   -1.028600
     21          8           0        1.976300   -0.576000   -1.245700
     22          1           0        1.326000   -0.263000   -1.910300
     23          8           0        1.923300   -0.085200    2.407800
     24          1           0        2.539600   -0.515900    3.039400
     25          8           0        4.174100   -1.557700    2.214100
     26          1           0        5.118500   -1.737100    2.056300
 ---------------------------------------------------------------------
                    Distance matrix (angstroms):
                    1          2          3          4          5
     1  C    0.000000
     2  C    1.541800   0.000000
     3  C    1.542758   2.627908   0.000000
     4  C    2.574355   1.533487   3.190776   0.000000
     5  H    2.167632   1.096278   2.895929   2.169925   0.000000
     6  H    1.096823   2.169471   2.164951   2.842400   3.069217
     7  C    2.585697   3.159998   1.535340   3.802390   2.855196
     8  H    2.188774   2.968511   1.093261   2.974843   3.373957
     9  C    3.927407   2.545510   4.659647   1.533499   2.848896
    10  H    2.752566   2.174749   3.398976   1.096547   3.077412
    11  H    3.513927   4.212764   2.171522   4.698197   3.931702
    12  H    2.949515   2.973101   2.189159   3.363114   2.467744
    13  H    4.269037   2.780502   4.923156   2.180372   2.646702
    14  H    4.235576   2.871080   5.240753   2.189429   3.323311
    15  O    2.902426   3.463853   2.438304   4.538784   2.944838
    16  H    3.849895   4.262721   3.255001   5.246832   3.584834
    17  O    2.409325   3.835801   1.442733   4.501668   4.158366
    18  H    2.409462   3.880762   1.947705   4.834547   4.137350
    19  O    1.453792   2.408246   2.447846   3.803222   2.655013
    20  H    1.963479   2.713002   2.468836   4.123004   2.563440
    21  O    2.406098   1.439561   3.833402   2.432196   2.037217
    22  H    2.340233   1.940357   3.831505   3.232821   2.380676
    23  O    3.082830   2.439324   2.972428   1.434634   2.655437
    24  H    3.994205   3.240326   3.895254   1.923942   3.470479
    25  O    4.975116   3.775933   5.441256   2.401434   4.095179
    26  H    5.783159   4.476457   6.342939   3.236791   4.715592
                    6          7          8          9         10
     6  H    0.000000
     7  C    3.513619   0.000000
     8  H    2.494085   2.164289   0.000000
     9  C    4.191652   5.039818   4.467644   0.000000
    10  H    2.583758   4.364424   3.008395   2.150148   0.000000
    11  H    4.314855   1.095072   2.546698   5.956121   5.177793
    12  H    3.919530   1.092882   2.491493   4.392808   4.116707
    13  H    4.764065   4.975794   4.864389   1.094792   3.069818
    14  H    4.328824   5.768324   5.139429   1.093952   2.482171
    15  O    3.910369   1.434626   3.375851   5.630348   5.178768
    16  H    4.871247   1.943899   4.080240   6.231739   5.968715
    17  O    2.636701   2.404888   2.037442   6.000901   4.505724
    18  H    2.694500   2.681384   2.815236   6.266679   4.904138
    19  O    2.025392   3.047268   3.397036   4.940084   4.069755
    20  H    2.813137   2.535020   3.521997   5.213040   4.585511
    21  O    2.640109   4.441659   4.248552   2.849732   2.789707
    22  H    2.583728   4.432091   4.452291   3.811767   3.529282
    23  O    3.532916   3.266927   2.477729   2.400908   2.045297
    24  H    4.317285   4.179522   3.259302   2.363056   2.330306
    25  O    5.128605   5.835834   4.980419   1.433669   2.664224
    26  H    5.939796   6.673388   5.932812   1.946646   3.515207
                   11         12         13         14         15
    11  H    0.000000
    12  H    1.782241   0.000000
    13  H    5.899138   4.189523   0.000000
    14  H    6.745608   5.235047   1.790464   0.000000
    15  O    2.051523   2.052409   5.423175   6.207454   0.000000
    16  H    2.189059   2.331423   5.892352   6.876473   0.975835
    17  O    2.567313   3.364387   6.322013   6.480737   2.927125
    18  H    2.986450   3.686975   6.523966   6.642624   2.694155
    19  O    3.939993   3.600384   5.104675   5.091883   2.640514
    20  H    3.403033   3.111404   5.191446   5.499582   1.771059
    21  O    5.515007   4.325543   3.123818   2.610815   4.432952
    22  H    5.488148   4.516494   4.007545   3.580924   4.166556
    23  O    3.942716   2.640948   2.712715   3.362682   4.329790
    24  H    4.760340   3.480029   2.745672   3.367086   5.276307
    25  O    6.605145   5.112121   2.046528   2.064626   6.654098
    26  H    7.468917   5.901020   2.298581   2.244137   7.403241
                   16         17         18         19         20
    16  H    0.000000
    17  O    3.689497   0.000000
    18  H    3.500359   0.977810   0.000000
    19  O    3.579406   2.766427   2.215598   0.000000
    20  H    2.656850   2.842312   2.267137   0.985333   0.000000
    21  O    5.242708   4.805066   4.643313   2.703711   3.226117
    22  H    5.004711   4.573725   4.222623   2.099089   2.688979
    23  O    4.876114   4.347988   4.883587   4.386169   4.471868
    24  H    5.767120   5.222783   5.812212   5.322335   5.440905
    25  O    7.200038   6.773916   7.199659   6.155458   6.426506
    26  H    7.915297   7.688114   8.067249   6.873063   7.137576
                   21         22         23         24         25
    21  O    0.000000
    22  H    0.981097   0.000000
    23  O    3.686700   4.362839   0.000000
    24  H    4.322384   5.102579   0.981961   0.000000
    25  O    4.214769   5.176736   2.696642   2.106670   0.000000
    26  H    4.703698   5.682424   3.614088   3.018036   0.974154
                   26
    26  H    0.000000
 Stoichiometry    C6H14O6
 Framework group  C1[X(C6H14O6)]
 Deg. of freedom    72
 Full point group                 C1      NOp   1
 Largest Abelian subgroup         C1      NOp   1
 Largest concise Abelian subgroup C1      NOp   1
                         Standard orientation:                         
 ---------------------------------------------------------------------
 Center     Atomic      Atomic             Coordinates (Angstroms)
 Number     Number       Type             X           Y           Z
 ---------------------------------------------------------------------
      1          6           0       -0.828366    0.654379   -0.624343
      2          6           0        0.475756    0.773575    0.189416
      3          6           0       -1.499159   -0.734287   -0.666133
      4          6           0        1.612719   -0.110862   -0.336577
      5          1           0        0.270797    0.538153    1.240318
      6          1           0       -0.650906    0.997020   -1.651049
      7          6           0       -1.837759   -1.313839    0.714713
      8          1           0       -0.890663   -1.448970   -1.226652
      9          6           0        2.952692    0.205963    0.338489
     10          1           0        1.728855    0.017807   -1.419339
     11          1           0       -2.497284   -2.181553    0.608494
     12          1           0       -0.938472   -1.612912    1.258982
     13          1           0        2.876186    0.111162    1.426482
     14          1           0        3.311915    1.205992    0.078429
     15          8           0       -2.527692   -0.338430    1.508894
     16          1           0       -2.878853   -0.821378    2.280711
     17          8           0       -2.734377   -0.599207   -1.399256
     18          1           0       -3.157708    0.211048   -1.052283
     19          8           0       -1.760081    1.627487   -0.078008
     20          1           0       -2.150054    1.201864    0.720519
     21          8           0        0.880949    2.154642    0.160997
     22          1           0        0.043911    2.665256    0.195534
     23          8           0        1.318972   -1.496147   -0.106640
     24          1           0        2.178964   -1.947599   -0.251046
     25          8           0        3.913285   -0.760337   -0.107530
     26          1           0        4.769564   -0.489522    0.269859
 ---------------------------------------------------------------------
 Rotational constants (GHZ):           1.4782856           0.5268690           0.4646747
 Standard basis: def2TZVPP (5D, 7F)
 There are   642 symmetry adapted cartesian basis functions of A   symmetry.
 There are   568 symmetry adapted basis functions of A   symmetry.
   568 basis functions,   850 primitive gaussians,   642 cartesian basis functions
    49 alpha electrons       49 beta electrons
       nuclear repulsion energy       829.3974406255 Hartrees.
 NAtoms=   26 NActive=   26 NUniq=   26 SFac= 1.00D+00 NAtFMM=   60 NAOKFM=F Big=F
 Integral buffers will be    131072 words long.
 Raffenetti 2 integral format.
 Two-electron integral symmetry is turned on.
 Nuclear repulsion after empirical dispersion term =      829.3790157700 Hartrees.
 One-electron integrals computed using PRISM.
   1 Symmetry operations used in ECPInt.
 ECPInt:  NShTT=   23436 NPrTT=   62434 LenC2=   21790 LenP2D=   45284.
 LDataN:  DoStor=T MaxTD1= 6 Len=  172
 NBasis=   568 RedAO= T EigKep=  3.94D-05  NBF=   568
 NBsUse=   568 1.00D-06 EigRej= -1.00D+00 NBFU=   568
 ExpMin= 9.52D-02 ExpMax= 2.70D+04 ExpMxC= 9.22D+02 IAcc=3 IRadAn=         5 AccDes= 0.00D+00
 Harris functional with IExCor= 4639 and IRadAn=       5 diagonalized for initial guess.
 HarFok:  IExCor= 4639 AccDes= 0.00D+00 IRadAn=         5 IDoV= 1 UseB2=F ITyADJ=14
 ICtDFT=  3500011 ScaDFX=  1.000000  1.000000  1.000000  1.000000
 FoFCou: FMM=F IPFlag=           0 FMFlag=      100000 FMFlg1=           0
         NFxFlg=           0 DoJE=T BraDBF=F KetDBF=T FulRan=T
         wScrn=  0.000000 ICntrl=       500 IOpCl=  0 I1Cent=   200000004 NGrid=           0
         NMat0=    1 NMatS0=      1 NMatT0=    0 NMatD0=    1 NMtDS0=    0 NMtDT0=    0
 Petite list used in FoFCou.
 Requested convergence on RMS density matrix=1.00D-08 within 128 cycles.
 Requested convergence on MAX density matrix=1.00D-06.
 Requested convergence on             energy=1.00D-06.
 No special actions if energy rises.
 Integral accuracy reduced to 1.0D-05 until final iterations.
 Initial convergence to 1.0D-05 achieved.  Increase integral accuracy.
 SCF Done:  E(RwB97XD) =  -688.469234175     A.U. after   14 cycles
            NFock= 14  Conv=0.24D-08     -V/T= 2.0050

 **********************************************************************

            Population analysis using the SCF Density.

 **********************************************************************

 Orbital symmetries:
       Occupied  (A) (A) (A) (A) (A) (A) (A) (A) (A) (A) (A) (A)
                 (A) (A) (A) (A) (A) (A) (A) (A) (A) (A) (A) (A)
                 (A) (A) (A) (A) (A) (A) (A) (A) (A) (A) (A) (A)
                 (A) (A) (A) (A) (A) (A) (A) (A) (A) (A) (A) (A)
                 (A)
       Virtual   (A) (A) (A) (A) (A) (A) (A) (A) (A) (A) (A) (A)
                 (A) (A) (A) (A) (A) (A) (A) (A) (A) (A) (A) (A)
                 (A) (A) (A) (A) (A) (A) (A) (A) (A) (A) (A) (A)
                 (A) (A) (A) (A) (A) (A) (A) (A) (A) (A) (A) (A)
                 (A) (A) (A) (A) (A) (A) (A) (A) (A) (A) (A) (A)
                 (A) (A) (A) (A) (A) (A) (A) (A) (A) (A) (A) (A)
                 (A) (A) (A) (A) (A) (A) (A) (A) (A) (A) (A) (A)
                 (A) (A) (A) (A) (A) (A) (A) (A) (A) (A) (A) (A)
                 (A) (A) (A) (A) (A) (A) (A) (A) (A) (A) (A) (A)
                 (A) (A) (A) (A) (A) (A) (A) (A) (A) (A) (A) (A)
                 (A) (A) (A) (A) (A) (A) (A) (A) (A) (A) (A) (A)
                 (A) (A) (A) (A) (A) (A) (A) (A) (A) (A) (A) (A)
                 (A) (A) (A) (A) (A) (A) (A) (A) (A) (A) (A) (A)
                 (A) (A) (A) (A) (A) (A) (A) (A) (A) (A) (A) (A)
                 (A) (A) (A) (A) (A) (A) (A) (A) (A) (A) (A) (A)
                 (A) (A) (A) (A) (A) (A) (A) (A) (A) (A) (A) (A)
                 (A) (A) (A) (A) (A) (A) (A) (A) (A) (A) (A) (A)
                 (A) (A) (A) (A) (A) (A) (A) (A) (A) (A) (A) (A)
                 (A) (A) (A) (A) (A) (A) (A) (A) (A) (A) (A) (A)
                 (A) (A) (A) (A) (A) (A) (A) (A) (A) (A) (A) (A)
                 (A) (A) (A) (A) (A) (A) (A) (A) (A) (A) (A) (A)
                 (A) (A) (A) (A) (A) (A) (A) (A) (A) (A) (A) (A)
                 (A) (A) (A) (A) (A) (A) (A) (A) (A) (A) (A) (A)
                 (A) (A) (A) (A) (A) (A) (A) (A) (A) (A) (A) (A)
                 (A) (A) (A) (A) (A) (A) (A) (A) (A) (A) (A) (A)
                 (A) (A) (A) (A) (A) (A) (A) (A) (A) (A) (A) (A)
                 (A) (A) (A) (A) (A) (A) (A) (A) (A) (A) (A) (A)
                 (A) (A) (A) (A) (A) (A) (A) (A) (A) (A) (A) (A)
                 (A) (A) (A) (A) (A) (A) (A) (A) (A) (A) (A) (A)
                 (A) (A) (A) (A) (A) (A) (A) (A) (A) (A) (A) (A)
                 (A) (A) (A) (A) (A) (A) (A) (A) (A) (A) (A) (A)
                 (A) (A) (A) (A) (A) (A) (A) (A) (A) (A) (A) (A)
                 (A) (A) (A) (A) (A) (A) (A) (A) (A) (A) (A) (A)
                 (A) (A) (A) (A) (A) (A) (A) (A) (A) (A) (A) (A)
                 (A) (A) (A) (A) (A) (A) (A) (A) (A) (A) (A) (A)
                 (A) (A) (A) (A) (A) (A) (A) (A) (A) (A) (A) (A)
                 (A) (A) (A) (A) (A) (A) (A) (A) (A) (A) (A) (A)
                 (A) (A) (A) (A) (A) (A) (A) (A) (A) (A) (A) (A)
                 (A) (A) (A) (A) (A) (A) (A) (A) (A) (A) (A) (A)
                 (A) (A) (A) (A) (A) (A) (A) (A) (A) (A) (A) (A)
                 (A) (A) (A) (A) (A) (A) (A) (A) (A) (A) (A) (A)
                 (A) (A) (A) (A) (A) (A) (A) (A) (A) (A) (A) (A)
                 (A) (A) (A) (A) (A) (A) (A) (A) (A) (A) (A) (A)
                 (A) (A) (A)
 The electronic state is 1-A.
 Alpha  occ. eigenvalues --  -19.27867 -19.26571 -19.25507 -19.25215 -19.24590
 Alpha  occ. eigenvalues --  -19.23981 -10.34561 -10.34319 -10.34293 -10.34158
 Alpha  occ. eigenvalues --  -10.33866 -10.33610  -1.15677  -1.14625  -1.13255
 Alpha  occ. eigenvalues --   -1.11691  -1.11125  -1.09542  -0.88178  -0.84981
 Alpha  occ. eigenvalues --   -0.80220  -0.74785  -0.70099  -0.68076  -0.64702
 Alpha  occ. eigenvalues --   -0.62539  -0.61817  -0.59248  -0.58658  -0.56410
 Alpha  occ. eigenvalues --   -0.55443  -0.55069  -0.53352  -0.51911  -0.50356
 Alpha  occ. eigenvalues --   -0.50154  -0.48610  -0.47969  -0.45862  -0.45377
 Alpha  occ. eigenvalues --   -0.42929  -0.41201  -0.40944  -0.38575  -0.38174
 Alpha  occ. eigenvalues --   -0.37819  -0.36681  -0.36276  -0.34717
 Alpha virt. eigenvalues --    0.08593   0.09340   0.12473   0.13293   0.14151
 Alpha virt. eigenvalues --    0.15221   0.16580   0.17060   0.18122   0.18652
 Alpha virt. eigenvalues --    0.19657   0.20071   0.20673   0.21462   0.22273
 Alpha virt. eigenvalues --    0.22529   0.23124   0.25129   0.26324   0.27256
 Alpha virt. eigenvalues --    0.27762   0.29076   0.31481   0.31981   0.33246
 Alpha virt. eigenvalues --    0.34570   0.36423   0.36806   0.37911   0.38327
 Alpha virt. eigenvalues --    0.38978   0.39515   0.40786   0.40912   0.41769
 Alpha virt. eigenvalues --    0.42690   0.43048   0.43798   0.44074   0.45589
 Alpha virt. eigenvalues --    0.46245   0.46770   0.47338   0.47440   0.48027
 Alpha virt. eigenvalues --    0.48781   0.49581   0.50643   0.51042   0.51687
 Alpha virt. eigenvalues --    0.51906   0.52632   0.53616   0.54223   0.55127
 Alpha virt. eigenvalues --    0.55615   0.56237   0.57479   0.58332   0.59482
 Alpha virt. eigenvalues --    0.60755   0.61372   0.62121   0.63196   0.64018
 Alpha virt. eigenvalues --    0.65685   0.66144   0.67426   0.68434   0.69396
 Alpha virt. eigenvalues --    0.69647   0.71027   0.71459   0.73181   0.73561
 Alpha virt. eigenvalues --    0.74673   0.76154   0.77498   0.80716   0.81507
 Alpha virt. eigenvalues --    0.83169   0.83518   0.84297   0.85414   0.86145
 Alpha virt. eigenvalues --    0.87540   0.88445   0.89385   0.89994   0.90873
 Alpha virt. eigenvalues --    0.91470   0.92641   0.94332   0.94869   0.96647
 Alpha virt. eigenvalues --    0.97185   0.98529   0.99294   1.00412   1.01393
 Alpha virt. eigenvalues --    1.02450   1.03572   1.05994   1.06697   1.08145
 Alpha virt. eigenvalues --    1.08975   1.09768   1.11069   1.12139   1.12709
 Alpha virt. eigenvalues --    1.13267   1.13843   1.15608   1.17019   1.19169
 Alpha virt. eigenvalues --    1.19879   1.20527   1.20687   1.23294   1.23751
 Alpha virt. eigenvalues --    1.24957   1.26222   1.28014   1.29314   1.30681
 Alpha virt. eigenvalues --    1.31706   1.32151   1.33207   1.33893   1.34882
 Alpha virt. eigenvalues --    1.36575   1.37423   1.38492   1.39603   1.40211
 Alpha virt. eigenvalues --    1.42096   1.42729   1.44364   1.45880   1.46133
 Alpha virt. eigenvalues --    1.48479   1.49431   1.50138   1.51874   1.52057
 Alpha virt. eigenvalues --    1.53125   1.53923   1.54452   1.55159   1.57406
 Alpha virt. eigenvalues --    1.59218   1.60330   1.61175   1.63051   1.64920
 Alpha virt. eigenvalues --    1.65644   1.66730   1.71032   1.71718   1.72917
 Alpha virt. eigenvalues --    1.75618   1.78931   1.80650   1.83166   1.86136
 Alpha virt. eigenvalues --    1.88152   1.89238   1.90679   1.91684   1.93322
 Alpha virt. eigenvalues --    1.94555   1.95569   1.97186   1.98286   2.00558
 Alpha virt. eigenvalues --    2.01687   2.03066   2.03307   2.04138   2.05499
 Alpha virt. eigenvalues --    2.06022   2.06405   2.08105   2.09110   2.11171
 Alpha virt. eigenvalues --    2.12694   2.13048   2.14620   2.16277   2.17897
 Alpha virt. eigenvalues --    2.19119   2.20637   2.21640   2.24060   2.25029
 Alpha virt. eigenvalues --    2.25995   2.28971   2.30380   2.31251   2.33908
 Alpha virt. eigenvalues --    2.35201   2.35510   2.37691   2.39791   2.41729
 Alpha virt. eigenvalues --    2.44335   2.47084   2.48559   2.50667   2.53236
 Alpha virt. eigenvalues --    2.56598   2.57940   2.59357   2.61895   2.63671
 Alpha virt. eigenvalues --    2.65721   2.66623   2.69108   2.69661   2.71254
 Alpha virt. eigenvalues --    2.73445   2.75243   2.76041   2.77197   2.78469
 Alpha virt. eigenvalues --    2.79330   2.80728   2.82757   2.83000   2.85424
 Alpha virt. eigenvalues --    2.85600   2.88123   2.89037   2.90190   2.90234
 Alpha virt. eigenvalues --    2.93479   2.95363   2.96824   2.97990   2.99301
 Alpha virt. eigenvalues --    3.00097   3.00919   3.02901   3.03679   3.06300
 Alpha virt. eigenvalues --    3.06918   3.08078   3.09108   3.10512   3.10950
 Alpha virt. eigenvalues --    3.12614   3.13669   3.13994   3.16048   3.16571
 Alpha virt. eigenvalues --    3.17986   3.18133   3.19692   3.20642   3.21889
 Alpha virt. eigenvalues --    3.22479   3.24928   3.25574   3.26359   3.27126
 Alpha virt. eigenvalues --    3.27301   3.29152   3.29839   3.31452   3.31718
 Alpha virt. eigenvalues --    3.33157   3.34903   3.35116   3.36680   3.36823
 Alpha virt. eigenvalues --    3.39788   3.40017   3.40908   3.42268   3.42886
 Alpha virt. eigenvalues --    3.44052   3.44861   3.45628   3.47240   3.47434
 Alpha virt. eigenvalues --    3.49253   3.50041   3.51000   3.51964   3.53767
 Alpha virt. eigenvalues --    3.55260   3.55830   3.56725   3.57665   3.60221
 Alpha virt. eigenvalues --    3.62146   3.62794   3.63905   3.64102   3.66674
 Alpha virt. eigenvalues --    3.67829   3.68105   3.71192   3.71539   3.73061
 Alpha virt. eigenvalues --    3.73528   3.73759   3.75020   3.76811   3.77586
 Alpha virt. eigenvalues --    3.78523   3.80132   3.81088   3.82207   3.83691
 Alpha virt. eigenvalues --    3.84466   3.85169   3.85322   3.88385   3.89669
 Alpha virt. eigenvalues --    3.91140   3.92263   3.94141   3.95358   3.97718
 Alpha virt. eigenvalues --    3.98075   3.98941   3.99746   4.00939   4.01092
 Alpha virt. eigenvalues --    4.01942   4.03952   4.05108   4.05853   4.07281
 Alpha virt. eigenvalues --    4.07614   4.08299   4.08811   4.10617   4.11676
 Alpha virt. eigenvalues --    4.12271   4.12543   4.14432   4.16067   4.17317
 Alpha virt. eigenvalues --    4.18214   4.18861   4.19761   4.21350   4.22044
 Alpha virt. eigenvalues --    4.23135   4.23745   4.24062   4.26956   4.28439
 Alpha virt. eigenvalues --    4.29178   4.30087   4.32579   4.32985   4.34969
 Alpha virt. eigenvalues --    4.35626   4.37719   4.38372   4.40483   4.40839
 Alpha virt. eigenvalues --    4.42565   4.43448   4.44579   4.47575   4.48467
 Alpha virt. eigenvalues --    4.51149   4.53026   4.53694   4.54486   4.55757
 Alpha virt. eigenvalues --    4.57049   4.58275   4.59571   4.60133   4.61155
 Alpha virt. eigenvalues --    4.63396   4.64177   4.67835   4.69410   4.71217
 Alpha virt. eigenvalues --    4.72716   4.73996   4.75600   4.77318   4.80125
 Alpha virt. eigenvalues --    4.81533   4.82340   4.86128   4.88199   4.88378
 Alpha virt. eigenvalues --    4.89242   4.92894   4.93995   4.95771   4.98031
 Alpha virt. eigenvalues --    4.99011   4.99995   5.00905   5.03829   5.04887
 Alpha virt. eigenvalues --    5.06474   5.07638   5.10173   5.11636   5.13785
 Alpha virt. eigenvalues --    5.15795   5.16863   5.18014   5.19527   5.21305
 Alpha virt. eigenvalues --    5.23874   5.26262   5.28036   5.28710   5.29950
 Alpha virt. eigenvalues --    5.30373   5.35036   5.38355   5.42666   5.44823
 Alpha virt. eigenvalues --    5.47176   5.51297   5.53341   5.57323   5.59418
 Alpha virt. eigenvalues --    5.60419   5.62283   5.62801   5.65892   5.66606
 Alpha virt. eigenvalues --    5.67758   5.68397   5.70696   5.72419   5.73947
 Alpha virt. eigenvalues --    5.76556   5.78227   5.80505   5.81703   5.85462
 Alpha virt. eigenvalues --    5.88617   5.89604   5.91464   5.92178   5.94308
 Alpha virt. eigenvalues --    5.97784   6.01424   6.02225   6.09573   6.12912
 Alpha virt. eigenvalues --    6.14861   6.16941   6.18776   6.22417   6.50843
 Alpha virt. eigenvalues --    6.53554   6.54375   6.56682   6.56888   6.58632
 Alpha virt. eigenvalues --    6.69814   6.72876   6.73890   6.74595   6.75306
 Alpha virt. eigenvalues --    6.76290   6.77044   6.78732   6.80087   6.82258
 Alpha virt. eigenvalues --    6.82604   6.83521   6.84543   6.88307   6.88955
 Alpha virt. eigenvalues --    6.90731   6.92304   6.96503   6.97456   7.02322
 Alpha virt. eigenvalues --    7.03364   7.03580   7.05096   7.06381   7.15887
 Alpha virt. eigenvalues --    7.17348   7.20719   7.23322   7.25423   7.25927
 Alpha virt. eigenvalues --    7.40320   7.41649   7.44424   7.46502   7.48241
 Alpha virt. eigenvalues --    7.49687   7.50642   7.55149   7.56999   7.61370
 Alpha virt. eigenvalues --    7.62929   7.78735  23.10697  23.16592  23.22598
 Alpha virt. eigenvalues --   23.24298  23.40738  23.44652  44.11043  44.16592
 Alpha virt. eigenvalues --   44.23731  44.29564  44.30109  44.37374
          Condensed to atoms (all electrons):
               1          2          3          4          5          6
     1  C    4.869759   0.274290   0.333755   0.002012   0.000283   0.393674
     2  C    0.274290   5.083549  -0.088919   0.136132   0.368760  -0.014652
     3  C    0.333755  -0.088919   4.802331   0.025080  -0.009525  -0.030957
     4  C    0.002012   0.136132   0.025080   5.029323  -0.030155  -0.012369
     5  H    0.000283   0.368760  -0.009525  -0.030155   0.629290   0.007594
     6  H    0.393674  -0.014652  -0.030957  -0.012369   0.007594   0.558745
     7  C   -0.009894   0.038554   0.273568  -0.014517  -0.004272   0.007403
     8  H    0.001561  -0.017526   0.387056   0.002395  -0.000646  -0.004426
     9  C   -0.011932   0.010268   0.000395   0.271703  -0.015396  -0.000748
    10  H   -0.011225  -0.028329   0.002554   0.390545   0.009202   0.007182
    11  H    0.005332  -0.002023  -0.010239   0.000536   0.001012  -0.000179
    12  H   -0.013696   0.006767  -0.030206  -0.006238  -0.007467  -0.000586
    13  H    0.000882   0.015599  -0.000347  -0.056004   0.005491   0.000068
    14  H    0.000139  -0.014524   0.000241  -0.024436   0.001798   0.000125
    15  O   -0.003230  -0.012405  -0.044495   0.001904   0.012107  -0.000582
    16  H   -0.001072   0.001463   0.004107  -0.000100  -0.000098   0.000091
    17  O   -0.041025   0.012744   0.276664  -0.001626   0.000005   0.008286
    18  H   -0.018155   0.000630  -0.046526  -0.000216  -0.000094  -0.003193
    19  O    0.208079  -0.023922  -0.037501   0.005955  -0.001620  -0.028215
    20  H   -0.049646   0.011472  -0.002911   0.000792   0.000257   0.004901
    21  O   -0.021554   0.269314   0.011018  -0.048134  -0.041141   0.006915
    22  H   -0.014202  -0.044451   0.003802   0.012182  -0.003135  -0.001216
    23  O   -0.014398  -0.036045  -0.006269   0.250409   0.006350   0.000165
    24  H    0.002495   0.003321  -0.002412  -0.028544  -0.000196  -0.000115
    25  O   -0.000243   0.005905   0.000011  -0.070012  -0.000314   0.000002
    26  H    0.000029  -0.001061  -0.000001   0.010779  -0.000037  -0.000000
               7          8          9         10         11         12
     1  C   -0.009894   0.001561  -0.011932  -0.011225   0.005332  -0.013696
     2  C    0.038554  -0.017526   0.010268  -0.028329  -0.002023   0.006767
     3  C    0.273568   0.387056   0.000395   0.002554  -0.010239  -0.030206
     4  C   -0.014517   0.002395   0.271703   0.390545   0.000536  -0.006238
     5  H   -0.004272  -0.000646  -0.015396   0.009202   0.001012  -0.007467
     6  H    0.007403  -0.004426  -0.000748   0.007182  -0.000179  -0.000586
     7  C    4.858323  -0.024371  -0.001068  -0.000928   0.405241   0.425858
     8  H   -0.024371   0.568582  -0.000423  -0.002965  -0.003030   0.000373
     9  C   -0.001068  -0.000423   4.732687  -0.025214   0.000006   0.000003
    10  H   -0.000928  -0.002965  -0.025214   0.630786  -0.000002   0.000814
    11  H    0.405241  -0.003030   0.000006  -0.000002   0.557080  -0.023804
    12  H    0.425858   0.000373   0.000003   0.000814  -0.023804   0.579244
    13  H   -0.000108  -0.000061   0.418839   0.009990  -0.000005   0.000331
    14  H   -0.000006  -0.000061   0.434627  -0.004866   0.000000   0.000042
    15  O    0.217253   0.002307   0.000094   0.000012  -0.031162  -0.048633
    16  H   -0.016694  -0.000498   0.000004   0.000004  -0.010335  -0.004028
    17  O   -0.044708  -0.021787   0.000024   0.000002   0.004445   0.005456
    18  H   -0.004282   0.007948   0.000001  -0.000002  -0.001898   0.000506
    19  O   -0.004782   0.003118  -0.000101   0.000125  -0.000648   0.000516
    20  H   -0.006268   0.000147   0.000033  -0.000007   0.000667   0.000473
    21  O   -0.001340  -0.000147   0.001474   0.004503   0.000012   0.000098
    22  H   -0.000456  -0.000029  -0.000138  -0.000497   0.000006  -0.000023
    23  O   -0.017397   0.019255  -0.017533  -0.045183   0.000243   0.017733
    24  H    0.001133   0.000249  -0.010373  -0.005237  -0.000019  -0.000764
    25  O   -0.000014  -0.000019   0.278501   0.006254   0.000000   0.000002
    26  H    0.000003   0.000004  -0.030135  -0.000189   0.000000  -0.000001
              13         14         15         16         17         18
     1  C    0.000882   0.000139  -0.003230  -0.001072  -0.041025  -0.018155
     2  C    0.015599  -0.014524  -0.012405   0.001463   0.012744   0.000630
     3  C   -0.000347   0.000241  -0.044495   0.004107   0.276664  -0.046526
     4  C   -0.056004  -0.024436   0.001904  -0.000100  -0.001626  -0.000216
     5  H    0.005491   0.001798   0.012107  -0.000098   0.000005  -0.000094
     6  H    0.000068   0.000125  -0.000582   0.000091   0.008286  -0.003193
     7  C   -0.000108  -0.000006   0.217253  -0.016694  -0.044708  -0.004282
     8  H   -0.000061  -0.000061   0.002307  -0.000498  -0.021787   0.007948
     9  C    0.418839   0.434627   0.000094   0.000004   0.000024   0.000001
    10  H    0.009990  -0.004866   0.000012   0.000004   0.000002  -0.000002
    11  H   -0.000005   0.000000  -0.031162  -0.010335   0.004445  -0.001898
    12  H    0.000331   0.000042  -0.048633  -0.004028   0.005456   0.000506
    13  H    0.612185  -0.035946  -0.000014   0.000001   0.000001   0.000000
    14  H   -0.035946   0.577321  -0.000002   0.000000   0.000000   0.000000
    15  O   -0.000014  -0.000002   7.915746   0.308228  -0.000128   0.007694
    16  H    0.000001   0.000000   0.308228   0.549757  -0.000635  -0.000280
    17  O    0.000001   0.000000  -0.000128  -0.000635   7.858483   0.329101
    18  H    0.000000   0.000000   0.007694  -0.000280   0.329101   0.509592
    19  O   -0.000011  -0.000027  -0.026349   0.001538  -0.010401   0.028178
    20  H   -0.000004  -0.000008   0.046127  -0.002707   0.000766  -0.000509
    21  O   -0.000467   0.009552   0.000002  -0.000006  -0.000151  -0.000003
    22  H   -0.000285  -0.000140   0.000050  -0.000008  -0.000052  -0.000109
    23  O    0.000170   0.004384   0.000239   0.000029   0.000120  -0.000041
    24  H   -0.001732   0.001465  -0.000008  -0.000001  -0.000014  -0.000001
    25  O   -0.051921  -0.045056   0.000000   0.000000  -0.000000  -0.000000
    26  H   -0.004689  -0.005721  -0.000000  -0.000000   0.000000   0.000000
              19         20         21         22         23         24
     1  C    0.208079  -0.049646  -0.021554  -0.014202  -0.014398   0.002495
     2  C   -0.023922   0.011472   0.269314  -0.044451  -0.036045   0.003321
     3  C   -0.037501  -0.002911   0.011018   0.003802  -0.006269  -0.002412
     4  C    0.005955   0.000792  -0.048134   0.012182   0.250409  -0.028544
     5  H   -0.001620   0.000257  -0.041141  -0.003135   0.006350  -0.000196
     6  H   -0.028215   0.004901   0.006915  -0.001216   0.000165  -0.000115
     7  C   -0.004782  -0.006268  -0.001340  -0.000456  -0.017397   0.001133
     8  H    0.003118   0.000147  -0.000147  -0.000029   0.019255   0.000249
     9  C   -0.000101   0.000033   0.001474  -0.000138  -0.017533  -0.010373
    10  H    0.000125  -0.000007   0.004503  -0.000497  -0.045183  -0.005237
    11  H   -0.000648   0.000667   0.000012   0.000006   0.000243  -0.000019
    12  H    0.000516   0.000473   0.000098  -0.000023   0.017733  -0.000764
    13  H   -0.000011  -0.000004  -0.000467  -0.000285   0.000170  -0.001732
    14  H   -0.000027  -0.000008   0.009552  -0.000140   0.004384   0.001465
    15  O   -0.026349   0.046127   0.000002   0.000050   0.000239  -0.000008
    16  H    0.001538  -0.002707  -0.000006  -0.000008   0.000029  -0.000001
    17  O   -0.010401   0.000766  -0.000151  -0.000052   0.000120  -0.000014
    18  H    0.028178  -0.000509  -0.000003  -0.000109  -0.000041  -0.000001
    19  O    7.981493   0.334582  -0.022585   0.031860  -0.000044   0.000014
    20  H    0.334582   0.444304   0.000073  -0.000169   0.000034  -0.000002
    21  O   -0.022585   0.000073   7.883037   0.331429   0.001934  -0.000188
    22  H    0.031860  -0.000169   0.331429   0.476593  -0.000213   0.000038
    23  O   -0.000044   0.000034   0.001934  -0.000213   7.906052   0.323648
    24  H    0.000014  -0.000002  -0.000188   0.000038   0.323648   0.491055
    25  O    0.000001   0.000000   0.000073  -0.000003  -0.013911   0.027026
    26  H   -0.000000  -0.000000   0.000044  -0.000004   0.000453  -0.001766
              25         26
     1  C   -0.000243   0.000029
     2  C    0.005905  -0.001061
     3  C    0.000011  -0.000001
     4  C   -0.070012   0.010779
     5  H   -0.000314  -0.000037
     6  H    0.000002  -0.000000
     7  C   -0.000014   0.000003
     8  H   -0.000019   0.000004
     9  C    0.278501  -0.030135
    10  H    0.006254  -0.000189
    11  H    0.000000   0.000000
    12  H    0.000002  -0.000001
    13  H   -0.051921  -0.004689
    14  H   -0.045056  -0.005721
    15  O    0.000000  -0.000000
    16  H    0.000000  -0.000000
    17  O   -0.000000   0.000000
    18  H   -0.000000   0.000000
    19  O    0.000001  -0.000000
    20  H    0.000000  -0.000000
    21  O    0.000073   0.000044
    22  H   -0.000003  -0.000004
    23  O   -0.013911   0.000453
    24  H    0.027026  -0.001766
    25  O    7.893850   0.327318
    26  H    0.327318   0.523009
 Mulliken charges:
               1
     1  C    0.117981
     2  C    0.045088
     3  C    0.189725
     4  C    0.152604
     5  H    0.071946
     6  H    0.102087
     7  C   -0.076229
     8  H    0.082994
     9  C   -0.035598
    10  H    0.062672
    11  H    0.108764
    12  H    0.097230
    13  H    0.088034
    14  H    0.101098
    15  O   -0.344754
    16  H    0.171241
    17  O   -0.375570
    18  H    0.191660
    19  O   -0.439251
    20  H    0.217604
    21  O   -0.383763
    22  H    0.209173
    23  O   -0.380183
    24  H    0.200927
    25  O   -0.357447
    26  H    0.181966
 Sum of Mulliken charges =  -0.00000
 Mulliken charges with hydrogens summed into heavy atoms:
               1
     1  C    0.220069
     2  C    0.117034
     3  C    0.272719
     4  C    0.215276
     7  C    0.129765
     9  C    0.153535
    15  O   -0.173513
    17  O   -0.183910
    19  O   -0.221648
    21  O   -0.174590
    23  O   -0.179256
    25  O   -0.175481
 Electronic spatial extent (au):  <R**2>=           2509.4013
 Charge=             -0.0000 electrons
 Dipole moment (field-independent basis, Debye):
    X=              1.4346    Y=             -1.1637    Z=              3.1270  Tot=              3.6319
 Quadrupole moment (field-independent basis, Debye-Ang):
   XX=            -62.4579   YY=            -75.3690   ZZ=            -69.7150
   XY=              1.5385   XZ=             -6.0679   YZ=             -3.6459
 Traceless Quadrupole moment (field-independent basis, Debye-Ang):
   XX=              6.7227   YY=             -6.1884   ZZ=             -0.5343
   XY=              1.5385   XZ=             -6.0679   YZ=             -3.6459
 Octapole moment (field-independent basis, Debye-Ang**2):
  XXX=             62.3029  YYY=             -9.4417  ZZZ=             20.0402  XYY=             -8.5766
  XXY=              0.9231  XXZ=             45.1522  XZZ=             -6.8066  YZZ=             -2.5310
  YYZ=              5.0708  XYZ=             10.8707
 Hexadecapole moment (field-independent basis, Debye-Ang**3):
 XXXX=          -1627.8526 YYYY=           -594.5632 ZZZZ=           -303.1545 XXXY=             -1.8606
 XXXZ=              1.9988 YYYX=            -22.1468 YYYZ=              5.4463 ZZZX=            -63.4498
 ZZZY=            -21.1496 XXYY=           -456.3789 XXZZ=           -377.2018 YYZZ=           -153.2346
 XXYZ=            -44.4348 YYXZ=            -24.6357 ZZXY=              2.5190
 N-N= 8.293790157700D+02 E-N=-3.276348450694D+03  KE= 6.850407032704D+02
   1 Symmetry operations used in ECPInt.
 ECPInt:  NShTT=   23436 NPrTT=   62434 LenC2=   21790 LenP2D=   45284.
 LDataN:  DoStor=T MaxTD1= 7 Len=  274
 Calling FoFJK, ICntrl=      2127 FMM=F ISym2X=0 I1Cent= 0 IOpClX= 0 NMat=1 NMatS=1 NMatT=0.
 ***** Axes restored to original set *****
 -------------------------------------------------------------------
 Center     Atomic                   Forces (Hartrees/Bohr)
 Number     Number              X              Y              Z
 -------------------------------------------------------------------
      1        6           0.001526346    0.010976820   -0.008815738
      2        6          -0.002068068   -0.003868567   -0.011147590
      3        6          -0.021340452    0.008852212   -0.009288403
      4        6           0.010467403   -0.000575820    0.007359055
      5        1          -0.001471734    0.001054468    0.007509364
      6        1           0.002906169    0.002966030    0.003361234
      7        6           0.007031911   -0.000081870    0.002322130
      8        1           0.002731675    0.003667081   -0.003894680
      9        6           0.003887168   -0.004323858    0.001286354
     10        1           0.000380306   -0.000726442   -0.005905145
     11        1           0.000440816   -0.007507208    0.001297937
     12        1          -0.000549950   -0.004988789    0.002665829
     13        1          -0.005031700    0.002104120   -0.004732596
     14        1          -0.004998644    0.004119906   -0.001607049
     15        8          -0.000042055    0.020507518    0.009458812
     16        1          -0.001697967   -0.018499211   -0.011238899
     17        8           0.011615470    0.002018350   -0.012147849
     18        1           0.000501286   -0.006379464    0.015879486
     19        8           0.002713984    0.006649731    0.015866889
     20        1           0.000995811   -0.016091127   -0.006230240
     21        8          -0.013456121    0.004042723    0.005393696
     22        1           0.011779132   -0.004779484    0.013347434
     23        8           0.013045435   -0.009668790    0.000199137
     24        1          -0.012972827    0.010787433   -0.010951480
     25        8           0.011768151   -0.002966393   -0.006853323
     26        1          -0.018161543    0.002710630    0.006865635
 -------------------------------------------------------------------
 Cartesian Forces:  Max     0.021340452 RMS     0.008429070

 GradGradGradGradGradGradGradGradGradGradGradGradGradGradGradGradGradGrad
 Berny optimization.
 FormGI is forming the generalized inverse of G from B-inverse, IUseBI=4.
 Internal  Forces:  Max     0.020892515 RMS     0.005979259
 Search for a local minimum.
 Step number   1 out of a maximum of  140
 All quantities printed in internal units (Hartrees-Bohrs-Radians)
 Mixed Optimization -- RFO/linear search
 Second derivative matrix not updated -- first step.
 ITU=  0
     Eigenvalues ---    0.00230   0.00230   0.00298   0.00323   0.00323
     Eigenvalues ---    0.00980   0.01126   0.01168   0.01234   0.01234
     Eigenvalues ---    0.01246   0.03559   0.03848   0.03976   0.04213
     Eigenvalues ---    0.04571   0.04738   0.04786   0.04838   0.05013
     Eigenvalues ---    0.05278   0.05570   0.05593   0.07422   0.07641
     Eigenvalues ---    0.07783   0.08057   0.11331   0.11524   0.13610
     Eigenvalues ---    0.13785   0.16000   0.16000   0.16000   0.16000
     Eigenvalues ---    0.16000   0.16000   0.16692   0.16877   0.16927
     Eigenvalues ---    0.17593   0.19391   0.19658   0.19698   0.19748
     Eigenvalues ---    0.22027   0.22046   0.28276   0.28360   0.28936
     Eigenvalues ---    0.29103   0.29104   0.34036   0.34067   0.34097
     Eigenvalues ---    0.34233   0.34265   0.34360   0.34439   0.34482
     Eigenvalues ---    0.37752   0.39213   0.39646   0.40331   0.40332
     Eigenvalues ---    0.40467   0.50363   0.51006   0.51172   0.51812
     Eigenvalues ---    0.52202   0.52537
 RFO step:  Lambda=-1.88940128D-02 EMin= 2.30000000D-03
 Linear search not attempted -- first point.
 Iteration  1 RMS(Cart)=  0.07461777 RMS(Int)=  0.00221393
 Iteration  2 RMS(Cart)=  0.00289810 RMS(Int)=  0.00059148
 Iteration  3 RMS(Cart)=  0.00000398 RMS(Int)=  0.00059147
 Iteration  4 RMS(Cart)=  0.00000000 RMS(Int)=  0.00059147
 Variable       Old X    -DE/DX   Delta X   Delta X   Delta X     New X
                                 (Linear)    (Quad)   (Total)
    R1        2.91358  -0.00683   0.00000  -0.02259  -0.02259   2.89099
    R2        2.91539  -0.00432   0.00000  -0.01431  -0.01431   2.90108
    R3        2.07269  -0.00409   0.00000  -0.01140  -0.01140   2.06130
    R4        2.74727  -0.01350   0.00000  -0.03406  -0.03406   2.71321
    R5        2.89787  -0.01234   0.00000  -0.03982  -0.03982   2.85805
    R6        2.07166   0.00051   0.00000   0.00141   0.00141   2.07307
    R7        2.72038  -0.01643   0.00000  -0.03955  -0.03955   2.68082
    R8        2.90137  -0.00800   0.00000  -0.02595  -0.02595   2.87542
    R9        2.06596  -0.00479   0.00000  -0.01319  -0.01319   2.05277
   R10        2.72637  -0.01248   0.00000  -0.03035  -0.03035   2.69602
   R11        2.89789  -0.01205   0.00000  -0.03889  -0.03889   2.85900
   R12        2.07217   0.00001   0.00000   0.00001   0.00001   2.07219
   R13        2.71107  -0.00874   0.00000  -0.02070  -0.02070   2.69037
   R14        2.06939  -0.00256   0.00000  -0.00710  -0.00710   2.06229
   R15        2.06525   0.00001   0.00000   0.00002   0.00002   2.06527
   R16        2.71105   0.00268   0.00000   0.00634   0.00634   2.71739
   R17        2.06886   0.00005   0.00000   0.00014   0.00014   2.06900
   R18        2.06727  -0.00231   0.00000  -0.00638  -0.00638   2.06089
   R19        2.70924  -0.00212   0.00000  -0.00501  -0.00501   2.70423
   R20        1.84406  -0.02089   0.00000  -0.03862  -0.03862   1.80544
   R21        1.84779  -0.01701   0.00000  -0.03167  -0.03167   1.81612
   R22        1.86201  -0.01691   0.00000  -0.03236  -0.03236   1.82965
   R23        1.85401  -0.01837   0.00000  -0.03463  -0.03463   1.81938
   R24        1.85564  -0.01992   0.00000  -0.03766  -0.03766   1.81798
   R25        1.84088  -0.01922   0.00000  -0.03531  -0.03531   1.80557
    A1        2.03942  -0.00181   0.00000  -0.00329  -0.00413   2.03529
    A2        1.91034   0.00027   0.00000  -0.01767  -0.01805   1.89228
    A3        1.86711  -0.00036   0.00000   0.01393   0.01349   1.88060
    A4        1.90306  -0.00162   0.00000  -0.02645  -0.02667   1.87639
    A5        1.91137   0.00466   0.00000   0.03990   0.03977   1.95114
    A6        1.81972  -0.00100   0.00000  -0.00552  -0.00506   1.81467
    A7        1.98395   0.00381   0.00000   0.00629   0.00631   1.99027
    A8        1.90838  -0.00206   0.00000  -0.00192  -0.00238   1.90600
    A9        1.87741   0.00319   0.00000   0.01533   0.01495   1.89236
   A10        1.92151  -0.00124   0.00000  -0.01726  -0.01691   1.90460
   A11        1.91543  -0.00830   0.00000  -0.05159  -0.05146   1.86397
   A12        1.85206   0.00477   0.00000   0.05329   0.05284   1.90490
   A13        1.99468   0.00267   0.00000   0.02258   0.02029   2.01496
   A14        1.93939  -0.00187   0.00000  -0.04099  -0.04127   1.89812
   A15        1.87732  -0.00088   0.00000   0.02497   0.02272   1.90004
   A16        1.91463  -0.00442   0.00000  -0.05400  -0.05394   1.86069
   A17        1.87920   0.00497   0.00000   0.05654   0.05518   1.93438
   A18        1.85168  -0.00032   0.00000  -0.00537  -0.00398   1.84771
   A19        1.95811  -0.00084   0.00000  -0.01477  -0.01475   1.94336
   A20        1.92788   0.00013   0.00000  -0.01264  -0.01245   1.91543
   A21        1.92850  -0.00632   0.00000  -0.04020  -0.03993   1.88857
   A22        1.89430  -0.00109   0.00000  -0.00122  -0.00199   1.89231
   A23        1.88373   0.00515   0.00000   0.02631   0.02561   1.90935
   A24        1.86842   0.00333   0.00000   0.04681   0.04640   1.91482
   A25        1.92270  -0.00547   0.00000  -0.04578  -0.04618   1.87652
   A26        1.94951  -0.00346   0.00000  -0.02848  -0.02887   1.92064
   A27        1.92548  -0.00255   0.00000  -0.00726  -0.00702   1.91846
   A28        1.90397   0.00190   0.00000   0.00488   0.00279   1.90677
   A29        1.87843   0.00516   0.00000   0.03803   0.03766   1.91608
   A30        1.88188   0.00500   0.00000   0.04304   0.04285   1.92473
   A31        1.93749  -0.00253   0.00000  -0.02933  -0.02907   1.90842
   A32        1.95104  -0.00147   0.00000  -0.02489  -0.02475   1.92629
   A33        1.88522  -0.01203   0.00000  -0.04734  -0.04713   1.83809
   A34        1.91596   0.00003   0.00000  -0.00088  -0.00301   1.91295
   A35        1.87300   0.00874   0.00000   0.05881   0.05779   1.93080
   A36        1.89881   0.00776   0.00000   0.04828   0.04720   1.94601
   A37        1.84878   0.01088   0.00000   0.06083   0.06083   1.90960
   A38        1.84205   0.00288   0.00000   0.01608   0.01608   1.85812
   A39        1.84322   0.00406   0.00000   0.02271   0.02271   1.86593
   A40        1.83223  -0.00256   0.00000  -0.01430  -0.01430   1.81793
   A41        1.81423   0.00510   0.00000   0.02849   0.02849   1.84273
   A42        1.85569   0.00701   0.00000   0.03920   0.03920   1.89489
    D1        1.07684  -0.00039   0.00000  -0.00497  -0.00480   1.07204
    D2       -1.07807   0.00008   0.00000   0.01450   0.01454  -1.06353
    D3       -3.08197  -0.00619   0.00000  -0.05539  -0.05535  -3.13732
    D4       -1.09626   0.00299   0.00000   0.04880   0.04883  -1.04743
    D5        3.03201   0.00345   0.00000   0.06827   0.06817   3.10018
    D6        1.02811  -0.00281   0.00000  -0.00162  -0.00172   1.02639
    D7       -3.05796   0.00420   0.00000   0.05655   0.05660  -3.00136
    D8        1.07031   0.00467   0.00000   0.07601   0.07594   1.14625
    D9       -0.93359  -0.00159   0.00000   0.00612   0.00605  -0.92754
   D10        0.99217  -0.00322   0.00000  -0.05258  -0.05261   0.93956
   D11       -1.18604   0.00218   0.00000   0.03606   0.03593  -1.15010
   D12        3.07748   0.00408   0.00000   0.05001   0.05012   3.12761
   D13       -3.11422  -0.00563   0.00000  -0.10176  -0.10157   3.06739
   D14        0.99075  -0.00023   0.00000  -0.01312  -0.01303   0.97772
   D15       -1.02891   0.00167   0.00000   0.00083   0.00116  -1.02775
   D16       -1.13324  -0.00521   0.00000  -0.10133  -0.10154  -1.23478
   D17        2.97173   0.00019   0.00000  -0.01270  -0.01300   2.95873
   D18        0.95207   0.00209   0.00000   0.00125   0.00119   0.95326
   D19       -1.42026   0.00142   0.00000   0.04345   0.04303  -1.37723
   D20        0.80559   0.00197   0.00000   0.07506   0.07539   0.88099
   D21        2.83996   0.00173   0.00000   0.05998   0.06005   2.90002
   D22        2.97141  -0.00080   0.00000  -0.01363  -0.01369   2.95771
   D23        0.85537   0.00107   0.00000   0.00691   0.00707   0.86244
   D24       -1.20879   0.00081   0.00000  -0.01797  -0.01775  -1.22654
   D25       -1.16404  -0.00169   0.00000  -0.02474  -0.02509  -1.18913
   D26        3.00311   0.00018   0.00000  -0.00419  -0.00432   2.99879
   D27        0.93895  -0.00008   0.00000  -0.02908  -0.02914   0.90981
   D28        0.86832  -0.00149   0.00000  -0.00040  -0.00049   0.86783
   D29       -1.24772   0.00038   0.00000   0.02014   0.02027  -1.22744
   D30        2.97131   0.00012   0.00000  -0.00474  -0.00455   2.96676
   D31        0.63610   0.00029   0.00000   0.02502   0.02551   0.66161
   D32        2.80261   0.00186   0.00000   0.01043   0.01094   2.81355
   D33       -1.40493  -0.00127   0.00000  -0.00695  -0.00795  -1.41288
   D34        2.92670   0.00473   0.00000   0.09093   0.09093   3.01763
   D35       -1.23757   0.00104   0.00000   0.04635   0.04707  -1.19050
   D36        0.85529   0.00335   0.00000   0.07703   0.07729   0.93257
   D37       -1.16520   0.00068   0.00000   0.00963   0.00972  -1.15548
   D38        0.95371  -0.00301   0.00000  -0.03496  -0.03414   0.91958
   D39        3.04657  -0.00070   0.00000  -0.00428  -0.00392   3.04265
   D40        0.84244   0.00071   0.00000   0.00602   0.00493   0.84738
   D41        2.96136  -0.00298   0.00000  -0.03857  -0.03892   2.92243
   D42       -1.22897  -0.00066   0.00000  -0.00789  -0.00871  -1.23767
   D43       -0.78755  -0.00209   0.00000  -0.01401  -0.01476  -0.80231
   D44        1.36993   0.00355   0.00000   0.06147   0.06205   1.43197
   D45       -2.86432   0.00070   0.00000   0.02390   0.02407  -2.84024
   D46        0.98461  -0.00281   0.00000  -0.02491  -0.02504   0.95957
   D47       -1.16119   0.00004   0.00000   0.01533   0.01519  -1.14600
   D48        3.03358  -0.00088   0.00000   0.00128   0.00113   3.03471
   D49        3.11982  -0.00394   0.00000  -0.05140  -0.05137   3.06845
   D50        0.97403  -0.00109   0.00000  -0.01115  -0.01115   0.96288
   D51       -1.11439  -0.00202   0.00000  -0.02520  -0.02520  -1.13959
   D52       -1.14411   0.00213   0.00000   0.01690   0.01705  -1.12707
   D53        2.99327   0.00498   0.00000   0.05715   0.05727   3.05055
   D54        0.90486   0.00406   0.00000   0.04310   0.04322   0.94808
   D55       -2.89032   0.00042   0.00000   0.01689   0.01671  -2.87361
   D56       -0.74343  -0.00121   0.00000  -0.00942  -0.01012  -0.75354
   D57        1.29272   0.00185   0.00000   0.02662   0.02749   1.32021
   D58        2.93304  -0.00056   0.00000  -0.00113  -0.00124   2.93179
   D59        0.83478   0.00441   0.00000   0.03542   0.03628   0.87107
   D60       -1.21695  -0.00318   0.00000  -0.01306  -0.01381  -1.23076
   D61        3.05372   0.00051   0.00000   0.01237   0.01247   3.06619
   D62       -1.13934  -0.00421   0.00000  -0.01565  -0.01752  -1.15686
   D63        0.93264   0.00492   0.00000   0.04233   0.04410   0.97674
         Item               Value     Threshold  Converged?
 Maximum Force            0.020893     0.000450     NO 
 RMS     Force            0.005979     0.000300     NO 
 Maximum Displacement     0.261489     0.001800     NO 
 RMS     Displacement     0.074524     0.001200     NO 
 Predicted change in Energy=-1.104364D-02
 GradGradGradGradGradGradGradGradGradGradGradGradGradGradGradGradGradGrad

                          Input orientation:                          
 ---------------------------------------------------------------------
 Center     Atomic      Atomic             Coordinates (Angstroms)
 Number     Number       Type             X           Y           Z
 ---------------------------------------------------------------------
      1          6           0        0.014151    0.016792   -0.022351
      2          6           0        1.543885    0.011639   -0.004422
      3          6           0       -0.685522    0.666323    1.179880
      4          6           0        2.143725   -0.748565    1.157338
      5          1           0        1.908031    1.046247    0.016646
      6          1           0       -0.333271   -1.015230   -0.086035
      7          6           0       -0.252402    2.089930    1.497737
      8          1           0       -0.478783    0.073595    2.066411
      9          6           0        3.634818   -0.935330    0.982177
     10          1           0        1.677114   -1.737991    1.233115
     11          1           0       -0.911866    2.466669    2.281409
     12          1           0        0.778444    2.095636    1.860700
     13          1           0        4.107150    0.040612    0.829935
     14          1           0        3.838752   -1.578215    0.125170
     15          8           0       -0.372080    2.912047    0.324031
     16          1           0       -0.281363    3.830936    0.569377
     17          8           0       -2.097099    0.597047    0.984832
     18          1           0       -2.260728    0.872983    0.078904
     19          8           0       -0.407078    0.601644   -1.264100
     20          1           0       -0.321125    1.561128   -1.166974
     21          8           0        2.004030   -0.619460   -1.188690
     22          1           0        1.388576   -0.323852   -1.867485
     23          8           0        1.896549   -0.008622    2.348245
     24          1           0        2.487544   -0.379784    3.010418
     25          8           0        4.087296   -1.529439    2.202878
     26          1           0        5.017349   -1.730739    2.116853
 ---------------------------------------------------------------------
                    Distance matrix (angstroms):
                    1          2          3          4          5
     1  C    0.000000
     2  C    1.529847   0.000000
     3  C    1.535185   2.607957   0.000000
     4  C    2.551964   1.512416   3.163394   0.000000
     5  H    2.155941   1.097024   2.867747   2.139644   0.000000
     6  H    1.090792   2.141223   2.134068   2.784349   3.046911
     7  C    2.584496   3.130882   1.521605   3.730194   2.819641
     8  H    2.146890   2.895405   1.086281   2.894807   3.293094
     9  C    3.876189   2.498425   4.611911   1.512918   2.800123
    10  H    2.724133   2.147196   3.371292   1.096555   3.047146
    11  H    3.488082   4.157272   2.122697   4.575796   3.885688
    12  H    2.907167   2.899590   2.156305   3.232366   2.403689
    13  H    4.180861   2.695797   4.845997   2.141269   2.551248
    14  H    4.146490   2.794789   5.159402   2.151001   3.259948
    15  O    2.941370   3.491585   2.423633   4.519264   2.962195
    16  H    3.871068   4.271745   3.248204   5.215225   3.585171
    17  O    2.410081   3.818126   1.426671   4.452530   4.144904
    18  H    2.432774   3.901786   1.932907   4.815771   4.172823
    19  O    1.435767   2.396070   2.460641   3.767363   2.682856
    20  H    1.951294   2.688997   2.537949   4.100316   2.575888
    21  O    2.392651   1.418630   3.807500   2.353727   2.058308
    22  H    2.325855   1.899390   3.816905   3.146457   2.386830
    23  O    3.027175   2.379038   2.913369   1.423682   2.559147
    24  H    3.933527   3.183232   3.809667   1.920447   3.366314
    25  O    4.892134   3.703516   5.352354   2.341022   4.020318
    26  H    5.715071   4.427261   6.256722   3.184815   4.668016
                    6          7          8          9         10
     6  H    0.000000
     7  C    3.486674   0.000000
     8  H    2.416555   2.107189   0.000000
     9  C    4.110133   4.952623   4.372094   0.000000
    10  H    2.510814   4.294885   2.936685   2.130690   0.000000
    11  H    4.250081   1.091315   2.441432   5.825285   5.047862
    12  H    3.834473   1.092894   2.389893   4.256458   3.987251
    13  H    4.655228   4.863266   4.749815   1.094869   3.038266
    14  H    4.215132   5.663636   5.013781   1.090574   2.434286
    15  O    3.948818   1.437979   3.332279   5.593808   5.162217
    16  H    4.890561   1.973269   4.049407   6.182569   5.940465
    17  O    2.618642   2.427896   2.015630   5.933217   4.445080
    18  H    2.703266   2.743614   2.786492   6.232444   4.863742
    19  O    2.001891   3.141125   3.372875   4.872882   4.006723
    20  H    2.793957   2.717543   3.562638   5.147877   4.542859
    21  O    2.614471   4.432738   4.152152   2.733479   2.687587
    22  H    2.572222   4.454646   4.372703   3.679686   3.420053
    23  O    3.451242   3.121742   2.393405   2.397187   2.069392
    24  H    4.236604   3.986853   3.145758   2.395544   2.379146
    25  O    5.004492   5.694737   4.841220   1.431017   2.606321
    26  H    5.830420   6.538432   5.784948   1.957436   3.455172
                   11         12         13         14         15
    11  H    0.000000
    12  H    1.780958   0.000000
    13  H    5.760474   4.045478   0.000000
    14  H    6.601427   5.086722   1.785870   0.000000
    15  O    2.078716   2.086045   5.344584   6.158986   0.000000
    16  H    2.278115   2.408728   5.804610   6.814072   0.955396
    17  O    2.565419   3.358818   6.231077   6.380056   2.961684
    18  H    3.034846   3.729108   6.465815   6.573749   2.790136
    19  O    4.037793   3.660854   5.007793   4.970808   2.803809
    20  H    3.613907   3.265205   5.090112   5.369329   2.012628
    21  O    5.483451   4.262932   2.988922   2.451866   4.517274
    22  H    5.503850   4.486151   3.847020   3.398157   4.286454
    23  O    3.744160   2.432234   2.682247   3.343327   4.215972
    24  H    4.493299   3.220338   2.748521   3.403918   5.121550
    25  O    6.400521   4.920036   2.085767   2.093089   6.568325
    26  H    7.266423   5.716212   2.371140   2.319300   7.335912
                   16         17         18         19         20
    16  H    0.000000
    17  O    3.731961   0.000000
    18  H    3.592761   0.961052   0.000000
    19  O    3.715612   2.813164   2.305061   0.000000
    20  H    2.858063   2.951915   2.405787   0.968210   0.000000
    21  O    5.302815   4.798265   4.692797   2.703742   3.187755
    22  H    5.097966   4.597140   4.305608   2.108314   2.639497
    23  O    4.759188   4.263209   4.817684   4.327604   4.442854
    24  H    5.599615   5.106481   5.719203   5.254859   5.395032
    25  O    7.105429   6.652241   7.111983   6.063072   6.351510
    26  H    7.836023   7.570695   7.993936   6.804062   7.079492
                   21         22         23         24         25
    21  O    0.000000
    22  H    0.962773   0.000000
    23  O    3.590903   4.257909   0.000000
    24  H    4.233644   5.000481   0.962034   0.000000
    25  O    4.082988   5.030346   2.670840   2.129093   0.000000
    26  H    4.608866   5.569765   3.571921   3.003906   0.955469
                   26
    26  H    0.000000
 Stoichiometry    C6H14O6
 Framework group  C1[X(C6H14O6)]
 Deg. of freedom    72
 Full point group                 C1      NOp   1
 Largest Abelian subgroup         C1      NOp   1
 Largest concise Abelian subgroup C1      NOp   1
                         Standard orientation:                         
 ---------------------------------------------------------------------
 Center     Atomic      Atomic             Coordinates (Angstroms)
 Number     Number       Type             X           Y           Z
 ---------------------------------------------------------------------
      1          6           0       -0.818385    0.709838   -0.570347
      2          6           0        0.483247    0.760780    0.231896
      3          6           0       -1.508726   -0.657382   -0.674912
      4          6           0        1.587250   -0.107157   -0.329589
      5          1           0        0.281005    0.460017    1.267318
      6          1           0       -0.611252    1.051375   -1.585372
      7          6           0       -1.790401   -1.350655    0.649970
      8          1           0       -0.872586   -1.327014   -1.246686
      9          6           0        2.910290    0.178944    0.346155
     10          1           0        1.698384    0.083509   -1.403707
     11          1           0       -2.389460   -2.237364    0.435857
     12          1           0       -0.852054   -1.654777    1.120536
     13          1           0        2.796374    0.065574    1.429164
     14          1           0        3.242145    1.192262    0.117219
     15          8           0       -2.520735   -0.468112    1.519173
     16          1           0       -2.854971   -0.962277    2.265409
     17          8           0       -2.706459   -0.512334   -1.436351
     18          1           0       -3.152142    0.268514   -1.096848
     19          8           0       -1.698874    1.712357   -0.040137
     20          1           0       -2.085125    1.348210    0.769578
     21          8           0        0.964902    2.095094    0.220686
     22          1           0        0.169311    2.633244    0.286722
     23          8           0        1.233086   -1.469737   -0.117897
     24          1           0        2.042425   -1.971395   -0.255082
     25          8           0        3.817906   -0.799416   -0.170427
     26          1           0        4.689678   -0.618895    0.176484
 ---------------------------------------------------------------------
 Rotational constants (GHZ):           1.4682545           0.5425628           0.4765136
 Standard basis: def2TZVPP (5D, 7F)
 There are   642 symmetry adapted cartesian basis functions of A   symmetry.
 There are   568 symmetry adapted basis functions of A   symmetry.
   568 basis functions,   850 primitive gaussians,   642 cartesian basis functions
    49 alpha electrons       49 beta electrons
       nuclear repulsion energy       835.8023922648 Hartrees.
 NAtoms=   26 NActive=   26 NUniq=   26 SFac= 1.00D+00 NAtFMM=   60 NAOKFM=F Big=F
 Integral buffers will be    131072 words long.
 Raffenetti 2 integral format.
 Two-electron integral symmetry is turned on.
 Nuclear repulsion after empirical dispersion term =      835.7836315556 Hartrees.
 One-electron integrals computed using PRISM.
   1 Symmetry operations used in ECPInt.
 ECPInt:  NShTT=   23436 NPrTT=   62434 LenC2=   21877 LenP2D=   45494.
 LDataN:  DoStor=T MaxTD1= 6 Len=  172
[...]
 8053,0.00408232,-0.00121364,0.00889471,0.00472457,-0.00070752,-0.00281
 729,0.11567357,0.01820731,-0.11764990,0.05785819,0.00628311,-0.0033442
 9,0.00542687,-0.00174794,0.00724178,-0.00469287,0.00181080,0.00049559,
 -0.00181517,0.00186424,0.00208305,-0.00058262,0.01525761,-0.01779032,0
 .03996335,-0.00140167,-0.00392542,0.00559675,0.00130237,0.00013822,-0.
 00202683,-0.00052271,0.00023858,0.00058513,-0.00021248,0.00090627,-0.0
 0041796,0.00019225,0.00136822,-0.00044638,-0.00003290,0.00016059,-0.00
 081798,0.00019162,0.00007067,0.00001972,-0.00013343,0.00002271,0.00000
 786,-0.00173446,-0.00969798,-0.01000877,0.00071263,0.00073578,-0.00316
 409,-0.00060193,0.00317724,-0.00054975,-0.00157199,-0.00252918,0.00042
 140,0.01883341,0.62339950,-0.04272743,0.01986573,-0.17573148,-0.011035
 66,0.01054451,-0.02433285,-0.01302363,0.02115904,-0.04766191,-0.003469
 48,-0.00147222,0.00295967,0.00056401,-0.00084585,0.00058734,-0.0032905
 5,0.00848057,-0.00757763,0.00072869,0.00430617,0.00022931,0.00523065,-
 0.00488722,-0.00523497,0.00099452,0.00048104,-0.00165215,0.00026529,-0
 .00003698,0.00009713,0.00021630,-0.00054572,0.00045537,0.00003545,-0.0
 0012003,0.00013498,-0.00011257,-0.00010803,-0.00008892,-0.00023387,0.0
 0025204,0.00012677,-0.00141108,-0.01010818,0.00162976,0.00035081,0.000
 02099,-0.00121875,-0.00175622,0.00006477,0.00093604,-0.00064827,-0.000
 04393,-0.00105787,0.08536970,-0.01931328,0.29893581,0.00065862,0.01442
 833,-0.00038229,0.00102396,0.00341653,0.00014903,0.00243105,-0.0012616
 3,0.00053662,-0.00043691,-0.00029446,-0.00084265,-0.00074227,-0.000826
 74,-0.00049612,0.00013779,-0.00004214,-0.00087997,0.00034228,0.0002676
 1,-0.00043560,-0.00009255,0.00003787,-0.00020588,-0.00023111,0.0000735
 3,-0.00013260,0.00002021,-0.00027684,0.00022124,-0.00009254,-0.0002156
 9,0.00021163,-0.00013549,-0.00005074,-0.00037645,-0.00005093,-0.000032
 48,0.00000145,-0.00003471,0.00001231,-0.00000196,-0.00227237,0.0000934
 2,0.00136099,-0.00069520,-0.00026503,-0.00068957,-0.00127893,0.0010026
 5,-0.00058497,-0.00206683,-0.00203117,0.00154646,-0.02188776,-0.059328
 41,-0.01636775,0.02612723,-0.00123142,-0.02149860,0.00458224,0.0007998
 5,0.00192559,-0.00085408,-0.00044317,0.00359603,-0.00008217,-0.0008865
 9,0.00014646,0.00118001,0.00006903,-0.00035986,0.00003443,0.00105483,0
 .00151390,0.00171523,-0.00014954,0.00667207,-0.00360398,0.00049639,-0.
 00072819,-0.00095904,0.00040018,0.00012007,-0.00017572,-0.00004077,-0.
 00005218,-0.00007223,0.00006112,-0.00104896,0.00122133,0.00008665,-0.0
 0055996,0.00100669,-0.00003699,-0.00004163,-0.00000763,0.00006596,-0.0
 0004513,0.00000278,0.00051971,-0.00632006,0.00224811,-0.00028891,-0.00
 130819,0.00158662,-0.00027558,-0.00129961,-0.00158178,-0.00163186,0.00
 085967,0.00164415,-0.04345429,-0.48453852,-0.02820500,0.04426888,0.504
 53460,0.00351770,0.04349907,-0.00046256,-0.00010066,0.00103997,0.00069
 364,0.00120396,0.00201233,-0.00004339,-0.00038814,0.00014831,0.0004221
 3,-0.00084261,-0.00047440,0.00011290,-0.00267278,0.00316832,-0.0061170
 7,0.00011388,0.00123410,-0.00618574,-0.00048053,-0.00051721,0.00038327
 ,0.00000774,-0.00006915,-0.00003297,0.00003127,-0.00026802,0.00007999,
 -0.00012239,-0.00025279,0.00061986,0.00013327,-0.00012459,0.00049245,-
 0.00004887,0.00000531,0.00001444,0.00004965,-0.00004107,-0.00001268,0.
 00082519,0.00220584,-0.00188074,-0.00057208,-0.00016165,0.00335216,0.0
 0004711,-0.00122199,-0.00050762,0.00114033,0.00110181,0.00026889,-0.01
 955241,-0.07222726,-0.04902665,0.01697707,0.02269878,0.05902757,-0.023
 13454,0.02321315,0.04030391,-0.09980692,0.02928223,0.01211812,-0.00456
 101,-0.00167202,-0.00620944,0.00685875,-0.00781194,-0.00869474,0.00690
 749,0.00205133,-0.00309911,0.00364362,0.00064801,0.00032512,-0.0008763
 3,-0.00079493,0.00035586,-0.00009726,-0.00020089,0.00018297,-0.0020280
 5,0.00044746,0.00047726,-0.00004938,0.00051440,-0.00036529,0.00000277,
 0.00047024,0.00007649,0.00013502,0.00025715,0.00004231,0.00005625,0.00
 019778,0.00016154,-0.00053499,-0.00065654,-0.00242082,0.00051760,0.000
 98505,-0.00007137,-0.00014940,-0.00004871,0.00020370,-0.00448382,0.001
 73852,0.00263511,0.00102175,-0.00051652,0.00022937,-0.00306188,0.00437
 399,0.00527119,-0.00160916,-0.00107470,0.00080274,0.35629377,0.0057316
 9,-0.00253310,-0.00458760,0.03598812,-0.10542659,-0.04347730,-0.000165
 34,0.00151119,0.00094821,-0.00599045,0.00850403,0.00846301,0.01407449,
 -0.01072942,-0.03767615,0.00171219,0.00165188,0.00065332,-0.00098965,-
 0.00006692,0.00006492,0.00018529,-0.00005340,-0.00031066,0.00124456,-0
 .00078396,-0.00115654,-0.00026878,0.00205612,-0.00118065,0.00039949,0.
 00006975,0.00007977,0.00040494,0.00012553,0.00052801,0.00020865,0.0003
 3727,0.00017041,0.00012451,0.00032659,0.00153955,0.00073195,-0.0001402
 6,-0.00023099,-0.00020386,0.00021543,-0.00002004,0.00115815,0.00014642
 ,-0.00046310,-0.00036506,-0.00003228,-0.00010033,0.00403224,0.00159099
 ,-0.00316974,-0.00082975,0.00009526,-0.00004078,-0.16635850,0.16459015
 ,0.01334012,-0.00898155,-0.02453289,0.05336801,-0.06341136,-0.19320435
 ,0.00005422,0.00097258,0.00433488,0.01356694,-0.01971532,-0.03612873,0
 .00515456,-0.01632958,-0.01676833,-0.00095473,0.00092242,0.00060352,-0
 .00062971,0.00094557,-0.00120239,-0.00049548,0.00020946,0.00042858,-0.
 00065920,0.00001586,0.00021389,0.00085144,0.00053208,0.00159448,0.0003
 7784,-0.00031339,0.00015358,0.00016423,0.00038096,0.00051090,-0.000275
 42,-0.00059648,-0.00010679,-0.00136931,0.00033172,-0.00211318,0.000665
 58,-0.00054985,0.00114387,-0.00012101,0.00025813,-0.00002305,0.0037152
 1,-0.00102013,-0.00036016,0.00008594,0.00014871,-0.00096028,-0.0076039
 9,0.00328746,0.00650965,-0.00017225,-0.00120000,-0.00099474,0.16246139
 ,-0.00680953,0.53864974,-0.00011773,-0.00102541,0.00877355,0.01069072,
 -0.00520025,0.01039742,0.00005481,0.00063432,-0.00079200,-0.00246104,0
 .00168205,0.00214066,-0.00027751,0.00101133,0.00037462,-0.00025150,-0.
 00007236,-0.00011261,0.00043366,-0.00001256,0.00043946,0.00034246,-0.0
 0016557,-0.00041873,-0.00036509,0.00073308,-0.00005645,0.00001849,-0.0
 0017152,-0.00009923,-0.00006127,-0.00006776,-0.00009026,-0.00011866,-0
 .00012089,-0.00015924,0.00003458,-0.00003500,0.00007555,-0.00000759,-0
 .00017332,-0.00028581,-0.00045973,-0.00077006,-0.00053833,0.00012724,-
 0.00002733,-0.00026732,-0.00039841,-0.00011034,-0.00071307,-0.00077158
 ,0.00012609,0.00074753,0.00012975,-0.00240181,-0.00329579,0.00092549,0
 .00204698,-0.00025712,-0.23562068,0.10783267,-0.23759631,0.22756621,0.
 00111581,0.00347228,-0.00373344,-0.01073286,0.00443290,-0.01457552,-0.
 00006519,-0.00048676,0.00094651,0.00117827,-0.00097714,0.00002007,-0.0
 0005735,-0.00096764,-0.00182355,-0.00043563,-0.00063077,0.00058888,0.0
 0007805,0.00025086,-0.00061164,-0.00016871,0.00010026,0.00021805,0.000
 32039,-0.00029609,-0.00001533,-0.00009105,-0.00001357,-0.00017768,-0.0
 0001243,-0.00009045,0.00007363,0.00001547,0.00002002,0.00005266,0.0000
 3697,0.00008498,0.00010983,-0.00016729,0.00017056,0.00020011,-0.000143
 06,0.00002935,0.00056173,0.00005192,-0.00003940,0.00000872,0.00037388,
 -0.00028313,0.00018737,0.00038675,0.00009793,-0.00040256,-0.00389220,-
 0.00255517,0.00338746,0.00186641,-0.00138576,-0.00134396,0.11360914,-0
 .06267722,0.10644794,-0.10340564,0.06149280,0.00025969,0.00119763,-0.0
 0141054,-0.02192564,0.00981833,-0.03803410,-0.00029950,0.00016103,-0.0
 0148870,0.00259076,-0.00473198,-0.00352764,-0.00030840,0.00018323,0.00
 027860,0.00053147,0.00012108,-0.00009852,-0.00011217,-0.00017158,0.000
 18386,0.00002139,-0.00007574,-0.00000608,0.00019692,-0.00028491,0.0000
 3550,0.00007872,0.00015863,0.00017815,-0.00004492,0.00012880,0.0000186
 0,-0.00001171,0.00001827,-0.00006544,-0.00009513,-0.00000692,-0.000031
 76,-0.00021461,0.00019128,-0.00001071,-0.00006209,0.00036468,-0.000046
 62,0.00001356,-0.00006391,0.00009542,-0.00113986,0.00030728,0.00057145
 ,0.00034002,-0.00013221,0.00009095,-0.00276074,0.00120794,0.00041955,0
 .00004288,-0.00035523,0.00028990,-0.19601513,0.08058854,-0.26682980,0.
 21937810,-0.08933889,0.31069345,-0.00041809,-0.00057002,0.00215294,0.0
 0586144,-0.01076237,-0.01139004,-0.00231118,-0.00086497,0.00257162,-0.
 08558486,0.01850017,-0.00749089,0.00009873,0.00015843,0.00013454,0.000
 10801,0.00001248,0.00000031,-0.00015344,0.00008898,0.00034315,-0.00183
 541,0.00147443,-0.00278179,-0.00999375,0.02517831,0.03719017,0.0073795
 2,-0.00281592,-0.01040749,-0.00026755,0.00004291,-0.00009775,-0.001269
 69,0.00048765,-0.00066067,0.00393823,-0.00000036,-0.00048933,-0.008513
 36,0.00216124,0.00019208,-0.00004314,0.00106058,-0.00098643,-0.0000901
 4,-0.00009725,-0.00004305,-0.00119590,0.00059142,-0.00192499,-0.000381
 25,0.00021643,0.00023296,0.00091463,0.00004341,-0.00058837,-0.00016167
 ,0.00001667,0.00023372,-0.00059045,0.00177191,-0.00546449,0.00058790,-
 0.00003304,-0.00093247,0.30646411,0.00051763,0.00011409,-0.00044153,-0
 .00390013,0.00945435,0.00934973,0.00048306,-0.00036279,-0.00039752,0.0
 2998907,-0.12420044,-0.04851742,-0.00021927,0.00263703,-0.00049214,0.0
 0057779,0.00018247,0.00033688,-0.00167181,-0.00060159,-0.00141586,0.00
 034404,-0.00045418,0.00031357,0.00750787,-0.00694887,-0.01410284,0.007
 53816,-0.01596901,-0.03865201,0.00045427,0.00011478,0.00017031,0.00173
 406,-0.00041841,0.00075113,0.00157452,0.00166712,0.00056641,0.00233871
 ,0.00145029,0.00047024,0.00085756,-0.00043278,0.00156886,-0.00015221,0
 .00024932,-0.00008690,0.00044630,0.00057921,0.00068117,0.00012131,-0.0
 0018447,-0.00012811,-0.00082104,0.00069737,-0.00019842,0.00008961,-0.0
 0044190,-0.00036438,0.00153080,0.00028945,0.00543342,-0.00035747,0.000
 12765,0.00100108,-0.18843969,0.24319079,0.00143816,-0.00145561,0.00094
 408,0.00879785,-0.02261421,-0.03362929,-0.00139688,-0.00006332,-0.0011
 2969,0.03061851,-0.07617424,-0.18929848,0.00113991,-0.00066619,0.00185
 819,0.00000617,0.00021908,-0.00008439,-0.00072438,0.00102005,0.0000255
 4,-0.00140750,0.00015608,-0.00097523,0.00915237,-0.01503792,-0.0284809
 5,-0.00012368,-0.01537679,-0.01327035,-0.00050829,0.00033942,-0.000063
 72,-0.00032520,0.00025563,-0.00100347,-0.00102158,0.00108326,0.0008821
 6,0.00430709,-0.00103979,0.00114542,-0.00001143,-0.00004683,0.00096455
 ,0.00004056,-0.00002026,-0.00004938,-0.00058109,0.00068626,0.00073738,
 0.00030070,-0.00022822,-0.00017617,-0.00153700,0.00123254,0.00043163,0
 .00034806,-0.00053902,-0.00035915,-0.00609757,0.00462974,-0.00901376,0
 .00208891,-0.00084429,-0.00140246,0.18201203,-0.02192590,0.51516678,-0
 .00011791,0.00005657,0.00000657,-0.00112069,0.00077205,0.00189505,-0.0
 0043218,-0.00005922,0.00016504,0.00623399,-0.00392795,0.00444569,-0.00
 005726,0.00005999,-0.00002106,-0.00003705,-0.00000672,-0.00006434,0.00
 012349,-0.00000259,-0.00007265,-0.00021702,0.00029110,-0.00048123,0.00
 177559,-0.00033056,0.00674600,-0.00021188,0.00080514,0.00020136,-0.000
 01791,0.00001969,-0.00000581,-0.00013462,0.00014555,-0.00004799,-0.000
 37344,0.00015412,-0.00025917,-0.00018093,0.00024060,-0.00093662,0.0000
 1331,-0.00016325,0.00015362,0.00002472,0.00003578,-0.00002009,0.000043
 10,0.00003028,-0.00009804,-0.00007462,0.00002533,-0.00000751,0.0000524
 2,-0.00009377,0.00018439,-0.00001448,0.00004339,-0.00003024,0.00028469
 ,-0.00001707,0.00156012,-0.00008524,0.00013914,0.00025574,-0.21120410,
 0.13761998,-0.22139757,0.20479963,0.00009009,-0.00017297,0.00009505,0.
 00096212,-0.00243013,-0.00059595,-0.00029473,0.00001217,-0.00014084,-0
 .01354276,0.00805915,-0.01860220,0.00005423,0.00026007,-0.00002620,-0.
 00004156,0.00002768,-0.00002489,-0.00002139,-0.00024608,-0.00015904,0.
 00000043,0.00002086,-0.00002931,0.00072724,0.00211856,-0.00322326,-0.0
 0054744,-0.00087157,-0.00149270,0.00017252,-0.00002653,0.00004278,0.00
 018284,0.00028814,0.00024455,-0.00021260,-0.00049432,0.00071592,0.0002
 7471,-0.00060393,0.00047388,0.00003811,-0.00010139,0.00008374,0.000035
 07,0.00001372,0.00002870,-0.00008378,0.00000097,-0.00002058,0.00000420
 ,0.00000436,-0.00000684,-0.00004922,0.00000641,0.00001357,0.00001280,0
 .00000488,-0.00000248,-0.00003800,0.00047827,-0.00112715,0.00021939,0.
 00011413,-0.00015643,0.14810181,-0.11128899,0.14326503,-0.13346086,0.1
 0586487,-0.00014786,0.00000078,-0.00006823,0.00215122,-0.00516112,-0.0
 0351387,-0.00006045,0.00003160,-0.00018321,-0.02299919,0.01406640,-0.0
 3518878,0.00024284,-0.00012074,0.00030876,-0.00002649,0.00002588,-0.00
 002818,-0.00006697,0.00003748,-0.00005335,-0.00032733,-0.00007319,0.00
 022810,-0.00014129,0.00136016,-0.00166138,-0.00039791,0.00011123,0.000
 67265,0.00014944,-0.00006617,0.00000741,-0.00003584,0.00028298,0.00005
 569,0.00034872,-0.00007105,-0.00018483,-0.00111086,0.00055414,-0.00008
 980,0.00013067,-0.00019889,0.00009897,-0.00003158,0.00004458,0.0000181
 3,0.00034213,-0.00009337,0.00021400,0.00001437,-0.00000261,-0.00000418
 ,0.00016956,-0.00007304,0.00021708,-0.00003046,0.00005084,-0.00002382,
 -0.00102271,0.00080910,-0.00158401,0.00033024,-0.00011425,-0.00046728,
 -0.18684525,0.10829985,-0.24891948,0.21136769,-0.12102596,0.28904078,0
 .00204767,0.00118199,-0.00134878,-0.00857570,-0.00019281,0.00509529,0.
 00057350,-0.00032742,-0.00019328,-0.02431832,0.02807912,-0.03998040,-0
 .00024616,0.00025789,-0.00020495,-0.00004931,-0.00010022,0.00002509,0.
 00007103,-0.00023104,0.00009879,0.00009820,0.00005728,-0.00009391,-0.1
 0453424,0.02805988,-0.05132799,0.00305986,-0.00055485,-0.00024551,-0.0
 0012034,0.00011078,0.00001615,-0.00002114,-0.00018649,-0.00009488,0.00
 744306,0.00052730,0.00777665,0.00304518,-0.00216164,-0.00235293,-0.000
 15404,0.00047506,-0.00006627,0.00001863,-0.00011120,0.00004306,-0.0007
 2992,0.00021755,0.00013965,0.00023777,-0.00007483,-0.00006542,-0.00207
 810,0.00078114,-0.00125192,0.00015735,-0.00043973,-0.00001353,0.000579
 73,-0.00027205,-0.00024747,0.00008347,0.00004170,0.00028125,-0.0023235
 2,0.00233306,-0.00418072,0.00125086,-0.00210053,-0.00188739,0.67446151
 ,-0.00077431,0.00010945,0.00021999,0.00139644,0.00047785,-0.00145396,-
 0.00035587,0.00005259,0.00007766,0.00915305,-0.00555207,0.00647073,-0.
 00028654,0.00062861,-0.00019398,0.00019530,0.00003603,0.00001828,-0.00
 020314,0.00012615,-0.00009549,-0.00008332,-0.00004617,0.00005723,0.005
 42008,-0.09806596,0.06494117,0.00082617,0.00094583,-0.00073621,0.00008
 216,-0.00004836,-0.00000555,0.00001567,0.00009629,0.00006957,0.0154145
 1,-0.01335499,0.03547468,-0.00354538,0.01288988,-0.00504622,0.00021962
 ,-0.00018325,0.00006437,-0.00009720,0.00008197,-0.00001813,0.00049959,
 -0.00001845,-0.00001353,-0.00012905,0.00000790,0.00000675,0.00066438,-
 0.00024095,0.00041448,-0.00013921,0.00012274,-0.00002479,-0.00000988,0
 .00057742,0.00028774,-0.00019485,-0.00001448,-0.00014317,0.00331038,0.
 00079348,0.00238075,-0.00180974,-0.00145173,0.00095161,-0.05824456,0.1
 1153300,0.00079788,0.00006174,-0.00026671,0.00088319,-0.00128959,0.000
 17461,0.00019766,-0.00013488,-0.00051698,-0.00578654,0.00358801,-0.008
 30778,0.00002549,0.00002314,-0.00002074,-0.00005768,0.00001219,-0.0000
 0605,-0.00005537,0.00001201,-0.00015759,-0.00005870,-0.00005319,0.0000
 4545,-0.01323797,0.06313427,-0.19024841,-0.00013034,-0.00058064,0.0005
 9161,-0.00008319,0.00009418,0.00004546,0.00005136,-0.00000903,-0.00010
 322,-0.00735724,0.01385691,-0.01561260,-0.01664418,0.02240051,-0.03324
 906,-0.00013600,0.00015575,0.00029716,0.00005722,-0.00006444,-0.000004
 99,-0.00044988,0.00018569,0.00036559,0.00023357,-0.00009617,-0.0000918
 8,-0.00112669,0.00050088,0.00004855,0.00021428,-0.00032559,-0.00011101
 ,-0.00192785,0.00086651,-0.00047369,-0.00002702,0.00016980,0.00056796,
 0.00303066,-0.00081586,0.00476236,-0.00232481,-0.00007750,0.00003227,0
 .04618863,-0.11768245,0.27726655,0.00006401,0.00016662,-0.00014130,-0.
 00064379,0.00009229,0.00061643,-0.00006254,0.00001172,0.00001146,-0.00
 062069,0.00204905,-0.00242775,-0.00005090,0.00006981,-0.00007242,-0.00
 000416,-0.00001672,0.,-0.00002665,0.00003557,-0.00003196,-0.00003067,-
 0.00000100,0.00000927,-0.01141845,-0.00253991,0.00530720,0.00059181,0.
 00004350,0.00002360,0.00001578,-0.00001034,-0.00000093,0.00000033,0.00
 002380,0.00001004,0.00149257,-0.00037269,0.00153105,0.00053476,-0.0008
 3172,0.00072777,0.00003526,-0.00006010,0.00002638,-0.00001249,0.000019
 99,-0.00000501,0.00009746,-0.00002549,0.00000428,-0.00002385,0.0000093
 3,-0.00000370,0.00003692,-0.00007041,0.00000160,-0.00002110,0.00002391
 ,-0.00000229,0.00030245,-0.00014036,0.00022377,0.00000126,-0.00000945,
 -0.00006811,0.00098492,-0.00049620,-0.00093742,-0.00032248,-0.00048270
 ,-0.00011528,-0.54997703,0.02867569,-0.00227649,0.55905727,-0.00006291
 ,-0.00019315,0.00024591,0.00117080,0.00055832,-0.00028989,0.00003170,0
 .00004857,0.00002102,0.00143989,-0.00255470,0.00277923,-0.00002776,-0.
 00007838,-0.00010849,-0.00002437,0.00000422,-0.00000932,0.00006601,-0.
 00001267,0.00002146,0.00002069,-0.00000538,0.00000177,0.02112056,-0.00
 280528,0.00105188,0.00002197,0.00013600,0.00005854,-0.00000409,-0.0000
 0429,-0.00000100,-0.00000500,0.00000183,-0.00000238,0.00069188,0.00005
 016,-0.00050150,-0.00089873,0.00061251,-0.00022496,-0.00005986,-0.0000
 1190,-0.00002663,0.00003649,-0.00001084,0.00000335,-0.00005573,-0.0000
 3639,-0.00003171,0.00000592,0.00001258,0.00001303,0.00010879,-0.000061
 24,0.00006425,0.00002433,0.00003730,0.00002069,-0.00013665,-0.00012260
 ,-0.00011971,0.00002622,0.00002385,0.00001315,0.00036640,-0.00024397,0
 .00076474,-0.00056700,0.00041337,0.00037378,0.00287464,-0.00950278,0.0
 1606774,-0.02616418,0.01374485,0.00020687,0.00024969,-0.00033112,-0.00
 171060,0.00007161,0.00078253,-0.00003229,0.00000391,-0.00005990,-0.000
 84651,0.00270396,-0.00711793,0.00000566,0.00001884,-0.00000901,-0.0000
 1451,-0.00002344,-0.00000463,-0.00003423,0.00001708,-0.00002199,-0.000
 04370,-0.00000733,0.00002980,-0.03996772,0.00289105,-0.00272889,0.0002
 5934,-0.00015051,-0.00003045,0.00002125,-0.00000425,0.00000137,0.00000
 566,0.00004320,0.00000902,0.00051179,0.00084747,0.00089280,-0.00074447
 ,-0.00066550,-0.00050741,0.00002888,-0.00004052,0.00002431,-0.00000810
 ,0.00001217,0.00000909,0.00005182,-0.00001618,0.00003580,0.00000196,0.
 00000206,-0.00000727,-0.00019541,0.00002791,-0.00013544,-0.00001119,-0
 .00000974,0.00000094,0.00027697,-0.00011767,0.00015306,-0.00003673,0.0
 0000834,-0.00000372,0.00200881,-0.00140374,0.00093789,-0.00121412,0.00
 174813,0.00107655,0.04389075,0.01397845,-0.03502685,-0.00241018,-0.020
 18496,0.04203146\\-0.00002513,0.00001516,-0.00001390,-0.00000434,0.000
 00182,0.00000034,0.00000009,-0.00000006,-0.00001833,0.00001550,-0.0000
 0039,0.00001445,-0.00000230,0.00000987,-0.00000226,-0.00000135,-0.0000
 0453,0.00000141,-0.00001389,0.00000276,-0.00000498,0.00001006,-0.00000
 990,0.00000315,0.00000169,0.00000114,-0.00001072,-0.00000185,-0.000000
 96,-0.00000730,0.00000340,-0.00000109,0.00000254,0.00000054,0.00000037
 ,0.00000152,-0.00000278,0.00000029,0.00000198,-0.00000267,-0.00000025,
 0.00000373,0.00001247,-0.00000958,0.00000900,-0.00000702,0.00000226,0.
 00000003,0.00000859,0.00002355,-0.00000302,-0.00000184,-0.00000977,-0.
 00000005,0.00002084,0.00000110,0.00001544,-0.00000316,-0.00000678,-0.0
 0000209,-0.00001306,-0.00000737,0.00000972,0.00000888,0.00000199,0.000
 00592,0.00000998,-0.00000683,-0.00001075,-0.00000539,-0.00000117,-0.00
 000007,-0.00000582,-0.00000632,0.00000197,-0.00000144,0.00000471,0.000
 00225\\\@
 The archive entry for this job was punched.


 NEVER LISTEN TO CRITICISM
 OR YOU'LL BE DOIN' EVERYBODY ELSE'S THING BUT BUT YOUR OWN.

                                               -- ANDY CAPP
 Job cpu time:       0 days 11 hours 15 minutes 52.3 seconds.
 Elapsed time:       0 days  0 hours 45 minutes 14.0 seconds.
 File lengths (MBytes):  RWF=    704 Int=      0 D2E=      0 Chk=     27 Scr=      1
 Normal termination of Gaussian 16 at Wed Sep 27 12:34:41 2023.
