 Entering Gaussian System, Link 0=/opt/software/gaussian/g16.c01/g16
 Initial command:
 /opt/software/gaussian/g16.c01/l1.exe "/scratch/arhender/14836895/Gau-78776.inp" -scrdir="/scratch/arhender/14836895/"
 Entering Link 1 = /opt/software/gaussian/g16.c01/l1.exe PID=     78777.
  
 Copyright (c) 1988-2019, Gaussian, Inc.  All Rights Reserved.
  
 This is part of the Gaussian(R) 16 program.  It is based on
 the Gaussian(R) 09 system (copyright 2009, Gaussian, Inc.),
 the Gaussian(R) 03 system (copyright 2003, Gaussian, Inc.),
 the Gaussian(R) 98 system (copyright 1998, Gaussian, Inc.),
 the Gaussian(R) 94 system (copyright 1995, Gaussian, Inc.),
 the Gaussian 92(TM) system (copyright 1992, Gaussian, Inc.),
 the Gaussian 90(TM) system (copyright 1990, Gaussian, Inc.),
 the Gaussian 88(TM) system (copyright 1988, Gaussian, Inc.),
 the Gaussian 86(TM) system (copyright 1986, Carnegie Mellon
 University), and the Gaussian 82(TM) system (copyright 1983,
 Carnegie Mellon University). Gaussian is a federally registered
 trademark of Gaussian, Inc.
  
 This software contains proprietary and confidential information,
 including trade secrets, belonging to Gaussian, Inc.
  
 This software is provided under written license and may be
 used, copied, transmitted, or stored only in accord with that
 written license.
  
 The following legend is applicable only to US Government
 contracts under FAR:
  
                    RESTRICTED RIGHTS LEGEND
  
 Use, reproduction and disclosure by the US Government is
 subject to restrictions as set forth in subparagraphs (a)
 and (c) of the Commercial Computer Software - Restricted
 Rights clause in FAR 52.227-19.
  
 Gaussian, Inc.
 340 Quinnipiac St., Bldg. 40, Wallingford CT 06492
  
  
 ---------------------------------------------------------------
 Warning -- This program may not be used in any manner that
 competes with the business of Gaussian, Inc. or will provide
 assistance to any competitor of Gaussian, Inc.  The licensee
 of this program is prohibited from giving any competitor of
 Gaussian, Inc. access to this program.  By using this program,
 the user acknowledges that Gaussian, Inc. is engaged in the
 business of creating and licensing software in the field of
 computational chemistry and represents and warrants to the
 licensee that it is not a competitor of Gaussian, Inc. and that
 it will not use this program in any manner prohibited above.
 ---------------------------------------------------------------
  

 Cite this work as:
 Gaussian 16, Revision C.01,
 M. J. Frisch, G. W. Trucks, H. B. Schlegel, G. E. Scuseria, 
 M. A. Robb, J. R. Cheeseman, G. Scalmani, V. Barone, 
 G. A. Petersson, H. Nakatsuji, X. Li, M. Caricato, A. V. Marenich, 
 J. Bloino, B. G. Janesko, R. Gomperts, B. Mennucci, H. P. Hratchian, 
 J. V. Ortiz, A. F. Izmaylov, J. L. Sonnenberg, D. Williams-Young, 
 F. Ding, F. Lipparini, F. Egidi, J. Goings, B. Peng, A. Petrone, 
 T. Henderson, D. Ranasinghe, V. G. Zakrzewski, J. Gao, N. Rega, 
 G. Zheng, W. Liang, M. Hada, M. Ehara, K. Toyota, R. Fukuda, 
 J. Hasegawa, M. Ishida, T. Nakajima, Y. Honda, O. Kitao, H. Nakai, 
 T. Vreven, K. Throssell, J. A. Montgomery, Jr., J. E. Peralta, 
 F. Ogliaro, M. J. Bearpark, J. J. Heyd, E. N. Brothers, K. N. Kudin, 
 V. N. Staroverov, T. A. Keith, R. Kobayashi, J. Normand, 
 K. Raghavachari, A. P. Rendell, J. C. Burant, S. S. Iyengar, 
 J. Tomasi, M. Cossi, J. M. Millam, M. Klene, C. Adamo, R. Cammi, 
 J. W. Ochterski, R. L. Martin, K. Morokuma, O. Farkas, 
 J. B. Foresman, and D. J. Fox, Gaussian, Inc., Wallingford CT, 2019.
 
 ******************************************
 Gaussian 16:  ES64L-G16RevC.01  3-Jul-2019
                11-Oct-2023 
 ******************************************
 %chk=MannitolConformerOpt_46.chk
 %mem=8GB
 %nprocs=16
 Will use up to   16 processors via shared memory.
 ---------------------------------------------
 # opt freq wb97xd/Def2TZVPP geom=connectivity
 ---------------------------------------------
 1/18=20,19=15,26=3,38=1,57=2/1,3;
 2/9=110,12=2,17=6,18=5,40=1/2;
 3/5=44,7=202,11=2,25=1,30=1,71=1,74=-58/1,2,3;
 4//1;
 5/5=2,38=5/2;
 6/7=2,8=2,9=2,10=2,28=1/1;
 7//1,2,3,16;
 1/18=20,19=15,26=3/3(2);
 2/9=110/2;
 99//99;
 2/9=110/2;
 3/5=44,7=202,11=2,25=1,30=1,71=1,74=-58/1,2,3;
 4/5=5,16=3,69=1/1;
 5/5=2,38=5/2;
 7//1,2,3,16;
 1/18=20,19=15,26=3/3(-5);
 2/9=110/2;
 6/7=2,8=2,9=2,10=2,19=2,28=1/1;
 99/9=1/99;
 -------------------
 Title Card Required
 -------------------
 Symbolic Z-matrix:
 Charge =  0 Multiplicity = 1
 C                     0.        0.        0. 
 C                     1.5433    0.        0. 
 C                    -0.611     0.9217   -1.0752 
 C                     2.182    -0.7182    1.2027 
 H                     1.9196    1.0291    0. 
 H                    -0.383     0.2851    0.9859 
 C                    -0.464     2.411    -0.7567 
 H                    -1.6719    0.6793   -1.2113 
 C                     1.8595   -2.209     1.3444 
 H                     1.924    -0.201     2.1335 
 H                     0.5863    2.7144   -0.7433 
 H                    -0.9252    2.6756    0.1995 
 H                     2.1383   -2.7687    0.4465 
 H                     0.8055   -2.3838    1.5696 
 O                    -1.089     3.1612   -1.8014 
 H                    -2.0499    3.149    -1.6397 
 O                     0.013     0.6608   -2.3496 
 H                    -0.2864    1.3925   -2.9315 
 O                    -0.4677   -1.3296   -0.2727 
 H                    -0.0719   -1.5829   -1.1314 
 O                     2.0509   -0.6095   -1.2045 
 H                     1.5691   -0.1806   -1.9481 
 O                     3.6189   -0.6128    1.0667 
 H                     3.7946   -0.8195    0.1245 
 O                     2.6243   -2.7463    2.4305 
 H                     3.5043   -2.3251    2.3541 
 

 GradGradGradGradGradGradGradGradGradGradGradGradGradGradGradGradGradGrad
 Berny optimization.
 Initialization pass.
                           ----------------------------
                           !    Initial Parameters    !
                           ! (Angstroms and Degrees)  !
 --------------------------                            --------------------------
 ! Name  Definition              Value          Derivative Info.                !
 --------------------------------------------------------------------------------
 ! R1    R(1,2)                  1.5433         estimate D2E/DX2                !
 ! R2    R(1,3)                  1.5424         estimate D2E/DX2                !
 ! R3    R(1,6)                  1.0954         estimate D2E/DX2                !
 ! R4    R(1,19)                 1.4356         estimate D2E/DX2                !
 ! R5    R(2,4)                  1.5396         estimate D2E/DX2                !
 ! R6    R(2,5)                  1.0957         estimate D2E/DX2                !
 ! R7    R(2,21)                 1.4422         estimate D2E/DX2                !
 ! R8    R(3,7)                  1.5301         estimate D2E/DX2                !
 ! R9    R(3,8)                  1.0967         estimate D2E/DX2                !
 ! R10   R(3,17)                 1.4428         estimate D2E/DX2                !
 ! R11   R(4,9)                  1.5319         estimate D2E/DX2                !
 ! R12   R(4,10)                 1.0956         estimate D2E/DX2                !
 ! R13   R(4,23)                 1.4472         estimate D2E/DX2                !
 ! R14   R(7,11)                 1.0933         estimate D2E/DX2                !
 ! R15   R(7,12)                 1.0941         estimate D2E/DX2                !
 ! R16   R(7,15)                 1.43           estimate D2E/DX2                !
 ! R17   R(9,13)                 1.0942         estimate D2E/DX2                !
 ! R18   R(9,14)                 1.0919         estimate D2E/DX2                !
 ! R19   R(9,25)                 1.4329         estimate D2E/DX2                !
 ! R20   R(15,16)                0.9745         estimate D2E/DX2                !
 ! R21   R(17,18)                0.9816         estimate D2E/DX2                !
 ! R22   R(19,20)                0.9789         estimate D2E/DX2                !
 ! R23   R(21,22)                0.9844         estimate D2E/DX2                !
 ! R24   R(23,24)                0.9805         estimate D2E/DX2                !
 ! R25   R(25,26)                0.9786         estimate D2E/DX2                !
 ! A1    A(2,1,3)              113.3373         estimate D2E/DX2                !
 ! A2    A(2,1,6)              110.4649         estimate D2E/DX2                !
 ! A3    A(2,1,19)             109.0133         estimate D2E/DX2                !
 ! A4    A(3,1,6)              109.4735         estimate D2E/DX2                !
 ! A5    A(3,1,19)             106.9768         estimate D2E/DX2                !
 ! A6    A(6,1,19)             107.3436         estimate D2E/DX2                !
 ! A7    A(1,2,4)              114.5105         estimate D2E/DX2                !
 ! A8    A(1,2,5)              110.0854         estimate D2E/DX2                !
 ! A9    A(1,2,21)             110.6072         estimate D2E/DX2                !
 ! A10   A(4,2,5)              107.1968         estimate D2E/DX2                !
 ! A11   A(4,2,21)             108.0156         estimate D2E/DX2                !
 ! A12   A(5,2,21)             106.0241         estimate D2E/DX2                !
 ! A13   A(1,3,7)              113.4843         estimate D2E/DX2                !
 ! A14   A(1,3,8)              109.7328         estimate D2E/DX2                !
 ! A15   A(1,3,17)             109.6555         estimate D2E/DX2                !
 ! A16   A(7,3,8)              109.506          estimate D2E/DX2                !
 ! A17   A(7,3,17)             108.5624         estimate D2E/DX2                !
 ! A18   A(8,3,17)             105.5926         estimate D2E/DX2                !
 ! A19   A(2,4,9)              116.0349         estimate D2E/DX2                !
 ! A20   A(2,4,10)             110.2283         estimate D2E/DX2                !
 ! A21   A(2,4,23)             107.7297         estimate D2E/DX2                !
 ! A22   A(9,4,10)             109.344          estimate D2E/DX2                !
 ! A23   A(9,4,23)             106.7747         estimate D2E/DX2                !
 ! A24   A(10,4,23)            106.2162         estimate D2E/DX2                !
 ! A25   A(3,7,11)             111.4049         estimate D2E/DX2                !
 ! A26   A(3,7,12)             112.1375         estimate D2E/DX2                !
 ! A27   A(3,7,15)             108.4563         estimate D2E/DX2                !
 ! A28   A(11,7,12)            109.0943         estimate D2E/DX2                !
 ! A29   A(11,7,15)            106.4537         estimate D2E/DX2                !
 ! A30   A(12,7,15)            109.1097         estimate D2E/DX2                !
 ! A31   A(4,9,13)             111.6087         estimate D2E/DX2                !
 ! A32   A(4,9,14)             112.2165         estimate D2E/DX2                !
 ! A33   A(4,9,25)             108.8244         estimate D2E/DX2                !
 ! A34   A(13,9,14)            109.4709         estimate D2E/DX2                !
 ! A35   A(13,9,25)            107.1094         estimate D2E/DX2                !
 ! A36   A(14,9,25)            107.3894         estimate D2E/DX2                !
 ! A37   A(7,15,16)            107.6489         estimate D2E/DX2                !
 ! A38   A(3,17,18)            104.8864         estimate D2E/DX2                !
 ! A39   A(1,19,20)            105.9362         estimate D2E/DX2                !
 ! A40   A(2,21,22)            105.9315         estimate D2E/DX2                !
 ! A41   A(4,23,24)            104.6481         estimate D2E/DX2                !
 ! A42   A(9,25,26)            105.0343         estimate D2E/DX2                !
 ! D1    D(3,1,2,4)            170.2394         estimate D2E/DX2                !
 ! D2    D(3,1,2,5)             49.3956         estimate D2E/DX2                !
 ! D3    D(3,1,2,21)           -67.4446         estimate D2E/DX2                !
 ! D4    D(6,1,2,4)             46.9725         estimate D2E/DX2                !
 ! D5    D(6,1,2,5)            -73.8713         estimate D2E/DX2                !
 ! D6    D(6,1,2,21)           169.2884         estimate D2E/DX2                !
 ! D7    D(19,1,2,4)           -70.7468         estimate D2E/DX2                !
 ! D8    D(19,1,2,5)           168.4094         estimate D2E/DX2                !
 ! D9    D(19,1,2,21)           51.5691         estimate D2E/DX2                !
 ! D10   D(2,1,3,7)            -72.4499         estimate D2E/DX2                !
 ! D11   D(2,1,3,8)            164.6877         estimate D2E/DX2                !
 ! D12   D(2,1,3,17)            49.1343         estimate D2E/DX2                !
 ! D13   D(6,1,3,7)             51.3606         estimate D2E/DX2                !
 ! D14   D(6,1,3,8)            -71.5018         estimate D2E/DX2                !
 ! D15   D(6,1,3,17)           172.9448         estimate D2E/DX2                !
 ! D16   D(19,1,3,7)           167.3717         estimate D2E/DX2                !
 ! D17   D(19,1,3,8)            44.5092         estimate D2E/DX2                !
 ! D18   D(19,1,3,17)          -71.0442         estimate D2E/DX2                !
 ! D19   D(2,1,19,20)          -57.1007         estimate D2E/DX2                !
 ! D20   D(3,1,19,20)           65.8073         estimate D2E/DX2                !
 ! D21   D(6,1,19,20)         -176.773          estimate D2E/DX2                !
 ! D22   D(1,2,4,9)             61.2993         estimate D2E/DX2                !
 ! D23   D(1,2,4,10)           -63.6521         estimate D2E/DX2                !
 ! D24   D(1,2,4,23)          -179.1368         estimate D2E/DX2                !
 ! D25   D(5,2,4,9)           -176.275          estimate D2E/DX2                !
 ! D26   D(5,2,4,10)            58.7737         estimate D2E/DX2                !
 ! D27   D(5,2,4,23)           -56.711          estimate D2E/DX2                !
 ! D28   D(21,2,4,9)           -62.4145         estimate D2E/DX2                !
 ! D29   D(21,2,4,10)          172.6342         estimate D2E/DX2                !
 ! D30   D(21,2,4,23)           57.1495         estimate D2E/DX2                !
 ! D31   D(1,2,21,22)           49.374          estimate D2E/DX2                !
 ! D32   D(4,2,21,22)          175.4146         estimate D2E/DX2                !
 ! D33   D(5,2,21,22)          -69.9483         estimate D2E/DX2                !
 ! D34   D(1,3,7,11)            64.4194         estimate D2E/DX2                !
 ! D35   D(1,3,7,12)           -58.1821         estimate D2E/DX2                !
 ! D36   D(1,3,7,15)          -178.7376         estimate D2E/DX2                !
 ! D37   D(8,3,7,11)          -172.5933         estimate D2E/DX2                !
 ! D38   D(8,3,7,12)            64.8051         estimate D2E/DX2                !
 ! D39   D(8,3,7,15)           -55.7503         estimate D2E/DX2                !
 ! D40   D(17,3,7,11)          -57.7735         estimate D2E/DX2                !
 ! D41   D(17,3,7,12)          179.6249         estimate D2E/DX2                !
 ! D42   D(17,3,7,15)           59.0695         estimate D2E/DX2                !
 ! D43   D(1,3,17,18)         -168.8904         estimate D2E/DX2                !
 ! D44   D(7,3,17,18)          -44.3965         estimate D2E/DX2                !
 ! D45   D(8,3,17,18)           72.9519         estimate D2E/DX2                !
 ! D46   D(2,4,9,13)            56.7222         estimate D2E/DX2                !
 ! D47   D(2,4,9,14)           -66.58           estimate D2E/DX2                !
 ! D48   D(2,4,9,25)           174.7144         estimate D2E/DX2                !
 ! D49   D(10,4,9,13)         -177.8751         estimate D2E/DX2                !
 ! D50   D(10,4,9,14)           58.8227         estimate D2E/DX2                !
 ! D51   D(10,4,9,25)          -59.8829         estimate D2E/DX2                !
 ! D52   D(23,4,9,13)          -63.359          estimate D2E/DX2                !
 ! D53   D(23,4,9,14)          173.3387         estimate D2E/DX2                !
 ! D54   D(23,4,9,25)           54.6331         estimate D2E/DX2                !
 ! D55   D(2,4,23,24)          -44.701          estimate D2E/DX2                !
 ! D56   D(9,4,23,24)           80.585          estimate D2E/DX2                !
 ! D57   D(10,4,23,24)        -162.8019         estimate D2E/DX2                !
 ! D58   D(3,7,15,16)           79.2655         estimate D2E/DX2                !
 ! D59   D(11,7,15,16)        -160.7516         estimate D2E/DX2                !
 ! D60   D(12,7,15,16)         -43.1508         estimate D2E/DX2                !
 ! D61   D(4,9,25,26)          -40.1104         estimate D2E/DX2                !
 ! D62   D(13,9,25,26)          80.6887         estimate D2E/DX2                !
 ! D63   D(14,9,25,26)        -161.8035         estimate D2E/DX2                !
 --------------------------------------------------------------------------------
 Trust Radius=3.00D-01 FncErr=1.00D-07 GrdErr=1.00D-06 EigMax=2.50D+02 EigMin=1.00D-04
 Number of steps in this run=    140 maximum allowed number of steps=    156.
 GradGradGradGradGradGradGradGradGradGradGradGradGradGradGradGradGradGrad

                          Input orientation:                          
 ---------------------------------------------------------------------
 Center     Atomic      Atomic             Coordinates (Angstroms)
 Number     Number       Type             X           Y           Z
 ---------------------------------------------------------------------
      1          6           0        0.000000    0.000000    0.000000
      2          6           0        1.543300    0.000000    0.000000
      3          6           0       -0.611000    0.921700   -1.075200
      4          6           0        2.182000   -0.718200    1.202700
      5          1           0        1.919600    1.029100    0.000000
      6          1           0       -0.383000    0.285100    0.985900
      7          6           0       -0.464000    2.411000   -0.756700
      8          1           0       -1.671900    0.679300   -1.211300
      9          6           0        1.859500   -2.209000    1.344400
     10          1           0        1.924000   -0.201000    2.133500
     11          1           0        0.586300    2.714400   -0.743300
     12          1           0       -0.925200    2.675600    0.199500
     13          1           0        2.138300   -2.768700    0.446500
     14          1           0        0.805500   -2.383800    1.569600
     15          8           0       -1.089000    3.161200   -1.801400
     16          1           0       -2.049900    3.149000   -1.639700
     17          8           0        0.013000    0.660800   -2.349600
     18          1           0       -0.286400    1.392500   -2.931500
     19          8           0       -0.467700   -1.329600   -0.272700
     20          1           0       -0.071900   -1.582900   -1.131400
     21          8           0        2.050900   -0.609500   -1.204500
     22          1           0        1.569100   -0.180600   -1.948100
     23          8           0        3.618900   -0.612800    1.066700
     24          1           0        3.794600   -0.819500    0.124500
     25          8           0        2.624300   -2.746300    2.430500
     26          1           0        3.504300   -2.325100    2.354100
 ---------------------------------------------------------------------
                    Distance matrix (angstroms):
                    1          2          3          4          5
     1  C    0.000000
     2  C    1.543300   0.000000
     3  C    1.542371   2.578099   0.000000
     4  C    2.592956   1.539557   3.959665   0.000000
     5  H    2.178052   1.095741   2.751641   2.137381   0.000000
     6  H    1.095431   2.182639   2.169188   2.762759   2.612949
     7  C    2.569205   3.227192   1.530054   4.542296   2.857235
     8  H    2.173464   3.502315   1.096718   4.757410   3.806374
     9  C    3.185095   2.605201   4.664667   1.531852   3.506610
    10  H    2.879930   2.176501   4.240570   1.095650   2.462720
    11  H    2.874754   2.972593   2.181160   4.256280   2.273856
    12  H    2.838068   3.645837   2.190832   4.709456   3.292970
    13  H    3.526668   2.866895   4.846986   2.185932   3.830206
    14  H    2.965633   2.947965   4.464053   2.191710   3.918258
    15  O    3.797914   4.490794   2.402334   5.896932   4.103970
    16  H    4.099623   5.051327   2.711081   6.398707   4.789522
    17  O    2.440788   2.880815   1.442754   4.384637   3.048178
    18  H    3.258032   3.725661   1.942387   5.257344   3.686758
    19  O    1.435599   2.426174   2.394346   3.093788   3.367051
    20  H    1.947000   2.528737   2.562578   3.357945   3.474001
    21  O    2.455301   1.442210   3.073598   2.413217   2.037908
    22  H    2.507944   1.956624   2.594197   3.254566   2.319767
    23  O    3.822278   2.412776   4.983420   1.447165   2.592548
    24  H    3.884079   2.399048   4.886754   1.942487   2.635991
    25  O    4.509595   3.823357   6.017584   2.411703   4.545061
    26  H    4.819543   3.846219   6.263985   2.378303   4.393600
                    6          7          8          9         10
     6  H    0.000000
     7  C    2.750030   0.000000
     8  H    2.577663   2.159738   0.000000
     9  C    3.373109   5.581906   5.229213   0.000000
    10  H    2.622123   4.569283   4.989300   2.158449   0.000000
    11  H    3.135470   1.093326   3.075731   5.497217   4.308709
    12  H    2.574276   1.094092   2.555999   5.738002   4.486995
    13  H    3.996699   5.920215   5.399503   1.094175   3.079769
    14  H    2.979306   5.478450   4.822188   1.091873   2.516673
    15  O    4.066870   1.429973   2.616834   6.886854   5.988823
    16  H    4.227795   1.959442   2.534922   7.272993   6.422727
    17  O    3.379871   2.414137   2.033459   5.029011   4.949021
    18  H    4.072062   2.408036   2.321067   5.988239   5.751464
    19  O    2.049025   3.771784   2.523241   2.967190   3.575439
    20  H    2.840628   4.030556   2.771991   3.201858   4.068518
    21  O    3.394412   3.955840   3.939580   3.015282   3.365296
    22  H    3.554705   3.502759   3.433130   3.878053   4.097051
    23  O    4.102189   5.397984   5.903505   2.391748   2.044585
    24  H    4.406188   5.417409   5.823520   2.676467   2.813853
    25  O    4.507783   6.803939   6.592024   1.432907   2.656536
    26  H    4.878137   6.917740   6.966458   1.933479   2.656655
                   11         12         13         14         15
    11  H    0.000000
    12  H    1.781856   0.000000
    13  H    5.821401   6.251915   0.000000
    14  H    5.602606   5.519966   1.784897   0.000000
    15  O    2.031215   2.065487   7.115633   6.760162   0.000000
    16  H    2.818148   2.207196   7.544032   7.004626   0.974487
    17  O    2.669484   3.381945   4.908823   5.025711   2.786921
    18  H    2.701341   3.443483   5.882656   5.976001   2.247130
    19  O    4.205510   4.058806   3.062596   2.475166   4.784373
    20  H    4.364703   4.542492   2.963254   2.950707   4.897946
    21  O    3.661430   4.649760   2.719482   3.520624   4.943019
    22  H    3.286102   4.357935   3.571605   4.220354   4.272545
    23  O    4.852115   5.675778   2.687886   3.362227   6.680823
    24  H    4.851259   5.873488   2.578060   3.670159   6.588218
    25  O    6.636693   6.853708   2.042781   2.044649   8.160645
    26  H    6.595845   7.019243   2.387818   2.811122   8.274423
                   16         17         18         19         20
    16  H    0.000000
    17  O    3.309177   0.000000
    18  H    2.804277   0.981648   0.000000
    19  O    4.942662   2.916552   3.809451   0.000000
    20  H    5.153807   2.554488   3.484161   0.978869   0.000000
    21  O    5.579631   2.660442   3.528952   2.780313   2.336478
    22  H    4.927323   1.814002   2.623852   2.876755   2.307883
    23  O    7.321956   5.127931   5.937862   4.359827   4.403946
    24  H    7.281454   4.755308   5.557575   4.311052   4.136410
    25  O    8.553902   6.424685   7.372441   4.344513   4.616289
    26  H    8.761584   6.574920   7.491830   4.864965   5.048641
                   21         22         23         24         25
    21  O    0.000000
    22  H    0.984392   0.000000
    23  O    2.759888   3.671171   0.000000
    24  H    2.202460   3.107525   0.980478   0.000000
    25  O    4.255341   5.183474   2.720478   3.224872   0.000000
    26  H    4.209429   5.181969   2.145345   2.705960   0.978594
                   26
    26  H    0.000000
 Stoichiometry    C6H14O6
 Framework group  C1[X(C6H14O6)]
 Deg. of freedom    72
 Full point group                 C1      NOp   1
 Largest Abelian subgroup         C1      NOp   1
 Largest concise Abelian subgroup C1      NOp   1
                         Standard orientation:                         
 ---------------------------------------------------------------------
 Center     Atomic      Atomic             Coordinates (Angstroms)
 Number     Number       Type             X           Y           Z
 ---------------------------------------------------------------------
      1          6           0       -0.499741    0.656086   -0.477203
      2          6           0        0.364965   -0.509087    0.048563
      3          6           0       -1.994342    0.516011   -0.123010
      4          6           0        1.809246   -0.523724   -0.484425
      5          1           0       -0.090349   -1.468003   -0.223130
      6          1           0       -0.389404    0.755533   -1.562517
      7          6           0       -2.711437   -0.572448   -0.924320
      8          1           0       -2.502183    1.476309   -0.273723
      9          6           0        2.666796    0.696928   -0.136308
     10          1           0        1.810904   -0.670692   -1.570172
     11          1           0       -2.312429   -1.564399   -0.695876
     12          1           0       -2.646994   -0.400436   -2.002882
     13          1           0        2.721305    0.855969    0.944873
     14          1           0        2.305770    1.606676   -0.620255
     15          8           0       -4.087107   -0.589581   -0.534367
     16          1           0       -4.534037    0.143434   -0.995417
     17          8           0       -2.134400    0.219553    1.281994
     18          1           0       -3.076502   -0.032571    1.393847
     19          8           0       -0.042041    1.881821    0.113585
     20          1           0       -0.100058    1.751501    1.082004
     21          8           0        0.421466   -0.489272    1.489529
     22          1           0       -0.510388   -0.404677    1.795340
     23          8           0        2.475829   -1.677299    0.080569
     24          1           0        2.221175   -1.671769    1.027383
     25          8           0        4.004375    0.468792   -0.596807
     26          1           0        4.185305   -0.471577   -0.395275
 ---------------------------------------------------------------------
 Rotational constants (GHZ):           1.9032335           0.4361181           0.4182365
 Standard basis: def2TZVPP (5D, 7F)
 There are   642 symmetry adapted cartesian basis functions of A   symmetry.
 There are   568 symmetry adapted basis functions of A   symmetry.
   568 basis functions,   850 primitive gaussians,   642 cartesian basis functions
    49 alpha electrons       49 beta electrons
       nuclear repulsion energy       821.3649347539 Hartrees.
 NAtoms=   26 NActive=   26 NUniq=   26 SFac= 1.00D+00 NAtFMM=   60 NAOKFM=F Big=F
 Integral buffers will be    131072 words long.
 Raffenetti 2 integral format.
 Two-electron integral symmetry is turned on.
 Nuclear repulsion after empirical dispersion term =      821.3464677667 Hartrees.
 One-electron integrals computed using PRISM.
   1 Symmetry operations used in ECPInt.
 ECPInt:  NShTT=   23436 NPrTT=   62434 LenC2=   21659 LenP2D=   45006.
 LDataN:  DoStor=T MaxTD1= 6 Len=  172
 NBasis=   568 RedAO= T EigKep=  4.49D-05  NBF=   568
 NBsUse=   568 1.00D-06 EigRej= -1.00D+00 NBFU=   568
 ExpMin= 9.52D-02 ExpMax= 2.70D+04 ExpMxC= 9.22D+02 IAcc=3 IRadAn=         5 AccDes= 0.00D+00
 Harris functional with IExCor= 4639 and IRadAn=       5 diagonalized for initial guess.
 HarFok:  IExCor= 4639 AccDes= 0.00D+00 IRadAn=         5 IDoV= 1 UseB2=F ITyADJ=14
 ICtDFT=  3500011 ScaDFX=  1.000000  1.000000  1.000000  1.000000
 FoFCou: FMM=F IPFlag=           0 FMFlag=      100000 FMFlg1=           0
         NFxFlg=           0 DoJE=T BraDBF=F KetDBF=T FulRan=T
         wScrn=  0.000000 ICntrl=       500 IOpCl=  0 I1Cent=   200000004 NGrid=           0
         NMat0=    1 NMatS0=      1 NMatT0=    0 NMatD0=    1 NMtDS0=    0 NMtDT0=    0
 Petite list used in FoFCou.
 Requested convergence on RMS density matrix=1.00D-08 within 128 cycles.
 Requested convergence on MAX density matrix=1.00D-06.
 Requested convergence on             energy=1.00D-06.
 No special actions if energy rises.
 Integral accuracy reduced to 1.0D-05 until final iterations.
 Initial convergence to 1.0D-05 achieved.  Increase integral accuracy.
 SCF Done:  E(RwB97XD) =  -688.469240427     A.U. after   14 cycles
            NFock= 14  Conv=0.17D-08     -V/T= 2.0050

 **********************************************************************

            Population analysis using the SCF Density.

 **********************************************************************

 Orbital symmetries:
       Occupied  (A) (A) (A) (A) (A) (A) (A) (A) (A) (A) (A) (A)
                 (A) (A) (A) (A) (A) (A) (A) (A) (A) (A) (A) (A)
                 (A) (A) (A) (A) (A) (A) (A) (A) (A) (A) (A) (A)
                 (A) (A) (A) (A) (A) (A) (A) (A) (A) (A) (A) (A)
                 (A)
       Virtual   (A) (A) (A) (A) (A) (A) (A) (A) (A) (A) (A) (A)
                 (A) (A) (A) (A) (A) (A) (A) (A) (A) (A) (A) (A)
                 (A) (A) (A) (A) (A) (A) (A) (A) (A) (A) (A) (A)
                 (A) (A) (A) (A) (A) (A) (A) (A) (A) (A) (A) (A)
                 (A) (A) (A) (A) (A) (A) (A) (A) (A) (A) (A) (A)
                 (A) (A) (A) (A) (A) (A) (A) (A) (A) (A) (A) (A)
                 (A) (A) (A) (A) (A) (A) (A) (A) (A) (A) (A) (A)
                 (A) (A) (A) (A) (A) (A) (A) (A) (A) (A) (A) (A)
                 (A) (A) (A) (A) (A) (A) (A) (A) (A) (A) (A) (A)
                 (A) (A) (A) (A) (A) (A) (A) (A) (A) (A) (A) (A)
                 (A) (A) (A) (A) (A) (A) (A) (A) (A) (A) (A) (A)
                 (A) (A) (A) (A) (A) (A) (A) (A) (A) (A) (A) (A)
                 (A) (A) (A) (A) (A) (A) (A) (A) (A) (A) (A) (A)
                 (A) (A) (A) (A) (A) (A) (A) (A) (A) (A) (A) (A)
                 (A) (A) (A) (A) (A) (A) (A) (A) (A) (A) (A) (A)
                 (A) (A) (A) (A) (A) (A) (A) (A) (A) (A) (A) (A)
                 (A) (A) (A) (A) (A) (A) (A) (A) (A) (A) (A) (A)
                 (A) (A) (A) (A) (A) (A) (A) (A) (A) (A) (A) (A)
                 (A) (A) (A) (A) (A) (A) (A) (A) (A) (A) (A) (A)
                 (A) (A) (A) (A) (A) (A) (A) (A) (A) (A) (A) (A)
                 (A) (A) (A) (A) (A) (A) (A) (A) (A) (A) (A) (A)
                 (A) (A) (A) (A) (A) (A) (A) (A) (A) (A) (A) (A)
                 (A) (A) (A) (A) (A) (A) (A) (A) (A) (A) (A) (A)
                 (A) (A) (A) (A) (A) (A) (A) (A) (A) (A) (A) (A)
                 (A) (A) (A) (A) (A) (A) (A) (A) (A) (A) (A) (A)
                 (A) (A) (A) (A) (A) (A) (A) (A) (A) (A) (A) (A)
                 (A) (A) (A) (A) (A) (A) (A) (A) (A) (A) (A) (A)
                 (A) (A) (A) (A) (A) (A) (A) (A) (A) (A) (A) (A)
                 (A) (A) (A) (A) (A) (A) (A) (A) (A) (A) (A) (A)
                 (A) (A) (A) (A) (A) (A) (A) (A) (A) (A) (A) (A)
                 (A) (A) (A) (A) (A) (A) (A) (A) (A) (A) (A) (A)
                 (A) (A) (A) (A) (A) (A) (A) (A) (A) (A) (A) (A)
                 (A) (A) (A) (A) (A) (A) (A) (A) (A) (A) (A) (A)
                 (A) (A) (A) (A) (A) (A) (A) (A) (A) (A) (A) (A)
                 (A) (A) (A) (A) (A) (A) (A) (A) (A) (A) (A) (A)
                 (A) (A) (A) (A) (A) (A) (A) (A) (A) (A) (A) (A)
                 (A) (A) (A) (A) (A) (A) (A) (A) (A) (A) (A) (A)
                 (A) (A) (A) (A) (A) (A) (A) (A) (A) (A) (A) (A)
                 (A) (A) (A) (A) (A) (A) (A) (A) (A) (A) (A) (A)
                 (A) (A) (A) (A) (A) (A) (A) (A) (A) (A) (A) (A)
                 (A) (A) (A) (A) (A) (A) (A) (A) (A) (A) (A) (A)
                 (A) (A) (A) (A) (A) (A) (A) (A) (A) (A) (A) (A)
                 (A) (A) (A) (A) (A) (A) (A) (A) (A) (A) (A) (A)
                 (A) (A) (A)
 The electronic state is 1-A.
 Alpha  occ. eigenvalues --  -19.28735 -19.28640 -19.25955 -19.25769 -19.25305
 Alpha  occ. eigenvalues --  -19.22565 -10.36490 -10.36311 -10.36127 -10.35331
 Alpha  occ. eigenvalues --  -10.34247 -10.31342  -1.17394  -1.15280  -1.13817
 Alpha  occ. eigenvalues --   -1.12735  -1.11223  -1.08908  -0.89861  -0.85699
 Alpha  occ. eigenvalues --   -0.80144  -0.76064  -0.71662  -0.69277  -0.66188
 Alpha  occ. eigenvalues --   -0.63547  -0.61257  -0.59587  -0.58457  -0.57681
 Alpha  occ. eigenvalues --   -0.56910  -0.55659  -0.53687  -0.52514  -0.52409
 Alpha  occ. eigenvalues --   -0.50738  -0.49153  -0.47583  -0.46097  -0.44887
 Alpha  occ. eigenvalues --   -0.44024  -0.42684  -0.42021  -0.41015  -0.39050
 Alpha  occ. eigenvalues --   -0.38148  -0.37369  -0.36223  -0.33780
 Alpha virt. eigenvalues --    0.07281   0.10429   0.10675   0.12755   0.13183
 Alpha virt. eigenvalues --    0.13816   0.14875   0.16171   0.17318   0.17663
 Alpha virt. eigenvalues --    0.18621   0.19688   0.19952   0.20803   0.21766
 Alpha virt. eigenvalues --    0.22291   0.23376   0.24643   0.25319   0.26858
 Alpha virt. eigenvalues --    0.27989   0.29272   0.30211   0.31063   0.32841
 Alpha virt. eigenvalues --    0.33603   0.34842   0.36182   0.36609   0.37596
 Alpha virt. eigenvalues --    0.37799   0.38853   0.39970   0.40213   0.40493
 Alpha virt. eigenvalues --    0.41164   0.42166   0.42647   0.44197   0.44299
 Alpha virt. eigenvalues --    0.45274   0.45757   0.46182   0.46733   0.47088
 Alpha virt. eigenvalues --    0.47717   0.48935   0.49599   0.50661   0.50786
 Alpha virt. eigenvalues --    0.52051   0.52320   0.52729   0.54233   0.54890
 Alpha virt. eigenvalues --    0.55030   0.56273   0.57916   0.58143   0.58693
 Alpha virt. eigenvalues --    0.59547   0.59996   0.60939   0.62051   0.63060
 Alpha virt. eigenvalues --    0.63871   0.64739   0.66646   0.67758   0.68345
 Alpha virt. eigenvalues --    0.69182   0.70080   0.71310   0.71626   0.72090
 Alpha virt. eigenvalues --    0.73385   0.75874   0.77001   0.77361   0.78221
 Alpha virt. eigenvalues --    0.79232   0.82041   0.82740   0.83717   0.85936
 Alpha virt. eigenvalues --    0.87466   0.87609   0.88751   0.89913   0.91067
 Alpha virt. eigenvalues --    0.91176   0.92218   0.92568   0.94239   0.94936
 Alpha virt. eigenvalues --    0.96617   0.97748   0.99148   0.99994   1.00441
 Alpha virt. eigenvalues --    1.02375   1.02949   1.04057   1.06039   1.06756
 Alpha virt. eigenvalues --    1.07146   1.09394   1.09828   1.10356   1.13384
 Alpha virt. eigenvalues --    1.14591   1.15001   1.15781   1.16376   1.16843
 Alpha virt. eigenvalues --    1.18982   1.19789   1.21020   1.22628   1.23858
 Alpha virt. eigenvalues --    1.25858   1.26392   1.26902   1.28943   1.29744
 Alpha virt. eigenvalues --    1.30445   1.30934   1.31779   1.33336   1.34960
 Alpha virt. eigenvalues --    1.35279   1.36482   1.37564   1.37849   1.40263
 Alpha virt. eigenvalues --    1.41630   1.41926   1.42876   1.44910   1.46228
 Alpha virt. eigenvalues --    1.46673   1.47551   1.50122   1.51241   1.51480
 Alpha virt. eigenvalues --    1.51947   1.53770   1.54123   1.55259   1.55692
 Alpha virt. eigenvalues --    1.57932   1.60813   1.61890   1.62444   1.64937
 Alpha virt. eigenvalues --    1.65289   1.66676   1.69694   1.71135   1.73327
 Alpha virt. eigenvalues --    1.74324   1.75200   1.76567   1.79867   1.83060
 Alpha virt. eigenvalues --    1.84932   1.86886   1.87351   1.92114   1.92935
 Alpha virt. eigenvalues --    1.94348   1.94891   1.96295   1.96946   1.98505
 Alpha virt. eigenvalues --    2.00855   2.01443   2.02096   2.03660   2.04624
 Alpha virt. eigenvalues --    2.05487   2.06873   2.08069   2.09632   2.10444
 Alpha virt. eigenvalues --    2.11090   2.13545   2.14608   2.16048   2.17771
 Alpha virt. eigenvalues --    2.18816   2.19901   2.21613   2.22813   2.25419
 Alpha virt. eigenvalues --    2.27966   2.28902   2.29874   2.30030   2.32038
 Alpha virt. eigenvalues --    2.33061   2.35731   2.37154   2.37764   2.39697
 Alpha virt. eigenvalues --    2.43191   2.44806   2.47821   2.49630   2.51865
 Alpha virt. eigenvalues --    2.54610   2.56432   2.59216   2.61033   2.61474
 Alpha virt. eigenvalues --    2.64362   2.66905   2.67922   2.68930   2.69580
 Alpha virt. eigenvalues --    2.70526   2.72292   2.74533   2.75184   2.77603
 Alpha virt. eigenvalues --    2.78364   2.79492   2.80829   2.83225   2.84222
 Alpha virt. eigenvalues --    2.85718   2.86467   2.88259   2.88767   2.91069
 Alpha virt. eigenvalues --    2.92342   2.93107   2.93883   2.97377   2.97768
 Alpha virt. eigenvalues --    2.98699   3.00110   3.01561   3.02160   3.04747
 Alpha virt. eigenvalues --    3.05096   3.06893   3.07688   3.09462   3.12514
 Alpha virt. eigenvalues --    3.13227   3.13238   3.13894   3.15215   3.16169
 Alpha virt. eigenvalues --    3.17176   3.17838   3.19526   3.20025   3.20855
 Alpha virt. eigenvalues --    3.22123   3.23923   3.24685   3.25295   3.25615
 Alpha virt. eigenvalues --    3.27056   3.27993   3.29702   3.30371   3.31119
 Alpha virt. eigenvalues --    3.32223   3.33176   3.33915   3.34523   3.35773
 Alpha virt. eigenvalues --    3.36822   3.37560   3.39220   3.39819   3.40599
 Alpha virt. eigenvalues --    3.42291   3.42545   3.44025   3.44703   3.46101
 Alpha virt. eigenvalues --    3.47916   3.49342   3.50218   3.51266   3.52919
 Alpha virt. eigenvalues --    3.54034   3.54348   3.57957   3.58472   3.59259
 Alpha virt. eigenvalues --    3.59776   3.60763   3.63310   3.63857   3.64762
 Alpha virt. eigenvalues --    3.67377   3.67923   3.68856   3.69552   3.71228
 Alpha virt. eigenvalues --    3.72526   3.74092   3.75154   3.76521   3.78853
 Alpha virt. eigenvalues --    3.79414   3.80374   3.82859   3.83295   3.83405
 Alpha virt. eigenvalues --    3.85450   3.86990   3.87731   3.87941   3.88840
 Alpha virt. eigenvalues --    3.89699   3.91028   3.92860   3.93160   3.94001
 Alpha virt. eigenvalues --    3.95056   3.95695   3.99095   4.00341   4.00810
 Alpha virt. eigenvalues --    4.01496   4.02817   4.03202   4.05283   4.06506
 Alpha virt. eigenvalues --    4.07138   4.08725   4.09329   4.09630   4.10850
 Alpha virt. eigenvalues --    4.11764   4.14199   4.14664   4.16012   4.16440
 Alpha virt. eigenvalues --    4.16564   4.17842   4.18999   4.19577   4.21011
 Alpha virt. eigenvalues --    4.21965   4.23632   4.25309   4.25522   4.27639
 Alpha virt. eigenvalues --    4.27921   4.29957   4.30360   4.32117   4.33220
 Alpha virt. eigenvalues --    4.34971   4.35438   4.36984   4.37321   4.39045
 Alpha virt. eigenvalues --    4.40266   4.41586   4.43455   4.44882   4.46422
 Alpha virt. eigenvalues --    4.47132   4.49908   4.50861   4.51646   4.54421
 Alpha virt. eigenvalues --    4.57545   4.58855   4.60362   4.60563   4.61891
 Alpha virt. eigenvalues --    4.63106   4.64462   4.66766   4.69679   4.70430
 Alpha virt. eigenvalues --    4.74779   4.75476   4.76920   4.77656   4.78698
 Alpha virt. eigenvalues --    4.80156   4.80812   4.83309   4.87751   4.88630
 Alpha virt. eigenvalues --    4.91465   4.93433   4.94127   4.95767   4.97056
 Alpha virt. eigenvalues --    4.97799   5.00259   5.02758   5.03796   5.04693
 Alpha virt. eigenvalues --    5.06126   5.06737   5.08607   5.09715   5.09812
 Alpha virt. eigenvalues --    5.14471   5.15606   5.17662   5.18444   5.20456
 Alpha virt. eigenvalues --    5.21428   5.23811   5.24401   5.26078   5.29700
 Alpha virt. eigenvalues --    5.31048   5.33421   5.35149   5.39298   5.42876
 Alpha virt. eigenvalues --    5.45170   5.48401   5.54055   5.54483   5.58469
 Alpha virt. eigenvalues --    5.60329   5.61961   5.63205   5.64832   5.66200
 Alpha virt. eigenvalues --    5.66612   5.68073   5.69738   5.70483   5.71829
 Alpha virt. eigenvalues --    5.74056   5.77640   5.78512   5.79571   5.82344
 Alpha virt. eigenvalues --    5.84621   5.85449   5.89627   5.93698   5.94843
 Alpha virt. eigenvalues --    5.97406   6.00702   6.02394   6.11171   6.12729
 Alpha virt. eigenvalues --    6.14197   6.15104   6.17131   6.20230   6.51496
 Alpha virt. eigenvalues --    6.53338   6.54145   6.54885   6.56205   6.57432
 Alpha virt. eigenvalues --    6.69226   6.72226   6.73042   6.74605   6.75946
 Alpha virt. eigenvalues --    6.77267   6.77729   6.77916   6.79877   6.80399
 Alpha virt. eigenvalues --    6.81246   6.83910   6.86407   6.87689   6.88665
 Alpha virt. eigenvalues --    6.89973   6.91496   6.95450   6.95657   6.99905
 Alpha virt. eigenvalues --    7.02042   7.03842   7.06147   7.07388   7.11992
 Alpha virt. eigenvalues --    7.20149   7.20311   7.22578   7.24070   7.24547
 Alpha virt. eigenvalues --    7.40283   7.42667   7.43295   7.45313   7.46295
 Alpha virt. eigenvalues --    7.49405   7.51660   7.54082   7.56436   7.61340
 Alpha virt. eigenvalues --    7.66042   7.69565  23.07576  23.15327  23.19087
 Alpha virt. eigenvalues --   23.22772  23.40491  23.48249  44.07713  44.12904
 Alpha virt. eigenvalues --   44.21696  44.24165  44.35070  44.39561
          Condensed to atoms (all electrons):
               1          2          3          4          5          6
     1  C    5.103247   0.139893   0.148497   0.041381  -0.043566   0.401256
     2  C    0.139893   5.153168   0.022124   0.149773   0.419550  -0.041042
     3  C    0.148497   0.022124   5.086266  -0.023337   0.009160  -0.015345
     4  C    0.041381   0.149773  -0.023337   4.900048  -0.039027   0.001319
     5  H   -0.043566   0.419550   0.009160  -0.039027   0.594766   0.005937
     6  H    0.401256  -0.041042  -0.015345   0.001319   0.005937   0.574728
     7  C   -0.034113   0.003848   0.286471   0.004294  -0.006810  -0.009550
     8  H   -0.038152   0.009106   0.415787  -0.000224  -0.000509  -0.000828
     9  C    0.013859  -0.038113   0.001941   0.372012   0.008956  -0.001248
    10  H   -0.023362   0.026957   0.000541   0.375804  -0.005832   0.002069
    11  H   -0.004128   0.004041  -0.018963   0.000007  -0.003462   0.001175
    12  H    0.018284  -0.002848  -0.085821   0.000926   0.000547   0.001335
    13  H   -0.013214   0.040227   0.000362  -0.056903   0.000323   0.000211
    14  H    0.008385  -0.030364  -0.001053   0.002025  -0.001338  -0.000143
    15  O    0.015859  -0.000586  -0.048057   0.000025   0.000018   0.000230
    16  H    0.000292  -0.000002   0.008983  -0.000002  -0.000024   0.000007
    17  O   -0.053978   0.007658   0.204163   0.001592   0.000318   0.002452
    18  H    0.010777   0.000543  -0.031442   0.000072  -0.000167  -0.000349
    19  O    0.226663  -0.028497  -0.007113  -0.014934   0.003950  -0.021173
    20  H   -0.059876  -0.010642   0.009553  -0.003036   0.001833   0.008522
    21  O   -0.035622   0.227869   0.001053  -0.045438  -0.034190   0.004256
    22  H   -0.002608  -0.021636  -0.005570   0.005616  -0.007027  -0.000442
    23  O    0.006874  -0.035649  -0.000093   0.256517   0.008147   0.000148
    24  H    0.001802  -0.011909  -0.000307  -0.049031  -0.003033   0.000010
    25  O   -0.000852   0.013465   0.000008  -0.042389  -0.000443   0.000003
    26  H   -0.000020  -0.001187  -0.000000  -0.016058  -0.000254   0.000010
               7          8          9         10         11         12
     1  C   -0.034113  -0.038152   0.013859  -0.023362  -0.004128   0.018284
     2  C    0.003848   0.009106  -0.038113   0.026957   0.004041  -0.002848
     3  C    0.286471   0.415787   0.001941   0.000541  -0.018963  -0.085821
     4  C    0.004294  -0.000224   0.372012   0.375804   0.000007   0.000926
     5  H   -0.006810  -0.000509   0.008956  -0.005832  -0.003462   0.000547
     6  H   -0.009550  -0.000828  -0.001248   0.002069   0.001175   0.001335
     7  C    4.753245  -0.019706  -0.000288  -0.000315   0.385673   0.456341
     8  H   -0.019706   0.567760  -0.000112   0.000052   0.005591  -0.002710
     9  C   -0.000288  -0.000112   4.675384  -0.051235  -0.000074   0.000015
    10  H   -0.000315   0.000052  -0.051235   0.607493   0.000191  -0.000095
    11  H    0.385673   0.005591  -0.000074   0.000191   0.584245  -0.027099
    12  H    0.456341  -0.002710   0.000015  -0.000095  -0.027099   0.603713
    13  H   -0.000043   0.000015   0.397967   0.009836   0.000006  -0.000001
    14  H    0.000069   0.000017   0.390563  -0.004345   0.000004   0.000002
    15  O    0.242885  -0.003806  -0.000000  -0.000000  -0.031559  -0.036554
    16  H   -0.043319   0.005425  -0.000000   0.000000   0.010261  -0.014726
    17  O   -0.017196  -0.026886  -0.000188  -0.000003   0.000438   0.005710
    18  H   -0.012474  -0.006003   0.000019  -0.000003  -0.001550   0.001774
    19  O    0.005467   0.005374   0.008934  -0.000338  -0.000139  -0.000039
    20  H   -0.000364  -0.002800   0.001362   0.000081  -0.000003  -0.000041
    21  O   -0.002520  -0.000690  -0.014214   0.001875   0.000061  -0.000019
    22  H    0.000882   0.001041   0.000452  -0.000294   0.000636  -0.000000
    23  O   -0.000060   0.000009  -0.053084  -0.027801  -0.000029  -0.000001
    24  H    0.000019   0.000003   0.004203   0.007672   0.000014  -0.000001
    25  O   -0.000004  -0.000000   0.291349   0.010692   0.000001   0.000000
    26  H    0.000000  -0.000000  -0.043759  -0.001770   0.000000   0.000000
              13         14         15         16         17         18
     1  C   -0.013214   0.008385   0.015859   0.000292  -0.053978   0.010777
     2  C    0.040227  -0.030364  -0.000586  -0.000002   0.007658   0.000543
     3  C    0.000362  -0.001053  -0.048057   0.008983   0.204163  -0.031442
     4  C   -0.056903   0.002025   0.000025  -0.000002   0.001592   0.000072
     5  H    0.000323  -0.001338   0.000018  -0.000024   0.000318  -0.000167
     6  H    0.000211  -0.000143   0.000230   0.000007   0.002452  -0.000349
     7  C   -0.000043   0.000069   0.242885  -0.043319  -0.017196  -0.012474
     8  H    0.000015   0.000017  -0.003806   0.005425  -0.026886  -0.006003
     9  C    0.397967   0.390563  -0.000000  -0.000000  -0.000188   0.000019
    10  H    0.009836  -0.004345  -0.000000   0.000000  -0.000003  -0.000003
    11  H    0.000006   0.000004  -0.031559   0.010261   0.000438  -0.001550
    12  H   -0.000001   0.000002  -0.036554  -0.014726   0.005710   0.001774
    13  H    0.631677  -0.034583  -0.000000   0.000000   0.000027  -0.000002
    14  H   -0.034583   0.613258   0.000000  -0.000000  -0.000008   0.000002
    15  O   -0.000000   0.000000   7.892825   0.310045  -0.012953   0.028956
    16  H    0.000000  -0.000000   0.310045   0.535990  -0.000148  -0.001944
    17  O    0.000027  -0.000008  -0.012953  -0.000148   7.937903   0.323389
    18  H   -0.000002   0.000002   0.028956  -0.001944   0.323389   0.482783
    19  O    0.000134   0.003903  -0.000137  -0.000013  -0.003515  -0.000317
    20  H    0.000755  -0.001824  -0.000024  -0.000003   0.006609  -0.000300
    21  O    0.008385   0.001355  -0.000018   0.000001  -0.030751   0.001074
    22  H   -0.000369  -0.000043  -0.000091   0.000004   0.044555  -0.002161
    23  O   -0.002589   0.005844  -0.000000   0.000000  -0.000005  -0.000001
    24  H    0.000706   0.000486  -0.000000  -0.000000   0.000027  -0.000003
    25  O   -0.049006  -0.033781   0.000000   0.000000   0.000000   0.000000
    26  H   -0.005345   0.010160   0.000000   0.000000   0.000000   0.000000
              19         20         21         22         23         24
     1  C    0.226663  -0.059876  -0.035622  -0.002608   0.006874   0.001802
     2  C   -0.028497  -0.010642   0.227869  -0.021636  -0.035649  -0.011909
     3  C   -0.007113   0.009553   0.001053  -0.005570  -0.000093  -0.000307
     4  C   -0.014934  -0.003036  -0.045438   0.005616   0.256517  -0.049031
     5  H    0.003950   0.001833  -0.034190  -0.007027   0.008147  -0.003033
     6  H   -0.021173   0.008522   0.004256  -0.000442   0.000148   0.000010
     7  C    0.005467  -0.000364  -0.002520   0.000882  -0.000060   0.000019
     8  H    0.005374  -0.002800  -0.000690   0.001041   0.000009   0.000003
     9  C    0.008934   0.001362  -0.014214   0.000452  -0.053084   0.004203
    10  H   -0.000338   0.000081   0.001875  -0.000294  -0.027801   0.007672
    11  H   -0.000139  -0.000003   0.000061   0.000636  -0.000029   0.000014
    12  H   -0.000039  -0.000041  -0.000019  -0.000000  -0.000001  -0.000001
    13  H    0.000134   0.000755   0.008385  -0.000369  -0.002589   0.000706
    14  H    0.003903  -0.001824   0.001355  -0.000043   0.005844   0.000486
    15  O   -0.000137  -0.000024  -0.000018  -0.000091  -0.000000  -0.000000
    16  H   -0.000013  -0.000003   0.000001   0.000004   0.000000  -0.000000
    17  O   -0.003515   0.006609  -0.030751   0.044555  -0.000005   0.000027
    18  H   -0.000317  -0.000300   0.001074  -0.002161  -0.000001  -0.000003
    19  O    7.870106   0.325214  -0.008608   0.000376   0.000035  -0.000008
    20  H    0.325214   0.508696   0.022099  -0.000964   0.000017  -0.000027
    21  O   -0.008608   0.022099   7.977444   0.338288  -0.007771   0.022093
    22  H    0.000376  -0.000964   0.338288   0.434105   0.000008  -0.000500
    23  O    0.000035   0.000017  -0.007771   0.000008   7.913340   0.322520
    24  H   -0.000008  -0.000027   0.022093  -0.000500   0.322520   0.497508
    25  O    0.000345  -0.000021   0.000097   0.000005  -0.018074   0.000214
    26  H    0.000005  -0.000001   0.000065   0.000004   0.030995  -0.000847
              25         26
     1  C   -0.000852  -0.000020
     2  C    0.013465  -0.001187
     3  C    0.000008  -0.000000
     4  C   -0.042389  -0.016058
     5  H   -0.000443  -0.000254
     6  H    0.000003   0.000010
     7  C   -0.000004   0.000000
     8  H   -0.000000  -0.000000
     9  C    0.291349  -0.043759
    10  H    0.010692  -0.001770
    11  H    0.000001   0.000000
    12  H    0.000000   0.000000
    13  H   -0.049006  -0.005345
    14  H   -0.033781   0.010160
    15  O    0.000000   0.000000
    16  H    0.000000   0.000000
    17  O    0.000000   0.000000
    18  H    0.000000   0.000000
    19  O    0.000345   0.000005
    20  H   -0.000021  -0.000001
    21  O    0.000097   0.000065
    22  H    0.000005   0.000004
    23  O   -0.018074   0.030995
    24  H    0.000214  -0.000847
    25  O    7.885868   0.319692
    26  H    0.319692   0.512032
 Mulliken charges:
               1
     1  C    0.172422
     2  C    0.004252
     3  C    0.042195
     4  C    0.178968
     5  H    0.092176
     6  H    0.086452
     7  C    0.007566
     8  H    0.092244
     9  C    0.035300
    10  H    0.072130
    11  H    0.094661
    12  H    0.081308
    13  H    0.071421
    14  H    0.071408
    15  O   -0.357056
    16  H    0.189171
    17  O   -0.389209
    18  H    0.207327
    19  O   -0.365676
    20  H    0.195184
    21  O   -0.426175
    22  H    0.215731
    23  O   -0.399297
    24  H    0.208390
    25  O   -0.377169
    26  H    0.196277
 Sum of Mulliken charges =  -0.00000
 Mulliken charges with hydrogens summed into heavy atoms:
               1
     1  C    0.258873
     2  C    0.096428
     3  C    0.134439
     4  C    0.251098
     7  C    0.183535
     9  C    0.178128
    15  O   -0.167885
    17  O   -0.181882
    19  O   -0.170492
    21  O   -0.210444
    23  O   -0.190907
    25  O   -0.180892
 Electronic spatial extent (au):  <R**2>=           2738.6922
 Charge=             -0.0000 electrons
 Dipole moment (field-independent basis, Debye):
    X=             -5.8016    Y=             -0.1950    Z=             -0.7864  Tot=              5.8579
 Quadrupole moment (field-independent basis, Debye-Ang):
   XX=            -78.5557   YY=            -78.5570   ZZ=            -67.8748
   XY=             -7.4149   XZ=              7.1808   YZ=             -0.1222
 Traceless Quadrupole moment (field-independent basis, Debye-Ang):
   XX=             -3.5599   YY=             -3.5612   ZZ=              7.1211
   XY=             -7.4149   XZ=              7.1808   YZ=             -0.1222
 Octapole moment (field-independent basis, Debye-Ang**2):
  XXX=            -90.3207  YYY=             -3.4113  ZZZ=              5.2316  XYY=             -6.9315
  XXY=              9.6992  XXZ=              9.1394  XZZ=            -13.6388  YZZ=              0.3382
  YYZ=              8.9101  XYZ=              6.2735
 Hexadecapole moment (field-independent basis, Debye-Ang**3):
 XXXX=          -2612.1878 YYYY=           -474.4844 ZZZZ=           -316.1759 XXXY=           -237.8852
 XXXZ=            117.3439 YYYX=             13.3244 YYYZ=             -1.5893 ZZZX=              2.7666
 ZZZY=             -1.9749 XXYY=           -526.7334 XXZZ=           -434.9708 YYZZ=           -118.1814
 XXYZ=            -17.8462 YYXZ=              6.6431 ZZXY=            -10.1636
 N-N= 8.213464677667D+02 E-N=-3.259618803198D+03  KE= 6.850566156093D+02
   1 Symmetry operations used in ECPInt.
 ECPInt:  NShTT=   23436 NPrTT=   62434 LenC2=   21659 LenP2D=   45006.
 LDataN:  DoStor=T MaxTD1= 7 Len=  274
 Calling FoFJK, ICntrl=      2127 FMM=F ISym2X=0 I1Cent= 0 IOpClX= 0 NMat=1 NMatS=1 NMatT=0.
 ***** Axes restored to original set *****
 -------------------------------------------------------------------
 Center     Atomic                   Forces (Hartrees/Bohr)
 Number     Number              X              Y              Z
 -------------------------------------------------------------------
      1        6          -0.003026747   -0.019321438   -0.019938130
      2        6           0.003494100   -0.000440100   -0.008611757
      3        6           0.010912004    0.007789414    0.000735739
      4        6           0.012304665   -0.004646284   -0.013263597
      5        1          -0.002684029    0.001274351    0.005755803
      6        1           0.000580695   -0.001337961   -0.003175150
      7        6          -0.009595605    0.001289250   -0.007868997
      8        1           0.000680429   -0.000327658    0.008745206
      9        6           0.007515508   -0.006537141    0.014771615
     10        1           0.000349254   -0.000774801   -0.003460779
     11        1          -0.002555054   -0.001670163   -0.000203575
     12        1           0.002799821   -0.003935673    0.001717526
     13        1          -0.004845327    0.005722971   -0.004587473
     14        1           0.003347182    0.001062680   -0.001542311
     15        8          -0.011954920   -0.000879793    0.005308731
     16        1           0.016977534    0.000740065   -0.004417577
     17        8          -0.010387746    0.017716927   -0.001670031
     18        1           0.007302771   -0.015012579    0.009798845
     19        8           0.006539750    0.007365267   -0.008529105
     20        1          -0.005840591    0.002713996    0.017666641
     21        8          -0.013895890    0.006056875    0.002049350
     22        1           0.011413852   -0.005560817    0.012921786
     23        8          -0.010612553   -0.000627870   -0.015016089
     24        1          -0.001657230    0.003716957    0.017320979
     25        8           0.007701581    0.014196875   -0.005420172
     26        1          -0.014863455   -0.008573348    0.000912521
 -------------------------------------------------------------------
 Cartesian Forces:  Max     0.019938130 RMS     0.008582900

 GradGradGradGradGradGradGradGradGradGradGradGradGradGradGradGradGradGrad
 Berny optimization.
 FormGI is forming the generalized inverse of G from B-inverse, IUseBI=4.
 Internal  Forces:  Max     0.019225321 RMS     0.005255685
 Search for a local minimum.
 Step number   1 out of a maximum of  140
 All quantities printed in internal units (Hartrees-Bohrs-Radians)
 Mixed Optimization -- RFO/linear search
 Second derivative matrix not updated -- first step.
 ITU=  0
     Eigenvalues ---    0.00230   0.00230   0.00243   0.00345   0.00368
     Eigenvalues ---    0.01068   0.01126   0.01133   0.01221   0.01256
     Eigenvalues ---    0.01295   0.03738   0.03867   0.03994   0.03995
     Eigenvalues ---    0.04607   0.04709   0.04786   0.04828   0.05200
     Eigenvalues ---    0.05211   0.05461   0.05555   0.07573   0.07617
     Eigenvalues ---    0.07656   0.07966   0.11437   0.11496   0.13665
     Eigenvalues ---    0.13680   0.16000   0.16000   0.16000   0.16000
     Eigenvalues ---    0.16000   0.16000   0.16709   0.16994   0.17228
     Eigenvalues ---    0.17263   0.19394   0.19485   0.19747   0.19900
     Eigenvalues ---    0.22001   0.22019   0.28229   0.28310   0.28558
     Eigenvalues ---    0.29253   0.29418   0.34048   0.34158   0.34168
     Eigenvalues ---    0.34192   0.34335   0.34344   0.34431   0.34597
     Eigenvalues ---    0.38619   0.39210   0.39284   0.40195   0.40574
     Eigenvalues ---    0.40993   0.50541   0.51066   0.51292   0.51605
     Eigenvalues ---    0.51659   0.52471
 RFO step:  Lambda=-1.53703663D-02 EMin= 2.30000000D-03
 Linear search not attempted -- first point.
 Iteration  1 RMS(Cart)=  0.07001398 RMS(Int)=  0.00200144
 Iteration  2 RMS(Cart)=  0.00336027 RMS(Int)=  0.00052251
 Iteration  3 RMS(Cart)=  0.00000346 RMS(Int)=  0.00052250
 Iteration  4 RMS(Cart)=  0.00000000 RMS(Int)=  0.00052250
 Variable       Old X    -DE/DX   Delta X   Delta X   Delta X     New X
                                 (Linear)    (Quad)   (Total)
    R1        2.91641  -0.00244   0.00000  -0.00819  -0.00819   2.90822
    R2        2.91466  -0.00671   0.00000  -0.02248  -0.02248   2.89217
    R3        2.07007  -0.00341   0.00000  -0.00954  -0.00954   2.06052
    R4        2.71289  -0.01130   0.00000  -0.02707  -0.02707   2.68581
    R5        2.90934  -0.01000   0.00000  -0.03323  -0.03323   2.87611
    R6        2.07065   0.00028   0.00000   0.00077   0.00077   2.07142
    R7        2.72538  -0.01359   0.00000  -0.03329  -0.03329   2.69210
    R8        2.89138  -0.00589   0.00000  -0.01902  -0.01902   2.87236
    R9        2.07250  -0.00167   0.00000  -0.00470  -0.00470   2.06780
   R10        2.72641  -0.00900   0.00000  -0.02210  -0.02210   2.70432
   R11        2.89478  -0.00509   0.00000  -0.01652  -0.01652   2.87826
   R12        2.07048  -0.00339   0.00000  -0.00949  -0.00949   2.06099
   R13        2.73475  -0.01218   0.00000  -0.03032  -0.03032   2.70443
   R14        2.06609  -0.00292   0.00000  -0.00812  -0.00812   2.05797
   R15        2.06753  -0.00063   0.00000  -0.00176  -0.00176   2.06578
   R16        2.70226  -0.00292   0.00000  -0.00687  -0.00687   2.69539
   R17        2.06769  -0.00040   0.00000  -0.00111  -0.00111   2.06658
   R18        2.06334  -0.00372   0.00000  -0.01029  -0.01029   2.05305
   R19        2.70780  -0.00935   0.00000  -0.02220  -0.02220   2.68560
   R20        1.84151  -0.01748   0.00000  -0.03237  -0.03237   1.80914
   R21        1.85505  -0.01923   0.00000  -0.03655  -0.03655   1.81850
   R22        1.84979  -0.01856   0.00000  -0.03493  -0.03493   1.81487
   R23        1.86023  -0.01777   0.00000  -0.03412  -0.03412   1.82611
   R24        1.85283  -0.01773   0.00000  -0.03355  -0.03355   1.81928
   R25        1.84927  -0.01713   0.00000  -0.03220  -0.03220   1.81708
    A1        1.97811  -0.00101   0.00000   0.01244   0.00941   1.98752
    A2        1.92798  -0.00076   0.00000  -0.03337  -0.03338   1.89459
    A3        1.90264   0.00277   0.00000   0.04726   0.04504   1.94768
    A4        1.91067  -0.00255   0.00000  -0.04646  -0.04622   1.86445
    A5        1.86710   0.00489   0.00000   0.05826   0.05632   1.92342
    A6        1.87350  -0.00327   0.00000  -0.03726  -0.03567   1.83782
    A7        1.99858   0.00151   0.00000  -0.00286  -0.00284   1.99575
    A8        1.92135  -0.00195   0.00000  -0.01138  -0.01221   1.90914
    A9        1.93046   0.00421   0.00000   0.02793   0.02770   1.95816
   A10        1.87094  -0.00120   0.00000  -0.02665  -0.02664   1.84430
   A11        1.88523  -0.00582   0.00000  -0.03107  -0.03087   1.85436
   A12        1.85047   0.00321   0.00000   0.04635   0.04596   1.89643
   A13        1.98067   0.00487   0.00000   0.01822   0.01818   1.99885
   A14        1.91520  -0.00422   0.00000  -0.04283  -0.04278   1.87242
   A15        1.91385  -0.00173   0.00000  -0.00356  -0.00363   1.91022
   A16        1.91124  -0.00114   0.00000  -0.01084  -0.01098   1.90026
   A17        1.89477  -0.00146   0.00000   0.00249   0.00242   1.89719
   A18        1.84294   0.00364   0.00000   0.03859   0.03861   1.88154
   A19        2.02519   0.00030   0.00000   0.00897   0.00850   2.03369
   A20        1.92385  -0.00066   0.00000  -0.02063  -0.02067   1.90318
   A21        1.88024  -0.00126   0.00000   0.00568   0.00504   1.88527
   A22        1.90841  -0.00095   0.00000  -0.01294  -0.01282   1.89559
   A23        1.86357   0.00382   0.00000   0.03566   0.03540   1.89897
   A24        1.85382  -0.00124   0.00000  -0.01675  -0.01661   1.83721
   A25        1.94438  -0.00177   0.00000  -0.02144  -0.02165   1.92273
   A26        1.95717  -0.00431   0.00000  -0.02105  -0.02193   1.93523
   A27        1.89292   0.00504   0.00000   0.02629   0.02618   1.91910
   A28        1.90406   0.00097   0.00000  -0.00707  -0.00755   1.89650
   A29        1.85797  -0.00283   0.00000  -0.01982  -0.01952   1.83845
   A30        1.90432   0.00312   0.00000   0.04503   0.04504   1.94937
   A31        1.94794  -0.00526   0.00000  -0.03383  -0.03457   1.91337
   A32        1.95855  -0.00073   0.00000  -0.01733  -0.01778   1.94077
   A33        1.89934   0.00076   0.00000   0.00988   0.00997   1.90931
   A34        1.91063   0.00025   0.00000  -0.01342  -0.01455   1.89608
   A35        1.86941   0.00608   0.00000   0.06247   0.06271   1.93212
   A36        1.87430  -0.00057   0.00000  -0.00236  -0.00229   1.87201
   A37        1.87883   0.00289   0.00000   0.01648   0.01648   1.89531
   A38        1.83061   0.00414   0.00000   0.02361   0.02361   1.85422
   A39        1.84894   0.00217   0.00000   0.01238   0.01238   1.86132
   A40        1.84885   0.00088   0.00000   0.00499   0.00499   1.85385
   A41        1.82645   0.00283   0.00000   0.01616   0.01616   1.84261
   A42        1.83319   0.00080   0.00000   0.00455   0.00455   1.83774
    D1        2.97124  -0.00395   0.00000  -0.09224  -0.09228   2.87896
    D2        0.86212  -0.00197   0.00000  -0.04702  -0.04725   0.81487
    D3       -1.17713  -0.00725   0.00000  -0.11368  -0.11379  -1.29092
    D4        0.81982   0.00071   0.00000  -0.01503  -0.01512   0.80471
    D5       -1.28930   0.00269   0.00000   0.03019   0.02991  -1.25938
    D6        2.95464  -0.00259   0.00000  -0.03646  -0.03663   2.91801
    D7       -1.23476   0.00347   0.00000   0.02138   0.02177  -1.21299
    D8        2.93930   0.00544   0.00000   0.06660   0.06681   3.00610
    D9        0.90005   0.00016   0.00000  -0.00005   0.00026   0.90031
   D10       -1.26449   0.00330   0.00000   0.07113   0.07132  -1.19317
   D11        2.87434   0.00449   0.00000   0.10439   0.10458   2.97892
   D12        0.85756   0.00349   0.00000   0.08424   0.08442   0.94197
   D13        0.89641  -0.00034   0.00000   0.00142   0.00178   0.89819
   D14       -1.24794   0.00085   0.00000   0.03468   0.03504  -1.21291
   D15        3.01846  -0.00015   0.00000   0.01453   0.01487   3.03333
   D16        2.92119  -0.00285   0.00000  -0.03467  -0.03519   2.88599
   D17        0.77683  -0.00166   0.00000  -0.00140  -0.00193   0.77490
   D18       -1.23995  -0.00266   0.00000  -0.02155  -0.02210  -1.26205
   D19       -0.99660   0.00010   0.00000   0.02179   0.02034  -0.97625
   D20        1.14855   0.00348   0.00000   0.09999   0.10144   1.24999
   D21       -3.08527   0.00135   0.00000   0.05681   0.05681  -3.02847
   D22        1.06987  -0.00060   0.00000  -0.02105  -0.02101   1.04886
   D23       -1.11094   0.00104   0.00000   0.00714   0.00715  -1.10378
   D24       -3.12653   0.00357   0.00000   0.03482   0.03479  -3.09174
   D25       -3.07658  -0.00299   0.00000  -0.05712  -0.05716  -3.13374
   D26        1.02579  -0.00136   0.00000  -0.02893  -0.02900   0.99680
   D27       -0.98979   0.00118   0.00000  -0.00125  -0.00136  -0.99116
   D28       -1.08934  -0.00267   0.00000  -0.03161  -0.03151  -1.12085
   D29        3.01303  -0.00104   0.00000  -0.00342  -0.00335   3.00969
   D30        0.99745   0.00150   0.00000   0.02426   0.02429   1.02173
   D31        0.86174   0.00247   0.00000   0.08974   0.09044   0.95218
   D32        3.06156   0.00315   0.00000   0.08320   0.08343  -3.13819
   D33       -1.22083   0.00063   0.00000   0.06080   0.05988  -1.16095
   D34        1.12433  -0.00023   0.00000  -0.01824  -0.01799   1.10634
   D35       -1.01547   0.00294   0.00000   0.02196   0.02173  -0.99374
   D36       -3.11956  -0.00163   0.00000  -0.03865  -0.03859   3.12504
   D37       -3.01232  -0.00313   0.00000  -0.06910  -0.06885  -3.08117
   D38        1.13106   0.00004   0.00000  -0.02890  -0.02914   1.10193
   D39       -0.97303  -0.00453   0.00000  -0.08951  -0.08945  -1.06248
   D40       -1.00834  -0.00022   0.00000  -0.02770  -0.02752  -1.03586
   D41        3.13505   0.00295   0.00000   0.01250   0.01219  -3.13594
   D42        1.03096  -0.00162   0.00000  -0.04811  -0.04812   0.98284
   D43       -2.94769  -0.00240   0.00000  -0.01024  -0.01029  -2.95799
   D44       -0.77487   0.00156   0.00000   0.01180   0.01167  -0.76320
   D45        1.27325   0.00143   0.00000   0.02058   0.02077   1.29402
   D46        0.98999  -0.00240   0.00000  -0.03545  -0.03489   0.95510
   D47       -1.16204   0.00176   0.00000   0.02033   0.02017  -1.14187
   D48        3.04934   0.00241   0.00000   0.02743   0.02747   3.07681
   D49       -3.10451  -0.00388   0.00000  -0.06747  -0.06702   3.11166
   D50        1.02665   0.00028   0.00000  -0.01169  -0.01196   1.01469
   D51       -1.04515   0.00094   0.00000  -0.00459  -0.00466  -1.04981
   D52       -1.10582  -0.00380   0.00000  -0.07474  -0.07451  -1.18034
   D53        3.02533   0.00036   0.00000  -0.01896  -0.01945   3.00588
   D54        0.95353   0.00101   0.00000  -0.01186  -0.01216   0.94137
   D55       -0.78018  -0.00146   0.00000  -0.02707  -0.02722  -0.80740
   D56        1.40647   0.00046   0.00000   0.00872   0.00894   1.41542
   D57       -2.84143   0.00059   0.00000   0.00275   0.00268  -2.83875
   D58        1.38344   0.00001   0.00000   0.00489   0.00549   1.38894
   D59       -2.80565  -0.00097   0.00000  -0.01743  -0.01732  -2.82297
   D60       -0.75312   0.00023   0.00000  -0.01340  -0.01412  -0.76724
   D61       -0.70006  -0.00026   0.00000  -0.03399  -0.03438  -0.73444
   D62        1.40828  -0.00260   0.00000  -0.03266  -0.03237   1.37592
   D63       -2.82400   0.00052   0.00000  -0.01743  -0.01734  -2.84134
         Item               Value     Threshold  Converged?
 Maximum Force            0.019225     0.000450     NO 
 RMS     Force            0.005256     0.000300     NO 
 Maximum Displacement     0.271360     0.001800     NO 
 RMS     Displacement     0.070002     0.001200     NO 
 Predicted change in Energy=-9.126269D-03
 GradGradGradGradGradGradGradGradGradGradGradGradGradGradGradGradGradGrad

                          Input orientation:                          
 ---------------------------------------------------------------------
 Center     Atomic      Atomic             Coordinates (Angstroms)
 Number     Number       Type             X           Y           Z
 ---------------------------------------------------------------------
      1          6           0        0.004272   -0.058230   -0.076421
      2          6           0        1.542809   -0.027444   -0.057181
      3          6           0       -0.622325    0.914530   -1.078149
      4          6           0        2.168794   -0.701910    1.155104
      5          1           0        1.885550    1.013301   -0.026846
      6          1           0       -0.360796    0.226619    0.910757
      7          6           0       -0.445179    2.382789   -0.727144
      8          1           0       -1.691886    0.688365   -1.125389
      9          6           0        1.857271   -2.180385    1.347280
     10          1           0        1.870533   -0.163491    2.055445
     11          1           0        0.611619    2.645675   -0.734493
     12          1           0       -0.852345    2.598275    0.264211
     13          1           0        2.122055   -2.732403    0.441133
     14          1           0        0.801850   -2.336000    1.552692
     15          8           0       -1.043973    3.199177   -1.731834
     16          1           0       -1.988979    3.225245   -1.580790
     17          8           0       -0.068370    0.683241   -2.377217
     18          1           0       -0.360627    1.415695   -2.928700
     19          8           0       -0.489904   -1.372933   -0.294049
     20          1           0       -0.095372   -1.683094   -1.112881
     21          8           0        2.108075   -0.660247   -1.201518
     22          1           0        1.712698   -0.229597   -1.970947
     23          8           0        3.587804   -0.536762    1.070013
     24          1           0        3.819767   -0.757774    0.162169
     25          8           0        2.581754   -2.673836    2.465907
     26          1           0        3.458507   -2.286109    2.391349
 ---------------------------------------------------------------------
                    Distance matrix (angstroms):
                    1          2          3          4          5
     1  C    0.000000
     2  C    1.538966   0.000000
     3  C    1.530472   2.572450   0.000000
     4  C    2.572184   1.521971   3.923091   0.000000
     5  H    2.165605   1.096149   2.721108   2.102185   0.000000
     6  H    1.090382   2.150620   2.120699   2.705679   2.558132
     7  C    2.565934   3.195336   1.519989   4.459941   2.792528
     8  H    2.129481   3.480906   1.094232   4.694503   3.756385
     9  C    3.156592   2.589701   4.648613   1.523111   3.476874
    10  H    2.835289   2.142219   4.146792   1.090628   2.391862
    11  H    2.848339   2.910573   2.153504   4.147493   2.188221
    12  H    2.811911   3.568537   2.165603   4.562038   3.176937
    13  H    3.450227   2.810808   4.810401   2.152868   3.782227
    14  H    2.911765   2.910351   4.417640   2.167224   3.858389
    15  O    3.801304   4.461725   2.413442   5.820202   4.033254
    16  H    4.125213   5.037350   2.731262   6.339932   4.724342
    17  O    2.418413   2.912652   1.431062   4.404638   3.074247
    18  H    3.231270   3.735150   1.934992   5.249731   3.691611
    19  O    1.421272   2.449157   2.421742   3.101449   3.377616
    20  H    1.929860   2.557209   2.650761   3.351555   3.517680
    21  O    2.460540   1.424596   3.154398   2.357772   2.056729
    22  H    2.556818   1.931898   2.749263   3.194260   2.313916
    23  O    3.792757   2.389973   4.944293   1.431120   2.550189
    24  H    3.886424   2.401256   4.905830   1.927370   2.629378
    25  O    4.466345   3.801153   5.975184   2.403587   4.504831
    26  H    4.794275   3.842755   6.239768   2.387750   4.382690
                    6          7          8          9         10
     6  H    0.000000
     7  C    2.709042   0.000000
     8  H    2.476065   2.141016   0.000000
     9  C    3.302127   5.516073   5.190408   0.000000
    10  H    2.537977   4.425931   4.851206   2.137647   0.000000
    11  H    3.082900   1.089030   3.047950   5.401508   4.154520
    12  H    2.506869   1.093162   2.506706   5.599165   4.271994
    13  H    3.891132   5.841296   5.357405   1.093589   3.044434
    14  H    2.886320   5.386993   4.747381   1.086427   2.472780
    15  O    4.035606   1.426340   2.663032   6.843818   5.843403
    16  H    4.224990   1.954933   2.594497   7.251763   6.292978
    17  O    3.332385   2.398580   2.050098   5.077434   4.911700
    18  H    4.019370   2.406090   2.356521   6.011229   5.684506
    19  O    2.006686   3.780875   2.526824   2.975763   3.543238
    20  H    2.795096   4.099092   2.858816   3.180017   4.026446
    21  O    3.368021   4.000526   4.032897   2.978271   3.303181
    22  H    3.579347   3.609438   3.626129   3.851897   4.030027
    23  O    4.024868   5.293251   5.847722   2.402732   2.014803
    24  H    4.359647   5.370640   5.841870   2.698093   2.781579
    25  O    4.414718   6.702787   6.516579   1.421160   2.641240
    26  H    4.805521   6.838302   6.909522   1.914475   2.672078
                   11         12         13         14         15
    11  H    0.000000
    12  H    1.772808   0.000000
    13  H    5.708523   6.106921   0.000000
    14  H    5.484933   5.361307   1.770774   0.000000
    15  O    2.010481   2.093323   7.066056   6.695771   0.000000
    16  H    2.795573   2.255894   7.515473   6.966698   0.957356
    17  O    2.648032   3.355460   4.940414   5.031629   2.774572
    18  H    2.696786   3.440198   5.892894   5.958980   2.253943
    19  O    4.190054   4.026600   3.034959   2.450832   4.824770
    20  H    4.402415   4.560648   2.903961   2.887313   5.011937
    21  O    3.658772   4.640088   2.644301   3.478512   5.011167
    22  H    3.317889   4.424052   3.499962   4.205069   4.406007
    23  O    4.716124   5.494788   2.713807   3.351384   6.577305
    24  H    4.762319   5.753443   2.619009   3.678611   6.549860
    25  O    6.513155   6.666007   2.077129   2.028830   8.078317
    26  H    6.496011   6.853128   2.405956   2.786335   8.207394
                   16         17         18         19         20
    16  H    0.000000
    17  O    3.284024   0.000000
    18  H    2.782600   0.962308   0.000000
    19  O    5.004615   2.957217   3.838561   0.000000
    20  H    5.281711   2.683061   3.601396   0.960387   0.000000
    21  O    5.659218   2.814986   3.658850   2.842695   2.430895
    22  H    5.078442   2.042188   2.814774   2.995106   2.473468
    23  O    7.230488   5.171017   5.949109   4.380359   4.432255
    24  H    7.255610   4.862368   5.634992   4.377193   4.220223
    25  O    8.489200   6.461345   7.381305   4.329525   4.577805
    26  H    8.707928   6.632883   7.522770   4.861605   5.027257
                   21         22         23         24         25
    21  O    0.000000
    22  H    0.966335   0.000000
    23  O    2.713798   3.585779   0.000000
    24  H    2.190672   3.044486   0.962722   0.000000
    25  O    4.210572   5.139575   2.743673   3.242095   0.000000
    26  H    4.168428   5.129008   2.196102   2.726823   0.961555
                   26
    26  H    0.000000
 Stoichiometry    C6H14O6
 Framework group  C1[X(C6H14O6)]
 Deg. of freedom    72
 Full point group                 C1      NOp   1
 Largest Abelian subgroup         C1      NOp   1
 Largest concise Abelian subgroup C1      NOp   1
                         Standard orientation:                         
 ---------------------------------------------------------------------
 Center     Atomic      Atomic             Coordinates (Angstroms)
 Number     Number       Type             X           Y           Z
 ---------------------------------------------------------------------
      1          6           0       -0.491432    0.666568   -0.425947
      2          6           0        0.360706   -0.484741    0.136871
      3          6           0       -1.990143    0.518653   -0.153309
      4          6           0        1.775381   -0.549023   -0.420764
      5          1           0       -0.104127   -1.442599   -0.123858
      6          1           0       -0.368648    0.691685   -1.509103
      7          6           0       -2.657919   -0.623359   -0.901810
      8          1           0       -2.467748    1.459384   -0.443590
      9          6           0        2.655870    0.671036   -0.183996
     10          1           0        1.726739   -0.740249   -1.493395
     11          1           0       -2.239479   -1.576819   -0.582737
     12          1           0       -2.511731   -0.520582   -1.980267
     13          1           0        2.691534    0.896339    0.885539
     14          1           0        2.271486    1.540815   -0.709407
     15          8           0       -4.041528   -0.685653   -0.560946
     16          1           0       -4.509626   -0.017199   -1.061529
     17          8           0       -2.203286    0.334404    1.249745
     18          1           0       -3.126103    0.080943    1.350751
     19          8           0       -0.031432    1.930588    0.033036
     20          1           0       -0.034136    1.892451    0.992662
     21          8           0        0.493545   -0.413262    1.553458
     22          1           0       -0.404919   -0.375620    1.907222
     23          8           0        2.419664   -1.698276    0.138006
     24          1           0        2.222143   -1.672921    1.079906
     25          8           0        3.960231    0.416620   -0.687592
     26          1           0        4.162291   -0.485790   -0.424124
 ---------------------------------------------------------------------
 Rotational constants (GHZ):           1.8414653           0.4419836           0.4224067
 Standard basis: def2TZVPP (5D, 7F)
 There are   642 symmetry adapted cartesian basis functions of A   symmetry.
 There are   568 symmetry adapted basis functions of A   symmetry.
   568 basis functions,   850 primitive gaussians,   642 cartesian basis functions
    49 alpha electrons       49 beta electrons
       nuclear repulsion energy       823.3427010453 Hartrees.
 NAtoms=   26 NActive=   26 NUniq=   26 SFac= 1.00D+00 NAtFMM=   60 NAOKFM=F Big=F
 Integral buffers will be    131072 words long.
 Raffenetti 2 integral format.
 Two-electron integral symmetry is turned on.
 Nuclear repulsion after empirical dispersion term =      823.3240167549 Hartrees.
 One-electron integrals computed using PRISM.
   1 Symmetry operations used in ECPInt.
 ECPInt:  NShTT=   23436 NPrTT=   62434 LenC2=   21682 LenP2D=   45065.
 LDataN:  DoStor=T MaxTD1= 6 Len=  172
 NBasis=   568 RedAO= T EigKep=  4.62D-05  NBF=   568
[...]
 19352,0.00002228,-0.00012187,0.00004002,0.00168842,0.00052805,-0.00063
 028,0.00003392,0.00007413,-0.00004304,0.34080110,-0.06837898,-0.211603
 30,-0.02334881,-0.01340730,-0.02017645,-0.00522885,-0.01130678,-0.0512
 3594,-0.00940655,0.00020670,-0.00178692,0.00186200,-0.00234041,0.00177
 048,0.00009020,-0.00852338,-0.02330993,-0.00987846,0.00189878,0.002823
 50,0.00685015,-0.00130061,0.00201649,-0.00170327,-0.00191703,-0.001256
 30,-0.00004961,0.00021550,0.00040063,0.00056072,-0.00034171,-0.0000160
 0,-0.00020047,0.00000707,0.00006150,-0.00019699,-0.00086503,0.00077218
 ,0.00065391,0.00213297,-0.00088453,-0.00043921,0.00135714,-0.00576793,
 0.00193601,-0.00059372,0.00023330,-0.00013933,-0.00097283,0.00174790,0
 .00245802,0.00004630,0.00008610,-0.00018017,-0.03296995,0.41586389,-0.
 00691581,-0.04718716,-0.08391746,0.00004646,-0.00736830,-0.00260368,0.
 00531176,0.01824126,0.00789238,0.00193373,0.00026720,-0.00036992,-0.00
 101582,0.00052611,0.00102355,-0.01312705,-0.03401086,-0.00227186,-0.00
 016178,0.00019229,-0.00276529,0.00186780,-0.00085760,0.00112836,0.0020
 0216,0.00038585,-0.00227795,-0.00007872,0.00001220,0.00038954,0.000171
 05,0.00047908,-0.00000596,-0.00031869,0.00041606,0.00046961,0.00005766
 ,0.00020957,-0.00000639,-0.00415554,0.00075684,-0.00157642,-0.00047445
 ,0.00148168,0.00032830,0.00008569,-0.00008518,-0.00008909,-0.00006683,
 -0.00051095,0.00355694,-0.00016092,-0.00005304,0.00093698,-0.21073708,
 0.18707399,0.30304597,0.01108284,-0.00806861,-0.01201522,-0.00039294,-
 0.00615988,-0.00536329,0.00006994,0.00004779,-0.00037464,-0.00036378,-
 0.00005054,-0.00033709,-0.00004850,0.00110299,0.00096534,-0.00163556,-
 0.00426884,-0.00217995,0.00018355,0.00033787,0.00031344,-0.00023659,0.
 00032857,0.00010586,0.00025978,-0.00029082,-0.00151859,0.00017797,0.00
 010240,0.00043391,-0.00006557,-0.00018582,-0.00005701,-0.00006957,0.00
 003882,0.00002111,-0.00037207,0.00074184,0.00001727,-0.00008650,-0.000
 01265,0.00020462,-0.00002322,-0.00044982,0.00014050,-0.00003676,0.0000
 8201,-0.00000762,-0.00113418,-0.00016166,0.00025877,-0.00008673,0.0000
 7440,0.00001113,-0.21974598,0.13082299,0.22374697,0.21040489,0.0225403
 6,-0.02614976,-0.03120122,-0.00034020,-0.00063062,-0.00338590,0.000966
 03,-0.00266302,-0.00164927,-0.00022354,0.00043776,-0.00077183,0.000728
 61,0.00006046,-0.00006425,-0.00189652,-0.00417281,0.00048578,0.0001656
 9,-0.00040628,0.00037365,-0.00016913,-0.00019071,0.00004691,-0.0000724
 5,0.00070625,0.00095006,0.00001714,-0.00017533,0.00013840,-0.00001260,
 0.00005937,-0.00003761,-0.00006110,0.00017091,0.00010463,0.00063525,-0
 .00035063,-0.00021211,-0.00012708,0.00019703,0.00012884,-0.00017339,0.
 00019078,0.00011430,0.00004412,-0.00010040,-0.00000435,-0.00032827,0.0
 0057624,0.00027027,0.00001061,0.00003191,0.00032177,0.09327492,-0.1165
 0884,-0.12447773,-0.11664851,0.14946259,0.00310069,-0.00745483,-0.0088
 8839,0.00093929,0.00058697,0.00194728,-0.00014640,0.00261694,0.0019515
 9,-0.00094861,-0.00076596,-0.00047903,0.00099995,-0.00021651,-0.000746
 00,-0.00083910,-0.00345720,-0.00001684,0.00005605,0.00004656,-0.000524
 91,0.00011114,-0.00000260,0.00007797,-0.00084213,-0.00026238,-0.001206
 73,0.00005429,0.00024911,0.00003950,0.00000775,-0.00003208,-0.00000222
 ,-0.00002631,-0.00007186,-0.00002718,-0.00066493,0.00052036,0.00037772
 ,0.00041217,-0.00020399,-0.00066861,-0.00009395,0.00036899,-0.00027950
 ,0.00001315,0.00002063,0.00003047,0.00028251,-0.00056394,-0.00072511,0
 .00003760,0.00000584,-0.00010216,0.20278728,-0.14967315,-0.22633697,-0
 .20739500,0.15604645,0.23765081,-0.02028622,0.01831378,0.03709446,-0.0
 8473801,0.03502329,0.01969743,0.00185855,-0.00157785,0.00068969,0.0006
 0521,-0.00684786,-0.00907363,0.00552447,-0.00038714,-0.00380480,-0.007
 81193,0.00011566,-0.00056470,-0.00039942,-0.00116034,0.00007453,0.0001
 3869,-0.00008418,-0.00016736,-0.00017562,0.00029446,0.00039650,-0.0007
 5041,0.00101648,-0.00261512,0.00014844,0.00018555,0.00004984,0.0000873
 5,0.00003403,-0.00011661,-0.00005837,-0.00011927,-0.00015564,0.0002521
 8,0.00023284,-0.00063801,-0.00013587,0.00120401,-0.00023276,0.00018446
 ,-0.00025210,0.00008059,-0.00250019,0.00788264,-0.00537312,-0.00173549
 ,-0.00016503,0.00092363,-0.00236629,0.00478121,0.00667841,0.00238147,0
 .00378159,-0.00143606,0.16656997,0.00293845,-0.00870855,-0.01311446,0.
 03868611,-0.13283950,-0.03380259,-0.00121319,0.00036599,0.00017526,-0.
 00400784,0.00981767,0.00657495,0.01685085,-0.02073970,-0.03790954,0.00
 161044,0.00072074,0.00079291,-0.00081854,-0.00016491,-0.00061277,0.000
 57251,-0.00002004,-0.00002843,-0.00128384,-0.00122051,-0.00125633,0.00
 159133,-0.00006211,0.00322908,0.00039676,0.00076559,0.00013537,0.00022
 137,-0.00002842,0.00002384,-0.00018882,0.00113226,0.00138976,-0.000060
 17,0.00001792,0.00016744,0.00077847,-0.00033292,0.00036253,-0.00009213
 ,0.00002281,0.00004623,0.00515532,-0.00409832,0.00312912,0.00108739,0.
 00044347,-0.00067855,-0.00552747,0.00555290,0.00531479,0.00425848,0.00
 115756,-0.00007993,-0.14765845,0.30723210,0.01414370,-0.01037600,-0.01
 635929,0.03770661,-0.07184262,-0.16422741,0.00257619,0.00195379,-0.007
 00912,0.01147391,-0.02447508,-0.04441917,0.00390344,-0.01298504,-0.009
 57934,0.00254179,-0.00014596,0.00117821,-0.00104677,0.00033481,-0.0002
 7480,-0.00006529,-0.00050375,0.00140397,0.00044088,-0.00155067,0.00212
 975,-0.00399571,0.00362394,-0.00502918,0.00023628,0.00040547,-0.000126
 85,-0.00015445,0.00045511,0.00032245,0.00003701,0.00097429,-0.00132827
 ,-0.00006074,-0.00013328,-0.00039037,0.00038934,-0.00016489,0.00138863
 ,0.00002855,-0.00009586,-0.00005846,-0.00724132,0.00528645,0.00277528,
 -0.00123741,-0.00053192,0.00088758,-0.00006080,-0.00152852,0.00350601,
 0.00043241,0.00195111,-0.00313408,0.06233953,-0.10642740,0.58199775,0.
 00043598,-0.00042422,0.00280491,0.00485950,-0.00730994,0.01235918,-0.0
 0320830,0.00004541,0.00491533,-0.00176664,0.00171274,0.00141968,0.0001
 2422,0.00145096,0.00007291,-0.00019653,0.00022208,-0.00044590,0.000732
 81,0.00053959,-0.00015347,0.00048173,0.00005141,-0.00061901,0.00028077
 ,0.00014162,-0.00023329,0.00036566,-0.00009386,0.00059674,-0.00013742,
 -0.00018315,0.00000906,0.00007530,-0.00040173,-0.00022729,-0.00004308,
 0.00007232,0.00005669,-0.00006959,-0.00002985,0.00012196,0.00007047,-0
 .00081078,-0.00060297,-0.00015624,0.00025033,0.00000060,-0.00105192,-0
 .00185767,-0.00077454,0.00213022,0.00014260,-0.00154432,-0.00169997,0.
 00056877,-0.00111200,0.00050750,-0.00188920,0.00192703,-0.06238908,0.0
 8777789,-0.12410746,0.05955140,0.00068195,0.00193206,-0.00026518,-0.00
 670516,0.01089756,-0.02290123,0.00196437,0.00071975,-0.00477831,0.0018
 8815,-0.00307522,-0.00434121,-0.00052443,-0.00030442,-0.00155253,0.000
 38873,-0.00035477,0.00009503,-0.00004310,-0.00008309,0.00024775,-0.000
 63118,-0.00002939,0.00097554,0.00002103,-0.00065836,-0.00002359,-0.000
 61831,0.00055344,-0.00123657,-0.00001871,-0.00006913,-0.00017698,-0.00
 018109,0.00026425,0.00017323,0.00000895,0.00036476,0.00015736,-0.00002
 634,0.00005618,0.00008107,-0.00017444,0.00025240,0.00044648,0.00009582
 ,-0.00014653,-0.00000869,-0.00278613,-0.00119701,0.00257286,-0.0003848
 2,-0.00092057,0.00070412,0.00022042,-0.00123760,-0.00090626,-0.0017521
 0,-0.00117317,0.00201076,0.08783911,-0.16056959,0.21466639,-0.07977889
 ,0.15484101,0.00145656,0.00008956,0.00060048,-0.00848799,0.01523123,-0
 .03600440,0.00139953,-0.00182393,0.00284106,0.00277232,-0.00430970,-0.
 00389841,-0.00124295,0.00081113,0.00203044,-0.00076943,-0.00001429,0.0
 0005662,0.00056185,-0.00015414,-0.00031068,0.00012239,0.00003930,-0.00
 058188,0.00007614,-0.00039497,-0.00004868,-0.00068123,0.00062673,-0.00
 078074,-0.00008539,-0.00018650,0.00001617,0.00000673,-0.00022645,-0.00
 014010,-0.00000869,0.00025316,0.00008551,-0.00002926,0.00004949,0.0000
 2525,-0.00022966,0.00028095,-0.00047703,-0.00000010,0.00004211,0.00002
 325,-0.00072932,0.00219796,-0.00568788,-0.00070316,0.00049942,-0.00023
 805,-0.00125262,0.00040450,0.00019377,0.00184897,0.00099607,-0.0001019
 7,-0.10027454,0.17177945,-0.34192097,0.10622856,-0.18624495,0.38311277
 ,0.00221983,0.00402509,-0.00658016,-0.04743084,0.00042388,0.00097572,-
 0.00233263,-0.00111030,0.00173051,-0.21720589,-0.01840056,-0.00626046,
 0.00157126,0.00006962,0.00131311,0.00094525,-0.00017673,0.00021790,0.0
 0008679,-0.00100409,-0.00006047,-0.00049093,0.00061102,-0.00065849,-0.
 04083835,-0.00651677,0.00661133,-0.02214180,0.00146004,0.00567286,0.00
 000638,-0.00004772,0.00002189,0.00002740,-0.00002832,-0.00004054,0.001
 70911,0.00041320,-0.00142584,0.00051740,-0.00593673,0.00184738,-0.0002
 6658,0.00108381,-0.00044895,0.00014339,-0.00022606,0.00003025,0.000469
 43,0.00032856,-0.00099371,-0.00010602,-0.00021179,0.00011738,-0.001124
 66,-0.00106995,-0.00118688,-0.00009034,0.00023533,0.00081365,0.0027728
 4,-0.00013784,0.00049534,0.00006791,0.00015874,0.00092171,0.37551260,-
 0.00027681,-0.00139047,0.00332949,0.01689109,0.00113831,-0.00227866,0.
 00069459,0.00034232,-0.00038518,-0.00112047,-0.07068096,-0.01107319,-0
 .00016036,0.00228055,-0.00238523,-0.00036406,-0.00007121,0.00012605,-0
 .00031186,0.00018804,-0.00009398,0.00026492,-0.00018876,0.00025641,-0.
 03854581,-0.00251979,0.00994244,0.01936429,0.00422791,-0.00083009,0.00
 005126,0.00008364,-0.00000234,0.00002423,-0.00000258,0.00000164,0.0008
 7776,0.00374393,-0.00025917,-0.00159386,-0.00641052,0.00341464,0.00020
 483,-0.00022777,0.00016136,-0.00005065,0.00005193,0.00000107,0.0000214
 1,0.00014891,0.00017495,-0.00008080,0.00000474,-0.00007161,0.00111684,
 0.00213029,-0.00016059,0.00010824,-0.00048988,0.00025788,-0.00021481,0
 .00234675,-0.00049048,-0.00070357,-0.00009005,0.00000022,-0.00639569,0
 .12776249,-0.00003456,0.00263398,-0.00498757,-0.02853167,-0.00151834,0
 .00039549,-0.00121630,-0.00035756,0.00033756,0.03906599,-0.01059518,-0
 .09594544,0.00047686,-0.00147359,0.00174225,-0.00052150,0.00022291,0.0
 0036686,0.00006134,-0.00031872,-0.00017091,-0.00033287,0.00033632,-0.0
 0031708,0.00947484,0.00402301,-0.00237694,0.03515987,0.00152696,-0.002
 02293,0.00004002,-0.00001650,-0.00007080,-0.00011035,0.00004161,0.0000
 4464,-0.00110304,0.00140938,0.00119481,-0.00000165,0.00220677,0.000592
 67,-0.00010777,0.00039107,0.00006468,0.00005803,-0.00010587,-0.0000193
 6,-0.00036670,0.00027059,0.00012315,-0.00003274,-0.00007599,0.00010852
 ,-0.00079188,-0.00094182,0.00082604,0.00054347,0.00058734,-0.00020201,
 -0.00598755,0.00038466,-0.00067505,-0.00108862,-0.00031907,0.00145459,
 -0.10411926,0.16321157,0.54468469,-0.00026529,-0.00021428,0.00044062,-
 0.00244536,0.00324498,0.00299417,-0.00003145,0.00012613,-0.00002754,-0
 .01763687,0.01736268,0.04445928,-0.00006769,-0.00008131,-0.00039090,0.
 00032760,-0.00006685,-0.00018787,-0.00006814,0.00022902,-0.00000414,0.
 00012056,-0.00007202,0.00005938,0.00008529,-0.00018855,0.00115096,-0.0
 0710990,-0.00072985,0.00028085,0.00000629,0.00005670,0.00002465,0.0000
 3930,-0.00002420,-0.00001153,0.00003861,-0.00098462,-0.00021964,0.0001
 8135,-0.00023400,-0.00044408,0.00013520,-0.00033553,0.00006575,-0.0000
 4897,0.00007573,0.00000141,0.00043119,-0.00048344,0.00019646,0.0001055
 7,0.00006618,-0.00012511,0.00060636,0.00000599,-0.00024141,-0.00064299
 ,-0.00032607,0.00004559,0.00200405,-0.00114895,0.00164374,0.00110112,0
 .00036002,-0.00098114,-0.05782126,0.01511078,0.05314013,0.08101174,0.0
 0051651,0.00021127,-0.00066746,0.00057915,0.00096988,-0.00163452,-0.00
 008146,-0.00005381,0.00006499,0.00056560,-0.00033861,0.00109365,0.0004
 8387,-0.00078746,0.00019462,-0.00006115,0.00004797,0.00011183,0.000128
 17,-0.00004394,0.00002587,-0.00008563,0.00004614,-0.00006196,-0.001236
 27,0.00165260,0.00271845,0.00180767,0.00033532,-0.00022825,-0.00001670
 ,-0.00005374,-0.00003110,-0.00004196,0.00000482,0.00000824,-0.00025996
 ,-0.00065993,-0.00078570,0.00010596,-0.00066583,-0.00044914,-0.0000964
 0,0.00009084,-0.00003233,0.00002140,-0.00002417,-0.00000274,-0.0001460
 6,-0.00008329,-0.00001287,0.00006387,-0.00000119,0.00004288,-0.0004382
 9,-0.00058636,0.00015818,0.00004474,0.00030526,-0.00007146,-0.00198970
 ,-0.00150889,0.00048360,0.00061471,-0.00018458,0.00007524,0.03207074,-
 0.06442834,-0.16082015,-0.03185778,0.06595832,0.00038834,-0.00018131,-
 0.00111024,-0.00410494,0.00160587,0.00373319,-0.00042179,0.00001523,0.
 00034731,0.00375085,-0.00378742,-0.00561618,0.00010675,-0.00023094,-0.
 00017792,0.00042748,-0.00004798,-0.00002242,0.00000561,0.00000306,0.00
 000023,0.00003352,0.00002539,-0.00006871,-0.00082390,0.00071095,0.0001
 5426,-0.00028037,0.00138838,0.00139263,-0.00000366,0.00001653,0.000031
 46,0.00003581,-0.00002650,-0.00002318,0.00035814,0.00017895,-0.0002126
 6,-0.00032792,-0.00044234,0.00051407,0.00003609,-0.00005428,-0.0000739
 6,-0.00001480,0.00002430,0.00001007,0.00044219,-0.00031582,-0.00014527
 ,0.00001995,0.00003087,-0.00004902,0.00010216,-0.00010266,-0.00049939,
 -0.00054938,-0.00029109,0.00038766,0.00194602,-0.00025461,-0.00039330,
 0.00022631,0.00050881,-0.00062840,0.09973464,-0.15864556,-0.44770578,-
 0.10112204,0.15952967,0.45154059,-0.00007510,-0.00196070,0.00051280,0.
 00118282,-0.00010305,0.00117965,0.00015122,0.00002350,0.00035075,-0.00
 540615,0.00341852,-0.00452375,-0.00010735,0.00047230,-0.00063376,0.000
 15722,-0.00020447,0.00012239,0.00007463,-0.00030157,-0.00003031,0.0000
 1348,-0.00001272,0.00000634,-0.13658143,0.03069299,-0.08489403,-0.0001
 1475,-0.00010298,0.00073411,0.00000898,-0.00001697,-0.00000586,-0.0000
 0432,-0.00001946,-0.00001614,0.00283043,-0.00178171,-0.00964554,-0.020
 45075,0.01428825,-0.03757245,-0.00014397,0.00043631,-0.00017142,0.0000
 5739,-0.00009119,0.00001169,0.00003225,0.00027089,-0.00038846,-0.00001
 438,-0.00008456,0.00005339,-0.00104323,0.00189114,-0.00212799,0.000081
 34,-0.00016699,0.00090497,0.00086146,0.00024607,-0.00088813,-0.0000370
 2,-0.00003861,0.00012810,0.00460680,-0.00493122,0.00568675,-0.00032679
 ,-0.00052608,-0.00043535,0.62410599,-0.00156171,-0.00086269,-0.0002957
 4,-0.00509420,-0.00776895,-0.00163522,-0.00000290,0.00029262,-0.000213
 27,0.02286725,-0.01607429,0.04013561,0.00108152,-0.00109435,0.00223195
 ,-0.00004634,0.00006194,-0.00005067,-0.00027547,0.00024397,-0.00016599
 ,0.00020010,-0.00010770,0.00015349,0.00449013,-0.08172901,0.03907274,0
 .00108818,0.00439441,-0.00042239,0.00007447,0.00016819,0.00002797,0.00
 003871,-0.00000303,0.00000442,-0.00917249,0.01197230,-0.00784594,-0.00
 011963,0.00235414,-0.00081806,0.00026241,-0.00034566,0.00021666,-0.000
 06845,0.00007116,-0.00000194,0.00031877,-0.00009411,0.00036432,-0.0000
 2927,0.00005453,-0.00012109,0.00044568,0.00148797,-0.00010043,-0.00011
 689,-0.00054051,0.00022697,0.00023493,0.00099367,0.00174154,-0.0001685
 4,0.00031178,-0.00011817,0.00108164,0.00196122,0.00234517,0.00066596,-
 0.00147224,0.00034274,0.10272535,0.13668095,0.00068897,-0.00091392,-0.
 00004177,0.00281184,0.00339769,0.00176835,0.00014889,-0.00007763,0.000
 17686,-0.01404742,0.01394455,-0.02295327,-0.00074738,0.00082822,-0.001
 52514,-0.00012029,0.00006807,0.00012844,0.00021790,-0.00036752,-0.0000
 2916,-0.00013780,0.00004744,-0.00007713,-0.04519902,0.05002351,-0.1907
 6424,0.00036559,0.00075241,0.00160262,-0.00001669,-0.00011875,-0.00004
 251,-0.00007528,0.00001090,0.00001256,-0.02434102,0.01266134,-0.034892
 44,-0.00461330,0.00125100,0.00245274,-0.00026902,0.00056737,-0.0001454
 7,0.00008722,-0.00012795,-0.00001790,-0.00037652,0.00037956,-0.0002957
 0,0.00000234,-0.00012322,0.00011201,-0.00102943,0.00078139,-0.00025043
 ,0.00090425,-0.00036601,0.00088254,0.00002443,0.00073047,-0.00077956,0
 .00022993,0.00008304,0.00051175,-0.00083524,0.00025200,0.00130194,-0.0
 0076507,-0.00045704,-0.00004612,0.03205674,-0.11692630,0.29547545,-0.0
 0022485,0.00002599,-0.00020314,-0.00128546,-0.00076346,-0.00014162,-0.
 00005172,0.00002875,-0.00005738,0.00149417,-0.00058600,0.00118279,0.00
 025105,-0.00022457,0.00040401,-0.00000702,0.00000429,-0.00001148,-0.00
 004108,0.00006970,-0.00003146,0.00002199,-0.00000499,0.00001309,-0.028
 30507,-0.00365337,0.00040695,-0.00014187,0.00048944,-0.00010768,0.0000
 1090,0.00003032,0.00000287,0.00000208,0.00000161,0.00000394,0.00070993
 ,-0.00045189,0.00118051,-0.00019667,0.00056952,-0.00430324,0.00005413,
 -0.00010115,0.00005679,-0.00001544,0.00002072,-0.00000277,0.00004854,-
 0.00005946,0.00010153,0.00000457,0.00001970,-0.00002653,0.00010104,0.0
 0005313,-0.00002074,-0.00011798,0.00003539,-0.00010064,-0.00004223,-0.
 00003421,0.00046935,-0.00002877,0.00003605,-0.00004737,-0.00080709,0.0
 0001970,0.00063913,0.00027047,-0.00016495,0.00047028,-0.46985872,-0.11
 891919,0.05503540,0.49815510,0.00028389,0.00060411,-0.00026900,-0.0001
 6861,0.00018526,0.00049263,-0.00008418,-0.00009604,0.00005620,0.005566
 81,-0.00003981,0.00125566,0.00003525,-0.00008379,0.00003010,0.00001957
 ,0.00003784,-0.00002968,0.00010188,-0.00007337,0.00006381,-0.00007845,
 0.00004669,-0.00006137,0.01532287,0.00318054,-0.00071585,-0.00000562,-
 0.00047995,0.00001405,-0.00002491,-0.00004719,0.00000117,-0.00000340,0
 .00000432,-0.00000081,-0.00090061,0.00012753,0.00039557,0.00245344,-0.
 00137467,0.00277656,-0.00008796,0.00009288,-0.00007490,0.00002251,-0.0
 0001994,0.00000372,-0.00011056,0.00001844,-0.00009033,0.00001270,-0.00
 000553,0.00004577,-0.00018780,-0.00057704,0.00020300,0.00007499,0.0001
 9584,-0.00010158,-0.00048285,-0.00027597,-0.00062501,0.00006100,-0.000
 09973,0.00009660,-0.00069912,0.00008930,-0.00304853,-0.00055674,0.0012
 6995,-0.00000025,-0.14412304,-0.05095629,0.03369936,0.12355891,0.04827
 659,-0.00016220,-0.00034929,0.00025892,0.00029672,-0.00010868,-0.00005
 144,0.00003207,0.00008174,0.00000721,-0.00454364,0.00225811,0.00094879
 ,-0.00004921,0.00006179,-0.00008176,0.00002892,-0.00002371,-0.00000495
 ,-0.00006019,0.00006912,-0.00001573,0.00006087,-0.00003490,0.00003789,
 -0.04016630,-0.00723743,0.00082475,0.00040611,-0.00030987,-0.00012778,
 0.00000648,0.00003223,0.00001177,0.00001941,-0.00000490,-0.00000510,-0
 .00093235,-0.00046299,-0.00085449,-0.00214167,0.00187412,-0.00411018,0
 .00006110,-0.00010288,0.00002054,-0.00001827,0.00002740,0.00000591,0.0
 0012595,-0.00007568,0.00002420,-0.00000565,0.00002365,-0.00002369,0.00
 001054,0.00034695,-0.00032662,-0.00015024,-0.00005423,0.00009617,0.000
 44484,-0.00007125,0.00011557,-0.00006002,0.00003214,-0.00013248,0.0021
 0633,-0.00445364,0.00125599,0.00001749,0.00074750,-0.00133893,0.099585
 51,0.04185162,-0.05256443,-0.05491260,-0.03411691,0.05602988\\-0.00001
 064,0.00000060,-0.00002046,0.00000303,-0.00000459,0.00001476,-0.000007
 24,0.00001234,0.00002259,-0.00000430,-0.00000151,-0.00000681,-0.000000
 64,0.00000356,0.00000331,0.00000314,-0.00000350,0.00000714,0.00000033,
 0.00000124,-0.00000021,0.00000611,-0.00000322,0.00000431,0.00001628,-0
 .00000656,0.00000232,0.00000228,-0.00000171,0.00000362,-0.00000383,-0.
 00000238,0.00000027,-0.00000392,-0.00000282,-0.00000133,0.00000014,0.0
 0000380,-0.00000024,0.00000177,-0.00000268,0.00000287,-0.00000628,-0.0
 0001126,-0.00000410,0.00000027,0.00000357,0.00000176,0.00000400,0.0000
 0526,-0.00000861,0.00000276,-0.00000183,-0.00000906,0.00001454,0.00000
 565,-0.00000454,0.00000250,-0.00000203,0.00000768,0.00000105,-0.000007
 93,-0.00000050,-0.00000005,-0.00000122,-0.00000637,0.00000275,0.000007
 18,-0.00000596,0.00000025,0.00000309,0.00000033,-0.00001180,0.00000092
 ,0.00000190,-0.00001249,0.00000605,-0.00000468\\\@
 The archive entry for this job was punched.


 THE LENGTH OF A MEETING IS PROPORTIONAL TO THE
 SQUARE OF THE PARTICIPANTS.
 Job cpu time:       0 days 10 hours 24 minutes 46.2 seconds.
 Elapsed time:       0 days  0 hours 39 minutes 11.5 seconds.
 File lengths (MBytes):  RWF=    704 Int=      0 D2E=      0 Chk=     27 Scr=      1
 Normal termination of Gaussian 16 at Wed Oct 11 15:27:49 2023.
