 Entering Gaussian System, Link 0=/opt/software/gaussian/g16.c01/g16
 Initial command:
 /opt/software/gaussian/g16.c01/l1.exe "/scratch/arhender/13209912/Gau-263410.inp" -scrdir="/scratch/arhender/13209912/"
 Entering Link 1 = /opt/software/gaussian/g16.c01/l1.exe PID=    263411.
  
 Copyright (c) 1988-2019, Gaussian, Inc.  All Rights Reserved.
  
 This is part of the Gaussian(R) 16 program.  It is based on
 the Gaussian(R) 09 system (copyright 2009, Gaussian, Inc.),
 the Gaussian(R) 03 system (copyright 2003, Gaussian, Inc.),
 the Gaussian(R) 98 system (copyright 1998, Gaussian, Inc.),
 the Gaussian(R) 94 system (copyright 1995, Gaussian, Inc.),
 the Gaussian 92(TM) system (copyright 1992, Gaussian, Inc.),
 the Gaussian 90(TM) system (copyright 1990, Gaussian, Inc.),
 the Gaussian 88(TM) system (copyright 1988, Gaussian, Inc.),
 the Gaussian 86(TM) system (copyright 1986, Carnegie Mellon
 University), and the Gaussian 82(TM) system (copyright 1983,
 Carnegie Mellon University). Gaussian is a federally registered
 trademark of Gaussian, Inc.
  
 This software contains proprietary and confidential information,
 including trade secrets, belonging to Gaussian, Inc.
  
 This software is provided under written license and may be
 used, copied, transmitted, or stored only in accord with that
 written license.
  
 The following legend is applicable only to US Government
 contracts under FAR:
  
                    RESTRICTED RIGHTS LEGEND
  
 Use, reproduction and disclosure by the US Government is
 subject to restrictions as set forth in subparagraphs (a)
 and (c) of the Commercial Computer Software - Restricted
 Rights clause in FAR 52.227-19.
  
 Gaussian, Inc.
 340 Quinnipiac St., Bldg. 40, Wallingford CT 06492
  
  
 ---------------------------------------------------------------
 Warning -- This program may not be used in any manner that
 competes with the business of Gaussian, Inc. or will provide
 assistance to any competitor of Gaussian, Inc.  The licensee
 of this program is prohibited from giving any competitor of
 Gaussian, Inc. access to this program.  By using this program,
 the user acknowledges that Gaussian, Inc. is engaged in the
 business of creating and licensing software in the field of
 computational chemistry and represents and warrants to the
 licensee that it is not a competitor of Gaussian, Inc. and that
 it will not use this program in any manner prohibited above.
 ---------------------------------------------------------------
  

 Cite this work as:
 Gaussian 16, Revision C.01,
 M. J. Frisch, G. W. Trucks, H. B. Schlegel, G. E. Scuseria, 
 M. A. Robb, J. R. Cheeseman, G. Scalmani, V. Barone, 
 G. A. Petersson, H. Nakatsuji, X. Li, M. Caricato, A. V. Marenich, 
 J. Bloino, B. G. Janesko, R. Gomperts, B. Mennucci, H. P. Hratchian, 
 J. V. Ortiz, A. F. Izmaylov, J. L. Sonnenberg, D. Williams-Young, 
 F. Ding, F. Lipparini, F. Egidi, J. Goings, B. Peng, A. Petrone, 
 T. Henderson, D. Ranasinghe, V. G. Zakrzewski, J. Gao, N. Rega, 
 G. Zheng, W. Liang, M. Hada, M. Ehara, K. Toyota, R. Fukuda, 
 J. Hasegawa, M. Ishida, T. Nakajima, Y. Honda, O. Kitao, H. Nakai, 
 T. Vreven, K. Throssell, J. A. Montgomery, Jr., J. E. Peralta, 
 F. Ogliaro, M. J. Bearpark, J. J. Heyd, E. N. Brothers, K. N. Kudin, 
 V. N. Staroverov, T. A. Keith, R. Kobayashi, J. Normand, 
 K. Raghavachari, A. P. Rendell, J. C. Burant, S. S. Iyengar, 
 J. Tomasi, M. Cossi, J. M. Millam, M. Klene, C. Adamo, R. Cammi, 
 J. W. Ochterski, R. L. Martin, K. Morokuma, O. Farkas, 
 J. B. Foresman, and D. J. Fox, Gaussian, Inc., Wallingford CT, 2019.
 
 ******************************************
 Gaussian 16:  ES64L-G16RevC.01  3-Jul-2019
                27-Sep-2023 
 ******************************************
 %chk=MannitolConformerOpt_9.chk
 %mem=8GB
 %nprocs=16
 Will use up to   16 processors via shared memory.
 ---------------------------------------------
 # opt freq wb97xd/def2tzvpp geom=connectivity
 ---------------------------------------------
 1/18=20,19=15,26=3,38=1,57=2/1,3;
 2/9=110,12=2,17=6,18=5,40=1/2;
 3/5=44,7=202,11=2,25=1,30=1,71=1,74=-58/1,2,3;
 4//1;
 5/5=2,38=5/2;
 6/7=2,8=2,9=2,10=2,28=1/1;
 7//1,2,3,16;
 1/18=20,19=15,26=3/3(2);
 2/9=110/2;
 99//99;
 2/9=110/2;
 3/5=44,7=202,11=2,25=1,30=1,71=1,74=-58/1,2,3;
 4/5=5,16=3,69=1/1;
 5/5=2,38=5/2;
 7//1,2,3,16;
 1/18=20,19=15,26=3/3(-5);
 2/9=110/2;
 6/7=2,8=2,9=2,10=2,19=2,28=1/1;
 99/9=1/99;
 --------------------------------
 Mannitol Conformer Optimziations
 --------------------------------
 Symbolic Z-matrix:
 Charge =  0 Multiplicity = 1
 C                     0.        0.        0. 
 C                     1.5348    0.        0. 
 C                    -0.6657    0.5931    1.2496 
 C                     2.2269   -0.7759    1.1344 
 H                     1.9059    1.0322    0. 
 H                    -0.3861   -1.0071   -0.1914 
 C                    -0.2222    2.0229    1.5803 
 H                    -0.5158   -0.0515    2.1214 
 C                     1.8652   -2.2635    1.1982 
 H                     1.9955   -0.3032    2.0949 
 H                    -0.4227    2.7046    0.748 
 H                     0.8365    2.0673    1.8491 
 H                     2.5467   -2.7827    1.8814 
 H                     1.9643   -2.7412    0.2177 
 O                    -0.991     2.4778    2.6992 
 H                    -0.6929    3.3846    2.894 
 O                    -2.0887    0.6318    1.0016 
 H                    -2.4507    1.1325    1.7625 
 O                    -0.421     0.7644   -1.157 
 H                    -1.3943    0.8345   -1.0495 
 O                     1.9993   -0.5368   -1.2614 
 H                     1.4032   -0.1334   -1.9283 
 O                     3.646    -0.666     0.9305 
 H                     3.7731   -0.7907   -0.0334 
 O                     0.5375   -2.443     1.6731 
 H                     0.3857   -3.404     1.7233 
 

 GradGradGradGradGradGradGradGradGradGradGradGradGradGradGradGradGradGrad
 Berny optimization.
 Initialization pass.
                           ----------------------------
                           !    Initial Parameters    !
                           ! (Angstroms and Degrees)  !
 --------------------------                            --------------------------
 ! Name  Definition              Value          Derivative Info.                !
 --------------------------------------------------------------------------------
 ! R1    R(1,2)                  1.5348         estimate D2E/DX2                !
 ! R2    R(1,3)                  1.5351         estimate D2E/DX2                !
 ! R3    R(1,6)                  1.0954         estimate D2E/DX2                !
 ! R4    R(1,19)                 1.4492         estimate D2E/DX2                !
 ! R5    R(2,4)                  1.5388         estimate D2E/DX2                !
 ! R6    R(2,5)                  1.0969         estimate D2E/DX2                !
 ! R7    R(2,21)                 1.4474         estimate D2E/DX2                !
 ! R8    R(3,7)                  1.5331         estimate D2E/DX2                !
 ! R9    R(3,8)                  1.0945         estimate D2E/DX2                !
 ! R10   R(3,17)                 1.445          estimate D2E/DX2                !
 ! R11   R(4,9)                  1.5323         estimate D2E/DX2                !
 ! R12   R(4,10)                 1.0952         estimate D2E/DX2                !
 ! R13   R(4,23)                 1.4379         estimate D2E/DX2                !
 ! R14   R(7,11)                 1.0944         estimate D2E/DX2                !
 ! R15   R(7,12)                 1.0932         estimate D2E/DX2                !
 ! R16   R(7,15)                 1.4318         estimate D2E/DX2                !
 ! R17   R(9,13)                 1.0958         estimate D2E/DX2                !
 ! R18   R(9,14)                 1.0952         estimate D2E/DX2                !
 ! R19   R(9,25)                 1.4215         estimate D2E/DX2                !
 ! R20   R(15,16)                0.9742         estimate D2E/DX2                !
 ! R21   R(17,18)                0.9802         estimate D2E/DX2                !
 ! R22   R(19,20)                0.9817         estimate D2E/DX2                !
 ! R23   R(21,22)                0.9812         estimate D2E/DX2                !
 ! R24   R(23,24)                0.9802         estimate D2E/DX2                !
 ! R25   R(25,26)                0.9742         estimate D2E/DX2                !
 ! A1    A(2,1,3)              115.7002         estimate D2E/DX2                !
 ! A2    A(2,1,6)              110.6382         estimate D2E/DX2                !
 ! A3    A(2,1,19)             106.8881         estimate D2E/DX2                !
 ! A4    A(3,1,6)              110.1572         estimate D2E/DX2                !
 ! A5    A(3,1,19)             108.6706         estimate D2E/DX2                !
 ! A6    A(6,1,19)             104.0662         estimate D2E/DX2                !
 ! A7    A(1,2,4)              116.7288         estimate D2E/DX2                !
 ! A8    A(1,2,5)              109.7747         estimate D2E/DX2                !
 ! A9    A(1,2,21)             108.7182         estimate D2E/DX2                !
 ! A10   A(4,2,5)              108.8036         estimate D2E/DX2                !
 ! A11   A(4,2,21)             108.1266         estimate D2E/DX2                !
 ! A12   A(5,2,21)             103.9115         estimate D2E/DX2                !
 ! A13   A(1,3,7)              114.2349         estimate D2E/DX2                !
 ! A14   A(1,3,8)              111.1892         estimate D2E/DX2                !
 ! A15   A(1,3,17)             107.3198         estimate D2E/DX2                !
 ! A16   A(7,3,8)              109.7438         estimate D2E/DX2                !
 ! A17   A(7,3,17)             107.2733         estimate D2E/DX2                !
 ! A18   A(8,3,17)             106.6992         estimate D2E/DX2                !
 ! A19   A(2,4,9)              114.4596         estimate D2E/DX2                !
 ! A20   A(2,4,10)             109.5033         estimate D2E/DX2                !
 ! A21   A(2,4,23)             107.5066         estimate D2E/DX2                !
 ! A22   A(9,4,10)             109.4281         estimate D2E/DX2                !
 ! A23   A(9,4,23)             108.245          estimate D2E/DX2                !
 ! A24   A(10,4,23)            107.4511         estimate D2E/DX2                !
 ! A25   A(3,7,11)             111.3396         estimate D2E/DX2                !
 ! A26   A(3,7,12)             111.7819         estimate D2E/DX2                !
 ! A27   A(3,7,15)             108.0323         estimate D2E/DX2                !
 ! A28   A(11,7,12)            109.8241         estimate D2E/DX2                !
 ! A29   A(11,7,15)            107.3408         estimate D2E/DX2                !
 ! A30   A(12,7,15)            108.3584         estimate D2E/DX2                !
 ! A31   A(4,9,13)             109.8251         estimate D2E/DX2                !
 ! A32   A(4,9,14)             111.3973         estimate D2E/DX2                !
 ! A33   A(4,9,25)             110.9157         estimate D2E/DX2                !
 ! A34   A(13,9,14)            107.1722         estimate D2E/DX2                !
 ! A35   A(13,9,25)            108.2262         estimate D2E/DX2                !
 ! A36   A(14,9,25)            109.1808         estimate D2E/DX2                !
 ! A37   A(7,15,16)            106.7199         estimate D2E/DX2                !
 ! A38   A(3,17,18)            104.132          estimate D2E/DX2                !
 ! A39   A(1,19,20)            103.7834         estimate D2E/DX2                !
 ! A40   A(2,21,22)            104.1747         estimate D2E/DX2                !
 ! A41   A(4,23,24)            104.9334         estimate D2E/DX2                !
 ! A42   A(9,25,26)            106.6978         estimate D2E/DX2                !
 ! D1    D(3,1,2,4)             59.7616         estimate D2E/DX2                !
 ! D2    D(3,1,2,5)            -64.6095         estimate D2E/DX2                !
 ! D3    D(3,1,2,21)          -177.6621         estimate D2E/DX2                !
 ! D4    D(6,1,2,4)            -66.3897         estimate D2E/DX2                !
 ! D5    D(6,1,2,5)            169.2392         estimate D2E/DX2                !
 ! D6    D(6,1,2,21)            56.1866         estimate D2E/DX2                !
 ! D7    D(19,1,2,4)          -179.0806         estimate D2E/DX2                !
 ! D8    D(19,1,2,5)            56.5483         estimate D2E/DX2                !
 ! D9    D(19,1,2,21)          -56.5043         estimate D2E/DX2                !
 ! D10   D(2,1,3,7)             55.3393         estimate D2E/DX2                !
 ! D11   D(2,1,3,8)            -69.5386         estimate D2E/DX2                !
 ! D12   D(2,1,3,17)           174.1207         estimate D2E/DX2                !
 ! D13   D(6,1,3,7)           -178.2657         estimate D2E/DX2                !
 ! D14   D(6,1,3,8)             56.8564         estimate D2E/DX2                !
 ! D15   D(6,1,3,17)           -59.4843         estimate D2E/DX2                !
 ! D16   D(19,1,3,7)           -64.8548         estimate D2E/DX2                !
 ! D17   D(19,1,3,8)           170.2673         estimate D2E/DX2                !
 ! D18   D(19,1,3,17)           53.9266         estimate D2E/DX2                !
 ! D19   D(2,1,19,20)         -172.9062         estimate D2E/DX2                !
 ! D20   D(3,1,19,20)          -47.3874         estimate D2E/DX2                !
 ! D21   D(6,1,19,20)           69.977          estimate D2E/DX2                !
 ! D22   D(1,2,4,9)             58.7067         estimate D2E/DX2                !
 ! D23   D(1,2,4,10)           -64.5761         estimate D2E/DX2                !
 ! D24   D(1,2,4,23)           178.9804         estimate D2E/DX2                !
 ! D25   D(5,2,4,9)           -176.4299         estimate D2E/DX2                !
 ! D26   D(5,2,4,10)            60.2874         estimate D2E/DX2                !
 ! D27   D(5,2,4,23)           -56.1561         estimate D2E/DX2                !
 ! D28   D(21,2,4,9)           -64.1762         estimate D2E/DX2                !
 ! D29   D(21,2,4,10)          172.541          estimate D2E/DX2                !
 ! D30   D(21,2,4,23)           56.0975         estimate D2E/DX2                !
 ! D31   D(1,2,21,22)           41.6561         estimate D2E/DX2                !
 ! D32   D(4,2,21,22)          169.2895         estimate D2E/DX2                !
 ! D33   D(5,2,21,22)          -75.2119         estimate D2E/DX2                !
 ! D34   D(1,3,7,11)            58.1386         estimate D2E/DX2                !
 ! D35   D(1,3,7,12)           -65.1055         estimate D2E/DX2                !
 ! D36   D(1,3,7,15)           175.7651         estimate D2E/DX2                !
 ! D37   D(8,3,7,11)          -176.2204         estimate D2E/DX2                !
 ! D38   D(8,3,7,12)            60.5354         estimate D2E/DX2                !
 ! D39   D(8,3,7,15)           -58.594          estimate D2E/DX2                !
 ! D40   D(17,3,7,11)          -60.6691         estimate D2E/DX2                !
 ! D41   D(17,3,7,12)          176.0868         estimate D2E/DX2                !
 ! D42   D(17,3,7,15)           56.9573         estimate D2E/DX2                !
 ! D43   D(1,3,17,18)         -172.013          estimate D2E/DX2                !
 ! D44   D(7,3,17,18)          -48.8344         estimate D2E/DX2                !
 ! D45   D(8,3,17,18)           68.7227         estimate D2E/DX2                !
 ! D46   D(2,4,9,13)           168.0755         estimate D2E/DX2                !
 ! D47   D(2,4,9,14)            49.4982         estimate D2E/DX2                !
 ! D48   D(2,4,9,25)           -72.3398         estimate D2E/DX2                !
 ! D49   D(10,4,9,13)          -68.6013         estimate D2E/DX2                !
 ! D50   D(10,4,9,14)          172.8213         estimate D2E/DX2                !
 ! D51   D(10,4,9,25)           50.9834         estimate D2E/DX2                !
 ! D52   D(23,4,9,13)           48.2132         estimate D2E/DX2                !
 ! D53   D(23,4,9,14)          -70.3642         estimate D2E/DX2                !
 ! D54   D(23,4,9,25)          167.7978         estimate D2E/DX2                !
 ! D55   D(2,4,23,24)          -42.4441         estimate D2E/DX2                !
 ! D56   D(9,4,23,24)           81.6895         estimate D2E/DX2                !
 ! D57   D(10,4,23,24)        -160.227          estimate D2E/DX2                !
 ! D58   D(3,7,15,16)          179.8542         estimate D2E/DX2                !
 ! D59   D(11,7,15,16)         -59.9761         estimate D2E/DX2                !
 ! D60   D(12,7,15,16)          58.5756         estimate D2E/DX2                !
 ! D61   D(4,9,25,26)         -177.7644         estimate D2E/DX2                !
 ! D62   D(13,9,25,26)         -57.2272         estimate D2E/DX2                !
 ! D63   D(14,9,25,26)          59.1103         estimate D2E/DX2                !
 --------------------------------------------------------------------------------
 Trust Radius=3.00D-01 FncErr=1.00D-07 GrdErr=1.00D-06 EigMax=2.50D+02 EigMin=1.00D-04
 Number of steps in this run=    140 maximum allowed number of steps=    156.
 GradGradGradGradGradGradGradGradGradGradGradGradGradGradGradGradGradGrad

                          Input orientation:                          
 ---------------------------------------------------------------------
 Center     Atomic      Atomic             Coordinates (Angstroms)
 Number     Number       Type             X           Y           Z
 ---------------------------------------------------------------------
      1          6           0        0.000000    0.000000    0.000000
      2          6           0        1.534800    0.000000    0.000000
      3          6           0       -0.665700    0.593100    1.249600
      4          6           0        2.226900   -0.775900    1.134400
      5          1           0        1.905900    1.032200    0.000000
      6          1           0       -0.386100   -1.007100   -0.191400
      7          6           0       -0.222200    2.022900    1.580300
      8          1           0       -0.515800   -0.051500    2.121400
      9          6           0        1.865200   -2.263500    1.198200
     10          1           0        1.995500   -0.303200    2.094900
     11          1           0       -0.422700    2.704600    0.748000
     12          1           0        0.836500    2.067300    1.849100
     13          1           0        2.546700   -2.782700    1.881400
     14          1           0        1.964300   -2.741200    0.217700
     15          8           0       -0.991000    2.477800    2.699200
     16          1           0       -0.692900    3.384600    2.894000
     17          8           0       -2.088700    0.631800    1.001600
     18          1           0       -2.450700    1.132500    1.762500
     19          8           0       -0.421000    0.764400   -1.157000
     20          1           0       -1.394300    0.834500   -1.049500
     21          8           0        1.999300   -0.536800   -1.261400
     22          1           0        1.403200   -0.133400   -1.928300
     23          8           0        3.646000   -0.666000    0.930500
     24          1           0        3.773100   -0.790700   -0.033400
     25          8           0        0.537500   -2.443000    1.673100
     26          1           0        0.385700   -3.404000    1.723300
 ---------------------------------------------------------------------
                    Distance matrix (angstroms):
                    1          2          3          4          5
     1  C    0.000000
     2  C    1.534800   0.000000
     3  C    1.535065   2.599128   0.000000
     4  C    2.616862   1.538794   3.202275   0.000000
     5  H    2.167462   1.096883   2.892652   2.158502   0.000000
     6  H    1.095426   2.177324   2.171474   2.939212   3.073864
     7  C    2.576596   3.110711   1.533096   3.745691   2.829778
     8  H    2.183813   2.950924   1.094538   3.003553   3.396965
     9  C    3.168294   2.582301   3.816839   1.532270   3.506990
    10  H    2.909047   2.166283   2.932554   1.095240   2.485946
    11  H    2.837788   3.421428   2.183823   4.391306   2.962905
    12  H    2.897004   2.860161   2.188440   3.244656   2.373651
    13  H    4.215301   3.508137   4.702628   2.165070   4.301599
    14  H    3.379356   2.783171   4.370272   2.184423   3.780126
    15  O    3.795689   4.450263   2.399845   4.836325   4.215148
    16  H    4.506758   4.979297   3.239948   5.378772   4.545633
    17  O    2.401050   3.812103   1.444967   4.541328   4.137675
    18  H    3.224111   4.502574   1.933971   5.090819   4.700684
    19  O    1.449206   2.397522   2.425066   3.825495   2.612437
    20  H    1.934402   3.221408   2.423838   4.525030   3.468697
    21  O    2.424146   1.447427   3.831973   2.418435   2.015345
    22  H    2.388537   1.937384   3.860984   3.235957   2.308608
    23  O    3.821348   2.401365   4.503101   1.437880   2.603394
    24  H    3.855205   2.374091   4.823270   1.937707   2.609696
    25  O    3.009388   3.124439   3.293167   2.433823   4.092529
    26  H    3.834807   3.984647   4.160125   3.262473   4.996063
                    6          7          8          9         10
     6  H    0.000000
     7  C    3.513785   0.000000
     8  H    2.505801   2.163822   0.000000
     9  C    2.928802   4.782935   3.378521   0.000000
    10  H    3.375598   3.254804   2.524021   2.159589   0.000000
    11  H    3.828907   1.094367   3.080744   5.488095   4.087627
    12  H    3.887200   1.093193   2.528275   4.498636   2.650088
    13  H    4.006316   5.554391   4.110470   1.095798   2.548985
    14  H    2.949381   5.416097   4.124252   1.095170   3.077125
    15  O    4.567932   1.431756   2.637618   5.735051   4.125327
    16  H    5.375951   1.949767   3.526338   6.428114   4.633133
    17  O    2.647280   2.398724   2.048137   4.904563   4.330152
    18  H    3.557835   2.406703   2.296629   5.520710   4.684060
    19  O    2.017874   3.019297   3.379732   4.465631   4.189761
    20  H    2.268103   3.114797   3.407545   5.027335   4.761550
    21  O    2.656354   4.422939   4.243180   3.008174   3.364422
    22  H    2.642304   4.427395   4.482113   3.811269   4.070109
    23  O    4.199147   4.755565   4.372234   2.407264   2.052219
    24  H    4.167822   5.146144   4.856361   2.706670   2.815525
    25  O    2.528083   4.531006   2.651356   1.421456   2.623437
    26  H    3.163365   5.462713   3.494344   1.940461   3.513475
                   11         12         13         14         15
    11  H    0.000000
    12  H    1.790016   0.000000
    13  H    6.341324   5.142794   0.000000
    14  H    5.969567   5.201449   1.763182   0.000000
    15  O    2.044892   2.056924   6.391946   6.490732   0.000000
    16  H    2.267316   2.272919   7.039599   7.193658   0.974216
    17  O    2.671398   3.366855   5.824070   5.330895   2.737610
    18  H    2.759256   3.418630   6.349562   6.073235   2.194986
    19  O    2.719081   3.509344   5.533628   4.457431   4.258042
    20  H    2.769889   3.859812   6.099655   5.066717   4.112887
    21  O    4.517792   4.220030   3.901398   2.654871   5.806553
    22  H    4.307057   4.408285   4.779142   3.423561   5.827891
    23  O    5.286641   4.025922   2.567701   2.764535   5.874823
    24  H    5.516561   4.509500   3.023008   2.671939   6.391154
    25  O    5.317479   4.523625   2.048333   2.059823   5.253900
    26  H    6.238567   5.491281   2.254092   2.279937   6.119089
                   16         17         18         19         20
    16  H    0.000000
    17  O    3.620407   0.000000
    18  H    3.072801   0.980160   0.000000
    19  O    4.832182   2.731000   3.574725   0.000000
    20  H    4.748280   2.174923   3.018630   0.981725   0.000000
    21  O    6.316064   4.816486   5.633208   2.749886   3.666318
    22  H    6.326495   4.622035   5.484255   2.174547   3.087900
    23  O    6.252099   5.880147   6.410661   4.790009   5.619299
    24  H    6.778492   6.120084   6.757192   4.612081   5.511421
    25  O    6.079918   4.099053   4.660636   4.383561   4.678291
    26  H    6.972733   4.788652   5.350377   5.130541   5.368585
                   21         22         23         24         25
    21  O    0.000000
    22  H    0.981235   0.000000
    23  O    2.744584   3.672404   0.000000
    24  H    2.172284   3.104692   0.980208   0.000000
    25  O    3.792328   4.365062   3.656769   4.013894   0.000000
    26  H    4.442181   5.006627   4.330673   4.624912   0.974210
                   26
    26  H    0.000000
 Stoichiometry    C6H14O6
 Framework group  C1[X(C6H14O6)]
 Deg. of freedom    72
 Full point group                 C1      NOp   1
 Largest Abelian subgroup         C1      NOp   1
 Largest concise Abelian subgroup C1      NOp   1
                         Standard orientation:                         
 ---------------------------------------------------------------------
 Center     Atomic      Atomic             Coordinates (Angstroms)
 Number     Number       Type             X           Y           Z
 ---------------------------------------------------------------------
      1          6           0       -0.305509    0.684160   -0.609645
      2          6           0        0.831951    0.760849    0.417933
      3          6           0       -1.419296   -0.324497   -0.295776
      4          6           0        1.627588   -0.532435    0.667462
      5          1           0        0.442617    1.126824    1.375864
      6          1           0        0.093112    0.505861   -1.614268
      7          6           0       -2.074050   -0.132039    1.077046
      8          1           0       -1.059840   -1.353749   -0.392963
      9          6           0        2.304812   -1.111218   -0.579224
     10          1           0        0.968381   -1.288070    1.107933
     11          1           0       -2.502431    0.870030    1.176980
     12          1           0       -1.369356   -0.316953    1.892082
     13          1           0        3.013557   -1.894354   -0.287416
     14          1           0        2.873008   -0.345071   -1.117341
     15          8           0       -3.150331   -1.069465    1.190090
     16          1           0       -3.550263   -0.932521    2.067814
     17          8           0       -2.451438   -0.149374   -1.291741
     18          1           0       -3.187329   -0.714421   -0.975675
     19          8           0       -0.888512    2.008370   -0.691937
     20          1           0       -1.675489    1.882248   -1.265123
     21          8           0        1.762643    1.789498    0.004730
     22          1           0        1.188609    2.522597   -0.304905
     23          8           0        2.647512   -0.232803    1.635694
     24          1           0        3.006085    0.637952    1.363630
     25          8           0        1.345658   -1.684537   -1.457783
     26          1           0        1.842102   -2.062794   -2.205814
 ---------------------------------------------------------------------
 Rotational constants (GHZ):           1.1777729           0.5632039           0.5344437
 Standard basis: def2TZVPP (5D, 7F)
 There are   642 symmetry adapted cartesian basis functions of A   symmetry.
 There are   568 symmetry adapted basis functions of A   symmetry.
   568 basis functions,   850 primitive gaussians,   642 cartesian basis functions
    49 alpha electrons       49 beta electrons
       nuclear repulsion energy       828.4958159267 Hartrees.
 NAtoms=   26 NActive=   26 NUniq=   26 SFac= 1.00D+00 NAtFMM=   60 NAOKFM=F Big=F
 Integral buffers will be    131072 words long.
 Raffenetti 2 integral format.
 Two-electron integral symmetry is turned on.
 Nuclear repulsion after empirical dispersion term =      828.4770750572 Hartrees.
 One-electron integrals computed using PRISM.
   1 Symmetry operations used in ECPInt.
 ECPInt:  NShTT=   23436 NPrTT=   62434 LenC2=   22019 LenP2D=   45636.
 LDataN:  DoStor=T MaxTD1= 6 Len=  172
 NBasis=   568 RedAO= T EigKep=  5.03D-05  NBF=   568
 NBsUse=   568 1.00D-06 EigRej= -1.00D+00 NBFU=   568
 ExpMin= 9.52D-02 ExpMax= 2.70D+04 ExpMxC= 9.22D+02 IAcc=3 IRadAn=         5 AccDes= 0.00D+00
 Harris functional with IExCor= 4639 and IRadAn=       5 diagonalized for initial guess.
 HarFok:  IExCor= 4639 AccDes= 0.00D+00 IRadAn=         5 IDoV= 1 UseB2=F ITyADJ=14
 ICtDFT=  3500011 ScaDFX=  1.000000  1.000000  1.000000  1.000000
 FoFCou: FMM=F IPFlag=           0 FMFlag=      100000 FMFlg1=           0
         NFxFlg=           0 DoJE=T BraDBF=F KetDBF=T FulRan=T
         wScrn=  0.000000 ICntrl=       500 IOpCl=  0 I1Cent=   200000004 NGrid=           0
         NMat0=    1 NMatS0=      1 NMatT0=    0 NMatD0=    1 NMtDS0=    0 NMtDT0=    0
 Petite list used in FoFCou.
 Requested convergence on RMS density matrix=1.00D-08 within 128 cycles.
 Requested convergence on MAX density matrix=1.00D-06.
 Requested convergence on             energy=1.00D-06.
 No special actions if energy rises.
 Integral accuracy reduced to 1.0D-05 until final iterations.
 Initial convergence to 1.0D-05 achieved.  Increase integral accuracy.
 SCF Done:  E(RwB97XD) =  -688.466452447     A.U. after   14 cycles
            NFock= 14  Conv=0.18D-08     -V/T= 2.0050

 **********************************************************************

            Population analysis using the SCF Density.

 **********************************************************************

 Orbital symmetries:
       Occupied  (A) (A) (A) (A) (A) (A) (A) (A) (A) (A) (A) (A)
                 (A) (A) (A) (A) (A) (A) (A) (A) (A) (A) (A) (A)
                 (A) (A) (A) (A) (A) (A) (A) (A) (A) (A) (A) (A)
                 (A) (A) (A) (A) (A) (A) (A) (A) (A) (A) (A) (A)
                 (A)
       Virtual   (A) (A) (A) (A) (A) (A) (A) (A) (A) (A) (A) (A)
                 (A) (A) (A) (A) (A) (A) (A) (A) (A) (A) (A) (A)
                 (A) (A) (A) (A) (A) (A) (A) (A) (A) (A) (A) (A)
                 (A) (A) (A) (A) (A) (A) (A) (A) (A) (A) (A) (A)
                 (A) (A) (A) (A) (A) (A) (A) (A) (A) (A) (A) (A)
                 (A) (A) (A) (A) (A) (A) (A) (A) (A) (A) (A) (A)
                 (A) (A) (A) (A) (A) (A) (A) (A) (A) (A) (A) (A)
                 (A) (A) (A) (A) (A) (A) (A) (A) (A) (A) (A) (A)
                 (A) (A) (A) (A) (A) (A) (A) (A) (A) (A) (A) (A)
                 (A) (A) (A) (A) (A) (A) (A) (A) (A) (A) (A) (A)
                 (A) (A) (A) (A) (A) (A) (A) (A) (A) (A) (A) (A)
                 (A) (A) (A) (A) (A) (A) (A) (A) (A) (A) (A) (A)
                 (A) (A) (A) (A) (A) (A) (A) (A) (A) (A) (A) (A)
                 (A) (A) (A) (A) (A) (A) (A) (A) (A) (A) (A) (A)
                 (A) (A) (A) (A) (A) (A) (A) (A) (A) (A) (A) (A)
                 (A) (A) (A) (A) (A) (A) (A) (A) (A) (A) (A) (A)
                 (A) (A) (A) (A) (A) (A) (A) (A) (A) (A) (A) (A)
                 (A) (A) (A) (A) (A) (A) (A) (A) (A) (A) (A) (A)
                 (A) (A) (A) (A) (A) (A) (A) (A) (A) (A) (A) (A)
                 (A) (A) (A) (A) (A) (A) (A) (A) (A) (A) (A) (A)
                 (A) (A) (A) (A) (A) (A) (A) (A) (A) (A) (A) (A)
                 (A) (A) (A) (A) (A) (A) (A) (A) (A) (A) (A) (A)
                 (A) (A) (A) (A) (A) (A) (A) (A) (A) (A) (A) (A)
                 (A) (A) (A) (A) (A) (A) (A) (A) (A) (A) (A) (A)
                 (A) (A) (A) (A) (A) (A) (A) (A) (A) (A) (A) (A)
                 (A) (A) (A) (A) (A) (A) (A) (A) (A) (A) (A) (A)
                 (A) (A) (A) (A) (A) (A) (A) (A) (A) (A) (A) (A)
                 (A) (A) (A) (A) (A) (A) (A) (A) (A) (A) (A) (A)
                 (A) (A) (A) (A) (A) (A) (A) (A) (A) (A) (A) (A)
                 (A) (A) (A) (A) (A) (A) (A) (A) (A) (A) (A) (A)
                 (A) (A) (A) (A) (A) (A) (A) (A) (A) (A) (A) (A)
                 (A) (A) (A) (A) (A) (A) (A) (A) (A) (A) (A) (A)
                 (A) (A) (A) (A) (A) (A) (A) (A) (A) (A) (A) (A)
                 (A) (A) (A) (A) (A) (A) (A) (A) (A) (A) (A) (A)
                 (A) (A) (A) (A) (A) (A) (A) (A) (A) (A) (A) (A)
                 (A) (A) (A) (A) (A) (A) (A) (A) (A) (A) (A) (A)
                 (A) (A) (A) (A) (A) (A) (A) (A) (A) (A) (A) (A)
                 (A) (A) (A) (A) (A) (A) (A) (A) (A) (A) (A) (A)
                 (A) (A) (A) (A) (A) (A) (A) (A) (A) (A) (A) (A)
                 (A) (A) (A) (A) (A) (A) (A) (A) (A) (A) (A) (A)
                 (A) (A) (A) (A) (A) (A) (A) (A) (A) (A) (A) (A)
                 (A) (A) (A) (A) (A) (A) (A) (A) (A) (A) (A) (A)
                 (A) (A) (A) (A) (A) (A) (A) (A) (A) (A) (A) (A)
                 (A) (A) (A)
 The electronic state is 1-A.
 Alpha  occ. eigenvalues --  -19.26704 -19.25801 -19.25626 -19.25621 -19.25454
 Alpha  occ. eigenvalues --  -19.24976 -10.34733 -10.34693 -10.34526 -10.34444
 Alpha  occ. eigenvalues --  -10.34002 -10.33125  -1.15093  -1.14207  -1.13132
 Alpha  occ. eigenvalues --   -1.12464  -1.11189  -1.10136  -0.88854  -0.84502
 Alpha  occ. eigenvalues --   -0.79974  -0.75498  -0.70743  -0.67472  -0.63608
 Alpha  occ. eigenvalues --   -0.62766  -0.61794  -0.59485  -0.57396  -0.57028
 Alpha  occ. eigenvalues --   -0.55808  -0.54682  -0.54223  -0.52673  -0.51352
 Alpha  occ. eigenvalues --   -0.49934  -0.48714  -0.46371  -0.45489  -0.44363
 Alpha  occ. eigenvalues --   -0.43831  -0.42792  -0.41699  -0.38362  -0.37173
 Alpha  occ. eigenvalues --   -0.37070  -0.36893  -0.36257  -0.35797
 Alpha virt. eigenvalues --    0.09092   0.09818   0.11163   0.12507   0.13556
 Alpha virt. eigenvalues --    0.15048   0.16206   0.17063   0.17756   0.18668
 Alpha virt. eigenvalues --    0.19095   0.20128   0.20948   0.21076   0.22259
 Alpha virt. eigenvalues --    0.23196   0.24791   0.25169   0.25681   0.26865
 Alpha virt. eigenvalues --    0.27890   0.28452   0.31366   0.33145   0.34143
 Alpha virt. eigenvalues --    0.34788   0.36189   0.36449   0.37922   0.38198
 Alpha virt. eigenvalues --    0.38825   0.39161   0.40304   0.41226   0.41273
 Alpha virt. eigenvalues --    0.42509   0.42683   0.43404   0.44587   0.44852
 Alpha virt. eigenvalues --    0.46089   0.46135   0.46536   0.47935   0.48734
 Alpha virt. eigenvalues --    0.50000   0.50739   0.50899   0.51527   0.51799
 Alpha virt. eigenvalues --    0.52566   0.53082   0.53629   0.54117   0.55269
 Alpha virt. eigenvalues --    0.56221   0.56794   0.57094   0.58487   0.58780
 Alpha virt. eigenvalues --    0.59997   0.61880   0.62659   0.64185   0.64395
 Alpha virt. eigenvalues --    0.65503   0.65921   0.66728   0.68088   0.69725
 Alpha virt. eigenvalues --    0.70259   0.71089   0.71226   0.71510   0.72053
 Alpha virt. eigenvalues --    0.73959   0.75285   0.75971   0.78231   0.80986
 Alpha virt. eigenvalues --    0.82066   0.83346   0.83908   0.84764   0.85286
 Alpha virt. eigenvalues --    0.86412   0.88105   0.89139   0.89331   0.91598
 Alpha virt. eigenvalues --    0.92476   0.93166   0.93408   0.95767   0.96186
 Alpha virt. eigenvalues --    0.98319   0.98453   0.99777   1.00449   1.02490
 Alpha virt. eigenvalues --    1.03880   1.04293   1.05011   1.06690   1.07689
 Alpha virt. eigenvalues --    1.08888   1.09584   1.10570   1.11548   1.12953
 Alpha virt. eigenvalues --    1.13722   1.15016   1.15352   1.16139   1.17020
 Alpha virt. eigenvalues --    1.20025   1.20184   1.22765   1.23132   1.23862
 Alpha virt. eigenvalues --    1.24872   1.25453   1.26281   1.28283   1.29196
 Alpha virt. eigenvalues --    1.29591   1.30044   1.33236   1.33791   1.34763
 Alpha virt. eigenvalues --    1.35634   1.36388   1.37398   1.38689   1.40074
 Alpha virt. eigenvalues --    1.41351   1.43195   1.44776   1.45066   1.47223
 Alpha virt. eigenvalues --    1.48417   1.49821   1.50357   1.51812   1.51858
 Alpha virt. eigenvalues --    1.53607   1.54514   1.56135   1.58293   1.58925
 Alpha virt. eigenvalues --    1.59493   1.61214   1.62461   1.64978   1.65877
 Alpha virt. eigenvalues --    1.66492   1.68754   1.70598   1.71177   1.73156
 Alpha virt. eigenvalues --    1.76094   1.78932   1.80420   1.83145   1.85697
 Alpha virt. eigenvalues --    1.86748   1.88392   1.89058   1.92704   1.94291
 Alpha virt. eigenvalues --    1.94677   1.96432   1.97103   1.98314   1.99783
 Alpha virt. eigenvalues --    2.01020   2.01969   2.03223   2.05187   2.05496
 Alpha virt. eigenvalues --    2.06257   2.06755   2.08872   2.10005   2.10310
 Alpha virt. eigenvalues --    2.11135   2.13054   2.13884   2.15533   2.16323
 Alpha virt. eigenvalues --    2.17494   2.19303   2.20602   2.21711   2.23260
 Alpha virt. eigenvalues --    2.25384   2.28762   2.29589   2.30088   2.31583
 Alpha virt. eigenvalues --    2.32114   2.35317   2.38198   2.40094   2.40478
 Alpha virt. eigenvalues --    2.43472   2.46420   2.47809   2.48219   2.50757
 Alpha virt. eigenvalues --    2.53852   2.54840   2.58891   2.60632   2.61503
 Alpha virt. eigenvalues --    2.62514   2.66616   2.67897   2.69867   2.70889
 Alpha virt. eigenvalues --    2.73849   2.74450   2.75220   2.76609   2.77706
 Alpha virt. eigenvalues --    2.79250   2.80767   2.81075   2.82666   2.83076
 Alpha virt. eigenvalues --    2.84288   2.84994   2.86770   2.89036   2.90497
 Alpha virt. eigenvalues --    2.92138   2.94114   2.96338   2.97420   2.98185
 Alpha virt. eigenvalues --    2.99390   3.00772   3.01689   3.02384   3.04764
 Alpha virt. eigenvalues --    3.05467   3.07009   3.08340   3.08740   3.10016
 Alpha virt. eigenvalues --    3.11596   3.13532   3.15230   3.15611   3.16452
 Alpha virt. eigenvalues --    3.18670   3.19465   3.20514   3.20678   3.21667
 Alpha virt. eigenvalues --    3.22409   3.23589   3.25779   3.26367   3.27607
 Alpha virt. eigenvalues --    3.27866   3.29317   3.30123   3.31627   3.32493
 Alpha virt. eigenvalues --    3.33349   3.34595   3.36435   3.37117   3.38419
 Alpha virt. eigenvalues --    3.39144   3.40813   3.41406   3.41848   3.42807
 Alpha virt. eigenvalues --    3.43121   3.43897   3.45354   3.45870   3.46577
 Alpha virt. eigenvalues --    3.48978   3.49800   3.51147   3.52139   3.53328
 Alpha virt. eigenvalues --    3.54078   3.55269   3.55903   3.57549   3.58726
 Alpha virt. eigenvalues --    3.59810   3.61631   3.63535   3.64744   3.65057
 Alpha virt. eigenvalues --    3.67468   3.69544   3.70757   3.72074   3.72797
 Alpha virt. eigenvalues --    3.74464   3.75265   3.76251   3.76644   3.77646
 Alpha virt. eigenvalues --    3.78232   3.80487   3.80597   3.82169   3.83964
 Alpha virt. eigenvalues --    3.84869   3.85720   3.86286   3.88148   3.90574
 Alpha virt. eigenvalues --    3.90952   3.92411   3.93298   3.93461   3.95824
 Alpha virt. eigenvalues --    3.96873   3.98504   3.99318   4.00905   4.01883
 Alpha virt. eigenvalues --    4.03600   4.04043   4.04339   4.05092   4.05865
 Alpha virt. eigenvalues --    4.07091   4.07933   4.08915   4.09563   4.10310
 Alpha virt. eigenvalues --    4.11516   4.13329   4.13614   4.15009   4.16349
 Alpha virt. eigenvalues --    4.17083   4.18894   4.19083   4.20235   4.20918
 Alpha virt. eigenvalues --    4.23035   4.25042   4.26362   4.26922   4.28620
 Alpha virt. eigenvalues --    4.30081   4.30640   4.32063   4.33949   4.34478
 Alpha virt. eigenvalues --    4.35794   4.36629   4.37988   4.38919   4.39647
 Alpha virt. eigenvalues --    4.42264   4.43165   4.44496   4.46618   4.48086
 Alpha virt. eigenvalues --    4.50059   4.51912   4.53995   4.54678   4.56369
 Alpha virt. eigenvalues --    4.56878   4.58150   4.60346   4.60714   4.61867
 Alpha virt. eigenvalues --    4.62916   4.65339   4.65772   4.70613   4.72290
 Alpha virt. eigenvalues --    4.74814   4.75732   4.76966   4.79328   4.80156
 Alpha virt. eigenvalues --    4.82125   4.83705   4.84100   4.85549   4.87037
 Alpha virt. eigenvalues --    4.90437   4.92438   4.93587   4.94448   4.96706
 Alpha virt. eigenvalues --    4.98051   5.00042   5.02411   5.02670   5.04256
 Alpha virt. eigenvalues --    5.06613   5.08087   5.09269   5.10869   5.11539
 Alpha virt. eigenvalues --    5.12098   5.14185   5.16346   5.19658   5.21356
 Alpha virt. eigenvalues --    5.21939   5.24003   5.25325   5.26232   5.28131
 Alpha virt. eigenvalues --    5.33174   5.35473   5.42244   5.42609   5.46474
 Alpha virt. eigenvalues --    5.47623   5.49723   5.53508   5.55910   5.58064
 Alpha virt. eigenvalues --    5.58809   5.60590   5.62034   5.63191   5.65834
 Alpha virt. eigenvalues --    5.67134   5.70207   5.71415   5.73831   5.75437
 Alpha virt. eigenvalues --    5.78486   5.80797   5.81959   5.84643   5.86429
 Alpha virt. eigenvalues --    5.87040   5.88606   5.91145   5.92467   5.93979
 Alpha virt. eigenvalues --    5.98240   6.03741   6.05802   6.11993   6.12667
 Alpha virt. eigenvalues --    6.12814   6.14731   6.19697   6.21015   6.52816
 Alpha virt. eigenvalues --    6.54162   6.55075   6.55499   6.55573   6.57473
 Alpha virt. eigenvalues --    6.71034   6.73399   6.74390   6.75722   6.76226
 Alpha virt. eigenvalues --    6.76639   6.77729   6.78334   6.79538   6.79954
 Alpha virt. eigenvalues --    6.80738   6.81206   6.82405   6.86334   6.86550
 Alpha virt. eigenvalues --    6.88261   6.90813   6.91352   6.96234   6.98018
 Alpha virt. eigenvalues --    7.01430   7.02943   7.05226   7.09818   7.15366
 Alpha virt. eigenvalues --    7.16053   7.20880   7.21991   7.22868   7.23897
 Alpha virt. eigenvalues --    7.41561   7.42095   7.42829   7.43924   7.44671
 Alpha virt. eigenvalues --    7.47578   7.49328   7.53726   7.54682   7.57516
 Alpha virt. eigenvalues --    7.58898   7.59730  23.12522  23.14834  23.20720
 Alpha virt. eigenvalues --   23.24864  23.43872  23.46586  44.12471  44.15289
 Alpha virt. eigenvalues --   44.20749  44.29011  44.30982  44.37246
          Condensed to atoms (all electrons):
               1          2          3          4          5          6
     1  C    5.246552   0.083152   0.086612   0.018956  -0.010731   0.405962
     2  C    0.083152   5.130844   0.037380   0.221650   0.422643  -0.017462
     3  C    0.086612   0.037380   5.055043  -0.001513  -0.008433  -0.018302
     4  C    0.018956   0.221650  -0.001513   4.815980  -0.054658  -0.012701
     5  H   -0.010731   0.422643  -0.008433  -0.054658   0.574283   0.006223
     6  H    0.405962  -0.017462  -0.018302  -0.012701   0.006223   0.548676
     7  C   -0.008033   0.027873   0.255334  -0.007828   0.001019   0.006392
     8  H   -0.012990  -0.023051   0.407835   0.014029   0.000918  -0.005256
     9  C    0.005078   0.010027  -0.003515   0.290838   0.006950   0.000431
    10  H   -0.024364  -0.021778   0.008027   0.403542  -0.004234  -0.000941
    11  H    0.022300  -0.017047  -0.043289   0.003208   0.002461   0.000702
    12  H   -0.025572   0.021340  -0.023195  -0.008579  -0.005031  -0.000721
    13  H   -0.000314   0.005207   0.000316  -0.030402  -0.000223   0.001022
    14  H    0.002653  -0.022557  -0.000274  -0.019720   0.000643  -0.003330
    15  O    0.005856  -0.001281  -0.076315   0.000635   0.000158  -0.000052
    16  H   -0.001827   0.000279   0.011193  -0.000032   0.000008   0.000031
    17  O   -0.062505   0.006453   0.253435  -0.000972  -0.000144   0.001940
    18  H    0.005883  -0.000847  -0.037357  -0.000064  -0.000004  -0.000327
    19  O    0.221574  -0.041658  -0.021501   0.005916   0.002024  -0.037779
    20  H   -0.044013   0.008432  -0.003813  -0.000798  -0.000103  -0.005765
    21  O   -0.023228   0.237605   0.008879  -0.046349  -0.039932   0.005245
    22  H   -0.002548  -0.040177   0.001683   0.006413  -0.003582  -0.001395
    23  O    0.009137  -0.028840  -0.000936   0.278063   0.008125   0.000042
    24  H    0.000366  -0.013311  -0.000087  -0.047114  -0.002732   0.000032
    25  O   -0.009310  -0.017966  -0.009977  -0.047611  -0.000656   0.020515
    26  H   -0.002676   0.003375   0.001236   0.004127   0.000084   0.000792
               7          8          9         10         11         12
     1  C   -0.008033  -0.012990   0.005078  -0.024364   0.022300  -0.025572
     2  C    0.027873  -0.023051   0.010027  -0.021778  -0.017047   0.021340
     3  C    0.255334   0.407835  -0.003515   0.008027  -0.043289  -0.023195
     4  C   -0.007828   0.014029   0.290838   0.403542   0.003208  -0.008579
     5  H    0.001019   0.000918   0.006950  -0.004234   0.002461  -0.005031
     6  H    0.006392  -0.005256   0.000431  -0.000941   0.000702  -0.000721
     7  C    4.783822  -0.036865  -0.000049   0.000062   0.412535   0.419697
     8  H   -0.036865   0.587205  -0.005980  -0.000502   0.009349  -0.006605
     9  C   -0.000049  -0.005980   4.797334  -0.033868  -0.000162   0.000758
    10  H    0.000062  -0.000502  -0.033868   0.618313  -0.000159   0.000455
    11  H    0.412535   0.009349  -0.000162  -0.000159   0.583483  -0.036887
    12  H    0.419697  -0.006605   0.000758   0.000455  -0.036887   0.627154
    13  H    0.000031   0.000010   0.428118  -0.012325   0.000002  -0.000005
    14  H    0.000061   0.000789   0.402137   0.010205   0.000001  -0.000029
    15  O    0.280535   0.006923  -0.000059   0.000063  -0.049285  -0.043231
    16  H   -0.030670  -0.000107   0.000003   0.000027  -0.005004  -0.005709
    17  O   -0.031107  -0.036209   0.000116   0.000048  -0.000402   0.006109
    18  H   -0.005781  -0.004415   0.000029  -0.000009  -0.002266   0.001816
    19  O   -0.020326   0.004090  -0.000354  -0.000156   0.017860   0.001258
    20  H   -0.000241   0.001277  -0.000024   0.000017   0.000095   0.000246
    21  O   -0.000778  -0.000019  -0.015137   0.002428   0.000045   0.000029
    22  H   -0.000113  -0.000042   0.001052  -0.000362  -0.000004  -0.000029
    23  O   -0.000331   0.000024  -0.044982  -0.025749  -0.000014   0.000651
    24  H    0.000086  -0.000019   0.001604   0.008701  -0.000004  -0.000023
    25  O    0.000912   0.015711   0.247704   0.007074  -0.000019  -0.000096
    26  H   -0.000064  -0.001271  -0.016236  -0.000265   0.000001   0.000006
              13         14         15         16         17         18
     1  C   -0.000314   0.002653   0.005856  -0.001827  -0.062505   0.005883
     2  C    0.005207  -0.022557  -0.001281   0.000279   0.006453  -0.000847
     3  C    0.000316  -0.000274  -0.076315   0.011193   0.253435  -0.037357
     4  C   -0.030402  -0.019720   0.000635  -0.000032  -0.000972  -0.000064
     5  H   -0.000223   0.000643   0.000158   0.000008  -0.000144  -0.000004
     6  H    0.001022  -0.003330  -0.000052   0.000031   0.001940  -0.000327
     7  C    0.000031   0.000061   0.280535  -0.030670  -0.031107  -0.005781
     8  H    0.000010   0.000789   0.006923  -0.000107  -0.036209  -0.004415
     9  C    0.428118   0.402137  -0.000059   0.000003   0.000116   0.000029
    10  H   -0.012325   0.010205   0.000063   0.000027   0.000048  -0.000009
    11  H    0.000002   0.000001  -0.049285  -0.005004  -0.000402  -0.002266
    12  H   -0.000005  -0.000029  -0.043231  -0.005709   0.006109   0.001816
    13  H    0.585350  -0.041519   0.000000  -0.000000  -0.000005   0.000000
    14  H   -0.041519   0.611407   0.000001   0.000000   0.000001   0.000000
    15  O    0.000000   0.000001   7.892236   0.327281  -0.009216   0.023592
    16  H   -0.000000   0.000000   0.327281   0.522966  -0.000008  -0.001376
    17  O   -0.000005   0.000001  -0.009216  -0.000008   7.921846   0.329317
    18  H    0.000000   0.000000   0.023592  -0.001376   0.329317   0.487278
    19  O    0.000014  -0.000142   0.000198   0.000086  -0.011087   0.000095
    20  H   -0.000002  -0.000003  -0.000080  -0.000005   0.028499  -0.001323
    21  O    0.000214   0.016735  -0.000000  -0.000001  -0.000072   0.000015
    22  H    0.000044  -0.000801  -0.000000  -0.000001  -0.000010   0.000005
    23  O    0.007460   0.001871  -0.000000  -0.000000   0.000001  -0.000000
    24  H   -0.001455   0.002951  -0.000000   0.000000   0.000001  -0.000000
    25  O   -0.036307  -0.045535   0.000003   0.000001   0.000254  -0.000010
    26  H   -0.007405  -0.007738  -0.000001  -0.000000  -0.000008   0.000001
              19         20         21         22         23         24
     1  C    0.221574  -0.044013  -0.023228  -0.002548   0.009137   0.000366
     2  C   -0.041658   0.008432   0.237605  -0.040177  -0.028840  -0.013311
     3  C   -0.021501  -0.003813   0.008879   0.001683  -0.000936  -0.000087
     4  C    0.005916  -0.000798  -0.046349   0.006413   0.278063  -0.047114
     5  H    0.002024  -0.000103  -0.039932  -0.003582   0.008125  -0.002732
     6  H   -0.037779  -0.005765   0.005245  -0.001395   0.000042   0.000032
     7  C   -0.020326  -0.000241  -0.000778  -0.000113  -0.000331   0.000086
     8  H    0.004090   0.001277  -0.000019  -0.000042   0.000024  -0.000019
     9  C   -0.000354  -0.000024  -0.015137   0.001052  -0.044982   0.001604
    10  H   -0.000156   0.000017   0.002428  -0.000362  -0.025749   0.008701
    11  H    0.017860   0.000095   0.000045  -0.000004  -0.000014  -0.000004
    12  H    0.001258   0.000246   0.000029  -0.000029   0.000651  -0.000023
    13  H    0.000014  -0.000002   0.000214   0.000044   0.007460  -0.001455
    14  H   -0.000142  -0.000003   0.016735  -0.000801   0.001871   0.002951
    15  O    0.000198  -0.000080  -0.000000  -0.000000  -0.000000  -0.000000
    16  H    0.000086  -0.000005  -0.000001  -0.000001  -0.000000   0.000000
    17  O   -0.011087   0.028499  -0.000072  -0.000010   0.000001   0.000001
    18  H    0.000095  -0.001323   0.000015   0.000005  -0.000000  -0.000000
    19  O    7.946044   0.329009  -0.010645   0.022244  -0.000083  -0.000016
    20  H    0.329009   0.482262  -0.000100  -0.001234   0.000014   0.000005
    21  O   -0.010645  -0.000100   7.916638   0.338043  -0.010012   0.021232
    22  H    0.022244  -0.001234   0.338043   0.473469   0.000010  -0.001012
    23  O   -0.000083   0.000014  -0.010012   0.000010   7.852228   0.325695
    24  H   -0.000016   0.000005   0.021232  -0.001012   0.325695   0.504645
    25  O    0.000282   0.000001   0.001123   0.000001   0.002955  -0.000131
    26  H   -0.000011   0.000003  -0.000036  -0.000004  -0.000361  -0.000005
              25         26
     1  C   -0.009310  -0.002676
     2  C   -0.017966   0.003375
     3  C   -0.009977   0.001236
     4  C   -0.047611   0.004127
     5  H   -0.000656   0.000084
     6  H    0.020515   0.000792
     7  C    0.000912  -0.000064
     8  H    0.015711  -0.001271
     9  C    0.247704  -0.016236
    10  H    0.007074  -0.000265
    11  H   -0.000019   0.000001
    12  H   -0.000096   0.000006
    13  H   -0.036307  -0.007405
    14  H   -0.045535  -0.007738
    15  O    0.000003  -0.000001
    16  H    0.000001  -0.000000
    17  O    0.000254  -0.000008
    18  H   -0.000010   0.000001
    19  O    0.000282  -0.000011
    20  H    0.000001   0.000003
    21  O    0.001123  -0.000036
    22  H    0.000001  -0.000004
    23  O    0.002955  -0.000361
    24  H   -0.000131  -0.000005
    25  O    7.898996   0.311592
    26  H    0.311592   0.539698
 Mulliken charges:
               1
     1  C    0.114030
     2  C    0.029715
     3  C    0.121535
     4  C    0.214984
     5  H    0.104922
     6  H    0.106025
     7  C   -0.046174
     8  H    0.085171
     9  C   -0.071812
    10  H    0.065749
    11  H    0.102497
    12  H    0.076192
    13  H    0.102174
    14  H    0.092194
    15  O   -0.357960
    16  H    0.182865
    17  O   -0.396275
    18  H    0.205749
    19  O   -0.406938
    20  H    0.207646
    21  O   -0.401924
    22  H    0.208347
    23  O   -0.374967
    24  H    0.200590
    25  O   -0.339505
    26  H    0.175167
 Sum of Mulliken charges =  -0.00000
 Mulliken charges with hydrogens summed into heavy atoms:
               1
     1  C    0.220056
     2  C    0.134637
     3  C    0.206706
     4  C    0.280733
     7  C    0.132515
     9  C    0.122556
    15  O   -0.175094
    17  O   -0.190525
    19  O   -0.199291
    21  O   -0.193577
    23  O   -0.174377
    25  O   -0.164338
 Electronic spatial extent (au):  <R**2>=           2394.7501
 Charge=             -0.0000 electrons
 Dipole moment (field-independent basis, Debye):
    X=             -0.9969    Y=             -0.5402    Z=              0.0071  Tot=              1.1339
 Quadrupole moment (field-independent basis, Debye-Ang):
   XX=            -68.2140   YY=            -72.9929   ZZ=            -68.5414
   XY=             -2.5481   XZ=            -12.8055   YZ=              2.7515
 Traceless Quadrupole moment (field-independent basis, Debye-Ang):
   XX=              1.7021   YY=             -3.0768   ZZ=              1.3747
   XY=             -2.5481   XZ=            -12.8055   YZ=              2.7515
 Octapole moment (field-independent basis, Debye-Ang**2):
  XXX=            -26.7161  YYY=              1.1489  ZZZ=             -6.2193  XYY=              8.5388
  XXY=             -3.5018  XXZ=             -1.9693  XZZ=            -16.5916  YZZ=             -5.3449
  YYZ=            -10.6910  XYZ=             14.9353
 Hexadecapole moment (field-independent basis, Debye-Ang**3):
 XXXX=          -1605.4038 YYYY=           -600.2114 ZZZZ=           -481.0826 XXXY=              9.2651
 XXXZ=           -102.8247 YYYX=             -8.6273 YYYZ=             10.6574 ZZZX=           -100.8683
 ZZZY=             16.3718 XXYY=           -373.7384 XXZZ=           -314.4446 YYZZ=           -160.0752
 XXYZ=             32.5819 YYXZ=             -6.8588 ZZXY=             -1.0312
 N-N= 8.284770750572D+02 E-N=-3.274466996688D+03  KE= 6.850228620299D+02
   1 Symmetry operations used in ECPInt.
 ECPInt:  NShTT=   23436 NPrTT=   62434 LenC2=   22019 LenP2D=   45636.
 LDataN:  DoStor=T MaxTD1= 7 Len=  274
 Calling FoFJK, ICntrl=      2127 FMM=F ISym2X=0 I1Cent= 0 IOpClX= 0 NMat=1 NMatS=1 NMatT=0.
 ***** Axes restored to original set *****
 -------------------------------------------------------------------
 Center     Atomic                   Forces (Hartrees/Bohr)
 Number     Number              X              Y              Z
 -------------------------------------------------------------------
      1        6          -0.010500848    0.007761869   -0.010391915
      2        6          -0.001812151   -0.001455899   -0.014845284
      3        6          -0.012335218    0.007817724    0.003213500
      4        6           0.010414066   -0.002977023   -0.011626573
      5        1          -0.003911888    0.000205074    0.008949529
      6        1           0.005301543   -0.000879964    0.011154924
      7        6          -0.000914180    0.003231046    0.005010778
      8        1           0.006437219   -0.000187144   -0.002727786
      9        6          -0.002763629   -0.007815490    0.003599465
     10        1           0.001039315   -0.001343065   -0.002539637
     11        1           0.003850435   -0.006220554   -0.004371090
     12        1           0.001727644   -0.003235240   -0.003597350
     13        1           0.004250387    0.006693426   -0.001461106
     14        1           0.002927038    0.005554035   -0.002230502
     15        8           0.007378617    0.010504583    0.001533519
     16        1          -0.008500828   -0.017227141   -0.002056233
     17        8           0.007348570    0.006636455    0.013651512
     18        1           0.004183299   -0.008969082   -0.017071752
     19        8          -0.010568511   -0.000682624    0.012950259
     20        1           0.019428888    0.000322934   -0.004513987
     21        8          -0.019271199    0.007465810    0.001873694
     22        1           0.013635987   -0.009153677    0.011202796
     23        8          -0.013632752   -0.003191334   -0.014619917
     24        1          -0.000614923    0.002540241    0.017979164
     25        8          -0.003138169   -0.014553569    0.001108561
     26        1           0.000041290    0.019158613   -0.000174569
 -------------------------------------------------------------------
 Cartesian Forces:  Max     0.019428888 RMS     0.008519647

 GradGradGradGradGradGradGradGradGradGradGradGradGradGradGradGradGradGrad
 Berny optimization.
 FormGI is forming the generalized inverse of G from B-inverse, IUseBI=4.
 Internal  Forces:  Max     0.019733491 RMS     0.006113378
 Search for a local minimum.
 Step number   1 out of a maximum of  140
 All quantities printed in internal units (Hartrees-Bohrs-Radians)
 Mixed Optimization -- RFO/linear search
 Second derivative matrix not updated -- first step.
 ITU=  0
     Eigenvalues ---    0.00253   0.00302   0.00306   0.00328   0.00339
     Eigenvalues ---    0.01041   0.01064   0.01097   0.01191   0.01272
     Eigenvalues ---    0.01408   0.03597   0.03680   0.03900   0.03965
     Eigenvalues ---    0.04600   0.04733   0.04821   0.04922   0.04927
     Eigenvalues ---    0.05293   0.05531   0.05716   0.07687   0.07769
     Eigenvalues ---    0.08057   0.08086   0.11366   0.11577   0.13615
     Eigenvalues ---    0.13876   0.16000   0.16000   0.16000   0.16000
     Eigenvalues ---    0.16000   0.16000   0.16822   0.16985   0.17232
     Eigenvalues ---    0.17635   0.19310   0.19483   0.19510   0.19733
     Eigenvalues ---    0.21989   0.22026   0.28626   0.28961   0.28985
     Eigenvalues ---    0.29139   0.29215   0.34029   0.34151   0.34193
     Eigenvalues ---    0.34214   0.34222   0.34293   0.34313   0.34446
     Eigenvalues ---    0.38349   0.38584   0.38912   0.39878   0.40738
     Eigenvalues ---    0.42242   0.51051   0.51146   0.51344   0.51354
     Eigenvalues ---    0.52525   0.52526
 RFO step:  Lambda=-1.85539240D-02 EMin= 2.52778974D-03
 Linear search not attempted -- first point.
 Iteration  1 RMS(Cart)=  0.07222199 RMS(Int)=  0.00135607
 Iteration  2 RMS(Cart)=  0.00178018 RMS(Int)=  0.00053852
 Iteration  3 RMS(Cart)=  0.00000158 RMS(Int)=  0.00053852
 Iteration  4 RMS(Cart)=  0.00000000 RMS(Int)=  0.00053852
 Variable       Old X    -DE/DX   Delta X   Delta X   Delta X     New X
                                 (Linear)    (Quad)   (Total)
    R1        2.90035  -0.01283   0.00000  -0.04161  -0.04161   2.85874
    R2        2.90085  -0.01216   0.00000  -0.03946  -0.03946   2.86140
    R3        2.07005  -0.00301   0.00000  -0.00835  -0.00835   2.06171
    R4        2.73860  -0.00950   0.00000  -0.02363  -0.02363   2.71497
    R5        2.90790  -0.01006   0.00000  -0.03300  -0.03300   2.87490
    R6        2.07281  -0.00113   0.00000  -0.00315  -0.00315   2.06966
    R7        2.73524  -0.01258   0.00000  -0.03110  -0.03110   2.70414
    R8        2.89713  -0.01180   0.00000  -0.03808  -0.03808   2.85905
    R9        2.06838  -0.00118   0.00000  -0.00327  -0.00327   2.06511
   R10        2.73059  -0.01083   0.00000  -0.02657  -0.02657   2.70402
   R11        2.89557  -0.00905   0.00000  -0.02913  -0.02913   2.86644
   R12        2.06970  -0.00303   0.00000  -0.00839  -0.00839   2.06131
   R13        2.71720  -0.01459   0.00000  -0.03495  -0.03495   2.68224
   R14        2.06805  -0.00126   0.00000  -0.00347  -0.00347   2.06458
   R15        2.06583   0.00066   0.00000   0.00181   0.00181   2.06764
   R16        2.70563  -0.00194   0.00000  -0.00456  -0.00456   2.70107
   R17        2.07076  -0.00144   0.00000  -0.00400  -0.00400   2.06676
   R18        2.06957  -0.00016   0.00000  -0.00045  -0.00045   2.06912
   R19        2.68616   0.00262   0.00000   0.00595   0.00595   2.69211
   R20        1.84100  -0.01905   0.00000  -0.03503  -0.03503   1.80597
   R21        1.85223  -0.01938   0.00000  -0.03642  -0.03642   1.81581
   R22        1.85519  -0.01973   0.00000  -0.03730  -0.03730   1.81789
   R23        1.85427  -0.01966   0.00000  -0.03710  -0.03710   1.81717
   R24        1.85232  -0.01808   0.00000  -0.03399  -0.03399   1.81833
   R25        1.84099  -0.01891   0.00000  -0.03478  -0.03478   1.80621
    A1        2.01935   0.00192   0.00000  -0.00855  -0.00889   2.01046
    A2        1.93100  -0.00027   0.00000  -0.01683  -0.01710   1.91390
    A3        1.86555  -0.00739   0.00000  -0.03932  -0.03898   1.82657
    A4        1.92261  -0.00397   0.00000  -0.02957  -0.03084   1.89177
    A5        1.89666   0.00416   0.00000   0.02287   0.02244   1.91910
    A6        1.81630   0.00609   0.00000   0.08273   0.08293   1.89922
    A7        2.03730   0.00317   0.00000  -0.00042  -0.00067   2.03663
    A8        1.91593  -0.00225   0.00000  -0.01325  -0.01381   1.90212
    A9        1.89749   0.00097   0.00000   0.00359   0.00327   1.90077
   A10        1.89898  -0.00178   0.00000  -0.02051  -0.02039   1.87859
   A11        1.88716  -0.00535   0.00000  -0.03153  -0.03143   1.85573
   A12        1.81360   0.00556   0.00000   0.07103   0.07106   1.88466
   A13        1.99377   0.00021   0.00000  -0.00839  -0.00824   1.98553
   A14        1.94062  -0.00023   0.00000  -0.01953  -0.01945   1.92116
   A15        1.87308  -0.00728   0.00000  -0.04141  -0.04112   1.83197
   A16        1.91539  -0.00174   0.00000  -0.00673  -0.00771   1.90768
   A17        1.87227   0.00620   0.00000   0.03678   0.03635   1.90862
   A18        1.86225   0.00323   0.00000   0.04491   0.04433   1.90659
   A19        1.99770  -0.00011   0.00000   0.00411   0.00395   2.00165
   A20        1.91119  -0.00018   0.00000  -0.00577  -0.00573   1.90546
   A21        1.87634   0.00118   0.00000   0.01377   0.01366   1.89000
   A22        1.90988  -0.00051   0.00000  -0.01032  -0.01030   1.89958
   A23        1.88923   0.00058   0.00000   0.00980   0.00966   1.89889
   A24        1.87538  -0.00098   0.00000  -0.01205  -0.01198   1.86339
   A25        1.94324  -0.00330   0.00000  -0.03402  -0.03371   1.90953
   A26        1.95096  -0.00034   0.00000  -0.01798  -0.01788   1.93309
   A27        1.88552  -0.01219   0.00000  -0.04753  -0.04729   1.83823
   A28        1.91679  -0.00022   0.00000  -0.00340  -0.00548   1.91131
   A29        1.87345   0.00959   0.00000   0.06493   0.06391   1.93736
   A30        1.89121   0.00701   0.00000   0.04315   0.04220   1.93341
   A31        1.91681  -0.00484   0.00000  -0.04147  -0.04143   1.87538
   A32        1.94425  -0.00370   0.00000  -0.03608  -0.03614   1.90811
   A33        1.93584  -0.00804   0.00000  -0.03472  -0.03467   1.90118
   A34        1.87051   0.00279   0.00000   0.02247   0.02024   1.89075
   A35        1.88890   0.00774   0.00000   0.05213   0.05103   1.93994
   A36        1.90557   0.00681   0.00000   0.04252   0.04138   1.94694
   A37        1.86261   0.00570   0.00000   0.03191   0.03191   1.89452
   A38        1.81745   0.00631   0.00000   0.03532   0.03532   1.85277
   A39        1.81136   0.00541   0.00000   0.03029   0.03029   1.84165
   A40        1.81819   0.00540   0.00000   0.03023   0.03023   1.84843
   A41        1.83143   0.00325   0.00000   0.01823   0.01823   1.84966
   A42        1.86223   0.00561   0.00000   0.03141   0.03141   1.89364
    D1        1.04304  -0.00104   0.00000  -0.02043  -0.02046   1.02257
    D2       -1.12765   0.00084   0.00000   0.01924   0.01901  -1.10864
    D3       -3.10079  -0.00509   0.00000  -0.05984  -0.05995   3.12245
    D4       -1.15872   0.00309   0.00000   0.04199   0.04213  -1.11659
    D5        2.95378   0.00497   0.00000   0.08166   0.08160   3.03538
    D6        0.98064  -0.00095   0.00000   0.00258   0.00265   0.98329
    D7       -3.12555   0.00003   0.00000  -0.02591  -0.02575   3.13189
    D8        0.98695   0.00191   0.00000   0.01375   0.01372   1.00067
    D9       -0.98619  -0.00402   0.00000  -0.06533  -0.06524  -1.05142
   D10        0.96585  -0.00298   0.00000  -0.02105  -0.02141   0.94444
   D11       -1.21368  -0.00060   0.00000   0.01063   0.01043  -1.20324
   D12        3.03898  -0.00008   0.00000  -0.00844  -0.00875   3.03023
   D13       -3.11132  -0.00524   0.00000  -0.07678  -0.07646   3.09540
   D14        0.99233  -0.00286   0.00000  -0.04511  -0.04462   0.94771
   D15       -1.03820  -0.00234   0.00000  -0.06417  -0.06380  -1.10200
   D16       -1.13193   0.00218   0.00000   0.01845   0.01828  -1.11365
   D17        2.97172   0.00456   0.00000   0.05013   0.05012   3.02185
   D18        0.94120   0.00508   0.00000   0.03106   0.03094   0.97213
   D19       -3.01778  -0.00016   0.00000   0.01281   0.01241  -3.00537
   D20       -0.82707   0.00007   0.00000  -0.00843  -0.00948  -0.83655
   D21        1.22133   0.00051   0.00000   0.01022   0.01167   1.23300
   D22        1.02462  -0.00055   0.00000  -0.01787  -0.01784   1.00678
   D23       -1.12707   0.00035   0.00000  -0.00279  -0.00274  -1.12981
   D24        3.12380   0.00096   0.00000   0.00693   0.00701   3.13081
   D25       -3.07928  -0.00269   0.00000  -0.05362  -0.05367  -3.13295
   D26        1.05221  -0.00179   0.00000  -0.03854  -0.03857   1.01365
   D27       -0.98011  -0.00118   0.00000  -0.02882  -0.02881  -1.00892
   D28       -1.12009   0.00023   0.00000   0.00324   0.00319  -1.11690
   D29        3.01141   0.00113   0.00000   0.01832   0.01829   3.02970
   D30        0.97909   0.00174   0.00000   0.02804   0.02804   1.00713
   D31        0.72704   0.00016   0.00000   0.02313   0.02348   0.75051
   D32        2.95466   0.00115   0.00000   0.00358   0.00397   2.95863
   D33       -1.31269  -0.00050   0.00000   0.00083   0.00009  -1.31261
   D34        1.01471  -0.00308   0.00000  -0.03405  -0.03419   0.98052
   D35       -1.13631  -0.00012   0.00000   0.00845   0.00828  -1.12803
   D36        3.06768  -0.00075   0.00000  -0.00358  -0.00366   3.06402
   D37       -3.07563  -0.00464   0.00000  -0.07204  -0.07199   3.13557
   D38        1.05654  -0.00168   0.00000  -0.02954  -0.02953   1.02702
   D39       -1.02266  -0.00232   0.00000  -0.04157  -0.04146  -1.06412
   D40       -1.05888   0.00166   0.00000  -0.00237  -0.00231  -1.06118
   D41        3.07329   0.00462   0.00000   0.04013   0.04016   3.11345
   D42        0.99409   0.00399   0.00000   0.02810   0.02823   1.02232
   D43       -3.00219   0.00024   0.00000   0.02760   0.02744  -2.97476
   D44       -0.85232  -0.00014   0.00000   0.01493   0.01402  -0.83830
   D45        1.19944   0.00258   0.00000   0.04830   0.04937   1.24881
   D46        2.93347  -0.00046   0.00000  -0.00777  -0.00773   2.92574
   D47        0.86391   0.00149   0.00000   0.01348   0.01345   0.87736
   D48       -1.26257   0.00097   0.00000   0.00838   0.00839  -1.25418
   D49       -1.19732  -0.00118   0.00000  -0.02040  -0.02036  -1.21768
   D50        3.01630   0.00077   0.00000   0.00085   0.00082   3.01713
   D51        0.88983   0.00025   0.00000  -0.00424  -0.00424   0.88559
   D52        0.84148  -0.00231   0.00000  -0.03492  -0.03491   0.80657
   D53       -1.22809  -0.00035   0.00000  -0.01367  -0.01373  -1.24181
   D54        2.92862  -0.00088   0.00000  -0.01877  -0.01879   2.90984
   D55       -0.74079  -0.00033   0.00000  -0.00758  -0.00766  -0.74845
   D56        1.42575   0.00061   0.00000   0.01176   0.01184   1.43759
   D57       -2.79649  -0.00021   0.00000  -0.00172  -0.00170  -2.79819
   D58        3.13905   0.00116   0.00000   0.01970   0.01994  -3.12420
   D59       -1.04678  -0.00412   0.00000  -0.01060  -0.01251  -1.05929
   D60        1.02234   0.00463   0.00000   0.04407   0.04573   1.06807
   D61       -3.10257   0.00005   0.00000  -0.00431  -0.00423  -3.10680
   D62       -0.99880  -0.00586   0.00000  -0.04320  -0.04494  -1.04374
   D63        1.03167   0.00540   0.00000   0.03518   0.03684   1.06851
         Item               Value     Threshold  Converged?
 Maximum Force            0.019733     0.000450     NO 
 RMS     Force            0.006113     0.000300     NO 
 Maximum Displacement     0.285789     0.001800     NO 
 RMS     Displacement     0.072230     0.001200     NO 
 Predicted change in Energy=-1.052596D-02
 GradGradGradGradGradGradGradGradGradGradGradGradGradGradGradGradGradGrad

                          Input orientation:                          
 ---------------------------------------------------------------------
 Center     Atomic      Atomic             Coordinates (Angstroms)
 Number     Number       Type             X           Y           Z
 ---------------------------------------------------------------------
      1          6           0       -0.008950    0.002478   -0.002984
      2          6           0        1.503740    0.010514   -0.017234
      3          6           0       -0.644729    0.572205    1.247597
      4          6           0        2.201689   -0.743184    1.104934
      5          1           0        1.854790    1.047557    0.011116
      6          1           0       -0.371866   -1.017283   -0.139666
      7          6           0       -0.173900    1.968958    1.588783
      8          1           0       -0.459109   -0.089237    2.097463
      9          6           0        1.836688   -2.212118    1.204206
     10          1           0        1.976086   -0.259144    2.056068
     11          1           0       -0.353057    2.630434    0.737917
     12          1           0        0.892415    1.969657    1.834007
     13          1           0        2.552769   -2.682817    1.883776
     14          1           0        1.939322   -2.678407    0.218853
     15          8           0       -0.954295    2.365108    2.718858
     16          1           0       -0.703354    3.253758    2.965141
     17          8           0       -2.048004    0.599556    0.969085
     18          1           0       -2.453091    1.095944    1.685190
     19          8           0       -0.387377    0.786166   -1.146111
     20          1           0       -1.340952    0.894371   -1.079741
     21          8           0        1.959021   -0.576744   -1.240146
     22          1           0        1.396114   -0.216046   -1.931316
     23          8           0        3.603441   -0.632265    0.911449
     24          1           0        3.752190   -0.764813   -0.029919
     25          8           0        0.506175   -2.325185    1.700638
     26          1           0        0.293743   -3.252767    1.790235
 ---------------------------------------------------------------------
                    Distance matrix (angstroms):
                    1          2          3          4          5
     1  C    0.000000
     2  C    1.512778   0.000000
     3  C    1.514185   2.555624   0.000000
     4  C    2.582715   1.521333   3.138901   0.000000
     5  H    2.136800   1.095216   2.828859   2.126859   0.000000
     6  H    1.091010   2.142255   2.127305   2.871819   3.040443
     7  C    2.535345   3.037971   1.512946   3.637753   2.730128
     8  H    2.150100   2.886983   1.092810   2.914208   3.316515
     9  C    3.125399   2.557902   3.729849   1.516855   3.471206
    10  H    2.872021   2.143457   2.865910   1.090801   2.429816
    11  H    2.751999   3.298777   2.140363   4.247674   2.812175
    12  H    2.838448   2.763883   2.158602   3.099234   2.258177
    13  H    4.163301   3.459528   4.606939   2.119441   4.231987
    14  H    3.321463   2.734185   4.278097   2.144543   3.732708
    15  O    3.726140   4.367179   2.339859   4.714495   4.118102
    16  H    4.456769   4.927926   3.184983   5.279696   4.487504
    17  O    2.336486   3.732919   1.430908   4.458845   4.043540
    18  H    3.165348   4.442175   1.932864   5.038459   4.621980
    19  O    1.436703   2.335021   2.416991   3.756245   2.536693
    20  H    1.931090   3.162657   2.450513   4.472661   3.380267
    21  O    2.395616   1.430967   3.780009   2.363470   2.053016
    22  H    2.395917   1.930446   3.858998   3.185222   2.362227
    23  O    3.780007   2.384190   4.428397   1.419383   2.586538
    24  H    3.838702   2.378407   4.769965   1.921564   2.624213
    25  O    2.930136   3.066222   3.150349   2.394236   4.006075
    26  H    3.728790   3.921739   3.975626   3.226128   4.908657
                    6          7          8          9         10
     6  H    0.000000
     7  C    3.456061   0.000000
     8  H    2.423557   2.139221   0.000000
     9  C    2.848041   4.655294   3.251956   0.000000
    10  H    3.302862   3.131332   2.441467   2.135229   0.000000
    11  H    3.751846   1.092530   3.042404   5.335047   3.938540
    12  H    3.796788   1.094150   2.476908   4.333075   2.488214
    13  H    3.927061   5.400070   3.980419   1.093684   2.497286
    14  H    2.868703   5.285869   3.998181   1.094934   3.038016
    15  O    4.466649   1.429343   2.579757   5.570884   3.989126
    16  H    5.290700   1.955862   3.462388   6.279212   4.510687
    17  O    2.579329   2.402405   2.066944   4.801211   4.255843
    18  H    3.482431   2.442572   2.355968   5.438458   4.646658
    19  O    2.065333   2.987342   3.360394   4.411368   4.114922
    20  H    2.340361   3.104475   3.440894   4.996407   4.708146
    21  O    2.614989   4.362659   4.150260   2.943514   3.311524
    22  H    2.641542   4.430607   4.437228   3.742981   4.029572
    23  O    4.129909   4.636103   4.266829   2.388107   2.024267
    24  H    4.133234   5.050533   4.766256   2.699426   2.785962
    25  O    2.422454   4.349101   2.467531   1.424604   2.560370
    26  H    3.027366   5.246493   3.266359   1.951169   3.444230
                   11         12         13         14         15
    11  H    0.000000
    12  H    1.785845   0.000000
    13  H    6.163397   4.940118   0.000000
    14  H    5.805878   5.030828   1.774346   0.000000
    15  O    2.087107   2.085589   6.203096   6.329303   0.000000
    16  H    2.339182   2.339842   6.856720   7.050987   0.955681
    17  O    2.655325   3.357280   5.725185   5.216000   2.715709
    18  H    2.768055   3.460915   6.275118   5.974040   2.219377
    19  O    2.636677   3.452481   5.464295   4.390891   4.213364
    20  H    2.700691   3.825453   6.061334   5.021084   4.091689
    21  O    4.420909   4.131855   3.814049   2.558526   5.728492
    22  H    4.276313   4.382769   4.688042   3.313839   5.814714
    23  O    5.131199   3.869208   2.500819   2.726844   5.746645
    24  H    5.382409   4.373769   2.963035   2.647682   6.285155
    25  O    5.120867   4.314237   2.085663   2.091498   5.016831
    26  H    6.011471   5.256808   2.331692   2.346712   5.829276
                   16         17         18         19         20
    16  H    0.000000
    17  O    3.582891   0.000000
    18  H    3.058760   0.960886   0.000000
    19  O    4.805335   2.695656   3.518438   0.000000
    20  H    4.725919   2.187356   2.987026   0.961987   0.000000
    21  O    6.280560   4.724472   5.551776   2.715134   3.616591
    22  H    6.357877   4.575968   5.442133   2.191304   3.074042
    23  O    6.153642   5.784422   6.345626   4.708729   5.544590
    24  H    6.706055   6.041669   6.701457   4.559324   5.458490
    25  O    5.846925   3.951343   4.523452   4.310792   4.637664
    26  H    6.686514   4.582408   5.144650   5.039746   5.301674
                   21         22         23         24         25
    21  O    0.000000
    22  H    0.961605   0.000000
    23  O    2.708609   3.623099   0.000000
    24  H    2.171514   3.076938   0.962221   0.000000
    25  O    3.716991   4.293199   3.616885   3.995773   0.000000
    26  H    4.372352   4.928168   4.312006   4.632896   0.955804
                   26
    26  H    0.000000
 Stoichiometry    C6H14O6
 Framework group  C1[X(C6H14O6)]
 Deg. of freedom    72
 Full point group                 C1      NOp   1
 Largest Abelian subgroup         C1      NOp   1
 Largest concise Abelian subgroup C1      NOp   1
                         Standard orientation:                         
 ---------------------------------------------------------------------
 Center     Atomic      Atomic             Coordinates (Angstroms)
 Number     Number       Type             X           Y           Z
 ---------------------------------------------------------------------
      1          6           0       -0.309432    0.729402   -0.564827
      2          6           0        0.823788    0.740426    0.437266
      3          6           0       -1.397265   -0.289085   -0.296388
      4          6           0        1.595710   -0.559067    0.610204
      5          1           0        0.428987    1.024932    1.418431
      6          1           0        0.087427    0.553436   -1.565748
      7          6           0       -1.991583   -0.194786    1.091741
      8          1           0       -1.013048   -1.299445   -0.456957
      9          6           0        2.226087   -1.095435   -0.660931
     10          1           0        0.930039   -1.319235    1.021144
     11          1           0       -2.370769    0.816516    1.256381
     12          1           0       -1.241098   -0.431900    1.851816
     13          1           0        2.922763   -1.887660   -0.372547
     14          1           0        2.795188   -0.296883   -1.148084
     15          8           0       -3.054441   -1.150239    1.113265
     16          1           0       -3.474938   -1.117936    1.970857
     17          8           0       -2.411607   -0.010665   -1.266485
     18          1           0       -3.172386   -0.542428   -1.018000
     19          8           0       -0.856172    2.056869   -0.509854
     20          1           0       -1.653383    2.029357   -1.047551
     21          8           0        1.781595    1.727842    0.043206
     22          1           0        1.271447    2.497454   -0.225363
     23          8           0        2.617054   -0.345764    1.572496
     24          1           0        3.001889    0.511329    1.364740
     25          8           0        1.198492   -1.598466   -1.509756
     26          1           0        1.604680   -1.962881   -2.294470
 ---------------------------------------------------------------------
 Rotational constants (GHZ):           1.2042507           0.5916616           0.5556907
 Standard basis: def2TZVPP (5D, 7F)
 There are   642 symmetry adapted cartesian basis functions of A   symmetry.
 There are   568 symmetry adapted basis functions of A   symmetry.
   568 basis functions,   850 primitive gaussians,   642 cartesian basis functions
    49 alpha electrons       49 beta electrons
       nuclear repulsion energy       840.9517557717 Hartrees.
 NAtoms=   26 NActive=   26 NUniq=   26 SFac= 1.00D+00 NAtFMM=   60 NAOKFM=F Big=F
 Integral buffers will be    131072 words long.
 Raffenetti 2 integral format.
 Two-electron integral symmetry is turned on.
 Nuclear repulsion after empirical dispersion term =      840.9325042609 Hartrees.
 One-electron integrals computed using PRISM.
   1 Symmetry operations used in ECPInt.
 ECPInt:  NShTT=   23436 NPrTT=   62434 LenC2=   22122 LenP2D=   46016.
 LDataN:  DoStor=T MaxTD1= 6 Len=  172
[...]
 00014595,0.00030353,-0.00076584,0.00800163,0.00102658,-0.00154481,0.00
 106178,0.63995626,0.00687904,-0.11898381,0.07102881,0.00690549,-0.0040
 6916,0.00701554,0.00101590,0.00536683,0.00120687,-0.00045986,0.0009678
 0,-0.00156651,0.00092019,0.00174825,-0.00081563,0.01418377,-0.01858181
 ,0.03769131,-0.00196162,-0.00255134,0.00191927,0.00087133,0.00040551,-
 0.00195900,-0.00168544,0.00027699,-0.00004971,0.00010471,-0.00007801,0
 .00029176,0.00018538,0.00235248,-0.00129968,-0.00035025,0.00026228,-0.
 00083295,0.00024646,-0.00002491,0.00010006,-0.00014154,0.00022352,-0.0
 0003509,0.00031191,0.00147603,-0.00174973,0.00002095,0.00027140,0.0006
 7015,0.00054277,0.00314153,-0.00265790,-0.00010933,-0.00006236,-0.0000
 2625,-0.09600620,0.15084382,0.00016538,0.06525791,-0.16296875,-0.00860
 763,0.00700695,-0.01238305,-0.01245116,0.02557412,-0.04709889,0.001293
 60,-0.00085633,0.00190381,0.00082325,-0.00037334,0.00039734,-0.0036575
 1,0.01332076,-0.00891882,-0.00034250,0.00307402,0.00169958,0.00473659,
 -0.00446613,-0.00606749,0.00109532,-0.00009706,-0.00057471,0.00029507,
 -0.00002969,0.00038266,-0.00004670,-0.00066644,-0.00102875,-0.00002348
 ,0.00008865,-0.00053792,-0.00019459,0.00012012,-0.00002493,-0.00005880
 ,0.00010833,0.00012087,0.00090562,-0.00162312,-0.00094652,0.00000256,0
 .00002748,0.00014310,-0.00019141,0.00048966,0.00042919,-0.00127158,0.0
 0080588,0.00033860,0.00423405,-0.12379046,0.26747793,-0.01373074,0.001
 92245,-0.00297640,-0.00081042,0.00222521,-0.00160159,0.00265328,-0.000
 54804,0.00129146,-0.00019719,-0.00009252,0.00034757,0.00039958,0.00014
 357,0.00002448,0.00069111,-0.00074305,0.00118564,-0.00024668,-0.000396
 06,-0.00073540,-0.00115914,0.00021599,0.00028391,-0.00010457,0.0000497
 1,-0.00008100,0.00001449,-0.00001215,0.00001097,-0.00006678,-0.0004294
 4,-0.00020384,-0.00005314,-0.00019877,0.00006153,0.00001751,-0.0000127
 2,0.00003395,-0.00002112,0.00004710,-0.00000745,-0.00057105,0.00031616
 ,0.00051969,-0.00002532,-0.00000459,-0.00000344,-0.00153780,-0.0006120
 1,-0.00003061,-0.00026459,0.00048746,-0.00016383,-0.51597988,0.0643138
 4,0.01580466,0.53034579,0.02530908,-0.00425743,0.00300663,0.00033464,-
 0.00233207,0.00209699,-0.00025714,0.00207173,0.00012758,0.00058196,0.0
 0072648,-0.00025153,-0.00003679,0.00019418,0.00007031,0.00073873,-0.00
 065867,-0.00001066,0.00013585,0.00042892,-0.00099833,0.00008534,-0.000
 16903,0.00005181,0.00009197,0.00012836,-0.00009339,-0.00003656,-0.0000
 0255,-0.00002718,-0.00040410,-0.00059188,-0.00005144,0.00009005,-0.000
 18488,0.00031081,-0.00002164,0.00002149,-0.00003291,0.00000964,-0.0000
 4948,-0.00002221,-0.00004093,-0.00026196,0.00041879,-0.00009804,-0.000
 02302,-0.00019311,0.00036063,-0.00280113,0.00047967,-0.00033727,0.0002
 7908,-0.00095496,0.03954246,-0.02167502,0.01601796,-0.06595538,0.02970
 190,-0.03868595,0.00634307,-0.00172985,-0.00151376,0.00404574,-0.00739
 055,-0.00579365,0.00088593,-0.00298502,-0.00113104,-0.00035348,0.00141
 646,0.00031743,-0.00007113,0.00000829,0.00027821,0.00071935,0.00022740
 ,0.00009097,-0.00050627,-0.00055702,0.00050807,0.00012750,0.00081091,-
 0.00024874,-0.00012316,0.00005231,-0.00000494,-0.00006613,-0.00013618,
 -0.00028560,-0.00031056,-0.00010099,0.00030915,0.00025166,0.00038119,0
 .00004283,0.00005126,-0.00002050,0.00005043,0.00000051,-0.00003843,0.0
 0033107,0.00044743,0.00047218,0.00009672,-0.00010874,-0.00009734,-0.00
 007717,-0.00004636,0.00312326,0.00087937,-0.00131397,0.00078594,0.0583
 2716,0.01051106,-0.03567408,-0.01371710,-0.02052152,0.04086317,-0.0191
 4099,0.02166027,0.04258337,-0.09440249,0.03021465,0.01355799,-0.004996
 06,-0.00072287,-0.00664633,0.00171170,-0.00638896,-0.01430082,0.005990
 22,0.00163346,-0.00211029,0.00412032,0.00053454,-0.00006363,-0.0009690
 2,-0.00107661,-0.00040950,-0.00001143,-0.00002930,0.00044396,-0.000487
 02,-0.00047320,0.00073372,-0.00146128,0.00192969,-0.00310864,-0.000055
 87,0.00003285,-0.00001513,0.00027843,0.00012563,0.00023215,0.00018858,
 -0.00014508,0.00005960,-0.00011711,0.00005503,-0.00016688,0.00021613,0
 .00097152,0.00076038,-0.00010105,-0.00002096,0.00000208,-0.00321985,0.
 00211141,0.00320242,-0.00078822,-0.00048930,-0.00016055,-0.00167127,0.
 00161367,0.00223201,0.00107278,0.00011012,0.00182211,0.27781981,0.0044
 2367,-0.00116020,-0.00597307,0.03394380,-0.10785144,-0.03484699,-0.000
 26765,0.00144024,0.00127227,-0.00373631,0.00930678,0.01481565,0.014542
 13,-0.01249313,-0.03923761,0.00176046,0.00151591,0.00094679,-0.0013515
 5,0.00019563,0.00014398,0.00028208,-0.00011584,-0.00036323,-0.00041481
 ,-0.00112696,-0.00164429,0.00234376,-0.00129359,0.00325345,-0.00026269
 ,0.00021295,-0.00005137,0.00061373,-0.00004319,0.00060866,0.00003354,0
 .00096626,0.00086672,-0.00020102,0.00080021,0.00220278,0.00104103,-0.0
 0011392,-0.00063877,-0.00008623,0.00015753,0.00013982,0.00100013,0.000
 01914,-0.00055699,-0.00004343,-0.00003282,-0.00000740,0.00182756,0.001
 14487,-0.00051068,-0.00044986,0.00010979,-0.00104030,-0.18689945,0.224
 39744,0.01147250,-0.00783254,-0.02458313,0.04906072,-0.06332145,-0.183
 08883,0.00019348,0.00108553,0.00437178,0.00842706,-0.01331484,-0.04880
 615,0.00552065,-0.01538755,-0.01857287,-0.00069086,0.00081833,0.000593
 31,-0.00115376,0.00080296,0.00007388,-0.00017468,-0.00000868,0.0003188
 8,-0.00021193,-0.00211231,0.00067518,-0.00431142,0.00390329,-0.0035341
 7,0.00000436,-0.00017023,-0.00004056,0.00048027,0.00019952,0.00051562,
 0.00003998,-0.00005247,0.00021579,0.00014363,0.00111893,-0.00055868,0.
 00106885,-0.00076074,-0.00071045,-0.00009348,0.00020144,0.00000938,0.0
 0287449,-0.00137220,-0.00080117,0.00030871,0.00014201,0.00011801,-0.00
 420536,0.00148419,0.00425380,-0.00023069,0.00028611,0.00049804,0.13863
 936,-0.07478343,0.56205578,0.00122395,-0.00133123,0.00670376,0.0078041
 0,-0.00628410,0.01217184,0.00011186,0.00025155,-0.00034469,-0.00268087
 ,0.00086019,0.00355112,-0.00009467,0.00090180,0.00032034,-0.00036715,0
 .00001555,-0.00013301,0.00040319,0.00016258,0.00020653,0.00014906,-0.0
 0011304,-0.00039397,0.00064801,0.00024765,0.00004441,0.00066275,-0.000
 34748,0.00086952,0.00007535,0.00014305,0.00004950,-0.00018140,-0.00004
 211,-0.00021597,-0.00006400,-0.00008032,0.00006042,-0.00005004,0.00009
 210,-0.00001309,-0.00019504,-0.00022911,-0.00025550,0.00004292,0.00000
 117,0.00003020,-0.00014793,0.00003121,-0.00060061,-0.00008754,0.000103
 10,0.00004184,0.00006029,-0.00020342,-0.00161207,-0.00054037,-0.000217
 28,-0.00114364,-0.16936176,0.13427428,-0.20927459,0.16189433,0.0004602
 9,0.00223342,-0.00198269,-0.00845500,0.00638491,-0.01546937,-0.0000186
 2,-0.00031106,0.00069460,0.00075795,-0.00151657,-0.00212422,-0.0002878
 8,-0.00047360,-0.00142398,-0.00035309,-0.00052461,0.00055703,0.0000938
 7,0.00014003,-0.00027781,-0.00010082,0.00004796,0.00016239,0.00014788,
 0.00011313,0.00024736,-0.00030719,0.00050275,-0.00049137,0.00005831,-0
 .00012195,0.00000972,-0.00000244,0.00001741,0.00000809,0.00000925,0.00
 000203,0.00003277,0.00016050,0.00035889,0.00004129,-0.00004718,-0.0001
 1009,0.00011927,0.00000831,-0.00000602,-0.00006370,0.00024470,-0.00027
 358,0.00005822,0.00010853,0.00002129,-0.00000378,-0.00051346,-0.001567
 38,-0.00048017,-0.00014031,-0.00037859,0.00087479,0.13653526,-0.117296
 78,0.16823341,-0.12837904,0.11317829,0.00058712,0.00143105,-0.00059758
 ,-0.01842374,0.01584748,-0.03458134,-0.00021077,0.00007809,-0.00113784
 ,0.00267247,-0.00392179,-0.00595341,-0.00064802,0.00002401,0.00081509,
 0.00029337,0.00006168,-0.00008758,0.00003009,-0.00024319,-0.00011020,-
 0.00002464,-0.00000744,0.00008187,0.00016538,-0.00066247,0.00019046,-0
 .00098475,0.00090191,-0.00091048,0.00001861,-0.00005041,-0.00000741,-0
 .00005149,0.00001927,-0.00003856,0.00000937,-0.00006826,0.00012668,0.0
 0001703,0.00027199,0.00008867,-0.00018251,0.00029678,0.00032313,0.0000
 0914,-0.00004899,-0.00001549,-0.00079523,0.00029938,0.00059798,-0.0000
 4415,-0.00009675,0.00000446,-0.00170219,0.00035596,-0.00040487,-0.0000
 0584,0.00014924,0.00079165,-0.17200609,0.13402770,-0.29103019,0.191014
 91,-0.14859293,0.33060086,0.00521094,0.00244827,-0.00508838,-0.0515103
 4,-0.00005655,0.00200784,0.00142242,-0.00068399,-0.00050153,-0.2291112
 8,-0.02192835,-0.00311583,0.00152536,-0.00038140,0.00152922,-0.0001865
 0,-0.00011855,0.00012655,0.00012400,-0.00056487,-0.00043282,0.00019993
 ,0.00011400,-0.00022532,-0.03160835,-0.00395822,0.00645340,-0.02019392
 ,-0.00031038,0.00637052,-0.00012286,0.00005205,-0.00006710,-0.00012972
 ,-0.00027545,-0.00002181,0.00156090,0.00105857,0.00127173,0.00061497,-
 0.00019154,-0.00160179,-0.00033421,0.00073139,0.00068364,-0.00003517,-
 0.00011903,-0.00006582,-0.00122245,0.00059611,0.00023312,0.00007497,-0
 .00018615,-0.00010866,-0.00446864,0.00148061,-0.00174788,0.00003629,0.
 00022434,-0.00074021,0.00271194,-0.00035564,0.00034297,-0.00007677,0.0
 0001122,0.00119423,0.38277807,-0.00084382,-0.00034180,0.00350498,0.021
 25257,0.00131785,-0.00203029,-0.00047969,-0.00015044,0.00059949,-0.015
 33165,-0.06905045,-0.00352626,0.00000216,0.00307066,-0.00202403,0.0010
 0257,0.00018535,0.00028635,-0.00050635,0.00028295,0.00005401,0.0001284
 6,-0.00028211,-0.00011096,-0.03414378,0.00239918,0.00851679,0.01090090
 ,0.00526370,0.00046538,-0.00002785,0.00010737,-0.00001639,0.00006660,-
 0.00001304,0.00020071,-0.00169705,0.00346444,-0.00051555,0.00111465,0.
 00138823,-0.00053889,0.00038278,-0.00015741,-0.00033389,-0.00005633,0.
 00004728,0.00003842,0.00046898,0.00012716,-0.00026270,-0.00005378,-0.0
 0007461,0.00004381,0.00171390,-0.00001140,0.00026778,-0.00001285,-0.00
 017911,0.00033092,0.00018659,0.00224265,-0.00018011,-0.00010791,0.0001
 7207,-0.00013026,0.02464627,0.07155119,0.00055445,0.00201819,-0.003538
 81,-0.02467444,-0.00167832,0.00063838,-0.00021479,0.00035903,-0.001360
 33,0.04470642,-0.00044499,-0.10030653,0.00030874,-0.00125579,0.0011747
 2,-0.00018174,0.00001122,-0.00007437,-0.00047693,-0.00006357,-0.000061
 93,-0.00027079,-0.00020845,0.00050930,0.00549550,0.00108690,0.00130187
 ,0.03841800,0.00511040,-0.00206353,0.00015391,-0.00017281,0.00005116,0
 .00017624,0.00023166,-0.00001782,0.00116865,-0.00128659,0.00007282,0.0
 0041438,0.00209703,0.00095448,0.00017626,0.00003738,0.00020494,-0.0000
 4994,0.00004861,-0.00002293,0.00017222,-0.00004732,0.00078656,-0.00011
 332,0.00001580,-0.00002516,-0.00221932,0.00048877,0.00030166,0.0000292
 4,0.00014452,-0.00042147,-0.00554050,0.00095696,-0.00105515,-0.0015736
 4,-0.00051842,0.00157449,-0.10267853,0.05138803,0.60568274,-0.00036131
 ,-0.00030508,0.00037333,-0.00251140,0.00278086,0.00390126,-0.00005483,
 -0.00004340,0.00057822,-0.01663332,0.00607225,0.04735491,-0.00012712,0
 .00004452,-0.00048620,0.00004385,-0.00002262,0.00003494,0.00002773,0.0
 0015813,0.00010690,0.00005952,0.00005340,-0.00013669,-0.00063933,0.000
 23508,0.00138248,-0.00684876,-0.00114309,0.00027764,-0.00002864,0.0000
 5653,-0.00000411,-0.00001534,-0.00001843,0.00003351,-0.00007586,0.0000
 3009,-0.00030464,-0.00005507,-0.00080069,-0.00012893,0.00009899,-0.000
 19598,-0.00025311,0.00000633,0.00002970,0.00002495,0.00028557,-0.00012
 289,-0.00035163,0.00001161,0.00003604,0.00002813,0.00090590,-0.0003837
 7,-0.00009925,-0.00008799,0.00001361,0.00001083,0.00114691,-0.00110565
 ,0.00118642,0.00129350,0.00019054,-0.00094158,-0.05426773,0.00020590,0
 .04356404,0.07791776,0.00030210,-0.00009931,-0.00040041,0.00132269,0.0
 0157681,-0.00163638,0.00007622,0.00007401,-0.00030388,-0.00082157,-0.0
 0073683,0.00353056,0.00054932,-0.00088276,0.00001993,-0.00029632,-0.00
 001583,-0.00005927,0.00005502,-0.00006283,-0.00005814,-0.00006929,-0.0
 0000332,0.00009926,-0.00191137,0.00091332,0.00232865,0.00208061,0.0000
 2624,-0.00066333,0.00005663,-0.00005983,0.00002590,-0.00001571,0.00005
 493,-0.00007695,-0.00013540,-0.00010715,0.00031970,-0.00048192,-0.0002
 9884,-0.00063646,-0.00009582,0.00003729,0.00014539,0.00001265,-0.00000
 696,-0.00002548,-0.00012172,-0.00003874,0.00017792,0.00000590,0.000023
 89,-0.00001641,-0.00039974,-0.00000445,0.00003067,0.00002270,0.0000153
 8,-0.00005613,-0.00141769,-0.00125658,0.00039339,0.00020319,-0.0005478
 3,0.00006328,0.00628873,-0.01200639,-0.06088367,-0.00533104,0.01440432
 ,0.00077462,-0.00046228,-0.00104254,-0.00404974,0.00110565,0.00390566,
 0.00031786,-0.00006065,0.00027881,0.00327534,-0.00227189,-0.00677425,0
 .00021470,-0.00042730,-0.00017360,-0.00009923,-0.00003467,0.00006129,0
 .00010753,-0.00000687,0.00001356,0.00005332,-0.00000403,-0.00008174,-0
 .00023876,0.00108841,0.00006054,0.00016357,0.00126944,0.00152053,-0.00
 003158,0.00003774,-0.00001197,-0.00001670,-0.00005014,-0.00001372,0.00
 002886,0.00017995,-0.00023211,0.00013553,-0.00005667,-0.00013009,-0.00
 005540,0.00000794,-0.00004260,0.00001765,-0.00001368,0.00001111,-0.000
 00221,-0.00003163,-0.00021088,0.00004672,-0.00000211,0.00000895,-0.000
 35117,0.00015515,-0.00051564,-0.00007512,0.00008025,-0.00010862,0.0005
 2947,-0.00028767,-0.00071005,0.00047420,0.00022284,-0.00056206,0.09549
 884,-0.05789732,-0.50586090,-0.09550224,0.05829704,0.51021857,-0.00212
 106,-0.00196376,-0.00043132,-0.00147927,0.00070124,-0.00039524,0.00028
 167,-0.00025904,0.00104992,-0.01887829,-0.00121929,0.00871459,0.000558
 04,-0.00038212,0.00028383,0.00053321,0.00155792,0.00083741,-0.00080056
 ,0.00008210,-0.00042773,-0.00060162,-0.00001480,-0.00063541,-0.2075746
 7,0.01313782,0.07211603,0.00065169,0.00089850,-0.00105155,0.00005362,0
 .00028209,0.00001505,0.00023228,0.00014581,0.00017805,-0.03849680,-0.0
 0440676,0.01968588,-0.01330630,-0.00125209,0.01185413,0.00040981,0.000
 20668,0.00002096,-0.00004895,0.00000543,-0.00002336,0.00058131,0.00055
 577,-0.00039475,0.00007063,-0.00032928,0.00002263,0.00120940,0.0016218
 4,-0.00113075,0.00010863,-0.00029268,0.00026876,0.00156270,-0.00100521
 ,0.00079031,-0.00058467,-0.00020368,-0.00001789,-0.00137904,-0.0070489
 1,0.00222424,-0.00002579,0.00040617,-0.00114377,0.34771640,0.00088502,
 -0.00036595,0.00133960,0.00125732,0.00218964,-0.00072112,-0.00029054,-
 0.00058425,-0.00151453,-0.03624245,0.00383410,0.01728091,-0.00018898,0
 .00014737,-0.00038295,0.00008224,-0.00212584,0.00087503,0.00001024,0.0
 0019137,0.00069543,0.00011753,-0.00146212,0.00140059,-0.02663484,-0.09
 698096,0.00746690,0.00020078,0.00312918,0.00003139,-0.00000597,-0.0002
 3630,-0.00001262,0.00003879,0.00005281,0.00000712,0.01023997,0.0066564
 2,-0.00883996,0.01251318,0.00494630,-0.00195943,0.00022697,-0.00026134
 ,-0.00034619,-0.00002551,0.00005374,0.00005043,0.00131925,-0.00033090,
 0.00038619,-0.00011173,-0.00000188,0.00013282,0.00037000,-0.00112244,0
 .00081136,-0.00016785,-0.00005148,-0.00006823,-0.00006098,0.00012248,0
 .00073374,0.00005616,-0.00005146,-0.00006490,-0.00890148,-0.00949184,0
 .00232702,-0.00025276,-0.00081666,-0.00084631,0.15437851,0.60469606,-0
 .00168576,-0.00163939,-0.00189802,-0.00062065,-0.00125638,-0.00066100,
 0.00015976,0.00042545,-0.00127375,0.00649286,0.00082099,-0.00124745,0.
 00016118,0.00016272,0.00014213,0.00052333,0.00268612,-0.00061825,0.000
 03628,-0.00034329,0.00007819,0.00004348,0.00013551,0.00034826,0.066198
 68,-0.01309325,-0.09791285,-0.00052385,0.00104721,0.00072705,-0.000019
 12,-0.00019607,-0.00000884,-0.00001080,-0.00001813,-0.00005492,-0.0051
 3752,-0.00292415,0.01282062,0.03987678,0.00526195,-0.01132257,-0.00017
 147,0.00028272,0.00047861,-0.00002947,0.00000378,-0.00002118,-0.000203
 91,-0.00007168,0.00067776,0.00000114,0.00012589,-0.00012862,-0.0003534
 1,0.00214219,-0.00037028,0.00028570,-0.00019226,-0.00018421,-0.0000931
 6,0.00100805,-0.00007586,-0.00003928,0.00007199,0.00028350,-0.00016505
 ,0.00062385,0.00126548,-0.00062837,-0.00063758,0.00020700,-0.11908699,
 0.01749627,0.10923093,0.00007215,0.00011407,0.00025676,0.00006148,-0.0
 0020390,0.00013802,0.00035841,0.00011742,0.00032576,-0.00507541,0.0027
 5279,0.00267726,-0.00007017,0.00003559,-0.00006786,0.00018531,0.000132
 86,0.00000462,0.00003108,-0.00004344,-0.00017737,0.00027825,-0.0001661
 3,-0.00030705,-0.01414096,-0.04072042,-0.00009493,0.00004724,0.0004080
 4,-0.00018756,-0.00000395,0.00006930,0.00000612,-0.00003851,-0.0000377
 9,-0.00001405,-0.00012290,-0.00041651,-0.00098556,0.00160932,0.0004746
 4,0.00083035,-0.00010716,0.00003414,0.00005362,0.00001210,-0.00001207,
 -0.00000182,-0.00057457,-0.00006482,-0.00009991,0.00003636,0.00006338,
 -0.00003171,-0.00013381,0.00008357,-0.00015279,0.00005731,0.00006939,0
 .00000870,-0.00003612,0.00009332,-0.00020700,0.00006289,0.00002210,0.0
 0002715,-0.00161280,-0.00176237,0.00043166,-0.00006518,-0.00028430,-0.
 00007228,-0.06867238,-0.10881287,0.01498962,0.08784201,0.00005638,-0.0
 0030614,-0.00010923,0.00016920,0.00017223,-0.00003792,-0.00006983,0.00
 006796,-0.00042590,-0.00125218,0.00086711,0.00018700,0.00000195,0.0000
 6222,-0.00005930,0.00007691,-0.00022734,0.00023436,0.00001592,-0.00003
 667,0.00007506,-0.00010362,-0.00011547,0.00027372,0.00551761,-0.002215
 35,-0.00325319,0.00010674,0.00056438,0.00023379,-0.00000733,-0.0000420
 2,-0.00000637,-0.00000081,-0.00000216,-0.00000514,0.00118783,0.0005012
 2,-0.00057780,0.00156745,0.00090549,-0.00038858,-0.00002794,0.00007591
 ,0.00005849,0.00000499,-0.00000998,-0.00000355,0.00014082,0.00004848,0
 .00013188,0.00001659,-0.00002250,0.00000815,-0.00008381,0.00025078,-0.
 00010822,0.00003142,-0.00006103,-0.00000325,0.00000970,0.00015259,-0.0
 0010631,-0.00000854,0.00000736,0.00005958,0.00038001,0.00013851,0.0002
 3841,-0.00018125,-0.00018188,0.00000880,-0.15560225,-0.51213604,-0.011
 92251,0.14805403,0.51154234,0.00013633,0.00067869,-0.00025191,-0.00008
 900,-0.00013304,0.00040952,-0.00011935,-0.00011346,-0.00000940,0.00290
 339,-0.00156211,-0.00195893,-0.00007314,-0.00003301,-0.00005405,-0.000
 14350,0.00024788,-0.00019142,0.00002775,0.00008457,0.00010523,-0.00018
 394,0.00014517,0.00007337,0.00781738,0.02072567,-0.00189832,-0.0000705
 0,0.00006864,0.00026174,0.00000901,-0.00001613,-0.00000624,0.00000053,
 0.00000845,-0.00000642,-0.00013242,-0.00087146,0.00048204,-0.00022827,
 0.00087906,0.00001821,0.00004490,-0.00012035,-0.00017110,0.00000596,0.
 00000872,0.00001804,0.00017837,-0.00010382,-0.00006381,-0.00003890,-0.
 00000581,0.00006204,-0.00003756,-0.00027818,0.00006616,-0.00004651,0.0
 0010882,0.00001346,-0.00017711,-0.00030104,-0.00013220,0.00006147,0.00
 009470,-0.00004185,0.00084868,0.00124615,0.00029034,-0.00002082,0.0000
 2239,0.00018475,0.00667697,-0.03627856,-0.01048174,-0.01734971,0.01549
 804,0.01328249\\0.00000123,-0.00000190,0.00002098,-0.00000033,-0.00000
 677,0.00001018,0.00000380,-0.00000571,-0.00000627,-0.00002931,0.000000
 24,0.00000594,-0.00000455,-0.00000163,-0.00000945,-0.00000214,0.000005
 72,0.00000006,0.00000625,0.00000510,-0.00000708,-0.00000473,0.00000321
 ,0.00000904,-0.00001459,0.00001147,0.00000333,0.00000063,0.00000129,-0
 .00001190,-0.00000192,-0.00000594,0.00000036,0.00000712,-0.00000033,-0
 .00000168,0.00000844,-0.00000565,-0.00000543,0.00000724,0.00000043,-0.
 00000413,0.00000091,0.00000464,0.00001294,-0.00000050,-0.00000461,-0.0
 0000206,-0.00000114,-0.00000385,0.00000087,0.00000342,0.00000018,0.000
 00335,-0.00001381,0.00001045,0.00000283,0.00000761,-0.00000617,-0.0000
 0603,0.00000029,-0.00000660,-0.00001208,0.00000103,0.00000271,0.000006
 02,0.00002595,-0.00000208,-0.00000481,-0.00000261,0.00000150,-0.000005
 17,-0.00000268,-0.00000152,-0.00000430,0.00000438,0.00000582,0.0000045
 1\\\@
 The archive entry for this job was punched.


 THERE ARE PEOPLE SO ADDICTED TO EXAGERATING THEY
 CAN'T TELL THE TRUTH WITHOUT LYING. -- FORTUNE COOKIE
 Job cpu time:       0 days 10 hours 19 minutes 28.8 seconds.
 Elapsed time:       0 days  0 hours 38 minutes 50.5 seconds.
 File lengths (MBytes):  RWF=    704 Int=      0 D2E=      0 Chk=     27 Scr=      1
 Normal termination of Gaussian 16 at Wed Sep 27 12:30:00 2023.
