 Entering Gaussian System, Link 0=/opt/software/gaussian/g16.c01/g16
 Initial command:
 /opt/software/gaussian/g16.c01/l1.exe "/scratch/arhender/14836884/Gau-6174.inp" -scrdir="/scratch/arhender/14836884/"
 Entering Link 1 = /opt/software/gaussian/g16.c01/l1.exe PID=      6175.
  
 Copyright (c) 1988-2019, Gaussian, Inc.  All Rights Reserved.
  
 This is part of the Gaussian(R) 16 program.  It is based on
 the Gaussian(R) 09 system (copyright 2009, Gaussian, Inc.),
 the Gaussian(R) 03 system (copyright 2003, Gaussian, Inc.),
 the Gaussian(R) 98 system (copyright 1998, Gaussian, Inc.),
 the Gaussian(R) 94 system (copyright 1995, Gaussian, Inc.),
 the Gaussian 92(TM) system (copyright 1992, Gaussian, Inc.),
 the Gaussian 90(TM) system (copyright 1990, Gaussian, Inc.),
 the Gaussian 88(TM) system (copyright 1988, Gaussian, Inc.),
 the Gaussian 86(TM) system (copyright 1986, Carnegie Mellon
 University), and the Gaussian 82(TM) system (copyright 1983,
 Carnegie Mellon University). Gaussian is a federally registered
 trademark of Gaussian, Inc.
  
 This software contains proprietary and confidential information,
 including trade secrets, belonging to Gaussian, Inc.
  
 This software is provided under written license and may be
 used, copied, transmitted, or stored only in accord with that
 written license.
  
 The following legend is applicable only to US Government
 contracts under FAR:
  
                    RESTRICTED RIGHTS LEGEND
  
 Use, reproduction and disclosure by the US Government is
 subject to restrictions as set forth in subparagraphs (a)
 and (c) of the Commercial Computer Software - Restricted
 Rights clause in FAR 52.227-19.
  
 Gaussian, Inc.
 340 Quinnipiac St., Bldg. 40, Wallingford CT 06492
  
  
 ---------------------------------------------------------------
 Warning -- This program may not be used in any manner that
 competes with the business of Gaussian, Inc. or will provide
 assistance to any competitor of Gaussian, Inc.  The licensee
 of this program is prohibited from giving any competitor of
 Gaussian, Inc. access to this program.  By using this program,
 the user acknowledges that Gaussian, Inc. is engaged in the
 business of creating and licensing software in the field of
 computational chemistry and represents and warrants to the
 licensee that it is not a competitor of Gaussian, Inc. and that
 it will not use this program in any manner prohibited above.
 ---------------------------------------------------------------
  

 Cite this work as:
 Gaussian 16, Revision C.01,
 M. J. Frisch, G. W. Trucks, H. B. Schlegel, G. E. Scuseria, 
 M. A. Robb, J. R. Cheeseman, G. Scalmani, V. Barone, 
 G. A. Petersson, H. Nakatsuji, X. Li, M. Caricato, A. V. Marenich, 
 J. Bloino, B. G. Janesko, R. Gomperts, B. Mennucci, H. P. Hratchian, 
 J. V. Ortiz, A. F. Izmaylov, J. L. Sonnenberg, D. Williams-Young, 
 F. Ding, F. Lipparini, F. Egidi, J. Goings, B. Peng, A. Petrone, 
 T. Henderson, D. Ranasinghe, V. G. Zakrzewski, J. Gao, N. Rega, 
 G. Zheng, W. Liang, M. Hada, M. Ehara, K. Toyota, R. Fukuda, 
 J. Hasegawa, M. Ishida, T. Nakajima, Y. Honda, O. Kitao, H. Nakai, 
 T. Vreven, K. Throssell, J. A. Montgomery, Jr., J. E. Peralta, 
 F. Ogliaro, M. J. Bearpark, J. J. Heyd, E. N. Brothers, K. N. Kudin, 
 V. N. Staroverov, T. A. Keith, R. Kobayashi, J. Normand, 
 K. Raghavachari, A. P. Rendell, J. C. Burant, S. S. Iyengar, 
 J. Tomasi, M. Cossi, J. M. Millam, M. Klene, C. Adamo, R. Cammi, 
 J. W. Ochterski, R. L. Martin, K. Morokuma, O. Farkas, 
 J. B. Foresman, and D. J. Fox, Gaussian, Inc., Wallingford CT, 2019.
 
 ******************************************
 Gaussian 16:  ES64L-G16RevC.01  3-Jul-2019
                11-Oct-2023 
 ******************************************
 %chk=MannitolConformerOpt_39.chk
 %mem=8GB
 %nprocs=16
 Will use up to   16 processors via shared memory.
 ---------------------------------------------
 # opt freq wb97xd/Def2TZVPP geom=connectivity
 ---------------------------------------------
 1/18=20,19=15,26=3,38=1,57=2/1,3;
 2/9=110,12=2,17=6,18=5,40=1/2;
 3/5=44,7=202,11=2,25=1,30=1,71=1,74=-58/1,2,3;
 4//1;
 5/5=2,38=5/2;
 6/7=2,8=2,9=2,10=2,28=1/1;
 7//1,2,3,16;
 1/18=20,19=15,26=3/3(2);
 2/9=110/2;
 99//99;
 2/9=110/2;
 3/5=44,7=202,11=2,25=1,30=1,71=1,74=-58/1,2,3;
 4/5=5,16=3,69=1/1;
 5/5=2,38=5/2;
 7//1,2,3,16;
 1/18=20,19=15,26=3/3(-5);
 2/9=110/2;
 6/7=2,8=2,9=2,10=2,19=2,28=1/1;
 99/9=1/99;
 -------------------
 Title Card Required
 -------------------
 Symbolic Z-matrix:
 Charge =  0 Multiplicity = 1
 C                     0.        0.        0. 
 C                     1.5422    0.        0. 
 C                    -0.7434    0.7646    1.1103 
 C                     2.2918   -0.8139    1.0605 
 H                     1.9188    1.03      0. 
 H                    -0.392    -1.0185   -0.0944 
 C                    -0.9247    0.0083    2.424 
 H                    -1.7483    1.0082    0.7411 
 C                     1.8199   -2.2632    1.2034 
 H                     2.2935   -0.3084    2.0269 
 H                    -1.2725   -1.0153    2.2572 
 H                    -1.6652    0.52      3.0483 
 H                     1.8532   -2.7882    0.2437 
 H                     0.8111   -2.3243    1.6183 
 O                     0.284    -0.0222    3.1669 
 H                     0.5667    0.9146    3.2223 
 O                    -0.0966    2.017     1.3787 
 H                    -0.1004    2.4927    0.5234 
 O                    -0.3801    0.6654   -1.238 
 H                     0.2554    0.3167   -1.9022 
 O                     1.9381   -0.5209   -1.3031 
 H                     2.9108   -0.6385   -1.2175 
 O                     3.6828   -0.8573    0.649 
 H                     4.0842   -1.5173    1.2543 
 O                     2.7229   -2.9399    2.0856 
 H                     2.348    -3.8241    2.2465 
 

 GradGradGradGradGradGradGradGradGradGradGradGradGradGradGradGradGradGrad
 Berny optimization.
 Initialization pass.
                           ----------------------------
                           !    Initial Parameters    !
                           ! (Angstroms and Degrees)  !
 --------------------------                            --------------------------
 ! Name  Definition              Value          Derivative Info.                !
 --------------------------------------------------------------------------------
 ! R1    R(1,2)                  1.5422         estimate D2E/DX2                !
 ! R2    R(1,3)                  1.5395         estimate D2E/DX2                !
 ! R3    R(1,6)                  1.0954         estimate D2E/DX2                !
 ! R4    R(1,19)                 1.456          estimate D2E/DX2                !
 ! R5    R(2,4)                  1.5326         estimate D2E/DX2                !
 ! R6    R(2,5)                  1.0967         estimate D2E/DX2                !
 ! R7    R(2,21)                 1.4581         estimate D2E/DX2                !
 ! R8    R(3,7)                  1.5267         estimate D2E/DX2                !
 ! R9    R(3,8)                  1.0979         estimate D2E/DX2                !
 ! R10   R(3,17)                 1.4349         estimate D2E/DX2                !
 ! R11   R(4,9)                  1.5309         estimate D2E/DX2                !
 ! R12   R(4,10)                 1.0906         estimate D2E/DX2                !
 ! R13   R(4,23)                 1.4512         estimate D2E/DX2                !
 ! R14   R(7,11)                 1.0939         estimate D2E/DX2                !
 ! R15   R(7,12)                 1.0954         estimate D2E/DX2                !
 ! R16   R(7,15)                 1.4191         estimate D2E/DX2                !
 ! R17   R(9,13)                 1.0944         estimate D2E/DX2                !
 ! R18   R(9,14)                 1.0925         estimate D2E/DX2                !
 ! R19   R(9,25)                 1.4323         estimate D2E/DX2                !
 ! R20   R(15,16)                0.9801         estimate D2E/DX2                !
 ! R21   R(17,18)                0.9787         estimate D2E/DX2                !
 ! R22   R(19,20)                0.9832         estimate D2E/DX2                !
 ! R23   R(21,22)                0.9835         estimate D2E/DX2                !
 ! R24   R(23,24)                0.9814         estimate D2E/DX2                !
 ! R25   R(25,26)                0.9738         estimate D2E/DX2                !
 ! A1    A(2,1,3)              118.8742         estimate D2E/DX2                !
 ! A2    A(2,1,6)              110.9687         estimate D2E/DX2                !
 ! A3    A(2,1,19)             105.133          estimate D2E/DX2                !
 ! A4    A(3,1,6)              110.5568         estimate D2E/DX2                !
 ! A5    A(3,1,19)             105.0817         estimate D2E/DX2                !
 ! A6    A(6,1,19)             104.9649         estimate D2E/DX2                !
 ! A7    A(1,2,4)              119.2808         estimate D2E/DX2                !
 ! A8    A(1,2,5)              110.084          estimate D2E/DX2                !
 ! A9    A(1,2,21)             105.7543         estimate D2E/DX2                !
 ! A10   A(4,2,5)              109.3173         estimate D2E/DX2                !
 ! A11   A(4,2,21)             107.2098         estimate D2E/DX2                !
 ! A12   A(5,2,21)             104.021          estimate D2E/DX2                !
 ! A13   A(1,3,7)              115.5891         estimate D2E/DX2                !
 ! A14   A(1,3,8)              108.0376         estimate D2E/DX2                !
 ! A15   A(1,3,17)             110.532          estimate D2E/DX2                !
 ! A16   A(7,3,8)              106.8927         estimate D2E/DX2                !
 ! A17   A(7,3,17)             108.9634         estimate D2E/DX2                !
 ! A18   A(8,3,17)             106.3686         estimate D2E/DX2                !
 ! A19   A(2,4,9)              114.6183         estimate D2E/DX2                !
 ! A20   A(2,4,10)             111.5772         estimate D2E/DX2                !
 ! A21   A(2,4,23)             106.7663         estimate D2E/DX2                !
 ! A22   A(9,4,10)             110.8894         estimate D2E/DX2                !
 ! A23   A(9,4,23)             107.0746         estimate D2E/DX2                !
 ! A24   A(10,4,23)            105.285          estimate D2E/DX2                !
 ! A25   A(3,7,11)             111.7229         estimate D2E/DX2                !
 ! A26   A(3,7,12)             109.8335         estimate D2E/DX2                !
 ! A27   A(3,7,15)             111.099          estimate D2E/DX2                !
 ! A28   A(11,7,12)            108.0045         estimate D2E/DX2                !
 ! A29   A(11,7,15)            109.3012         estimate D2E/DX2                !
 ! A30   A(12,7,15)            106.7062         estimate D2E/DX2                !
 ! A31   A(4,9,13)             111.279          estimate D2E/DX2                !
 ! A32   A(4,9,14)             111.9029         estimate D2E/DX2                !
 ! A33   A(4,9,25)             108.0849         estimate D2E/DX2                !
 ! A34   A(13,9,14)            109.5294         estimate D2E/DX2                !
 ! A35   A(13,9,25)            107.1144         estimate D2E/DX2                !
 ! A36   A(14,9,25)            108.7723         estimate D2E/DX2                !
 ! A37   A(7,15,16)            104.7575         estimate D2E/DX2                !
 ! A38   A(3,17,18)            105.012          estimate D2E/DX2                !
 ! A39   A(1,19,20)            104.0989         estimate D2E/DX2                !
 ! A40   A(2,21,22)            103.5009         estimate D2E/DX2                !
 ! A41   A(4,23,24)            103.7249         estimate D2E/DX2                !
 ! A42   A(9,25,26)            106.7404         estimate D2E/DX2                !
 ! D1    D(3,1,2,4)             72.058          estimate D2E/DX2                !
 ! D2    D(3,1,2,5)            -55.447          estimate D2E/DX2                !
 ! D3    D(3,1,2,21)          -167.2356         estimate D2E/DX2                !
 ! D4    D(6,1,2,4)            -57.7903         estimate D2E/DX2                !
 ! D5    D(6,1,2,5)            174.7047         estimate D2E/DX2                !
 ! D6    D(6,1,2,21)            62.9161         estimate D2E/DX2                !
 ! D7    D(19,1,2,4)          -170.752          estimate D2E/DX2                !
 ! D8    D(19,1,2,5)            61.7429         estimate D2E/DX2                !
 ! D9    D(19,1,2,21)          -50.0457         estimate D2E/DX2                !
 ! D10   D(2,1,3,7)            -83.4706         estimate D2E/DX2                !
 ! D11   D(2,1,3,8)            156.874          estimate D2E/DX2                !
 ! D12   D(2,1,3,17)            40.8691         estimate D2E/DX2                !
 ! D13   D(6,1,3,7)             46.5642         estimate D2E/DX2                !
 ! D14   D(6,1,3,8)            -73.0912         estimate D2E/DX2                !
 ! D15   D(6,1,3,17)           170.9039         estimate D2E/DX2                !
 ! D16   D(19,1,3,7)           159.3125         estimate D2E/DX2                !
 ! D17   D(19,1,3,8)            39.6571         estimate D2E/DX2                !
 ! D18   D(19,1,3,17)          -76.3477         estimate D2E/DX2                !
 ! D19   D(2,1,19,20)           40.6834         estimate D2E/DX2                !
 ! D20   D(3,1,19,20)          166.9083         estimate D2E/DX2                !
 ! D21   D(6,1,19,20)          -76.4468         estimate D2E/DX2                !
 ! D22   D(1,2,4,9)             49.783          estimate D2E/DX2                !
 ! D23   D(1,2,4,10)           -77.301          estimate D2E/DX2                !
 ! D24   D(1,2,4,23)           168.166          estimate D2E/DX2                !
 ! D25   D(5,2,4,9)            177.6435         estimate D2E/DX2                !
 ! D26   D(5,2,4,10)            50.5596         estimate D2E/DX2                !
 ! D27   D(5,2,4,23)           -63.9735         estimate D2E/DX2                !
 ! D28   D(21,2,4,9)           -70.1875         estimate D2E/DX2                !
 ! D29   D(21,2,4,10)          162.7285         estimate D2E/DX2                !
 ! D30   D(21,2,4,23)           48.1955         estimate D2E/DX2                !
 ! D31   D(1,2,21,22)         -171.5232         estimate D2E/DX2                !
 ! D32   D(4,2,21,22)          -43.2525         estimate D2E/DX2                !
 ! D33   D(5,2,21,22)           72.4873         estimate D2E/DX2                !
 ! D34   D(1,3,7,11)           -46.0928         estimate D2E/DX2                !
 ! D35   D(1,3,7,12)          -165.9209         estimate D2E/DX2                !
 ! D36   D(1,3,7,15)            76.2575         estimate D2E/DX2                !
 ! D37   D(8,3,7,11)            74.1874         estimate D2E/DX2                !
 ! D38   D(8,3,7,12)           -45.6408         estimate D2E/DX2                !
 ! D39   D(8,3,7,15)          -163.4623         estimate D2E/DX2                !
 ! D40   D(17,3,7,11)         -171.2444         estimate D2E/DX2                !
 ! D41   D(17,3,7,12)           68.9275         estimate D2E/DX2                !
 ! D42   D(17,3,7,15)          -48.8941         estimate D2E/DX2                !
 ! D43   D(1,3,17,18)           58.1098         estimate D2E/DX2                !
 ! D44   D(7,3,17,18)         -173.8386         estimate D2E/DX2                !
 ! D45   D(8,3,17,18)          -58.9306         estimate D2E/DX2                !
 ! D46   D(2,4,9,13)            54.7994         estimate D2E/DX2                !
 ! D47   D(2,4,9,14)           -68.1053         estimate D2E/DX2                !
 ! D48   D(2,4,9,25)           172.1482         estimate D2E/DX2                !
 ! D49   D(10,4,9,13)         -177.7653         estimate D2E/DX2                !
 ! D50   D(10,4,9,14)           59.33           estimate D2E/DX2                !
 ! D51   D(10,4,9,25)          -60.4166         estimate D2E/DX2                !
 ! D52   D(23,4,9,13)          -63.4094         estimate D2E/DX2                !
 ! D53   D(23,4,9,14)          173.6859         estimate D2E/DX2                !
 ! D54   D(23,4,9,25)           53.9393         estimate D2E/DX2                !
 ! D55   D(2,4,23,24)         -169.8246         estimate D2E/DX2                !
 ! D56   D(9,4,23,24)          -46.6177         estimate D2E/DX2                !
 ! D57   D(10,4,23,24)          71.4572         estimate D2E/DX2                !
 ! D58   D(3,7,15,16)           52.3709         estimate D2E/DX2                !
 ! D59   D(11,7,15,16)         176.114          estimate D2E/DX2                !
 ! D60   D(12,7,15,16)         -67.3319         estimate D2E/DX2                !
 ! D61   D(4,9,25,26)          173.4169         estimate D2E/DX2                !
 ! D62   D(13,9,25,26)         -66.5825         estimate D2E/DX2                !
 ! D63   D(14,9,25,26)          51.7174         estimate D2E/DX2                !
 --------------------------------------------------------------------------------
 Trust Radius=3.00D-01 FncErr=1.00D-07 GrdErr=1.00D-06 EigMax=2.50D+02 EigMin=1.00D-04
 Number of steps in this run=    140 maximum allowed number of steps=    156.
 GradGradGradGradGradGradGradGradGradGradGradGradGradGradGradGradGradGrad

                          Input orientation:                          
 ---------------------------------------------------------------------
 Center     Atomic      Atomic             Coordinates (Angstroms)
 Number     Number       Type             X           Y           Z
 ---------------------------------------------------------------------
      1          6           0        0.000000    0.000000    0.000000
      2          6           0        1.542200    0.000000    0.000000
      3          6           0       -0.743400    0.764600    1.110300
      4          6           0        2.291800   -0.813900    1.060500
      5          1           0        1.918800    1.030000    0.000000
      6          1           0       -0.392000   -1.018500   -0.094400
      7          6           0       -0.924700    0.008300    2.424000
      8          1           0       -1.748300    1.008200    0.741100
      9          6           0        1.819900   -2.263200    1.203400
     10          1           0        2.293500   -0.308400    2.026900
     11          1           0       -1.272500   -1.015300    2.257200
     12          1           0       -1.665200    0.520000    3.048300
     13          1           0        1.853200   -2.788200    0.243700
     14          1           0        0.811100   -2.324300    1.618300
     15          8           0        0.284000   -0.022200    3.166900
     16          1           0        0.566700    0.914600    3.222300
     17          8           0       -0.096600    2.017000    1.378700
     18          1           0       -0.100400    2.492700    0.523400
     19          8           0       -0.380100    0.665400   -1.238000
     20          1           0        0.255400    0.316700   -1.902200
     21          8           0        1.938100   -0.520900   -1.303100
     22          1           0        2.910800   -0.638500   -1.217500
     23          8           0        3.682800   -0.857300    0.649000
     24          1           0        4.084200   -1.517300    1.254300
     25          8           0        2.722900   -2.939900    2.085600
     26          1           0        2.348000   -3.824100    2.246500
 ---------------------------------------------------------------------
                    Distance matrix (angstroms):
                    1          2          3          4          5
     1  C    0.000000
     2  C    1.542200   0.000000
     3  C    1.539488   2.653554   0.000000
     4  C    2.653194   1.532643   3.421488   0.000000
     5  H    2.177773   1.096689   2.896638   2.159573   0.000000
     6  H    1.095408   2.188009   2.180420   2.928897   3.089508
     7  C    2.594401   3.458532   1.526652   3.589013   3.873647
     8  H    2.149942   3.520382   1.097941   4.443475   3.741300
     9  C    3.143610   2.578248   3.968217   1.530876   3.507580
    10  H    3.076293   2.183549   3.348768   1.090625   2.457649
    11  H    2.782992   3.748109   2.182515   3.765221   4.411644
    12  H    3.512182   4.455328   2.159951   4.624769   4.732577
    13  H    3.356754   2.816056   4.485055   2.181145   3.826532
    14  H    2.946039   2.925025   3.495116   2.187446   3.885514
    15  O    3.179686   3.407758   2.429858   3.015787   3.716040
    16  H    3.397184   3.488741   2.489861   3.261451   3.496385
    17  O    2.445084   2.941899   1.434885   3.717486   2.633784
    18  H    2.549035   3.030781   1.935001   4.116394   2.547667
    19  O    1.455980   2.381310   2.378306   3.822366   2.636384
    20  H    1.945223   2.318301   3.205210   3.768657   2.625654
    21  O    2.392831   1.458130   3.829811   2.407812   2.025767
    22  H    3.219122   1.939859   4.554176   2.367110   2.291345
    23  O    3.836558   2.395482   4.736518   1.451240   2.663606
    24  H    4.533890   3.215157   5.341678   1.935207   3.570849
    25  O    4.517402   3.792992   5.166214   2.399282   4.555920
    26  H    5.018327   4.507751   5.648351   3.235901   5.365935
                    6          7          8          9         10
     6  H    0.000000
     7  C    2.771358   0.000000
     8  H    2.577814   2.123739   0.000000
     9  C    2.850625   3.765954   4.862904   0.000000
    10  H    3.495149   3.258036   4.441043   2.173406   0.000000
    11  H    2.511038   1.093867   2.572838   3.497240   3.642678
    12  H    3.723518   1.095412   2.359749   4.826570   4.171428
    13  H    2.878728   4.504536   5.256507   1.094421   3.085948
    14  H    2.466963   3.017147   4.292501   1.092498   2.535412
    15  O    3.476445   1.419079   3.328134   3.352074   2.328004
    16  H    3.956827   1.919098   3.394752   3.967982   2.430339
    17  O    3.386967   2.411074   2.037725   4.692954   3.397091
    18  H    3.577042   3.234810   2.228611   5.173832   3.979627
    19  O    2.035554   3.760135   2.430292   4.401946   4.330819
    20  H    2.338809   4.494859   3.388218   4.329930   4.470171
    21  O    2.671690   4.729371   4.484021   3.054852   3.355647
    22  H    3.509165   5.328220   5.315538   3.112952   3.319060
    23  O    4.145193   5.012878   5.743293   2.398814   2.032253
    24  H    4.701506   5.365141   6.376487   2.384536   2.294549
    25  O    4.259904   4.702274   6.114475   1.432344   2.666950
    26  H    4.567144   5.042753   6.511300   1.950219   3.522973
                   11         12         13         14         15
    11  H    0.000000
    12  H    1.771214   0.000000
    13  H    4.119145   5.584721   0.000000
    14  H    2.542256   4.033237   1.786253   0.000000
    15  O    2.058275   2.026679   4.319519   2.824121   0.000000
    16  H    2.835240   2.273183   4.923197   3.622571   0.980093
    17  O    3.368879   2.736618   5.308474   4.441645   2.738768
    18  H    4.084843   3.565847   5.637614   5.023259   3.668866
    19  O    3.979642   4.477163   4.371546   4.302989   4.507435
    20  H    4.627020   5.313896   4.098568   4.435945   5.080497
    21  O    4.819556   5.744730   2.745988   3.613441   4.792249
    22  H    5.451194   6.362307   2.806213   3.910553   5.148094
    23  O    5.212127   6.021188   2.690740   3.367238   4.311503
    24  H    5.472846   6.358036   2.759322   3.390712   4.509422
    25  O    4.438102   5.670372   2.042544   2.062113   3.953532
    26  H    4.582302   5.968238   2.308489   2.237431   4.422858
                   16         17         18         19         20
    16  H    0.000000
    17  O    2.248136   0.000000
    18  H    3.196793   0.978695   0.000000
    19  O    4.566487   2.958769   2.553387   0.000000
    20  H    5.168645   3.712038   3.277973   0.983165   0.000000
    21  O    4.941725   4.215803   4.071040   2.604918   1.972809
    22  H    5.255354   4.778744   4.680008   3.539859   2.903854
    23  O    4.412662   4.803949   5.054788   4.731442   4.431023
    24  H    4.707438   5.475933   5.841677   5.559291   5.290251
    25  O    4.560532   5.746316   6.318594   5.802854   5.709339
    26  H    5.155627   6.391212   6.990400   6.303957   6.223898
                   21         22         23         24         25
    21  O    0.000000
    22  H    0.983515   0.000000
    23  O    2.639666   2.031669   0.000000
    24  H    3.484086   2.873839   0.981382   0.000000
    25  O    4.236834   4.030164   2.706003   2.137285   0.000000
    26  H    4.866088   4.739629   3.624307   3.052897   0.973780
                   26
    26  H    0.000000
 Stoichiometry    C6H14O6
 Framework group  C1[X(C6H14O6)]
 Deg. of freedom    72
 Full point group                 C1      NOp   1
 Largest Abelian subgroup         C1      NOp   1
 Largest concise Abelian subgroup C1      NOp   1
                         Standard orientation:                         
 ---------------------------------------------------------------------
 Center     Atomic      Atomic             Coordinates (Angstroms)
 Number     Number       Type             X           Y           Z
 ---------------------------------------------------------------------
      1          6           0       -1.032927    0.706794   -0.632145
      2          6           0        0.133559    1.020566    0.326624
      3          6           0       -2.063310   -0.361942   -0.224545
      4          6           0        1.262607   -0.002371    0.493488
      5          1           0       -0.254711    1.296701    1.314411
      6          1           0       -0.666506    0.520352   -1.647474
      7          6           0       -1.668813   -1.806125   -0.523502
      8          1           0       -2.993094   -0.164878   -0.774219
      9          6           0        1.856878   -0.516261   -0.820414
     10          1           0        0.961033   -0.831594    1.134507
     11          1           0       -1.267687   -1.915077   -1.535318
     12          1           0       -2.545554   -2.456828   -0.434973
     13          1           0        2.197859    0.309876   -1.452070
     14          1           0        1.145578   -1.131536   -1.376328
     15          8           0       -0.713512   -2.279098    0.413238
     16          1           0       -1.110322   -2.093290    1.289936
     17          8           0       -2.384912   -0.245346    1.168965
     18          1           0       -2.722997    0.666884    1.275642
     19          8           0       -1.790496    1.946496   -0.727561
     20          1           0       -1.100833    2.645704   -0.773250
     21          8           0        0.736353    2.250842   -0.172579
     22          1           0        1.551371    2.343813    0.370013
     23          8           0        2.331384    0.667161    1.211498
     24          1           0        3.083535    0.040060    1.147283
     25          8           0        3.007220   -1.310292   -0.507623
     26          1           0        3.306070   -1.712260   -1.342703
 ---------------------------------------------------------------------
 Rotational constants (GHZ):           1.1007913           0.7131617           0.5245506
 Standard basis: def2TZVPP (5D, 7F)
 There are   642 symmetry adapted cartesian basis functions of A   symmetry.
 There are   568 symmetry adapted basis functions of A   symmetry.
   568 basis functions,   850 primitive gaussians,   642 cartesian basis functions
    49 alpha electrons       49 beta electrons
       nuclear repulsion energy       839.8319868065 Hartrees.
 NAtoms=   26 NActive=   26 NUniq=   26 SFac= 1.00D+00 NAtFMM=   60 NAOKFM=F Big=F
 Integral buffers will be    131072 words long.
 Raffenetti 2 integral format.
 Two-electron integral symmetry is turned on.
 Nuclear repulsion after empirical dispersion term =      839.8125896164 Hartrees.
 One-electron integrals computed using PRISM.
   1 Symmetry operations used in ECPInt.
 ECPInt:  NShTT=   23436 NPrTT=   62434 LenC2=   22195 LenP2D=   46276.
 LDataN:  DoStor=T MaxTD1= 6 Len=  172
 NBasis=   568 RedAO= T EigKep=  7.11D-05  NBF=   568
 NBsUse=   568 1.00D-06 EigRej= -1.00D+00 NBFU=   568
 ExpMin= 9.52D-02 ExpMax= 2.70D+04 ExpMxC= 9.22D+02 IAcc=3 IRadAn=         5 AccDes= 0.00D+00
 Harris functional with IExCor= 4639 and IRadAn=       5 diagonalized for initial guess.
 HarFok:  IExCor= 4639 AccDes= 0.00D+00 IRadAn=         5 IDoV= 1 UseB2=F ITyADJ=14
 ICtDFT=  3500011 ScaDFX=  1.000000  1.000000  1.000000  1.000000
 FoFCou: FMM=F IPFlag=           0 FMFlag=      100000 FMFlg1=           0
         NFxFlg=           0 DoJE=T BraDBF=F KetDBF=T FulRan=T
         wScrn=  0.000000 ICntrl=       500 IOpCl=  0 I1Cent=   200000004 NGrid=           0
         NMat0=    1 NMatS0=      1 NMatT0=    0 NMatD0=    1 NMtDS0=    0 NMtDT0=    0
 Petite list used in FoFCou.
 Requested convergence on RMS density matrix=1.00D-08 within 128 cycles.
 Requested convergence on MAX density matrix=1.00D-06.
 Requested convergence on             energy=1.00D-06.
 No special actions if energy rises.
 Integral accuracy reduced to 1.0D-05 until final iterations.
 Initial convergence to 1.0D-05 achieved.  Increase integral accuracy.
 SCF Done:  E(RwB97XD) =  -688.463232229     A.U. after   14 cycles
            NFock= 14  Conv=0.22D-08     -V/T= 2.0050

 **********************************************************************

            Population analysis using the SCF Density.

 **********************************************************************

 Orbital symmetries:
       Occupied  (A) (A) (A) (A) (A) (A) (A) (A) (A) (A) (A) (A)
                 (A) (A) (A) (A) (A) (A) (A) (A) (A) (A) (A) (A)
                 (A) (A) (A) (A) (A) (A) (A) (A) (A) (A) (A) (A)
                 (A) (A) (A) (A) (A) (A) (A) (A) (A) (A) (A) (A)
                 (A)
       Virtual   (A) (A) (A) (A) (A) (A) (A) (A) (A) (A) (A) (A)
                 (A) (A) (A) (A) (A) (A) (A) (A) (A) (A) (A) (A)
                 (A) (A) (A) (A) (A) (A) (A) (A) (A) (A) (A) (A)
                 (A) (A) (A) (A) (A) (A) (A) (A) (A) (A) (A) (A)
                 (A) (A) (A) (A) (A) (A) (A) (A) (A) (A) (A) (A)
                 (A) (A) (A) (A) (A) (A) (A) (A) (A) (A) (A) (A)
                 (A) (A) (A) (A) (A) (A) (A) (A) (A) (A) (A) (A)
                 (A) (A) (A) (A) (A) (A) (A) (A) (A) (A) (A) (A)
                 (A) (A) (A) (A) (A) (A) (A) (A) (A) (A) (A) (A)
                 (A) (A) (A) (A) (A) (A) (A) (A) (A) (A) (A) (A)
                 (A) (A) (A) (A) (A) (A) (A) (A) (A) (A) (A) (A)
                 (A) (A) (A) (A) (A) (A) (A) (A) (A) (A) (A) (A)
                 (A) (A) (A) (A) (A) (A) (A) (A) (A) (A) (A) (A)
                 (A) (A) (A) (A) (A) (A) (A) (A) (A) (A) (A) (A)
                 (A) (A) (A) (A) (A) (A) (A) (A) (A) (A) (A) (A)
                 (A) (A) (A) (A) (A) (A) (A) (A) (A) (A) (A) (A)
                 (A) (A) (A) (A) (A) (A) (A) (A) (A) (A) (A) (A)
                 (A) (A) (A) (A) (A) (A) (A) (A) (A) (A) (A) (A)
                 (A) (A) (A) (A) (A) (A) (A) (A) (A) (A) (A) (A)
                 (A) (A) (A) (A) (A) (A) (A) (A) (A) (A) (A) (A)
                 (A) (A) (A) (A) (A) (A) (A) (A) (A) (A) (A) (A)
                 (A) (A) (A) (A) (A) (A) (A) (A) (A) (A) (A) (A)
                 (A) (A) (A) (A) (A) (A) (A) (A) (A) (A) (A) (A)
                 (A) (A) (A) (A) (A) (A) (A) (A) (A) (A) (A) (A)
                 (A) (A) (A) (A) (A) (A) (A) (A) (A) (A) (A) (A)
                 (A) (A) (A) (A) (A) (A) (A) (A) (A) (A) (A) (A)
                 (A) (A) (A) (A) (A) (A) (A) (A) (A) (A) (A) (A)
                 (A) (A) (A) (A) (A) (A) (A) (A) (A) (A) (A) (A)
                 (A) (A) (A) (A) (A) (A) (A) (A) (A) (A) (A) (A)
                 (A) (A) (A) (A) (A) (A) (A) (A) (A) (A) (A) (A)
                 (A) (A) (A) (A) (A) (A) (A) (A) (A) (A) (A) (A)
                 (A) (A) (A) (A) (A) (A) (A) (A) (A) (A) (A) (A)
                 (A) (A) (A) (A) (A) (A) (A) (A) (A) (A) (A) (A)
                 (A) (A) (A) (A) (A) (A) (A) (A) (A) (A) (A) (A)
                 (A) (A) (A) (A) (A) (A) (A) (A) (A) (A) (A) (A)
                 (A) (A) (A) (A) (A) (A) (A) (A) (A) (A) (A) (A)
                 (A) (A) (A) (A) (A) (A) (A) (A) (A) (A) (A) (A)
                 (A) (A) (A) (A) (A) (A) (A) (A) (A) (A) (A) (A)
                 (A) (A) (A) (A) (A) (A) (A) (A) (A) (A) (A) (A)
                 (A) (A) (A) (A) (A) (A) (A) (A) (A) (A) (A) (A)
                 (A) (A) (A) (A) (A) (A) (A) (A) (A) (A) (A) (A)
                 (A) (A) (A) (A) (A) (A) (A) (A) (A) (A) (A) (A)
                 (A) (A) (A) (A) (A) (A) (A) (A) (A) (A) (A) (A)
                 (A) (A) (A)
 The electronic state is 1-A.
 Alpha  occ. eigenvalues --  -19.26553 -19.26444 -19.25492 -19.25461 -19.25389
 Alpha  occ. eigenvalues --  -19.24792 -10.35027 -10.35004 -10.34823 -10.34157
 Alpha  occ. eigenvalues --  -10.34148 -10.33766  -1.15264  -1.14600  -1.13343
 Alpha  occ. eigenvalues --   -1.12112  -1.11237  -1.09579  -0.88475  -0.85396
 Alpha  occ. eigenvalues --   -0.80196  -0.75382  -0.71369  -0.67494  -0.63501
 Alpha  occ. eigenvalues --   -0.62552  -0.60880  -0.59790  -0.58410  -0.57795
 Alpha  occ. eigenvalues --   -0.56605  -0.54720  -0.53553  -0.52138  -0.51696
 Alpha  occ. eigenvalues --   -0.49796  -0.49062  -0.46155  -0.45811  -0.44269
 Alpha  occ. eigenvalues --   -0.43793  -0.42913  -0.42393  -0.38805  -0.38072
 Alpha  occ. eigenvalues --   -0.37283  -0.36445  -0.36277  -0.35423
 Alpha virt. eigenvalues --    0.09153   0.09842   0.11257   0.12335   0.14161
 Alpha virt. eigenvalues --    0.14617   0.16016   0.16601   0.17827   0.18244
 Alpha virt. eigenvalues --    0.19800   0.20195   0.20940   0.21419   0.22378
 Alpha virt. eigenvalues --    0.22938   0.24093   0.24627   0.25205   0.26169
 Alpha virt. eigenvalues --    0.26961   0.29439   0.30026   0.32277   0.34028
 Alpha virt. eigenvalues --    0.35120   0.36039   0.37538   0.38254   0.39080
 Alpha virt. eigenvalues --    0.39460   0.40358   0.40860   0.40945   0.41393
 Alpha virt. eigenvalues --    0.41798   0.42528   0.42974   0.44138   0.44869
 Alpha virt. eigenvalues --    0.45850   0.46063   0.46465   0.47212   0.47901
 Alpha virt. eigenvalues --    0.49174   0.50101   0.50892   0.51167   0.52274
 Alpha virt. eigenvalues --    0.52611   0.53077   0.53808   0.54086   0.55051
 Alpha virt. eigenvalues --    0.56202   0.56833   0.57557   0.57937   0.59545
 Alpha virt. eigenvalues --    0.59987   0.61332   0.62330   0.62935   0.63793
 Alpha virt. eigenvalues --    0.64995   0.66200   0.67552   0.68333   0.69521
 Alpha virt. eigenvalues --    0.70036   0.70520   0.71638   0.72814   0.73279
 Alpha virt. eigenvalues --    0.74278   0.76125   0.77035   0.78584   0.80917
 Alpha virt. eigenvalues --    0.82155   0.83278   0.84962   0.85676   0.86252
 Alpha virt. eigenvalues --    0.87546   0.88631   0.89188   0.89871   0.91409
 Alpha virt. eigenvalues --    0.92974   0.93683   0.93933   0.95000   0.96220
 Alpha virt. eigenvalues --    0.97273   0.99841   1.00411   1.00882   1.01804
 Alpha virt. eigenvalues --    1.02784   1.03435   1.04825   1.06457   1.07690
 Alpha virt. eigenvalues --    1.08359   1.09288   1.10838   1.12258   1.13186
 Alpha virt. eigenvalues --    1.14158   1.15248   1.15848   1.17125   1.18353
 Alpha virt. eigenvalues --    1.20339   1.20491   1.21838   1.22579   1.24808
 Alpha virt. eigenvalues --    1.25644   1.26406   1.28223   1.28699   1.29839
 Alpha virt. eigenvalues --    1.30309   1.32274   1.32956   1.34130   1.34915
 Alpha virt. eigenvalues --    1.36549   1.37008   1.37686   1.38650   1.40432
 Alpha virt. eigenvalues --    1.42066   1.42665   1.43413   1.44938   1.46762
 Alpha virt. eigenvalues --    1.48470   1.49173   1.50924   1.51080   1.52301
 Alpha virt. eigenvalues --    1.52709   1.55552   1.56280   1.56881   1.58905
 Alpha virt. eigenvalues --    1.59309   1.61206   1.62647   1.64674   1.65768
 Alpha virt. eigenvalues --    1.67007   1.69824   1.71150   1.72450   1.75002
 Alpha virt. eigenvalues --    1.76552   1.78442   1.80566   1.82898   1.84854
 Alpha virt. eigenvalues --    1.86387   1.88429   1.89798   1.91203   1.93708
 Alpha virt. eigenvalues --    1.94494   1.96343   1.97630   1.98825   1.99672
 Alpha virt. eigenvalues --    2.01111   2.02033   2.03586   2.04725   2.05380
 Alpha virt. eigenvalues --    2.06927   2.07703   2.08591   2.09574   2.10116
 Alpha virt. eigenvalues --    2.10533   2.12166   2.13656   2.14638   2.16584
 Alpha virt. eigenvalues --    2.19220   2.19895   2.21274   2.23167   2.23488
 Alpha virt. eigenvalues --    2.25913   2.27084   2.29899   2.30373   2.31910
 Alpha virt. eigenvalues --    2.33612   2.37236   2.38873   2.39328   2.42807
 Alpha virt. eigenvalues --    2.44111   2.45526   2.46935   2.48944   2.50569
 Alpha virt. eigenvalues --    2.55193   2.56508   2.58786   2.60555   2.62292
 Alpha virt. eigenvalues --    2.64686   2.66867   2.69545   2.71181   2.71801
 Alpha virt. eigenvalues --    2.73044   2.74375   2.75842   2.76780   2.78243
 Alpha virt. eigenvalues --    2.80063   2.80326   2.81301   2.83202   2.83994
 Alpha virt. eigenvalues --    2.84988   2.87241   2.87778   2.89943   2.90232
 Alpha virt. eigenvalues --    2.91724   2.92844   2.93718   2.96961   2.97858
 Alpha virt. eigenvalues --    2.99143   3.01058   3.01861   3.03350   3.05461
 Alpha virt. eigenvalues --    3.06530   3.07039   3.07229   3.08751   3.10600
 Alpha virt. eigenvalues --    3.11369   3.12574   3.14393   3.14554   3.17026
 Alpha virt. eigenvalues --    3.17721   3.18706   3.19627   3.20776   3.21541
 Alpha virt. eigenvalues --    3.23035   3.23767   3.25714   3.26560   3.27043
 Alpha virt. eigenvalues --    3.28236   3.29711   3.30044   3.32056   3.33154
 Alpha virt. eigenvalues --    3.34253   3.35029   3.37303   3.37667   3.39049
 Alpha virt. eigenvalues --    3.39455   3.40421   3.41255   3.42055   3.43188
 Alpha virt. eigenvalues --    3.44017   3.45664   3.46587   3.47559   3.48797
 Alpha virt. eigenvalues --    3.49523   3.50748   3.51318   3.52581   3.53492
 Alpha virt. eigenvalues --    3.54012   3.55174   3.56790   3.57309   3.59424
 Alpha virt. eigenvalues --    3.61637   3.63162   3.64433   3.64978   3.66262
 Alpha virt. eigenvalues --    3.66728   3.67872   3.70421   3.71174   3.71637
 Alpha virt. eigenvalues --    3.74055   3.74623   3.75789   3.76804   3.78470
 Alpha virt. eigenvalues --    3.78918   3.80000   3.81971   3.82533   3.83444
 Alpha virt. eigenvalues --    3.84277   3.85395   3.86298   3.89262   3.90551
 Alpha virt. eigenvalues --    3.91571   3.93040   3.94477   3.95682   3.97211
 Alpha virt. eigenvalues --    3.97964   3.98698   4.00374   4.01303   4.01876
 Alpha virt. eigenvalues --    4.02740   4.04125   4.05254   4.05940   4.07293
 Alpha virt. eigenvalues --    4.08568   4.09314   4.09703   4.10422   4.11405
 Alpha virt. eigenvalues --    4.13157   4.13913   4.14731   4.16796   4.17282
 Alpha virt. eigenvalues --    4.18321   4.19613   4.20820   4.21814   4.22355
 Alpha virt. eigenvalues --    4.24292   4.24530   4.25319   4.25889   4.28266
 Alpha virt. eigenvalues --    4.29504   4.30161   4.31542   4.33475   4.34093
 Alpha virt. eigenvalues --    4.35211   4.35525   4.37687   4.39360   4.40738
 Alpha virt. eigenvalues --    4.42237   4.43556   4.44179   4.45450   4.48146
 Alpha virt. eigenvalues --    4.49159   4.49758   4.51376   4.52514   4.54212
 Alpha virt. eigenvalues --    4.55785   4.57560   4.58611   4.60315   4.61265
 Alpha virt. eigenvalues --    4.62804   4.63837   4.67078   4.69484   4.71294
 Alpha virt. eigenvalues --    4.74682   4.77084   4.77724   4.80754   4.82032
 Alpha virt. eigenvalues --    4.84418   4.85711   4.85834   4.87569   4.89724
 Alpha virt. eigenvalues --    4.91698   4.92742   4.94715   4.94990   4.96443
 Alpha virt. eigenvalues --    4.96954   4.97322   4.99622   5.01965   5.04137
 Alpha virt. eigenvalues --    5.05159   5.06121   5.07822   5.08986   5.11564
 Alpha virt. eigenvalues --    5.12189   5.13658   5.14537   5.17450   5.22984
 Alpha virt. eigenvalues --    5.24191   5.24763   5.26119   5.27484   5.29630
 Alpha virt. eigenvalues --    5.32626   5.33739   5.36663   5.40551   5.43068
 Alpha virt. eigenvalues --    5.47815   5.50570   5.53523   5.56608   5.60196
 Alpha virt. eigenvalues --    5.60494   5.61394   5.62617   5.63436   5.64191
 Alpha virt. eigenvalues --    5.68059   5.69068   5.71720   5.73158   5.73887
 Alpha virt. eigenvalues --    5.75955   5.80521   5.83832   5.84926   5.85751
 Alpha virt. eigenvalues --    5.88381   5.89181   5.90811   5.93259   5.95794
 Alpha virt. eigenvalues --    5.98368   6.02994   6.04360   6.12074   6.12784
 Alpha virt. eigenvalues --    6.14614   6.17271   6.19222   6.23182   6.51962
 Alpha virt. eigenvalues --    6.53250   6.53887   6.55996   6.56612   6.58000
 Alpha virt. eigenvalues --    6.70779   6.72765   6.73740   6.74595   6.75413
 Alpha virt. eigenvalues --    6.76383   6.77451   6.78979   6.80491   6.80600
 Alpha virt. eigenvalues --    6.81376   6.82280   6.83291   6.86557   6.87363
 Alpha virt. eigenvalues --    6.88613   6.90313   6.93636   6.97036   6.98918
 Alpha virt. eigenvalues --    7.02089   7.03788   7.06360   7.08904   7.15647
 Alpha virt. eigenvalues --    7.16808   7.19060   7.21301   7.22288   7.25041
 Alpha virt. eigenvalues --    7.41419   7.41890   7.43511   7.44217   7.45425
 Alpha virt. eigenvalues --    7.46683   7.50297   7.55629   7.57386   7.58325
 Alpha virt. eigenvalues --    7.61965   7.66258  23.12234  23.16039  23.19644
 Alpha virt. eigenvalues --   23.25392  23.45358  23.45768  44.13331  44.16355
 Alpha virt. eigenvalues --   44.23552  44.27947  44.31586  44.32751
          Condensed to atoms (all electrons):
               1          2          3          4          5          6
     1  C    5.046823   0.158525   0.137430   0.003466  -0.026828   0.422324
     2  C    0.158525   5.100072   0.063852   0.148965   0.408136  -0.030629
     3  C    0.137430   0.063852   5.077358  -0.006204  -0.010954  -0.053681
     4  C    0.003466   0.148965  -0.006204   5.050532  -0.022421  -0.004318
     5  H   -0.026828   0.408136  -0.010954  -0.022421   0.559069   0.006550
     6  H    0.422324  -0.030629  -0.053681  -0.004318   0.006550   0.607218
     7  C    0.034214  -0.013145   0.200449   0.004908  -0.000015   0.003885
     8  H   -0.053204   0.010132   0.450049  -0.000575   0.000422  -0.003975
     9  C    0.020277   0.008729  -0.010817   0.247177   0.006708   0.004932
    10  H   -0.014052  -0.013763   0.010216   0.414644  -0.003247   0.001170
    11  H   -0.002006  -0.000543  -0.047815   0.000990  -0.000078  -0.000245
    12  H    0.008508   0.000321  -0.027385  -0.000819  -0.000048  -0.000428
    13  H   -0.015668   0.021502   0.003078  -0.050848   0.000607   0.002774
    14  H    0.021421  -0.024519  -0.010931  -0.019986  -0.000717  -0.005780
    15  O   -0.015265   0.004697  -0.011386  -0.021914   0.000326  -0.000035
    16  H   -0.002836   0.000144  -0.015092   0.003592  -0.000197  -0.000273
    17  O   -0.048167  -0.014778   0.246854   0.000427   0.018938   0.004754
    18  H    0.016378  -0.007925  -0.048723   0.001032   0.002051   0.001339
    19  O    0.287629  -0.031544  -0.061659   0.009372   0.004366  -0.034005
    20  H   -0.046247  -0.005335   0.009409   0.002738  -0.001462  -0.003407
    21  O   -0.029053   0.213232   0.004106  -0.019754  -0.033936   0.002269
    22  H    0.008967  -0.045061  -0.000673  -0.006946  -0.004399  -0.000184
    23  O    0.006231  -0.058507  -0.001028   0.225940   0.002769  -0.000082
    24  H   -0.000702   0.004628  -0.000037  -0.036382  -0.000359   0.000009
    25  O   -0.001058   0.004958   0.000549  -0.070495  -0.000045   0.000120
    26  H    0.000152  -0.001494  -0.000014   0.011185   0.000033   0.000003
               7          8          9         10         11         12
     1  C    0.034214  -0.053204   0.020277  -0.014052  -0.002006   0.008508
     2  C   -0.013145   0.010132   0.008729  -0.013763  -0.000543   0.000321
     3  C    0.200449   0.450049  -0.010817   0.010216  -0.047815  -0.027385
     4  C    0.004908  -0.000575   0.247177   0.414644   0.000990  -0.000819
     5  H   -0.000015   0.000422   0.006708  -0.003247  -0.000078  -0.000048
     6  H    0.003885  -0.003975   0.004932   0.001170  -0.000245  -0.000428
     7  C    4.774342  -0.033120   0.000135  -0.008285   0.424034   0.419632
     8  H   -0.033120   0.578748   0.000073  -0.000007   0.000874  -0.004516
     9  C    0.000135   0.000073   4.778549  -0.025093  -0.001658   0.000230
    10  H   -0.008285  -0.000007  -0.025093   0.550695  -0.000656   0.000531
    11  H    0.424034   0.000874  -0.001658  -0.000656   0.617014  -0.034413
    12  H    0.419632  -0.004516   0.000230   0.000531  -0.034413   0.587362
    13  H   -0.000605  -0.000033   0.423277   0.008429  -0.000002   0.000005
    14  H    0.002757   0.000020   0.409917  -0.005267  -0.001355   0.000166
    15  O    0.236432   0.004601   0.003315   0.022316  -0.039591  -0.035104
    16  H   -0.025383   0.001044  -0.000958  -0.002322   0.010421  -0.010101
    17  O   -0.038515  -0.037728   0.000464   0.000578   0.002979  -0.000083
    18  H    0.010583  -0.010595  -0.000034   0.000002  -0.000421  -0.000300
    19  O    0.004685   0.002631  -0.001021  -0.000054   0.000077  -0.000184
    20  H   -0.001210   0.000097  -0.000335  -0.000021   0.000014   0.000028
    21  O   -0.000419  -0.000060  -0.022741   0.003402   0.000044   0.000001
    22  H   -0.000016   0.000033   0.000813   0.001220   0.000003  -0.000002
    23  O    0.000162   0.000009  -0.027562  -0.034994  -0.000020   0.000004
    24  H   -0.000002  -0.000001  -0.009400  -0.002591  -0.000003   0.000001
    25  O   -0.000275   0.000001   0.273359   0.005653   0.000027  -0.000007
    26  H   -0.000012  -0.000000  -0.028861   0.000123   0.000013  -0.000000
              13         14         15         16         17         18
     1  C   -0.015668   0.021421  -0.015265  -0.002836  -0.048167   0.016378
     2  C    0.021502  -0.024519   0.004697   0.000144  -0.014778  -0.007925
     3  C    0.003078  -0.010931  -0.011386  -0.015092   0.246854  -0.048723
     4  C   -0.050848  -0.019986  -0.021914   0.003592   0.000427   0.001032
     5  H    0.000607  -0.000717   0.000326  -0.000197   0.018938   0.002051
     6  H    0.002774  -0.005780  -0.000035  -0.000273   0.004754   0.001339
     7  C   -0.000605   0.002757   0.236432  -0.025383  -0.038515   0.010583
     8  H   -0.000033   0.000020   0.004601   0.001044  -0.037728  -0.010595
     9  C    0.423277   0.409917   0.003315  -0.000958   0.000464  -0.000034
    10  H    0.008429  -0.005267   0.022316  -0.002322   0.000578   0.000002
    11  H   -0.000002  -0.001355  -0.039591   0.010421   0.002979  -0.000421
    12  H    0.000005   0.000166  -0.035104  -0.010101  -0.000083  -0.000300
    13  H    0.578390  -0.039955   0.000188  -0.000038  -0.000043   0.000001
    14  H   -0.039955   0.634897   0.001530   0.000175   0.000233   0.000009
    15  O    0.000188   0.001530   7.914942   0.306347  -0.012977  -0.000070
    16  H   -0.000038   0.000175   0.306347   0.519372   0.018436  -0.001206
    17  O   -0.000043   0.000233  -0.012977   0.018436   7.917943   0.329959
    18  H    0.000001   0.000009  -0.000070  -0.001206   0.329959   0.495198
    19  O    0.000090   0.000042  -0.000066   0.000018  -0.004673   0.012840
    20  H    0.000065   0.000009   0.000039   0.000010  -0.000427  -0.000686
    21  O    0.017603   0.001414  -0.000013   0.000025   0.000291  -0.000134
    22  H   -0.000245   0.000254  -0.000016   0.000007   0.000083  -0.000010
    23  O   -0.000973   0.006702   0.000446  -0.000081   0.000074  -0.000005
    24  H   -0.001827   0.001746   0.000021  -0.000009   0.000008   0.000001
    25  O   -0.049918  -0.039088   0.000344  -0.000039  -0.000000   0.000000
    26  H   -0.003151  -0.007192  -0.000002   0.000003   0.000000  -0.000000
              19         20         21         22         23         24
     1  C    0.287629  -0.046247  -0.029053   0.008967   0.006231  -0.000702
     2  C   -0.031544  -0.005335   0.213232  -0.045061  -0.058507   0.004628
     3  C   -0.061659   0.009409   0.004106  -0.000673  -0.001028  -0.000037
     4  C    0.009372   0.002738  -0.019754  -0.006946   0.225940  -0.036382
     5  H    0.004366  -0.001462  -0.033936  -0.004399   0.002769  -0.000359
     6  H   -0.034005  -0.003407   0.002269  -0.000184  -0.000082   0.000009
     7  C    0.004685  -0.001210  -0.000419  -0.000016   0.000162  -0.000002
     8  H    0.002631   0.000097  -0.000060   0.000033   0.000009  -0.000001
     9  C   -0.001021  -0.000335  -0.022741   0.000813  -0.027562  -0.009400
    10  H   -0.000054  -0.000021   0.003402   0.001220  -0.034994  -0.002591
    11  H    0.000077   0.000014   0.000044   0.000003  -0.000020  -0.000003
    12  H   -0.000184   0.000028   0.000001  -0.000002   0.000004   0.000001
    13  H    0.000090   0.000065   0.017603  -0.000245  -0.000973  -0.001827
    14  H    0.000042   0.000009   0.001414   0.000254   0.006702   0.001746
    15  O   -0.000066   0.000039  -0.000013  -0.000016   0.000446   0.000021
    16  H    0.000018   0.000010   0.000025   0.000007  -0.000081  -0.000009
    17  O   -0.004673  -0.000427   0.000291   0.000083   0.000074   0.000008
    18  H    0.012840  -0.000686  -0.000134  -0.000010  -0.000005   0.000001
    19  O    7.890501   0.332647  -0.022445   0.000235  -0.000118   0.000018
    20  H    0.332647   0.470947   0.028701  -0.001497   0.000006   0.000005
    21  O   -0.022445   0.028701   7.954127   0.329455  -0.017799   0.000389
    22  H    0.000235  -0.001497   0.329455   0.472149   0.035338  -0.001631
    23  O   -0.000118   0.000006  -0.017799   0.035338   7.948072   0.330936
    24  H    0.000018   0.000005   0.000389  -0.001631   0.330936   0.480473
    25  O    0.000000  -0.000000   0.000144  -0.000018  -0.010049   0.025708
    26  H   -0.000001  -0.000001   0.000069  -0.000000   0.000145  -0.001557
              25         26
     1  C   -0.001058   0.000152
     2  C    0.004958  -0.001494
     3  C    0.000549  -0.000014
     4  C   -0.070495   0.011185
     5  H   -0.000045   0.000033
     6  H    0.000120   0.000003
     7  C   -0.000275  -0.000012
     8  H    0.000001  -0.000000
     9  C    0.273359  -0.028861
    10  H    0.005653   0.000123
    11  H    0.000027   0.000013
    12  H   -0.000007  -0.000000
    13  H   -0.049918  -0.003151
    14  H   -0.039088  -0.007192
    15  O    0.000344  -0.000002
    16  H   -0.000039   0.000003
    17  O   -0.000000   0.000000
    18  H    0.000000  -0.000000
    19  O    0.000000  -0.000001
    20  H   -0.000000  -0.000001
    21  O    0.000144   0.000069
    22  H   -0.000018  -0.000000
    23  O   -0.010049   0.000145
    24  H    0.025708  -0.001557
    25  O    7.889465   0.327024
    26  H    0.327024   0.524527
 Mulliken charges:
               1
     1  C    0.082742
     2  C    0.099349
     3  C    0.103050
     4  C    0.135694
     5  H    0.094732
     6  H    0.079696
     7  C    0.004786
     8  H    0.095078
     9  C   -0.049475
    10  H    0.091372
    11  H    0.072314
    12  H    0.096603
    13  H    0.107295
    14  H    0.073497
    15  O   -0.359102
    16  H    0.198941
    17  O   -0.384630
    18  H    0.200716
    19  O   -0.389381
    20  H    0.215911
    21  O   -0.408917
    22  H    0.212141
    23  O   -0.405615
    24  H    0.210556
    25  O   -0.356361
    26  H    0.179009
 Sum of Mulliken charges =  -0.00000
 Mulliken charges with hydrogens summed into heavy atoms:
               1
     1  C    0.162437
     2  C    0.194080
     3  C    0.198128
     4  C    0.227066
     7  C    0.173703
     9  C    0.131317
    15  O   -0.160161
    17  O   -0.183915
    19  O   -0.173470
    21  O   -0.196777
    23  O   -0.195058
    25  O   -0.177352
 Electronic spatial extent (au):  <R**2>=           2259.6445
 Charge=              0.0000 electrons
 Dipole moment (field-independent basis, Debye):
    X=              0.2324    Y=             -1.0951    Z=             -1.6496  Tot=              1.9936
 Quadrupole moment (field-independent basis, Debye-Ang):
   XX=            -69.2622   YY=            -76.4174   ZZ=            -68.4110
   XY=              0.4740   XZ=             -5.0468   YZ=              5.3169
 Traceless Quadrupole moment (field-independent basis, Debye-Ang):
   XX=              2.1014   YY=             -5.0539   ZZ=              2.9525
   XY=              0.4740   XZ=             -5.0468   YZ=              5.3169
 Octapole moment (field-independent basis, Debye-Ang**2):
  XXX=             19.5454  YYY=             12.7237  ZZZ=             -0.6601  XYY=              4.5559
  XXY=            -12.2869  XXZ=             -9.4496  XZZ=              9.4204  YZZ=            -10.8004
  YYZ=              1.3601  XYZ=             -0.0722
 Hexadecapole moment (field-independent basis, Debye-Ang**3):
 XXXX=          -1406.8030 YYYY=           -906.2383 ZZZZ=           -320.7840 XXXY=            -25.4628
 XXXZ=            -46.2450 YYYX=              3.2093 YYYZ=              9.9386 ZZZX=            -31.3347
 ZZZY=              0.0539 XXYY=           -377.9312 XXZZ=           -272.7328 YYZZ=           -179.9562
 XXYZ=             47.6849 YYXZ=            -26.4716 ZZXY=            -26.5326
 N-N= 8.398125896164D+02 E-N=-3.297035232396D+03  KE= 6.850296622029D+02
   1 Symmetry operations used in ECPInt.
 ECPInt:  NShTT=   23436 NPrTT=   62434 LenC2=   22195 LenP2D=   46276.
 LDataN:  DoStor=T MaxTD1= 7 Len=  274
 Calling FoFJK, ICntrl=      2127 FMM=F ISym2X=0 I1Cent= 0 IOpClX= 0 NMat=1 NMatS=1 NMatT=0.
 ***** Axes restored to original set *****
 -------------------------------------------------------------------
 Center     Atomic                   Forces (Hartrees/Bohr)
 Number     Number              X              Y              Z
 -------------------------------------------------------------------
      1        6          -0.004455641    0.009303580   -0.024291678
      2        6           0.012990776   -0.007688879   -0.013596844
      3        6           0.002306080    0.004598902   -0.002745458
      4        6           0.015398106   -0.007514664    0.002317123
      5        1          -0.005595152   -0.001266897    0.009238134
      6        1           0.003315823   -0.001826423    0.007645908
      7        6           0.010043877    0.012446333    0.008345664
      8        1           0.001895812   -0.007944847   -0.004180491
      9        6           0.001307048   -0.004329807    0.004241262
     10        1          -0.009556067   -0.002754884   -0.001758566
     11        1           0.003787276    0.002390656   -0.001182999
     12        1          -0.004784446   -0.000272353   -0.005807349
     13        1          -0.003354404    0.006853677   -0.003165478
     14        1          -0.001155235    0.004781111   -0.001514678
     15        8           0.001352184    0.013920960   -0.000477335
     16        1          -0.003437008   -0.019327400   -0.000466196
     17        8          -0.005132800   -0.001611247   -0.014782253
     18        1           0.001897200   -0.007619233    0.017869979
     19        8           0.016116781   -0.010558439    0.003314054
     20        1          -0.013051805    0.009182965    0.011692639
     21        8           0.010089614   -0.000452030    0.015815538
     22        1          -0.019826994    0.000344535   -0.003647112
     23        8          -0.005210984   -0.010528026    0.011702344
     24        1          -0.005258676    0.012988370   -0.014910627
     25        8          -0.009984922   -0.009318786    0.002114728
     26        1           0.010303559    0.016202828   -0.001770309
 -------------------------------------------------------------------
 Cartesian Forces:  Max     0.024291678 RMS     0.009026173

 GradGradGradGradGradGradGradGradGradGradGradGradGradGradGradGradGradGrad
 Berny optimization.
 FormGI is forming the generalized inverse of G from B-inverse, IUseBI=4.
 Internal  Forces:  Max     0.020085081 RMS     0.006241951
 Search for a local minimum.
 Step number   1 out of a maximum of  140
 All quantities printed in internal units (Hartrees-Bohrs-Radians)
 Mixed Optimization -- RFO/linear search
 Second derivative matrix not updated -- first step.
 ITU=  0
     Eigenvalues ---    0.00230   0.00244   0.00334   0.00358   0.00413
     Eigenvalues ---    0.00923   0.00951   0.01014   0.01230   0.01264
     Eigenvalues ---    0.01439   0.03286   0.03342   0.03775   0.03797
     Eigenvalues ---    0.04670   0.04684   0.04858   0.04956   0.04978
     Eigenvalues ---    0.05279   0.05562   0.05731   0.07732   0.07955
     Eigenvalues ---    0.08478   0.08518   0.11367   0.11645   0.13624
     Eigenvalues ---    0.13889   0.16000   0.16000   0.16000   0.16000
     Eigenvalues ---    0.16000   0.16000   0.16836   0.17444   0.17687
     Eigenvalues ---    0.17813   0.18927   0.19196   0.19325   0.20128
     Eigenvalues ---    0.22015   0.22022   0.28325   0.28564   0.29181
     Eigenvalues ---    0.29343   0.29735   0.33911   0.34051   0.34195
     Eigenvalues ---    0.34195   0.34307   0.34370   0.34526   0.34741
     Eigenvalues ---    0.37199   0.37472   0.38083   0.40295   0.40654
     Eigenvalues ---    0.42599   0.50708   0.50775   0.51117   0.51367
     Eigenvalues ---    0.51639   0.52612
 RFO step:  Lambda=-1.99065481D-02 EMin= 2.30000000D-03
 Linear search not attempted -- first point.
 Iteration  1 RMS(Cart)=  0.05702571 RMS(Int)=  0.00177034
 Iteration  2 RMS(Cart)=  0.00199325 RMS(Int)=  0.00050431
 Iteration  3 RMS(Cart)=  0.00000231 RMS(Int)=  0.00050431
 Iteration  4 RMS(Cart)=  0.00000000 RMS(Int)=  0.00050431
 Variable       Old X    -DE/DX   Delta X   Delta X   Delta X     New X
                                 (Linear)    (Quad)   (Total)
    R1        2.91434  -0.00985   0.00000  -0.03249  -0.03249   2.88184
    R2        2.90921  -0.00799   0.00000  -0.02616  -0.02616   2.88305
    R3        2.07002  -0.00015   0.00000  -0.00041  -0.00041   2.06961
    R4        2.75140  -0.01419   0.00000  -0.03596  -0.03596   2.71545
    R5        2.89627  -0.00897   0.00000  -0.02877  -0.02877   2.86750
    R6        2.07244  -0.00311   0.00000  -0.00863  -0.00863   2.06381
    R7        2.75547  -0.01348   0.00000  -0.03439  -0.03439   2.72107
    R8        2.88495  -0.00500   0.00000  -0.01577  -0.01577   2.86919
    R9        2.07481  -0.00209   0.00000  -0.00583  -0.00583   2.06898
   R10        2.71154  -0.00894   0.00000  -0.02114  -0.02114   2.69040
   R11        2.89294  -0.01256   0.00000  -0.04008  -0.04008   2.85286
   R12        2.06098  -0.00285   0.00000  -0.00776  -0.00776   2.05322
   R13        2.74245  -0.00920   0.00000  -0.02295  -0.02295   2.71950
   R14        2.06711  -0.00326   0.00000  -0.00897  -0.00897   2.05814
   R15        2.07003  -0.00020   0.00000  -0.00056  -0.00056   2.06947
   R16        2.68167  -0.00215   0.00000  -0.00482  -0.00482   2.67685
   R17        2.06816  -0.00061   0.00000  -0.00169  -0.00169   2.06647
   R18        2.06452   0.00022   0.00000   0.00061   0.00061   2.06513
   R19        2.70674  -0.00284   0.00000  -0.00666  -0.00666   2.70008
   R20        1.85211  -0.01949   0.00000  -0.03653  -0.03653   1.81558
   R21        1.84946  -0.01933   0.00000  -0.03604  -0.03604   1.81342
   R22        1.85791  -0.01960   0.00000  -0.03714  -0.03714   1.82078
   R23        1.85857  -0.01997   0.00000  -0.03789  -0.03789   1.82068
   R24        1.85454  -0.02009   0.00000  -0.03782  -0.03782   1.81672
   R25        1.84018  -0.01897   0.00000  -0.03475  -0.03475   1.80543
    A1        2.07475   0.00325   0.00000   0.00483   0.00475   2.07949
    A2        1.93677  -0.00380   0.00000  -0.02620  -0.02683   1.90994
    A3        1.83492   0.00371   0.00000   0.02188   0.02186   1.85678
    A4        1.92958  -0.00046   0.00000  -0.01430  -0.01432   1.91526
    A5        1.83402  -0.00692   0.00000  -0.03434  -0.03421   1.79981
    A6        1.83198   0.00468   0.00000   0.05917   0.05930   1.89128
    A7        2.08184   0.00286   0.00000  -0.00207  -0.00229   2.07956
    A8        1.92133  -0.00111   0.00000  -0.01756  -0.01733   1.90399
    A9        1.84576  -0.00730   0.00000  -0.04155  -0.04136   1.80440
   A10        1.90795  -0.00273   0.00000  -0.01463  -0.01545   1.89250
   A11        1.87116   0.00306   0.00000   0.01332   0.01287   1.88404
   A12        1.81551   0.00585   0.00000   0.07541   0.07536   1.89087
   A13        2.01741   0.00804   0.00000   0.03126   0.03143   2.04884
   A14        1.88561  -0.00799   0.00000  -0.05929  -0.05920   1.82641
   A15        1.92915   0.00393   0.00000   0.02479   0.02510   1.95425
   A16        1.86563   0.00101   0.00000   0.00168   0.00215   1.86778
   A17        1.90177  -0.00995   0.00000  -0.04136  -0.04162   1.86015
   A18        1.85648   0.00482   0.00000   0.04408   0.04447   1.90095
   A19        2.00047   0.00060   0.00000  -0.01013  -0.01021   1.99026
   A20        1.94739   0.00101   0.00000  -0.00905  -0.00926   1.93813
   A21        1.86342  -0.00816   0.00000  -0.04318  -0.04279   1.82063
   A22        1.93538  -0.00390   0.00000  -0.02738  -0.02849   1.90690
   A23        1.86880   0.00644   0.00000   0.03649   0.03613   1.90493
   A24        1.83757   0.00450   0.00000   0.06184   0.06192   1.89949
   A25        1.94993  -0.00367   0.00000  -0.03244  -0.03261   1.91732
   A26        1.91696  -0.00634   0.00000  -0.02821  -0.02976   1.88719
   A27        1.93904   0.00987   0.00000   0.04497   0.04480   1.98384
   A28        1.88503   0.00212   0.00000  -0.00127  -0.00197   1.88306
   A29        1.90767  -0.00518   0.00000  -0.03342  -0.03277   1.87489
   A30        1.86237   0.00331   0.00000   0.05296   0.05288   1.91526
   A31        1.94218  -0.00339   0.00000  -0.03221  -0.03190   1.91029
   A32        1.95307  -0.00132   0.00000  -0.02472  -0.02474   1.92834
   A33        1.88644  -0.01147   0.00000  -0.04592  -0.04580   1.84064
   A34        1.91165   0.00074   0.00000   0.00581   0.00380   1.91545
   A35        1.86950   0.00935   0.00000   0.06427   0.06334   1.93284
   A36        1.89843   0.00668   0.00000   0.03791   0.03672   1.93515
   A37        1.82836   0.00423   0.00000   0.02353   0.02353   1.85190
   A38        1.83280   0.00489   0.00000   0.02717   0.02717   1.85998
   A39        1.81687   0.00467   0.00000   0.02593   0.02593   1.84280
   A40        1.80643   0.00462   0.00000   0.02567   0.02567   1.83210
   A41        1.81034   0.00681   0.00000   0.03784   0.03784   1.84818
   A42        1.86297   0.00618   0.00000   0.03435   0.03435   1.89732
    D1        1.25765   0.00025   0.00000  -0.00509  -0.00509   1.25256
    D2       -0.96773   0.00277   0.00000   0.03534   0.03550  -0.93223
    D3       -2.91881   0.00021   0.00000  -0.02288  -0.02274  -2.94155
    D4       -1.00863   0.00177   0.00000   0.03880   0.03846  -0.97017
    D5        3.04917   0.00429   0.00000   0.07923   0.07905   3.12822
    D6        1.09809   0.00172   0.00000   0.02101   0.02081   1.11890
    D7       -2.98019  -0.00391   0.00000  -0.02975  -0.02971  -3.00989
    D8        1.07762  -0.00139   0.00000   0.01068   0.01088   1.08850
    D9       -0.87346  -0.00395   0.00000  -0.04754  -0.04736  -0.92082
   D10       -1.45684   0.00332   0.00000   0.02868   0.02845  -1.42839
   D11        2.73797   0.00270   0.00000   0.04996   0.04987   2.78784
   D12        0.71330  -0.00062   0.00000   0.01773   0.01813   0.73143
   D13        0.81270   0.00028   0.00000  -0.02048  -0.02084   0.79186
   D14       -1.27568  -0.00034   0.00000   0.00079   0.00058  -1.27510
   D15        2.98284  -0.00365   0.00000  -0.03144  -0.03116   2.95168
   D16        2.78053   0.00190   0.00000   0.02381   0.02362   2.80415
   D17        0.69215   0.00128   0.00000   0.04509   0.04504   0.73719
   D18       -1.33252  -0.00204   0.00000   0.01286   0.01331  -1.31921
   D19        0.71006  -0.00155   0.00000  -0.02012  -0.01945   0.69061
   D20        2.91310   0.00052   0.00000  -0.02114  -0.02087   2.89223
   D21       -1.33425  -0.00096   0.00000  -0.02633  -0.02728  -1.36152
   D22        0.86888  -0.00345   0.00000  -0.02322  -0.02352   0.84536
   D23       -1.34916   0.00058   0.00000   0.03115   0.03112  -1.31803
   D24        2.93505  -0.00064   0.00000  -0.01316  -0.01324   2.92181
   D25        3.10046  -0.00523   0.00000  -0.06479  -0.06480   3.03566
   D26        0.88243  -0.00120   0.00000  -0.01043  -0.01017   0.87226
   D27       -1.11655  -0.00242   0.00000  -0.05473  -0.05453  -1.17108
   D28       -1.22500   0.00182   0.00000   0.02258   0.02241  -1.20259
   D29        2.84015   0.00584   0.00000   0.07695   0.07705   2.91719
   D30        0.84117   0.00463   0.00000   0.03264   0.03268   0.87385
   D31       -2.99365  -0.00007   0.00000   0.03195   0.03144  -2.96221
   D32       -0.75490   0.00073   0.00000   0.01185   0.01121  -0.74368
   D33        1.26514   0.00166   0.00000   0.03600   0.03716   1.30230
   D34       -0.80447   0.00219   0.00000   0.03411   0.03436  -0.77011
   D35       -2.89587   0.00612   0.00000   0.07540   0.07481  -2.82106
   D36        1.33094  -0.00003   0.00000   0.00023   0.00009   1.33104
   D37        1.29481  -0.00219   0.00000  -0.02057  -0.02022   1.27459
   D38       -0.79658   0.00174   0.00000   0.02071   0.02023  -0.77636
   D39       -2.85296  -0.00441   0.00000  -0.05446  -0.05449  -2.90745
   D40       -2.98878  -0.00093   0.00000   0.01137   0.01199  -2.97679
   D41        1.20301   0.00299   0.00000   0.05265   0.05243   1.25544
   D42       -0.85336  -0.00315   0.00000  -0.02252  -0.02228  -0.87565
   D43        1.01421  -0.00391   0.00000  -0.03225  -0.03179   0.98241
   D44       -3.03406   0.00194   0.00000  -0.00453  -0.00442  -3.03848
   D45       -1.02853   0.00079   0.00000   0.00014  -0.00043  -1.02896
   D46        0.95643  -0.00328   0.00000  -0.03277  -0.03305   0.92338
   D47       -1.18866  -0.00082   0.00000   0.00112   0.00087  -1.18779
   D48        3.00455  -0.00083   0.00000  -0.00093  -0.00126   3.00329
   D49       -3.10259  -0.00479   0.00000  -0.07748  -0.07710   3.10350
   D50        1.03550  -0.00232   0.00000  -0.04358  -0.04317   0.99233
   D51       -1.05447  -0.00233   0.00000  -0.04563  -0.04531  -1.09978
   D52       -1.10670   0.00215   0.00000   0.00224   0.00216  -1.10454
   D53        3.03139   0.00462   0.00000   0.03614   0.03609   3.06748
   D54        0.94142   0.00461   0.00000   0.03408   0.03395   0.97537
   D55       -2.96400   0.00076   0.00000   0.03282   0.03257  -2.93143
   D56       -0.81363   0.00047   0.00000   0.01691   0.01574  -0.79789
   D57        1.24716   0.00126   0.00000   0.03329   0.03470   1.28186
   D58        0.91404   0.00010   0.00000   0.00762   0.00872   0.92276
   D59        3.07377  -0.00147   0.00000  -0.02634  -0.02610   3.04767
   D60       -1.17516   0.00017   0.00000  -0.01622  -0.01755  -1.19271
   D61        3.02670   0.00065   0.00000   0.01191   0.01213   3.03883
   D62       -1.16208  -0.00442   0.00000  -0.01557  -0.01741  -1.17949
   D63        0.90264   0.00518   0.00000   0.04696   0.04858   0.95122
         Item               Value     Threshold  Converged?
 Maximum Force            0.020085     0.000450     NO 
 RMS     Force            0.006242     0.000300     NO 
 Maximum Displacement     0.196490     0.001800     NO 
 RMS     Displacement     0.057044     0.001200     NO 
 Predicted change in Energy=-1.140654D-02
 GradGradGradGradGradGradGradGradGradGradGradGradGradGradGradGradGradGrad

                          Input orientation:                          
 ---------------------------------------------------------------------
 Center     Atomic      Atomic             Coordinates (Angstroms)
 Number     Number       Type             X           Y           Z
 ---------------------------------------------------------------------
      1          6           0        0.038542   -0.011964   -0.006406
      2          6           0        1.563475   -0.014880    0.008218
      3          6           0       -0.713643    0.734531    1.091118
      4          6           0        2.290968   -0.827952    1.062838
      5          1           0        1.922178    1.015438    0.058270
      6          1           0       -0.327179   -1.042307   -0.070355
      7          6           0       -0.900835    0.021757    2.418588
      8          1           0       -1.712071    0.905250    0.675539
      9          6           0        1.787462   -2.244272    1.202888
     10          1           0        2.251219   -0.336141    2.030857
     11          1           0       -1.199983   -1.010982    2.244961
     12          1           0       -1.710939    0.519933    2.961570
     13          1           0        1.789476   -2.730019    0.223170
     14          1           0        0.775958   -2.251446    1.616488
     15          8           0        0.267038   -0.003933    3.219815
     16          1           0        0.562483    0.907608    3.289605
     17          8           0       -0.115279    1.992234    1.386178
     18          1           0       -0.082956    2.480315    0.560583
     19          8           0       -0.354051    0.682730   -1.201438
     20          1           0        0.265304    0.397308   -1.882094
     21          8           0        1.908155   -0.552418   -1.282381
     22          1           0        2.856014   -0.719174   -1.237483
     23          8           0        3.657140   -0.855210    0.611363
     24          1           0        4.099356   -1.517175    1.150322
     25          8           0        2.704489   -2.888641    2.089105
     26          1           0        2.377878   -3.765090    2.283879
 ---------------------------------------------------------------------
                    Distance matrix (angstroms):
                    1          2          3          4          5
     1  C    0.000000
     2  C    1.525006   0.000000
     3  C    1.525646   2.630505   0.000000
     4  C    2.623460   1.517417   3.386715   0.000000
     5  H    2.146584   1.092121   2.844861   2.131489   0.000000
     6  H    1.095193   2.153219   2.157667   2.860904   3.051306
     7  C    2.600799   3.447325   1.518309   3.570388   3.811548
     8  H    2.090688   3.467154   1.094856   4.379305   3.687943
     9  C    3.082906   2.539211   3.891181   1.509667   3.457457
    10  H    3.025140   2.160387   3.289355   1.086517   2.413738
    11  H    2.756925   3.692146   2.148184   3.690211   4.316930
    12  H    3.486040   4.441858   2.130549   4.630037   4.676987
    13  H    3.241342   2.732995   4.361427   2.138784   3.751433
    14  H    2.862315   2.865126   3.378015   2.151307   3.796630
    15  O    3.234312   3.463412   2.457318   3.070481   3.711330
    16  H    3.461764   3.552530   2.547900   3.310335   3.507409
    17  O    2.445355   2.957279   1.423698   3.721293   2.620820
    18  H    2.558846   3.040040   1.930543   4.102732   2.533525
    19  O    1.436953   2.372095   2.321165   3.795423   2.622742
    20  H    1.933166   2.329898   3.148340   3.778518   2.625324
    21  O    2.327157   1.439929   3.763451   2.392178   2.062938
    22  H    3.154972   1.928331   4.503121   2.371199   2.357945
    23  O    3.766557   2.335245   4.675594   1.439095   2.610618
    24  H    4.482621   3.161010   5.314004   1.937253   3.513803
    25  O    4.446764   3.726997   5.080057   2.338945   4.469691
    26  H    4.980347   4.461610   5.588092   3.182025   5.292868
                    6          7          8          9         10
     6  H    0.000000
     7  C    2.766974   0.000000
     8  H    2.503450   2.115864   0.000000
     9  C    2.745465   3.720182   4.737543   0.000000
    10  H    3.400279   3.195915   4.368708   2.131095   0.000000
    11  H    2.474562   1.089121   2.529281   3.395843   3.523073
    12  H    3.680754   1.095115   2.318277   4.792974   4.159061
    13  H    2.723005   4.430564   5.067608   1.093527   3.035060
    14  H    2.350398   2.936401   4.128002   1.092821   2.452854
    15  O    3.500933   1.416528   3.349153   3.376211   2.336869
    16  H    3.985348   1.919558   3.465104   3.973576   2.446055
    17  O    3.372659   2.359184   2.058225   4.647795   3.381901
    18  H    3.587004   3.188356   2.268934   5.121791   3.942399
    19  O    2.062965   3.720275   2.327397   4.351345   4.274724
    20  H    2.388708   4.471776   3.272538   4.337283   4.448931
    21  O    2.589540   4.681589   4.366267   3.008904   3.337966
    22  H    3.405778   5.294313   5.212083   3.069713   3.345825
    23  O    4.046547   4.980990   5.650819   2.403141   2.064221
    24  H    4.616250   5.383188   6.313972   2.424105   2.363428
    25  O    4.154904   4.645141   5.991475   1.428821   2.593088
    26  H    4.502588   5.010820   6.412996   1.957044   3.440604
                   11         12         13         14         15
    11  H    0.000000
    12  H    1.765872   0.000000
    13  H    3.997448   5.505808   0.000000
    14  H    2.416210   3.959096   1.788180   0.000000
    15  O    2.028950   2.062406   4.327730   2.807307   0.000000
    16  H    2.806876   2.329452   4.913335   3.581133   0.960763
    17  O    3.306569   2.682473   5.223060   4.342369   2.737348
    18  H    4.034109   3.501166   5.546840   4.923641   3.655885
    19  O    3.932167   4.381585   4.274468   4.222206   4.517161
    20  H    4.600318   5.232748   4.066375   4.417776   5.117662
    21  O    4.723659   5.679692   2.650041   3.545704   4.823264
    22  H    5.353848   6.326491   2.704535   3.849630   5.204025
    23  O    5.126846   6.019199   2.674653   3.355736   4.361362
    24  H    5.434838   6.417940   2.768781   3.435322   4.610788
    25  O    4.335296   5.645846   2.084256   2.085333   3.942235
    26  H    4.515276   5.961469   2.379939   2.302754   4.413381
                   16         17         18         19         20
    16  H    0.000000
    17  O    2.293209   0.000000
    18  H    3.215208   0.959622   0.000000
    19  O    4.589126   2.909910   2.531704   0.000000
    20  H    5.205304   3.656533   3.229068   0.963514   0.000000
    21  O    4.984533   4.206037   4.069215   2.578705   1.990124
    22  H    5.329281   4.802491   4.701843   3.503020   2.893757
    23  O    4.456165   4.789511   5.011649   4.662742   4.392115
    24  H    4.792241   5.489511   5.815450   5.495743   5.249833
    25  O    4.521161   5.680505   6.239545   5.739080   5.702412
    26  H    5.112852   6.337861   6.930407   6.276463   6.256505
                   21         22         23         24         25
    21  O    0.000000
    22  H    0.963462   0.000000
    23  O    2.595554   2.019540   0.000000
    24  H    3.413233   2.807903   0.961369   0.000000
    25  O    4.178398   3.974386   2.688142   2.169767   0.000000
    26  H    4.822875   4.680408   3.591828   3.049846   0.955392
                   26
    26  H    0.000000
 Stoichiometry    C6H14O6
 Framework group  C1[X(C6H14O6)]
 Deg. of freedom    72
 Full point group                 C1      NOp   1
 Largest Abelian subgroup         C1      NOp   1
 Largest concise Abelian subgroup C1      NOp   1
                         Standard orientation:                         
 ---------------------------------------------------------------------
 Center     Atomic      Atomic             Coordinates (Angstroms)
 Number     Number       Type             X           Y           Z
 ---------------------------------------------------------------------
      1          6           0       -0.981141    0.745542   -0.614503
      2          6           0        0.178131    1.013460    0.339411
      3          6           0       -2.025345   -0.301581   -0.239311
      4          6           0        1.271815   -0.028345    0.484510
      5          1           0       -0.219985    1.236661    1.331587
      6          1           0       -0.588496    0.534408   -1.614853
      7          6           0       -1.687932   -1.755506   -0.517729
      8          1           0       -2.898974   -0.052706   -0.850493
      9          6           0        1.813590   -0.538089   -0.829163
     10          1           0        0.932590   -0.869474    1.082797
     11          1           0       -1.244474   -1.849233   -1.508054
     12          1           0       -2.620801   -2.329082   -0.511173
     13          1           0        2.120096    0.308512   -1.449746
     14          1           0        1.055455   -1.124975   -1.353618
     15          8           0       -0.775699   -2.315267    0.410200
     16          1           0       -1.144248   -2.146403    1.281246
     17          8           0       -2.386825   -0.224531    1.135575
     18          1           0       -2.689653    0.673034    1.289027
     19          8           0       -1.745224    1.960987   -0.675345
     20          1           0       -1.097233    2.674018   -0.682555
     21          8           0        0.774803    2.212433   -0.189591
     22          1           0        1.603194    2.311701    0.292253
     23          8           0        2.321075    0.653862    1.194893
     24          1           0        3.093924    0.085492    1.132515
     25          8           0        2.939306   -1.349160   -0.487903
     26          1           0        3.264411   -1.771424   -1.280857
 ---------------------------------------------------------------------
 Rotational constants (GHZ):           1.1110103           0.7296451           0.5314355
 Standard basis: def2TZVPP (5D, 7F)
 There are   642 symmetry adapted cartesian basis functions of A   symmetry.
 There are   568 symmetry adapted basis functions of A   symmetry.
   568 basis functions,   850 primitive gaussians,   642 cartesian basis functions
    49 alpha electrons       49 beta electrons
       nuclear repulsion energy       846.7314765683 Hartrees.
 NAtoms=   26 NActive=   26 NUniq=   26 SFac= 1.00D+00 NAtFMM=   60 NAOKFM=F Big=F
 Integral buffers will be    131072 words long.
 Raffenetti 2 integral format.
 Two-electron integral symmetry is turned on.
 Nuclear repulsion after empirical dispersion term =      846.7116936882 Hartrees.
 One-electron integrals computed using PRISM.
   1 Symmetry operations used in ECPInt.
 ECPInt:  NShTT=   23436 NPrTT=   62434 LenC2=   22229 LenP2D=   46430.
 LDataN:  DoStor=T MaxTD1= 6 Len=  172
 NBasis=   568 RedAO= T EigKep=  5.98D-05  NBF=   568
[...]
 0122032,-0.00049048,0.41586339,0.03088348,-0.10948671,0.05365925,0.006
 49011,-0.00285470,0.00724272,-0.00125937,0.00022170,-0.00705781,-0.000
 24449,0.00175595,-0.00084685,0.00194656,0.00121764,0.00015726,0.009661
 96,-0.01609644,0.04002019,0.00099842,-0.00102259,-0.00148942,-0.000206
 28,0.00040822,0.00002853,-0.00158904,0.00009297,0.00007365,0.00011390,
 -0.00016845,0.00010789,-0.00006564,0.00043484,-0.00056519,-0.00004028,
 0.00015095,-0.00019483,-0.00012365,0.00009580,0.00000951,0.00089761,0.
 00025997,-0.00051814,-0.00005039,0.00102938,0.00003970,0.00044554,-0.0
 0032930,0.00066497,0.00160878,0.00345893,-0.00903546,-0.00201048,0.000
 82055,-0.00012091,-0.12786683,0.15625000,-0.04052331,0.06964155,-0.177
 72103,-0.01006950,0.01426877,-0.02621828,-0.00474418,0.01331075,-0.051
 76522,-0.00061069,-0.00305622,0.00398413,0.00066907,-0.00067973,0.0007
 0497,-0.00136681,0.01566905,-0.01266556,0.00654880,-0.00455040,0.00008
 774,-0.00089673,0.00079149,0.00187247,0.00089324,-0.00058325,-0.000582
 79,0.00033351,-0.00029362,0.00029556,-0.00014193,0.00003647,0.00081230
 ,-0.00022588,0.00050425,-0.00253611,-0.00008900,0.00028527,0.00009717,
 -0.00049333,-0.00032165,0.00032842,-0.00172696,-0.00089642,-0.00128366
 ,0.00021606,0.00063677,0.00032371,0.00052730,0.00167189,-0.00317508,0.
 00011308,0.00033872,-0.00318003,-0.20144535,-0.05038902,0.49242947,0.0
 0947616,-0.00328453,-0.00527230,0.00246427,0.00072037,-0.00914863,-0.0
 0143625,0.00077279,-0.00324401,0.00007565,0.00007017,0.00125103,-0.000
 31403,0.00018903,0.00066935,-0.00028359,0.00100280,-0.00042603,0.00147
 741,-0.00046566,-0.00026025,-0.00003892,0.00022313,0.00009163,0.000449
 76,0.00030666,-0.00026743,0.00029556,-0.00046221,0.00039840,0.00002661
 ,0.00002759,0.00006308,-0.00008346,0.00007351,-0.00045622,0.00009484,0
 .00024421,0.00003386,-0.00028928,-0.00016102,0.00024281,-0.00073468,-0
 .00004865,-0.00005030,0.00023474,-0.00002338,0.00008210,-0.00004814,-0
 .00037039,-0.00144546,-0.00018661,0.00092709,0.00096223,-0.30126495,0.
 07525016,0.24972800,0.29267623,-0.01517087,0.00261612,0.01549344,0.000
 31200,0.00215508,0.00277968,0.00115152,-0.00258828,0.00122347,-0.00003
 139,-0.00003951,-0.00052322,-0.00012153,-0.00032216,-0.00076842,-0.000
 33715,-0.00121020,0.00196083,-0.00029862,0.00033884,0.00016453,0.00011
 823,-0.00016384,-0.00008355,0.00002322,-0.00001517,0.00046154,-0.00010
 576,0.00010956,-0.00012440,-0.00002049,0.00005498,-0.00004925,-0.00001
 956,0.00004893,0.00014829,0.00009019,-0.00015725,-0.00007015,0.0000227
 8,0.00001985,-0.00002977,0.00010614,0.00002794,0.00005896,0.00005290,0
 .00002792,0.00000833,-0.00027926,0.00009877,-0.00194757,0.00105672,0.0
 0143812,0.00041642,0.08808197,-0.03782460,-0.05606218,-0.07397640,0.03
 813249,0.02589174,-0.00405818,-0.03219269,-0.00045116,-0.00050162,-0.0
 0256745,-0.00189641,0.00359850,-0.00628541,0.00041270,0.00053187,-0.00
 140743,-0.00022319,-0.00005307,-0.00020150,0.00012767,-0.00030935,0.00
 037395,0.00162249,-0.00091656,-0.00036029,-0.00013511,0.00016289,0.000
 29505,0.00003653,0.00029604,0.00006231,-0.00000496,-0.00004437,0.00004
 462,0.00001973,-0.00000576,0.00008139,-0.00011423,0.00014104,-0.000463
 88,0.00002542,0.00004619,0.00000422,0.00001119,-0.00001287,-0.00000504
 ,-0.00040532,-0.00006932,0.00023903,0.00001165,-0.00000678,-0.00018720
 ,-0.00036025,0.00084738,0.00108265,0.00029176,-0.00066965,-0.00062767,
 0.20782613,-0.03480729,-0.22615326,-0.23627739,0.03802191,0.26735562,-
 0.02883732,0.01666693,0.03952574,-0.10663659,0.01571631,0.05604512,-0.
 00649756,-0.00420260,-0.00505694,-0.00295725,-0.00231213,-0.00224585,0
 .00565064,0.00368426,0.00028658,0.00208310,-0.00056683,-0.00028033,-0.
 00056679,0.00020708,-0.00149205,-0.00159749,0.00138588,0.00200246,0.00
 014321,0.00078641,0.00087431,0.00049028,0.00149557,-0.00119954,0.00001
 928,-0.00013952,0.00003338,0.00012624,-0.00000608,0.00039464,-0.000317
 51,-0.00032228,-0.00011566,0.00056489,0.00039287,-0.00039280,0.0011790
 5,0.00002889,0.00102952,-0.00023280,-0.00018878,-0.00051583,0.00023550
 ,0.00201932,0.00067770,0.00011905,-0.00099409,-0.00005711,-0.01092131,
 0.00327725,0.00745079,-0.00022677,-0.00084474,0.00237768,0.64491776,0.
 00427798,0.00022093,0.00068371,0.00982525,-0.07694566,-0.03402893,0.00
 017631,-0.00029247,0.00018849,-0.00576426,0.00657709,0.02113750,0.0151
 5421,0.00048024,-0.03369353,0.00154347,0.00105671,0.00039214,-0.000267
 07,-0.00068682,0.00020772,0.00016926,-0.00005637,-0.00018908,-0.001862
 91,-0.00036631,-0.00285816,0.00276029,-0.00287142,0.00309272,0.0001209
 2,0.00021827,-0.00010668,0.00006578,0.00011402,-0.00010201,-0.00003853
 ,0.00117053,0.00240451,-0.00042886,-0.00011859,0.00106483,0.00030295,0
 .00072512,-0.00108606,-0.00045676,0.00023555,0.00076491,0.00090205,0.0
 0090599,-0.00037219,-0.00054973,0.00021664,0.00010103,0.00546694,0.001
 79043,-0.00244668,-0.00001518,-0.00184694,-0.00059067,-0.10669687,0.08
 354790,0.00815084,-0.00133553,-0.00948201,0.01180059,-0.02729213,-0.19
 557116,-0.00105380,0.00112828,0.00161218,0.01576378,-0.00289026,-0.050
 38609,0.01185704,-0.00971390,-0.02771006,0.00019157,0.00073861,0.00080
 156,-0.00150515,-0.00017029,-0.00010342,0.00048313,-0.00026408,-0.0004
 3121,-0.00020891,-0.00379635,-0.00069661,-0.00440254,0.00620193,-0.002
 98964,-0.00015425,-0.00002603,0.00008466,0.00031787,-0.00010482,0.0000
 2056,0.00004929,0.00157594,0.00014180,-0.00001427,0.00011450,-0.000184
 63,0.00165362,-0.00016030,-0.00097167,-0.00047227,0.00055497,0.0005271
 0,0.00137051,-0.00089351,0.00066237,-0.00028960,-0.00002543,-0.0008976
 0,-0.00415593,0.00089111,0.00446775,0.00040025,0.00073088,-0.00083609,
 0.00213021,0.03205329,0.33453842,-0.00083745,0.00181662,0.00204582,-0.
 01909971,0.00189962,0.00387862,-0.00061152,-0.00026879,-0.00026699,0.0
 0287812,-0.00003423,-0.00069730,0.00070766,-0.00030518,-0.00144981,0.0
 0028447,0.00001689,0.00000392,-0.00002817,-0.00003304,0.00007242,0.000
 01099,0.00007031,0.00013389,-0.00023455,-0.00078729,0.00057539,-0.0013
 6126,0.00028916,-0.00030636,-0.00000087,-0.00000348,0.00002083,0.00003
 046,-0.00001419,-0.00004075,-0.00006151,-0.00057182,0.00000273,-0.0000
 4992,-0.00016968,-0.00016540,0.00006464,0.00000936,-0.00026975,-0.0000
 3102,0.00008169,0.00017215,0.00031083,-0.00005439,-0.00018492,-0.00013
 798,0.00014881,0.00007894,0.00176776,-0.00043318,0.00014099,-0.0014467
 7,-0.00000313,0.00005807,-0.49902122,0.07469909,-0.04239751,0.51996375
 ,-0.00008022,-0.00035779,0.00087465,0.00861919,-0.00056835,-0.00180403
 ,0.00010127,0.00027428,-0.00029658,-0.00246522,0.00179747,0.00180496,0
 .00080346,-0.00035560,-0.00013905,0.00000012,-0.00009768,-0.00015746,-
 0.00004017,0.00015532,-0.00012298,-0.00011961,-0.00004579,0.00002575,0
 .00007316,-0.00027173,0.00131938,0.00023827,0.00010609,-0.00027475,-0.
 00004214,-0.00006452,0.00002428,0.00000445,-0.00003305,0.00003159,-0.0
 0050179,-0.00073569,-0.00022974,0.00025847,0.00009829,-0.00047139,0.00
 006022,-0.00024850,0.00009392,0.00009967,0.00001356,-0.00014815,-0.000
 25778,0.00003235,0.00016932,0.00016347,0.00001486,0.00002723,0.0011453
 5,0.00037862,-0.00020585,-0.00070807,-0.00076869,-0.00060858,0.0689493
 7,-0.01708743,0.00061692,-0.07684314,0.02049672,0.00180670,-0.00153866
 ,-0.00798853,0.04337618,-0.00647137,-0.00011627,0.00173401,0.00071958,
 0.00109454,0.00661843,0.00121295,-0.00307828,0.00017311,-0.00096336,-0
 .00047211,-0.00003495,0.00008260,0.00011719,0.00024611,-0.00000374,0.0
 0035716,0.00038787,-0.00032692,-0.00044744,-0.00009343,0.00066535,0.00
 018444,-0.00062128,-0.00053015,0.00044238,0.00004801,0.00005973,-0.000
 04562,-0.00008486,0.00003696,-0.00004771,0.00011183,0.00000514,-0.0000
 5613,-0.00030139,-0.00045515,0.00007512,-0.00048068,0.00018208,-0.0000
 7658,0.00004831,-0.00004712,0.00008086,-0.00014837,-0.00014934,-0.0000
 1567,-0.00003340,-0.00008822,-0.00010582,-0.00273411,0.00105422,0.0004
 7761,0.00191032,-0.00132159,0.00079048,-0.08941399,0.00770273,-0.05203
 631,0.03890025,0.00212016,0.05620714,0.00423496,0.00225127,-0.00152146
 ,-0.04015826,0.00346406,-0.00461975,0.00054386,-0.00105625,-0.00013650
 ,-0.21366433,-0.02990681,0.03837900,0.00131573,-0.00039438,0.00081368,
 0.00015137,-0.00009688,0.00028273,0.00067810,-0.00044314,-0.00014326,-
 0.00024479,0.00016247,0.00008289,-0.04056509,-0.00872357,0.00266643,-0
 .02938111,-0.00235193,0.00561437,0.00040400,0.00027715,-0.00026797,-0.
 00014342,0.00026881,0.00013740,0.00157903,0.00057666,-0.00078557,0.000
 14734,-0.00590803,-0.00052603,-0.00090057,0.00198897,0.00117755,-0.000
 45692,-0.00030848,-0.00013384,-0.00024272,0.00114001,-0.00002283,0.000
 13169,-0.00045819,-0.00003326,-0.00277596,0.00118695,-0.00299058,-0.00
 049129,0.00011608,0.00094602,-0.00006216,0.00062221,-0.00025126,-0.002
 02523,0.00050458,0.00045056,0.43527792,-0.00263210,-0.00365983,0.00375
 616,0.03374430,0.00187111,-0.00015638,-0.00030384,0.00028005,0.0003431
 2,0.01234985,-0.08898293,0.01377625,-0.00022237,0.00227555,-0.00149916
 ,0.00073372,0.00044135,0.00017483,-0.00050946,-0.00063922,0.00008925,0
 .00023000,-0.00009482,-0.00006388,-0.03769251,-0.00644686,0.00822275,0
 .00722513,0.00494422,0.00036672,-0.00000343,0.00007727,-0.00005316,0.0
 0008009,0.00005038,-0.00010149,0.00079061,0.00288002,0.00064433,-0.002
 47890,-0.00742666,-0.00057019,0.00053417,0.00019781,-0.00037961,-0.000
 20436,0.00011415,0.00019460,0.00030281,-0.00002985,-0.00021985,-0.0001
 7536,0.00022563,0.00006951,0.00294515,-0.00028132,0.00175008,-0.000131
 71,-0.00011636,-0.00070233,0.00334981,0.00223169,0.00113382,-0.0005462
 6,-0.00220129,-0.00254769,-0.14188698,0.43560205,0.00101309,0.00296987
 ,-0.00283992,-0.02508553,0.00115357,-0.00405085,-0.00006574,-0.0002071
 6,-0.00085177,0.01697847,0.01295906,-0.08080813,0.00042670,-0.00066700
 ,0.00091590,0.00004256,-0.00025765,0.00002617,-0.00119639,0.00002604,-
 0.00064654,-0.00010909,0.00007346,0.00022375,-0.00538078,0.00197314,0.
 00268128,0.03611879,0.00495325,0.00430852,-0.00025457,-0.00018897,0.00
 007128,0.00018383,-0.00010995,0.00015744,-0.00017334,0.00241595,0.0014
 0391,-0.00092668,-0.00147573,0.00159837,0.00149778,-0.00098213,0.00008
 588,0.00003772,0.00009479,-0.00040371,-0.00013159,0.00015121,0.0007444
 6,0.00019109,-0.00029338,-0.00024010,-0.00261365,0.00057147,-0.0003260
 8,0.00087554,-0.00031106,0.00070485,-0.01025955,0.00394896,-0.00077673
 ,-0.00004693,-0.00282144,0.00287645,0.05576645,-0.21644081,0.18893561,
 0.00083801,0.00145268,-0.00116284,-0.00851998,-0.00115906,0.00169491,-
 0.00003471,0.00000704,-0.00008248,-0.02600440,0.03489076,-0.02019038,0
 .00017385,-0.00021874,0.00032695,-0.00008767,-0.00013968,-0.00002464,-
 0.00006743,0.00016066,-0.00004582,-0.00002149,0.00001044,0.00002038,-0
 .00287169,0.00085973,-0.00275541,0.00001855,0.00051750,0.00050313,-0.0
 0005352,-0.00004985,0.00004101,0.00004326,-0.00004861,0.00001456,0.000
 05423,-0.00027484,0.00016012,0.00058446,0.00079800,0.00002483,0.000130
 52,-0.00020123,-0.00005236,0.00000947,0.00005086,0.00000922,0.00004652
 ,-0.00014055,0.00006930,-0.00001818,0.00001178,-0.00002960,-0.00064058
 ,-0.00002164,-0.00040424,-0.00020711,0.00012106,0.00007257,0.00121319,
 -0.00058111,0.00142474,-0.00037565,-0.00001611,-0.00126848,-0.11821270
 ,0.13282445,-0.06979173,0.15120551,0.00029693,0.00080345,-0.00018289,-
 0.00153540,-0.00040563,-0.00078530,-0.00000172,-0.00004680,-0.00004049
 ,-0.00005395,0.00375472,-0.00120357,-0.00008679,0.00010734,0.00009763,
 -0.00012155,-0.00010503,-0.00004589,0.00031219,0.00026255,0.00006711,-
 0.00007093,0.00002367,-0.00000193,-0.00615222,0.00287742,-0.00208101,-
 0.00061236,-0.00045267,0.00036427,0.00004155,-0.00003918,-0.00000497,-
 0.00006767,-0.00001435,0.00000860,0.00035281,-0.00032183,0.00019664,0.
 00098417,-0.00081893,0.00055834,-0.00043575,0.00001547,0.00003380,0.00
 005595,-0.00004283,-0.00000607,-0.00009467,-0.00002746,-0.00001423,0.0
 0004259,-0.00003590,0.00000277,-0.00049991,-0.00005786,-0.00022695,0.0
 0015448,0.00000750,0.00012542,-0.00123325,0.00032719,-0.00104787,0.000
 49431,-0.00052004,0.00109501,0.17564343,-0.33894420,0.19008048,-0.1716
 5653,0.33308817,0.00011951,0.00020775,0.00006100,0.00036475,0.00043080
 ,-0.00165727,-0.00011699,0.00006996,0.00007283,0.00317858,-0.00509110,
 0.00270841,0.00002933,0.00005518,-0.00003142,-0.00001535,-0.00000967,-
 0.00001890,0.00008028,0.00009830,0.00007274,0.00000573,-0.00000457,-0.
 00002338,0.00021149,0.00048763,0.00176070,0.00157617,-0.00057241,-0.00
 002193,0.00000123,-0.00003187,0.00004572,-0.00001491,-0.00003372,-0.00
 001999,-0.00049119,-0.00010707,-0.00053419,0.00011953,0.00069685,-0.00
 048557,-0.00007274,-0.00011625,-0.00024189,0.00001050,0.00001226,0.000
 06471,0.00003131,-0.00008783,-0.00007062,-0.00002692,0.00003092,0.0000
 0745,-0.00006085,-0.00001292,0.00003848,-0.00001450,-0.00000062,0.0000
 6657,-0.00187518,0.00005573,-0.00029217,0.00019235,0.00057136,0.001800
 50,-0.09480755,0.19107388,-0.11586014,0.09112504,-0.18704418,0.1149868
 7,-0.00120280,-0.00222909,0.00054622,-0.00004613,-0.00179264,0.0008990
 3,0.00047056,-0.00047334,-0.00009084,-0.00204567,0.00006557,0.00054810
 ,0.00006689,0.00025379,-0.00011556,0.00087685,0.00108470,0.00040548,-0
 .00044818,-0.00087855,-0.00009311,0.00004823,0.00000044,0.00002348,-0.
 12822600,0.03597562,-0.07051357,0.00035552,0.00014155,0.00027364,0.000
 05478,0.00025932,-0.00029297,-0.00001903,0.00024118,0.00005831,-0.0007
 3183,0.00473058,-0.00719345,-0.02325349,0.02805237,-0.02880365,0.00044
 844,0.00046191,0.00025354,-0.00008128,-0.00008346,-0.00006225,-0.00006
 083,0.00080204,0.00007621,0.00004102,-0.00018777,-0.00000697,0.0002560
 4,0.00125466,-0.00096874,-0.00027429,-0.00005046,0.00014357,0.00112193
 ,0.00054082,-0.00071257,-0.00067988,0.00012048,-0.00043645,0.00453147,
 -0.00623131,0.00167526,0.00097462,0.00310113,0.00150073,0.17251869,-0.
 00180141,0.00062145,-0.00077344,-0.00402173,-0.00615029,-0.00577768,-0
 .00040440,0.00041120,0.00044311,0.02577099,-0.03729089,0.03248686,0.00
 110849,-0.00187412,0.00212261,-0.00005846,0.00010415,-0.00015923,-0.00
 021761,0.00004135,0.00016211,0.00020515,-0.00008708,-0.00009413,0.0607
 7873,-0.13092461,0.05957102,0.00039919,0.00283533,-0.00037780,-0.00013
 759,-0.00006292,0.00022697,0.00012937,-0.00014517,-0.00011318,0.000391
 93,0.00147581,0.00548352,0.00931365,-0.00134939,0.00258693,0.00031875,
 -0.00019629,-0.00058119,-0.00007836,0.00017586,0.00030174,0.00055664,-
 0.00054500,-0.00028627,-0.00030302,0.00031524,0.00000625,0.00100692,-0
 .00045112,0.00094545,-0.00034272,0.00002586,-0.00046210,-0.00036971,-0
 .00006182,0.00187270,0.00055146,0.00015008,-0.00058690,0.00218958,-0.0
 0346368,0.00240314,0.00278045,0.00095517,-0.00032018,-0.03757208,0.678
 21547,-0.00026861,-0.00116293,0.00027017,-0.00006905,-0.00212903,-0.00
 076383,0.00030460,-0.00023038,-0.00041184,0.00187100,0.00303166,0.0036
 2446,0.00005199,-0.00000221,0.00011354,0.00039717,0.00032831,-0.000027
 70,-0.00010282,0.00002648,-0.00015331,-0.00005447,0.00003236,0.0000545
 5,-0.06303537,0.02189869,-0.13404525,0.00088654,0.00100255,0.00087213,
 -0.00000488,0.00004436,-0.00023747,-0.00004731,0.00008930,0.00008499,-
 0.02959512,0.02776133,-0.02144779,-0.00724346,0.00272519,0.00396951,-0
 .00004430,0.00017284,0.00049412,0.00001389,-0.00005462,-0.00017559,-0.
 00020093,0.00042467,0.00034021,0.00012799,-0.00021113,-0.00007270,-0.0
 0030578,0.00055621,-0.00018929,0.00020770,-0.00024592,0.00016446,-0.00
 008693,0.00220416,0.00058017,-0.00044038,-0.00058776,-0.00003292,0.000
 00156,0.00120610,0.00208665,0.00020253,0.00008816,-0.00218791,0.134276
 13,0.06517253,0.21332619,0.00027966,0.00024923,-0.00001756,0.00047146,
 0.00065365,0.00035367,-0.00000565,0.00005184,-0.00006047,-0.00408442,0
 .00106707,-0.00267595,-0.00007979,0.00018561,-0.00014092,-0.00000054,-
 0.00012850,0.00001198,0.00004446,0.00015179,0.00000783,-0.00002707,0.0
 0000777,0.00000398,-0.00080477,0.02775305,0.00562340,-0.00008058,-0.00
 018263,0.00006570,0.00001031,-0.00002173,-0.00000021,-0.00000093,-0.00
 001159,0.00000766,0.00087697,-0.00059571,-0.00070093,-0.00082874,0.001
 29343,0.00018775,-0.00005815,-0.00009925,0.00001113,0.00001314,0.00001
 405,-0.00001771,-0.00003928,-0.00009674,0.00005192,0.00001688,0.000006
 40,-0.00001040,-0.00009001,-0.00010409,0.00007637,0.00005490,0.0000065
 5,-0.00000692,0.00001062,0.00003374,0.00002463,-0.00001599,-0.00006729
 ,-0.00016029,0.00032907,-0.00209151,0.00122831,0.00182293,0.00114314,-
 0.00105036,-0.02469563,-0.06019422,-0.03684170,0.02688115,-0.00023553,
 -0.00028340,0.00005530,-0.00061641,-0.00101801,-0.00093276,0.00009441,
 -0.00008405,-0.00001842,0.00270219,-0.00252601,0.00395243,0.00019266,-
 0.00012369,0.00027099,0.00015380,0.00014529,0.00004078,0.00000180,-0.0
 0011539,-0.00000871,-0.00000912,0.00000549,0.00000034,-0.00464219,-0.0
 2038885,-0.00957983,0.00011853,0.00056383,0.00003395,0.00003471,0.0000
 3818,-0.00004633,-0.00002587,0.00004784,0.00001315,-0.00165621,0.00205
 142,-0.00025769,-0.00051035,0.00063509,-0.00074371,-0.00003635,0.00011
 067,0.00006919,-0.00000488,-0.00003021,-0.00001352,-0.00003194,0.00015
 954,0.00000683,0.00001913,-0.00004721,-0.00000428,-0.00003718,0.000207
 12,-0.00013855,0.00002793,-0.00004898,0.00004724,-0.00008307,0.0005155
 1,0.00010757,-0.00000952,-0.00016150,0.00009370,0.00114243,0.00109574,
 -0.00001908,0.00002254,-0.00038995,-0.00035821,-0.02758744,-0.50272459
 ,-0.12214091,0.03097594,0.52236612,0.00015983,0.00001094,0.00008730,0.
 00022482,0.00147419,0.00102410,-0.00001015,0.00000134,0.00004497,-0.00
 320301,0.00274669,-0.00352606,-0.00014026,0.00026044,-0.00038625,-0.00
 003039,-0.00001827,0.00002207,-0.00004484,-0.00007225,0.00000068,0.000
 00109,-0.00000147,0.00000390,0.00020669,0.03007230,0.00356641,-0.00013
 619,0.00011258,0.00020008,-0.00001918,0.00000314,0.00001665,0.00001434
 ,-0.00000506,-0.00000740,0.00051037,0.00096459,0.00018658,-0.00039509,
 -0.00046494,0.00015423,0.00006785,-0.00000357,-0.00005133,0.00000453,0
 .00000309,0.00001458,-0.00000087,-0.00001003,-0.00004794,-0.00000152,0
 .00001793,0.00002255,0.00001294,-0.00003884,-0.00012339,-0.00005377,0.
 00006942,0.00002270,0.00016364,-0.00052842,-0.00007118,-0.00001027,0.0
 0018823,0.00001553,-0.00007879,-0.00006684,-0.00001659,0.00011868,-0.0
 0003287,-0.00024061,-0.03138957,-0.16425286,-0.06623555,0.03402910,0.1
 2957054,0.06532398\\0.00001016,-0.00001953,0.00001755,-0.00000847,0.00
 000006,0.00000595,0.00000070,-0.00001961,0.00000471,0.00001234,0.00000
 870,-0.00000977,0.00000368,-0.00000466,-0.00000107,-0.00000145,0.00000
 844,-0.00000243,-0.00000402,0.00000363,0.00000198,0.00000528,0.0000022
 2,-0.00000397,-0.00000278,-0.00001125,0.00001010,-0.00000440,-0.000002
 69,0.00000317,0.00000257,-0.00000151,-0.00000430,0.00000091,-0.0000002
 4,0.00000034,0.00000077,0.00000204,-0.00000010,-0.00000008,0.00000188,
 -0.00000108,-0.00000436,-0.00000081,0.00000942,0.00000041,-0.00000138,
 -0.00000731,0.00001093,0.00001894,-0.00000364,-0.00000611,0.00000226,-
 0.00000085,-0.00000756,0.00000621,-0.00001730,0.00000390,0.00000242,0.
 00000132,0.00001046,-0.00000222,0.00000109,-0.00000513,0.00000491,-0.0
 0000365,-0.00001540,-0.00001108,0.00000656,0.00000124,0.00000621,-0.00
 000035,-0.00000143,0.00000554,-0.00000870,-0.00000218,0.00000153,0.000
 00233\\\@
 The archive entry for this job was punched.


 WE ARE PERHAPS NOT FAR REMOVED FROM THE TIME WHEN WE SHALL BE ABLE TO SUBMIT
 THE BULK OF CHEMICAL PHENOMENA TO CALCULATION.

            -- JOSEPH LOUIS GAY-LUSSAC
               MEMOIRES DE LA SOCIETE D'ARCUEIL, 2, 207 (1808)
 Job cpu time:       0 days 21 hours  0 minutes 45.1 seconds.
 Elapsed time:       0 days  1 hours 18 minutes 56.9 seconds.
 File lengths (MBytes):  RWF=    704 Int=      0 D2E=      0 Chk=     27 Scr=      1
 Normal termination of Gaussian 16 at Wed Oct 11 18:03:12 2023.
