 Entering Gaussian System, Link 0=/opt/software/gaussian/g16.c01/g16
 Initial command:
 /opt/software/gaussian/g16.c01/l1.exe "/scratch/arhender/13209903/Gau-66990.inp" -scrdir="/scratch/arhender/13209903/"
 Entering Link 1 = /opt/software/gaussian/g16.c01/l1.exe PID=     66991.
  
 Copyright (c) 1988-2019, Gaussian, Inc.  All Rights Reserved.
  
 This is part of the Gaussian(R) 16 program.  It is based on
 the Gaussian(R) 09 system (copyright 2009, Gaussian, Inc.),
 the Gaussian(R) 03 system (copyright 2003, Gaussian, Inc.),
 the Gaussian(R) 98 system (copyright 1998, Gaussian, Inc.),
 the Gaussian(R) 94 system (copyright 1995, Gaussian, Inc.),
 the Gaussian 92(TM) system (copyright 1992, Gaussian, Inc.),
 the Gaussian 90(TM) system (copyright 1990, Gaussian, Inc.),
 the Gaussian 88(TM) system (copyright 1988, Gaussian, Inc.),
 the Gaussian 86(TM) system (copyright 1986, Carnegie Mellon
 University), and the Gaussian 82(TM) system (copyright 1983,
 Carnegie Mellon University). Gaussian is a federally registered
 trademark of Gaussian, Inc.
  
 This software contains proprietary and confidential information,
 including trade secrets, belonging to Gaussian, Inc.
  
 This software is provided under written license and may be
 used, copied, transmitted, or stored only in accord with that
 written license.
  
 The following legend is applicable only to US Government
 contracts under FAR:
  
                    RESTRICTED RIGHTS LEGEND
  
 Use, reproduction and disclosure by the US Government is
 subject to restrictions as set forth in subparagraphs (a)
 and (c) of the Commercial Computer Software - Restricted
 Rights clause in FAR 52.227-19.
  
 Gaussian, Inc.
 340 Quinnipiac St., Bldg. 40, Wallingford CT 06492
  
  
 ---------------------------------------------------------------
 Warning -- This program may not be used in any manner that
 competes with the business of Gaussian, Inc. or will provide
 assistance to any competitor of Gaussian, Inc.  The licensee
 of this program is prohibited from giving any competitor of
 Gaussian, Inc. access to this program.  By using this program,
 the user acknowledges that Gaussian, Inc. is engaged in the
 business of creating and licensing software in the field of
 computational chemistry and represents and warrants to the
 licensee that it is not a competitor of Gaussian, Inc. and that
 it will not use this program in any manner prohibited above.
 ---------------------------------------------------------------
  

 Cite this work as:
 Gaussian 16, Revision C.01,
 M. J. Frisch, G. W. Trucks, H. B. Schlegel, G. E. Scuseria, 
 M. A. Robb, J. R. Cheeseman, G. Scalmani, V. Barone, 
 G. A. Petersson, H. Nakatsuji, X. Li, M. Caricato, A. V. Marenich, 
 J. Bloino, B. G. Janesko, R. Gomperts, B. Mennucci, H. P. Hratchian, 
 J. V. Ortiz, A. F. Izmaylov, J. L. Sonnenberg, D. Williams-Young, 
 F. Ding, F. Lipparini, F. Egidi, J. Goings, B. Peng, A. Petrone, 
 T. Henderson, D. Ranasinghe, V. G. Zakrzewski, J. Gao, N. Rega, 
 G. Zheng, W. Liang, M. Hada, M. Ehara, K. Toyota, R. Fukuda, 
 J. Hasegawa, M. Ishida, T. Nakajima, Y. Honda, O. Kitao, H. Nakai, 
 T. Vreven, K. Throssell, J. A. Montgomery, Jr., J. E. Peralta, 
 F. Ogliaro, M. J. Bearpark, J. J. Heyd, E. N. Brothers, K. N. Kudin, 
 V. N. Staroverov, T. A. Keith, R. Kobayashi, J. Normand, 
 K. Raghavachari, A. P. Rendell, J. C. Burant, S. S. Iyengar, 
 J. Tomasi, M. Cossi, J. M. Millam, M. Klene, C. Adamo, R. Cammi, 
 J. W. Ochterski, R. L. Martin, K. Morokuma, O. Farkas, 
 J. B. Foresman, and D. J. Fox, Gaussian, Inc., Wallingford CT, 2019.
 
 ******************************************
 Gaussian 16:  ES64L-G16RevC.01  3-Jul-2019
                27-Sep-2023 
 ******************************************
 %chk=MannitolConformerOpt_2.chk
 %mem=8GB
 %nprocs=16
 Will use up to   16 processors via shared memory.
 ---------------------------------------------
 # opt freq wb97xd/def2tzvpp geom=connectivity
 ---------------------------------------------
 1/18=20,19=15,26=3,38=1,57=2/1,3;
 2/9=110,12=2,17=6,18=5,40=1/2;
 3/5=44,7=202,11=2,25=1,30=1,71=1,74=-58/1,2,3;
 4//1;
 5/5=2,38=5/2;
 6/7=2,8=2,9=2,10=2,28=1/1;
 7//1,2,3,16;
 1/18=20,19=15,26=3/3(2);
 2/9=110/2;
 99//99;
 2/9=110/2;
 3/5=44,7=202,11=2,25=1,30=1,71=1,74=-58/1,2,3;
 4/5=5,16=3,69=1/1;
 5/5=2,38=5/2;
 7//1,2,3,16;
 1/18=20,19=15,26=3/3(-5);
 2/9=110/2;
 6/7=2,8=2,9=2,10=2,19=2,28=1/1;
 99/9=1/99;
 --------------------------------
 Mannitol Conformer Optimziations
 --------------------------------
 Symbolic Z-matrix:
 Charge =  0 Multiplicity = 1
 C                     0.        0.        0. 
 C                     1.5397    0.        0. 
 C                    -0.6182    0.6832    1.2247 
 C                     2.2447   -0.7855    1.1146 
 H                     1.9056    1.0345    0. 
 H                    -0.3646   -1.0304   -0.0842 
 C                    -2.1438    0.7972    1.1117 
 H                    -0.2021    1.6898    1.3511 
 C                     1.8164   -2.252     1.2263 
 H                     2.1414   -0.2842    2.0818 
 H                    -2.4624    1.4078    0.2616 
 H                    -2.6004   -0.1944    1.0305 
 H                     1.9451   -2.777     0.2746 
 H                     0.7816   -2.3523    1.5629 
 O                    -2.643     1.3855    2.3199 
 H                    -2.539     2.3498    2.2267 
 O                    -0.3146   -0.0499    2.4176 
 H                    -0.987     0.2361    3.0721 
 O                    -0.4319    0.6778   -1.1941 
 H                     0.1794    0.3553   -1.8914 
 O                     1.9613   -0.5353   -1.2801 
 H                     2.9335   -0.635    -1.1822 
 O                     3.6601   -0.7734    0.8073 
 H                     4.0411   -1.4232    1.436 
 O                     2.6729   -2.8929    2.1806 
 H                     2.3318   -3.798     2.2944 
 

 GradGradGradGradGradGradGradGradGradGradGradGradGradGradGradGradGradGrad
 Berny optimization.
 Initialization pass.
                           ----------------------------
                           !    Initial Parameters    !
                           ! (Angstroms and Degrees)  !
 --------------------------                            --------------------------
 ! Name  Definition              Value          Derivative Info.                !
 --------------------------------------------------------------------------------
 ! R1    R(1,2)                  1.5397         estimate D2E/DX2                !
 ! R2    R(1,3)                  1.5326         estimate D2E/DX2                !
 ! R3    R(1,6)                  1.0962         estimate D2E/DX2                !
 ! R4    R(1,19)                 1.4394         estimate D2E/DX2                !
 ! R5    R(2,4)                  1.535          estimate D2E/DX2                !
 ! R6    R(2,5)                  1.0973         estimate D2E/DX2                !
 ! R7    R(2,21)                 1.4502         estimate D2E/DX2                !
 ! R8    R(3,7)                  1.534          estimate D2E/DX2                !
 ! R9    R(3,8)                  1.0965         estimate D2E/DX2                !
 ! R10   R(3,17)                 1.4327         estimate D2E/DX2                !
 ! R11   R(4,9)                  1.5318         estimate D2E/DX2                !
 ! R12   R(4,10)                 1.0943         estimate D2E/DX2                !
 ! R13   R(4,23)                 1.4484         estimate D2E/DX2                !
 ! R14   R(7,11)                 1.0941         estimate D2E/DX2                !
 ! R15   R(7,12)                 1.0947         estimate D2E/DX2                !
 ! R16   R(7,15)                 1.4335         estimate D2E/DX2                !
 ! R17   R(9,13)                 1.0945         estimate D2E/DX2                !
 ! R18   R(9,14)                 1.0928         estimate D2E/DX2                !
 ! R19   R(9,25)                 1.4335         estimate D2E/DX2                !
 ! R20   R(15,16)                0.9744         estimate D2E/DX2                !
 ! R21   R(17,18)                0.981          estimate D2E/DX2                !
 ! R22   R(19,20)                0.9818         estimate D2E/DX2                !
 ! R23   R(21,22)                0.9822         estimate D2E/DX2                !
 ! R24   R(23,24)                0.9812         estimate D2E/DX2                !
 ! R25   R(25,26)                0.9739         estimate D2E/DX2                !
 ! A1    A(2,1,3)              113.789          estimate D2E/DX2                !
 ! A2    A(2,1,6)              109.4261         estimate D2E/DX2                !
 ! A3    A(2,1,19)             107.4611         estimate D2E/DX2                !
 ! A4    A(3,1,6)              110.2568         estimate D2E/DX2                !
 ! A5    A(3,1,19)             109.389          estimate D2E/DX2                !
 ! A6    A(6,1,19)             106.2063         estimate D2E/DX2                !
 ! A7    A(1,2,4)              117.34           estimate D2E/DX2                !
 ! A8    A(1,2,5)              109.4786         estimate D2E/DX2                !
 ! A9    A(1,2,21)             106.9015         estimate D2E/DX2                !
 ! A10   A(4,2,5)              109.225          estimate D2E/DX2                !
 ! A11   A(4,2,21)             108.5748         estimate D2E/DX2                !
 ! A12   A(5,2,21)             104.5404         estimate D2E/DX2                !
 ! A13   A(1,3,7)              112.0503         estimate D2E/DX2                !
 ! A14   A(1,3,8)              110.3817         estimate D2E/DX2                !
 ! A15   A(1,3,17)             110.596          estimate D2E/DX2                !
 ! A16   A(7,3,8)              108.5215         estimate D2E/DX2                !
 ! A17   A(7,3,17)             108.0655         estimate D2E/DX2                !
 ! A18   A(8,3,17)             107.0579         estimate D2E/DX2                !
 ! A19   A(2,4,9)              114.4827         estimate D2E/DX2                !
 ! A20   A(2,4,10)             111.3463         estimate D2E/DX2                !
 ! A21   A(2,4,23)             106.8862         estimate D2E/DX2                !
 ! A22   A(9,4,10)             110.3482         estimate D2E/DX2                !
 ! A23   A(9,4,23)             107.259          estimate D2E/DX2                !
 ! A24   A(10,4,23)            106.0182         estimate D2E/DX2                !
 ! A25   A(3,7,11)             112.8497         estimate D2E/DX2                !
 ! A26   A(3,7,12)             110.6686         estimate D2E/DX2                !
 ! A27   A(3,7,15)             108.3445         estimate D2E/DX2                !
 ! A28   A(11,7,12)            109.0528         estimate D2E/DX2                !
 ! A29   A(11,7,15)            108.9307         estimate D2E/DX2                !
 ! A30   A(12,7,15)            106.7983         estimate D2E/DX2                !
 ! A31   A(4,9,13)             111.2802         estimate D2E/DX2                !
 ! A32   A(4,9,14)             112.03           estimate D2E/DX2                !
 ! A33   A(4,9,25)             108.0288         estimate D2E/DX2                !
 ! A34   A(13,9,14)            109.5821         estimate D2E/DX2                !
 ! A35   A(13,9,25)            107.1059         estimate D2E/DX2                !
 ! A36   A(14,9,25)            108.6441         estimate D2E/DX2                !
 ! A37   A(7,15,16)            106.7598         estimate D2E/DX2                !
 ! A38   A(3,17,18)            105.1349         estimate D2E/DX2                !
 ! A39   A(1,19,20)            104.341          estimate D2E/DX2                !
 ! A40   A(2,21,22)            103.7245         estimate D2E/DX2                !
 ! A41   A(4,23,24)            103.7676         estimate D2E/DX2                !
 ! A42   A(9,25,26)            106.5            estimate D2E/DX2                !
 ! D1    D(3,1,2,4)             64.3288         estimate D2E/DX2                !
 ! D2    D(3,1,2,5)            -60.845          estimate D2E/DX2                !
 ! D3    D(3,1,2,21)          -173.5382         estimate D2E/DX2                !
 ! D4    D(6,1,2,4)            -59.4978         estimate D2E/DX2                !
 ! D5    D(6,1,2,5)            175.3284         estimate D2E/DX2                !
 ! D6    D(6,1,2,21)            62.6352         estimate D2E/DX2                !
 ! D7    D(19,1,2,4)          -174.4065         estimate D2E/DX2                !
 ! D8    D(19,1,2,5)            60.4197         estimate D2E/DX2                !
 ! D9    D(19,1,2,21)          -52.2735         estimate D2E/DX2                !
 ! D10   D(2,1,3,7)            173.7573         estimate D2E/DX2                !
 ! D11   D(2,1,3,8)             52.6858         estimate D2E/DX2                !
 ! D12   D(2,1,3,17)           -65.603          estimate D2E/DX2                !
 ! D13   D(6,1,3,7)            -62.8672         estimate D2E/DX2                !
 ! D14   D(6,1,3,8)            176.0612         estimate D2E/DX2                !
 ! D15   D(6,1,3,17)            57.7724         estimate D2E/DX2                !
 ! D16   D(19,1,3,7)            53.5733         estimate D2E/DX2                !
 ! D17   D(19,1,3,8)           -67.4983         estimate D2E/DX2                !
 ! D18   D(19,1,3,17)          174.2129         estimate D2E/DX2                !
 ! D19   D(2,1,19,20)           41.0511         estimate D2E/DX2                !
 ! D20   D(3,1,19,20)          165.0366         estimate D2E/DX2                !
 ! D21   D(6,1,19,20)          -75.9822         estimate D2E/DX2                !
 ! D22   D(1,2,4,9)             54.4589         estimate D2E/DX2                !
 ! D23   D(1,2,4,10)           -71.5692         estimate D2E/DX2                !
 ! D24   D(1,2,4,23)           173.074          estimate D2E/DX2                !
 ! D25   D(5,2,4,9)            179.7587         estimate D2E/DX2                !
 ! D26   D(5,2,4,10)            53.7306         estimate D2E/DX2                !
 ! D27   D(5,2,4,23)           -61.6262         estimate D2E/DX2                !
 ! D28   D(21,2,4,9)           -66.8074         estimate D2E/DX2                !
 ! D29   D(21,2,4,10)          167.1645         estimate D2E/DX2                !
 ! D30   D(21,2,4,23)           51.8077         estimate D2E/DX2                !
 ! D31   D(1,2,21,22)         -172.1843         estimate D2E/DX2                !
 ! D32   D(4,2,21,22)          -44.7039         estimate D2E/DX2                !
 ! D33   D(5,2,21,22)           71.7852         estimate D2E/DX2                !
 ! D34   D(1,3,7,11)           -62.0418         estimate D2E/DX2                !
 ! D35   D(1,3,7,12)            60.4766         estimate D2E/DX2                !
 ! D36   D(1,3,7,15)           177.2529         estimate D2E/DX2                !
 ! D37   D(8,3,7,11)            60.0975         estimate D2E/DX2                !
 ! D38   D(8,3,7,12)          -177.3841         estimate D2E/DX2                !
 ! D39   D(8,3,7,15)           -60.6078         estimate D2E/DX2                !
 ! D40   D(17,3,7,11)          175.8624         estimate D2E/DX2                !
 ! D41   D(17,3,7,12)          -61.6192         estimate D2E/DX2                !
 ! D42   D(17,3,7,15)           55.1571         estimate D2E/DX2                !
 ! D43   D(1,3,17,18)         -159.7523         estimate D2E/DX2                !
 ! D44   D(7,3,17,18)          -36.7668         estimate D2E/DX2                !
 ! D45   D(8,3,17,18)           79.9508         estimate D2E/DX2                !
 ! D46   D(2,4,9,13)            55.3372         estimate D2E/DX2                !
 ! D47   D(2,4,9,14)           -67.7293         estimate D2E/DX2                !
 ! D48   D(2,4,9,25)           172.6422         estimate D2E/DX2                !
 ! D49   D(10,4,9,13)         -178.117          estimate D2E/DX2                !
 ! D50   D(10,4,9,14)           58.8166         estimate D2E/DX2                !
 ! D51   D(10,4,9,25)          -60.8119         estimate D2E/DX2                !
 ! D52   D(23,4,9,13)          -63.0671         estimate D2E/DX2                !
 ! D53   D(23,4,9,14)          173.8664         estimate D2E/DX2                !
 ! D54   D(23,4,9,25)           54.2379         estimate D2E/DX2                !
 ! D55   D(2,4,23,24)         -169.3491         estimate D2E/DX2                !
 ! D56   D(9,4,23,24)          -46.1313         estimate D2E/DX2                !
 ! D57   D(10,4,23,24)          71.7745         estimate D2E/DX2                !
 ! D58   D(3,7,15,16)           82.6473         estimate D2E/DX2                !
 ! D59   D(11,7,15,16)         -40.461          estimate D2E/DX2                !
 ! D60   D(12,7,15,16)        -158.1084         estimate D2E/DX2                !
 ! D61   D(4,9,25,26)          174.981          estimate D2E/DX2                !
 ! D62   D(13,9,25,26)         -65.0521         estimate D2E/DX2                !
 ! D63   D(14,9,25,26)          53.2373         estimate D2E/DX2                !
 --------------------------------------------------------------------------------
 Trust Radius=3.00D-01 FncErr=1.00D-07 GrdErr=1.00D-06 EigMax=2.50D+02 EigMin=1.00D-04
 Number of steps in this run=    140 maximum allowed number of steps=    156.
 GradGradGradGradGradGradGradGradGradGradGradGradGradGradGradGradGradGrad

                          Input orientation:                          
 ---------------------------------------------------------------------
 Center     Atomic      Atomic             Coordinates (Angstroms)
 Number     Number       Type             X           Y           Z
 ---------------------------------------------------------------------
      1          6           0        0.000000    0.000000    0.000000
      2          6           0        1.539700    0.000000    0.000000
      3          6           0       -0.618200    0.683200    1.224700
      4          6           0        2.244700   -0.785500    1.114600
      5          1           0        1.905600    1.034500    0.000000
      6          1           0       -0.364600   -1.030400   -0.084200
      7          6           0       -2.143800    0.797200    1.111700
      8          1           0       -0.202100    1.689800    1.351100
      9          6           0        1.816400   -2.252000    1.226300
     10          1           0        2.141400   -0.284200    2.081800
     11          1           0       -2.462400    1.407800    0.261600
     12          1           0       -2.600400   -0.194400    1.030500
     13          1           0        1.945100   -2.777000    0.274600
     14          1           0        0.781600   -2.352300    1.562900
     15          8           0       -2.643000    1.385500    2.319900
     16          1           0       -2.539000    2.349800    2.226700
     17          8           0       -0.314600   -0.049900    2.417600
     18          1           0       -0.987000    0.236100    3.072100
     19          8           0       -0.431900    0.677800   -1.194100
     20          1           0        0.179400    0.355300   -1.891400
     21          8           0        1.961300   -0.535300   -1.280100
     22          1           0        2.933500   -0.635000   -1.182200
     23          8           0        3.660100   -0.773400    0.807300
     24          1           0        4.041100   -1.423200    1.436000
     25          8           0        2.672900   -2.892900    2.180600
     26          1           0        2.331800   -3.798000    2.294400
 ---------------------------------------------------------------------
                    Distance matrix (angstroms):
                    1          2          3          4          5
     1  C    0.000000
     2  C    1.539700   0.000000
     3  C    1.532587   2.573555   0.000000
     4  C    2.626408   1.535047   3.219534   0.000000
     5  H    2.168295   1.097303   2.827166   2.160954   0.000000
     6  H    1.096242   2.166835   2.171165   2.881934   3.069969
     7  C    2.543085   3.929323   1.534021   4.665177   4.205928
     8  H    2.172956   2.777546   1.096522   3.488534   2.587912
     9  C    3.142392   2.579124   3.813486   1.531842   3.508967
    10  H    3.000042   2.185567   3.047273   1.094280   2.475573
    11  H    2.848464   4.250546   2.203107   5.262601   4.391721
    12  H    2.803890   4.270849   2.176468   4.881748   4.782903
    13  H    3.401551   2.819837   4.409782   2.182071   3.821583
    14  H    2.930336   2.924156   3.359774   2.190091   3.895696
    15  O    3.779814   4.979611   2.406762   5.482299   5.118095
    16  H    4.114155   5.207259   2.733319   5.826719   5.142244
    17  O    2.438494   3.047246   1.432696   2.964613   3.456877
    18  H    3.235384   3.984690   1.936181   3.913995   4.294459
    19  O    1.439384   2.402602   2.425970   3.825641   2.648965
    20  H    1.932826   2.356703   3.233228   3.821377   2.649240
    21  O    2.402478   1.450155   3.796391   2.424356   2.026334
    22  H    3.225871   1.934813   4.488362   2.402579   2.289412
    23  O    3.827037   2.397077   4.538696   1.448426   2.645469
    24  H    4.518637   3.216302   5.117680   1.933135   3.558475
    25  O    4.502031   3.795791   4.953138   2.400176   4.557218
    26  H    5.012621   4.507383   5.470641   3.236460   5.366468
                    6          7          8          9         10
     6  H    0.000000
     7  C    2.817064   0.000000
     8  H    3.079932   2.150406   0.000000
     9  C    2.822495   4.999394   4.430317   0.000000
    10  H    3.395351   4.524761   3.150014   2.170194   0.000000
    11  H    3.234990   1.094079   2.524973   5.712522   5.231727
    12  H    2.634436   1.094691   3.066731   4.876492   4.857773
    13  H    2.917887   5.494975   5.071649   1.094496   3.085216
    14  H    2.402942   4.322140   4.165465   1.092781   2.528903
    15  O    4.099680   1.433543   2.643703   5.857782   5.072975
    16  H    4.636165   1.951916   2.581352   6.414583   5.372625
    17  O    2.687542   2.401859   2.043682   3.287796   2.489898
    18  H    3.457403   2.344395   2.385614   4.178118   3.322393
    19  O    2.038223   2.874295   2.748635   4.415531   4.275376
    20  H    2.341383   3.822453   3.527072   4.381533   4.477133
    21  O    2.661787   4.934380   4.068732   3.041397   3.376072
    22  H    3.498487   5.752578   4.653417   3.108613   3.377007
    23  O    4.130258   6.020357   4.612988   2.400218   2.042086
    24  H    4.677124   6.579387   5.263338   2.383311   2.307214
    25  O    4.221923   6.161167   5.473101   1.433539   2.664126
    26  H    4.537391   6.522702   6.117713   1.948484   3.525371
                   11         12         13         14         15
    11  H    0.000000
    12  H    1.782497   0.000000
    13  H    6.077728   5.282308   0.000000
    14  H    5.133738   4.046963   1.787126   0.000000
    15  O    2.066328   2.039718   6.523827   5.125630   0.000000
    16  H    2.180562   2.812049   7.085332   5.794546   0.974360
    17  O    3.374355   2.677650   4.139537   2.689463   2.737036
    18  H    3.383577   2.637522   5.049949   3.479288   2.151572
    19  O    2.602862   3.226758   4.443293   4.272603   4.211650
    20  H    3.566829   4.070253   4.197685   4.430116   5.173229
    21  O    5.071646   5.124860   2.728108   3.574329   6.152158
    22  H    5.947548   5.976137   2.772610   3.887849   6.887995
    23  O    6.522302   6.291178   2.690615   3.368920   6.832121
    24  H    7.189526   6.766380   2.752243   3.391706   7.303921
    25  O    6.967775   6.034263   2.043517   2.061751   6.825167
    26  H    7.363218   6.237786   2.295990   2.242378   7.184564
                   16         17         18         19         20
    16  H    0.000000
    17  O    3.277645   0.000000
    18  H    2.755201   0.980963   0.000000
    19  O    4.351704   3.686148   4.324777   0.000000
    20  H    5.322262   4.356111   5.100101   0.981795   0.000000
    21  O    6.393289   4.369018   5.313114   2.684476   2.083752
    22  H    7.104779   4.883754   5.850487   3.612410   3.011432
    23  O    7.085049   4.349110   5.267252   4.780800   4.546671
    24  H    7.626169   4.671361   5.541831   5.598156   5.398831
    25  O    7.392694   4.130856   4.896967   5.811909   5.774905
    26  H    7.843770   4.589865   5.281403   6.311930   6.277233
                   21         22         23         24         25
    21  O    0.000000
    22  H    0.982190   0.000000
    23  O    2.701824   2.122549   0.000000
    24  H    3.534280   2.950086   0.981155   0.000000
    25  O    4.247481   4.058873   2.711604   2.141593   0.000000
    26  H    4.853816   4.738498   3.622713   3.049300   0.973913
                   26
    26  H    0.000000
 Stoichiometry    C6H14O6
 Framework group  C1[X(C6H14O6)]
 Deg. of freedom    72
 Full point group                 C1      NOp   1
 Largest Abelian subgroup         C1      NOp   1
 Largest concise Abelian subgroup C1      NOp   1
                         Standard orientation:                         
 ---------------------------------------------------------------------
 Center     Atomic      Atomic             Coordinates (Angstroms)
 Number     Number       Type             X           Y           Z
 ---------------------------------------------------------------------
      1          6           0       -0.654734    0.827586   -0.349094
      2          6           0        0.674670    0.996044    0.409184
      3          6           0       -1.627142   -0.151354    0.317931
      4          6           0        1.585073   -0.235082    0.518099
      5          1           0        0.475356    1.388106    1.414487
      6          1           0       -0.449576    0.515699   -1.379814
      7          6           0       -2.992073   -0.173942   -0.381836
      8          1           0       -1.779369    0.118657    1.369730
      9          6           0        1.936697   -0.885297   -0.823587
     10          1           0        1.168518   -0.979098    1.203935
     11          1           0       -3.502987    0.792918   -0.347828
     12          1           0       -2.885915   -0.485493   -1.425873
     13          1           0        2.385741   -0.161042   -1.510417
     14          1           0        1.066151   -1.347007   -1.295968
     15          8           0       -3.813143   -1.156746    0.262357
     16          1           0       -4.196136   -0.730184    1.050226
     17          8           0       -1.095702   -1.481693    0.298229
     18          1           0       -1.871279   -2.069197    0.423158
     19          8           0       -1.269311    2.126191   -0.437102
     20          1           0       -0.524872    2.734562   -0.636141
     21          8           0        1.408117    2.055543   -0.255996
     22          1           0        2.289324    2.036552    0.177376
     23          8           0        2.825810    0.210891    1.117778
     24          1           0        3.427909   -0.555708    1.006121
     25          8           0        2.918765   -1.900932   -0.580562
     26          1           0        3.065902   -2.352529   -1.430807
 ---------------------------------------------------------------------
 Rotational constants (GHZ):           1.3225513           0.5336443           0.4235649
 Standard basis: def2TZVPP (5D, 7F)
 There are   642 symmetry adapted cartesian basis functions of A   symmetry.
 There are   568 symmetry adapted basis functions of A   symmetry.
   568 basis functions,   850 primitive gaussians,   642 cartesian basis functions
    49 alpha electrons       49 beta electrons
       nuclear repulsion energy       817.8441640423 Hartrees.
 NAtoms=   26 NActive=   26 NUniq=   26 SFac= 1.00D+00 NAtFMM=   60 NAOKFM=F Big=F
 Integral buffers will be    131072 words long.
 Raffenetti 2 integral format.
 Two-electron integral symmetry is turned on.
 Nuclear repulsion after empirical dispersion term =      817.8263180986 Hartrees.
 One-electron integrals computed using PRISM.
   1 Symmetry operations used in ECPInt.
 ECPInt:  NShTT=   23436 NPrTT=   62434 LenC2=   21702 LenP2D=   44909.
 LDataN:  DoStor=T MaxTD1= 6 Len=  172
 NBasis=   568 RedAO= T EigKep=  5.71D-05  NBF=   568
 NBsUse=   568 1.00D-06 EigRej= -1.00D+00 NBFU=   568
 ExpMin= 9.52D-02 ExpMax= 2.70D+04 ExpMxC= 9.22D+02 IAcc=3 IRadAn=         5 AccDes= 0.00D+00
 Harris functional with IExCor= 4639 and IRadAn=       5 diagonalized for initial guess.
 HarFok:  IExCor= 4639 AccDes= 0.00D+00 IRadAn=         5 IDoV= 1 UseB2=F ITyADJ=14
 ICtDFT=  3500011 ScaDFX=  1.000000  1.000000  1.000000  1.000000
 FoFCou: FMM=F IPFlag=           0 FMFlag=      100000 FMFlg1=           0
         NFxFlg=           0 DoJE=T BraDBF=F KetDBF=T FulRan=T
         wScrn=  0.000000 ICntrl=       500 IOpCl=  0 I1Cent=   200000004 NGrid=           0
         NMat0=    1 NMatS0=      1 NMatT0=    0 NMatD0=    1 NMtDS0=    0 NMtDT0=    0
 Petite list used in FoFCou.
 Requested convergence on RMS density matrix=1.00D-08 within 128 cycles.
 Requested convergence on MAX density matrix=1.00D-06.
 Requested convergence on             energy=1.00D-06.
 No special actions if energy rises.
 Integral accuracy reduced to 1.0D-05 until final iterations.
 Initial convergence to 1.0D-05 achieved.  Increase integral accuracy.
 SCF Done:  E(RwB97XD) =  -688.468447073     A.U. after   14 cycles
            NFock= 14  Conv=0.23D-08     -V/T= 2.0050

 **********************************************************************

            Population analysis using the SCF Density.

 **********************************************************************

 Orbital symmetries:
       Occupied  (A) (A) (A) (A) (A) (A) (A) (A) (A) (A) (A) (A)
                 (A) (A) (A) (A) (A) (A) (A) (A) (A) (A) (A) (A)
                 (A) (A) (A) (A) (A) (A) (A) (A) (A) (A) (A) (A)
                 (A) (A) (A) (A) (A) (A) (A) (A) (A) (A) (A) (A)
                 (A)
       Virtual   (A) (A) (A) (A) (A) (A) (A) (A) (A) (A) (A) (A)
                 (A) (A) (A) (A) (A) (A) (A) (A) (A) (A) (A) (A)
                 (A) (A) (A) (A) (A) (A) (A) (A) (A) (A) (A) (A)
                 (A) (A) (A) (A) (A) (A) (A) (A) (A) (A) (A) (A)
                 (A) (A) (A) (A) (A) (A) (A) (A) (A) (A) (A) (A)
                 (A) (A) (A) (A) (A) (A) (A) (A) (A) (A) (A) (A)
                 (A) (A) (A) (A) (A) (A) (A) (A) (A) (A) (A) (A)
                 (A) (A) (A) (A) (A) (A) (A) (A) (A) (A) (A) (A)
                 (A) (A) (A) (A) (A) (A) (A) (A) (A) (A) (A) (A)
                 (A) (A) (A) (A) (A) (A) (A) (A) (A) (A) (A) (A)
                 (A) (A) (A) (A) (A) (A) (A) (A) (A) (A) (A) (A)
                 (A) (A) (A) (A) (A) (A) (A) (A) (A) (A) (A) (A)
                 (A) (A) (A) (A) (A) (A) (A) (A) (A) (A) (A) (A)
                 (A) (A) (A) (A) (A) (A) (A) (A) (A) (A) (A) (A)
                 (A) (A) (A) (A) (A) (A) (A) (A) (A) (A) (A) (A)
                 (A) (A) (A) (A) (A) (A) (A) (A) (A) (A) (A) (A)
                 (A) (A) (A) (A) (A) (A) (A) (A) (A) (A) (A) (A)
                 (A) (A) (A) (A) (A) (A) (A) (A) (A) (A) (A) (A)
                 (A) (A) (A) (A) (A) (A) (A) (A) (A) (A) (A) (A)
                 (A) (A) (A) (A) (A) (A) (A) (A) (A) (A) (A) (A)
                 (A) (A) (A) (A) (A) (A) (A) (A) (A) (A) (A) (A)
                 (A) (A) (A) (A) (A) (A) (A) (A) (A) (A) (A) (A)
                 (A) (A) (A) (A) (A) (A) (A) (A) (A) (A) (A) (A)
                 (A) (A) (A) (A) (A) (A) (A) (A) (A) (A) (A) (A)
                 (A) (A) (A) (A) (A) (A) (A) (A) (A) (A) (A) (A)
                 (A) (A) (A) (A) (A) (A) (A) (A) (A) (A) (A) (A)
                 (A) (A) (A) (A) (A) (A) (A) (A) (A) (A) (A) (A)
                 (A) (A) (A) (A) (A) (A) (A) (A) (A) (A) (A) (A)
                 (A) (A) (A) (A) (A) (A) (A) (A) (A) (A) (A) (A)
                 (A) (A) (A) (A) (A) (A) (A) (A) (A) (A) (A) (A)
                 (A) (A) (A) (A) (A) (A) (A) (A) (A) (A) (A) (A)
                 (A) (A) (A) (A) (A) (A) (A) (A) (A) (A) (A) (A)
                 (A) (A) (A) (A) (A) (A) (A) (A) (A) (A) (A) (A)
                 (A) (A) (A) (A) (A) (A) (A) (A) (A) (A) (A) (A)
                 (A) (A) (A) (A) (A) (A) (A) (A) (A) (A) (A) (A)
                 (A) (A) (A) (A) (A) (A) (A) (A) (A) (A) (A) (A)
                 (A) (A) (A) (A) (A) (A) (A) (A) (A) (A) (A) (A)
                 (A) (A) (A) (A) (A) (A) (A) (A) (A) (A) (A) (A)
                 (A) (A) (A) (A) (A) (A) (A) (A) (A) (A) (A) (A)
                 (A) (A) (A) (A) (A) (A) (A) (A) (A) (A) (A) (A)
                 (A) (A) (A) (A) (A) (A) (A) (A) (A) (A) (A) (A)
                 (A) (A) (A) (A) (A) (A) (A) (A) (A) (A) (A) (A)
                 (A) (A) (A) (A) (A) (A) (A) (A) (A) (A) (A) (A)
                 (A) (A) (A)
 The electronic state is 1-A.
 Alpha  occ. eigenvalues --  -19.26891 -19.26164 -19.25568 -19.25458 -19.25276
 Alpha  occ. eigenvalues --  -19.25084 -10.34865 -10.34690 -10.34575 -10.34097
 Alpha  occ. eigenvalues --  -10.33883 -10.33251  -1.15047  -1.14587  -1.13380
 Alpha  occ. eigenvalues --   -1.11872  -1.11426  -1.10016  -0.88527  -0.84971
 Alpha  occ. eigenvalues --   -0.79991  -0.75101  -0.70974  -0.67215  -0.63184
 Alpha  occ. eigenvalues --   -0.62831  -0.60647  -0.60315  -0.59026  -0.56681
 Alpha  occ. eigenvalues --   -0.56245  -0.55621  -0.53715  -0.52089  -0.50357
 Alpha  occ. eigenvalues --   -0.49669  -0.48936  -0.46152  -0.45421  -0.43943
 Alpha  occ. eigenvalues --   -0.43365  -0.43213  -0.42618  -0.38845  -0.37925
 Alpha  occ. eigenvalues --   -0.36900  -0.36826  -0.35850  -0.35778
 Alpha virt. eigenvalues --    0.09145   0.09616   0.11663   0.12702   0.13675
 Alpha virt. eigenvalues --    0.14569   0.15894   0.17432   0.18066   0.18676
 Alpha virt. eigenvalues --    0.19394   0.19979   0.20851   0.21475   0.21897
 Alpha virt. eigenvalues --    0.23147   0.23838   0.24885   0.25409   0.26345
 Alpha virt. eigenvalues --    0.27878   0.28378   0.31010   0.31644   0.33355
 Alpha virt. eigenvalues --    0.34798   0.35940   0.37306   0.38008   0.38301
 Alpha virt. eigenvalues --    0.38928   0.40227   0.41159   0.41489   0.42012
 Alpha virt. eigenvalues --    0.42343   0.42801   0.43502   0.44500   0.45222
 Alpha virt. eigenvalues --    0.45440   0.45769   0.46459   0.47725   0.47846
 Alpha virt. eigenvalues --    0.48852   0.49834   0.50807   0.51029   0.51530
 Alpha virt. eigenvalues --    0.52036   0.52999   0.53195   0.53617   0.54080
 Alpha virt. eigenvalues --    0.55025   0.56419   0.57323   0.58119   0.58584
 Alpha virt. eigenvalues --    0.59307   0.61601   0.62486   0.64072   0.64260
 Alpha virt. eigenvalues --    0.65177   0.66236   0.66650   0.67248   0.68968
 Alpha virt. eigenvalues --    0.69254   0.70045   0.71159   0.72269   0.73147
 Alpha virt. eigenvalues --    0.73675   0.74454   0.75144   0.77776   0.80401
 Alpha virt. eigenvalues --    0.81577   0.82932   0.83568   0.84686   0.85827
 Alpha virt. eigenvalues --    0.86731   0.88399   0.89165   0.89954   0.92364
 Alpha virt. eigenvalues --    0.92631   0.93243   0.93935   0.95101   0.95509
 Alpha virt. eigenvalues --    0.96392   0.97125   0.97957   0.99581   1.00743
 Alpha virt. eigenvalues --    1.03222   1.03376   1.04979   1.06154   1.07130
 Alpha virt. eigenvalues --    1.07564   1.08424   1.10075   1.10927   1.12144
 Alpha virt. eigenvalues --    1.12613   1.14565   1.14898   1.16235   1.18049
 Alpha virt. eigenvalues --    1.19167   1.19701   1.20608   1.22280   1.23498
 Alpha virt. eigenvalues --    1.24572   1.26701   1.26998   1.28034   1.30645
 Alpha virt. eigenvalues --    1.30767   1.31722   1.32551   1.33071   1.34401
 Alpha virt. eigenvalues --    1.35887   1.36684   1.36985   1.37567   1.38738
 Alpha virt. eigenvalues --    1.40274   1.42432   1.44238   1.44583   1.46301
 Alpha virt. eigenvalues --    1.49037   1.49724   1.50241   1.50983   1.51934
 Alpha virt. eigenvalues --    1.52415   1.54226   1.55575   1.57160   1.57424
 Alpha virt. eigenvalues --    1.58585   1.59952   1.60568   1.62322   1.62967
 Alpha virt. eigenvalues --    1.65757   1.67415   1.70146   1.72711   1.73239
 Alpha virt. eigenvalues --    1.74429   1.75452   1.79072   1.80923   1.85293
 Alpha virt. eigenvalues --    1.86531   1.87859   1.89631   1.92020   1.92969
 Alpha virt. eigenvalues --    1.94030   1.94927   1.96009   1.96195   1.99097
 Alpha virt. eigenvalues --    2.01152   2.01818   2.02996   2.03881   2.05321
 Alpha virt. eigenvalues --    2.05871   2.07402   2.07870   2.09372   2.10206
 Alpha virt. eigenvalues --    2.11143   2.11243   2.11874   2.13604   2.14834
 Alpha virt. eigenvalues --    2.16939   2.18901   2.20332   2.21343   2.22819
 Alpha virt. eigenvalues --    2.24862   2.27621   2.28551   2.30271   2.31533
 Alpha virt. eigenvalues --    2.33376   2.34058   2.38115   2.39277   2.41047
 Alpha virt. eigenvalues --    2.42613   2.45150   2.46559   2.48421   2.50671
 Alpha virt. eigenvalues --    2.52515   2.56167   2.58440   2.61107   2.64027
 Alpha virt. eigenvalues --    2.65025   2.67520   2.69817   2.70183   2.72360
 Alpha virt. eigenvalues --    2.73153   2.74228   2.74887   2.77031   2.79046
 Alpha virt. eigenvalues --    2.79615   2.80750   2.81477   2.83310   2.85263
 Alpha virt. eigenvalues --    2.85808   2.86853   2.88038   2.88883   2.90560
 Alpha virt. eigenvalues --    2.92537   2.93889   2.95955   2.96713   2.97937
 Alpha virt. eigenvalues --    2.99260   3.00556   3.01646   3.02070   3.03119
 Alpha virt. eigenvalues --    3.05047   3.05170   3.06814   3.08115   3.09986
 Alpha virt. eigenvalues --    3.12952   3.13338   3.14455   3.15644   3.16560
 Alpha virt. eigenvalues --    3.17305   3.18472   3.18841   3.20871   3.21516
 Alpha virt. eigenvalues --    3.22572   3.23408   3.24807   3.25706   3.26291
 Alpha virt. eigenvalues --    3.28570   3.29317   3.31274   3.32113   3.32650
 Alpha virt. eigenvalues --    3.33318   3.33738   3.34322   3.36758   3.37433
 Alpha virt. eigenvalues --    3.37661   3.38266   3.38761   3.40800   3.42603
 Alpha virt. eigenvalues --    3.43509   3.43961   3.45530   3.46184   3.46994
 Alpha virt. eigenvalues --    3.47393   3.48859   3.49792   3.49952   3.52444
 Alpha virt. eigenvalues --    3.53844   3.54683   3.56558   3.57200   3.58659
 Alpha virt. eigenvalues --    3.59540   3.61978   3.62529   3.63626   3.64957
 Alpha virt. eigenvalues --    3.67833   3.68364   3.70397   3.71455   3.72596
 Alpha virt. eigenvalues --    3.73653   3.74979   3.75999   3.76719   3.78263
 Alpha virt. eigenvalues --    3.79365   3.80967   3.81833   3.82369   3.83513
 Alpha virt. eigenvalues --    3.85510   3.86797   3.87713   3.88658   3.89224
 Alpha virt. eigenvalues --    3.90938   3.92204   3.93329   3.95210   3.96533
 Alpha virt. eigenvalues --    3.97100   3.98015   3.99880   4.00460   4.00971
 Alpha virt. eigenvalues --    4.01679   4.03502   4.03869   4.04815   4.05821
 Alpha virt. eigenvalues --    4.07580   4.08198   4.08754   4.10416   4.10934
 Alpha virt. eigenvalues --    4.11582   4.12764   4.15166   4.15472   4.17025
 Alpha virt. eigenvalues --    4.17620   4.18885   4.20380   4.20796   4.21804
 Alpha virt. eigenvalues --    4.22657   4.24030   4.24568   4.25202   4.25839
 Alpha virt. eigenvalues --    4.27440   4.29236   4.30946   4.32033   4.33874
 Alpha virt. eigenvalues --    4.34966   4.35113   4.37474   4.38472   4.41398
 Alpha virt. eigenvalues --    4.42416   4.43020   4.44272   4.46039   4.47045
 Alpha virt. eigenvalues --    4.47382   4.50144   4.52509   4.53788   4.56030
 Alpha virt. eigenvalues --    4.57968   4.58420   4.60569   4.61869   4.62918
 Alpha virt. eigenvalues --    4.63276   4.66162   4.69231   4.70099   4.72239
 Alpha virt. eigenvalues --    4.74230   4.75100   4.77249   4.77884   4.79380
 Alpha virt. eigenvalues --    4.80579   4.82576   4.84021   4.85053   4.88638
 Alpha virt. eigenvalues --    4.89037   4.92061   4.94953   4.95616   4.97612
 Alpha virt. eigenvalues --    4.97834   4.98327   4.99832   5.02316   5.03646
 Alpha virt. eigenvalues --    5.04408   5.04931   5.08008   5.09021   5.11299
 Alpha virt. eigenvalues --    5.12127   5.14172   5.18039   5.19938   5.20733
 Alpha virt. eigenvalues --    5.22266   5.24105   5.26893   5.27288   5.28107
 Alpha virt. eigenvalues --    5.30815   5.31748   5.39563   5.42693   5.44885
 Alpha virt. eigenvalues --    5.48569   5.51051   5.54918   5.58467   5.59566
 Alpha virt. eigenvalues --    5.61592   5.63038   5.63370   5.64416   5.66194
 Alpha virt. eigenvalues --    5.67420   5.69277   5.71406   5.74253   5.74696
 Alpha virt. eigenvalues --    5.78096   5.79711   5.82699   5.84682   5.85636
 Alpha virt. eigenvalues --    5.86458   5.88011   5.91643   5.94112   5.95701
 Alpha virt. eigenvalues --    5.97744   5.98640   6.02986   6.12025   6.12631
 Alpha virt. eigenvalues --    6.14227   6.17948   6.19428   6.22725   6.52396
 Alpha virt. eigenvalues --    6.54273   6.54901   6.55863   6.56603   6.56744
 Alpha virt. eigenvalues --    6.71232   6.72950   6.73949   6.73993   6.74724
 Alpha virt. eigenvalues --    6.76118   6.77303   6.78592   6.78737   6.79779
 Alpha virt. eigenvalues --    6.80039   6.81431   6.82037   6.82876   6.86883
 Alpha virt. eigenvalues --    6.89894   6.91247   6.92539   6.96650   6.99002
 Alpha virt. eigenvalues --    6.99692   7.04854   7.05763   7.08595   7.13800
 Alpha virt. eigenvalues --    7.16643   7.21116   7.22143   7.23402   7.24933
 Alpha virt. eigenvalues --    7.40454   7.41114   7.41526   7.42644   7.43690
 Alpha virt. eigenvalues --    7.47180   7.50129   7.52122   7.55509   7.57348
 Alpha virt. eigenvalues --    7.59841   7.61520  23.09912  23.14588  23.20931
 Alpha virt. eigenvalues --   23.24603  23.39508  23.44761  44.08281  44.13358
 Alpha virt. eigenvalues --   44.24574  44.25521  44.28842  44.34994
          Condensed to atoms (all electrons):
               1          2          3          4          5          6
     1  C    5.135839   0.143890   0.105846  -0.000424  -0.049891   0.395228
     2  C    0.143890   5.108081   0.049470   0.148378   0.433490  -0.014628
     3  C    0.105846   0.049470   5.027977  -0.004541  -0.000687  -0.027730
     4  C   -0.000424   0.148378  -0.004541   5.014010  -0.030931  -0.004743
     5  H   -0.049891   0.433490  -0.000687  -0.030931   0.566920   0.007232
     6  H    0.395228  -0.014628  -0.027730  -0.004743   0.007232   0.603727
     7  C    0.003402  -0.010708   0.296761   0.002742  -0.000958  -0.017873
     8  H   -0.044871  -0.010274   0.397762   0.001990   0.006368   0.008784
     9  C    0.024704   0.003177  -0.009831   0.249762   0.007464   0.001038
    10  H   -0.019557  -0.001027   0.005350   0.399147  -0.003512   0.000618
    11  H    0.001238  -0.000122  -0.062819   0.000086   0.000057   0.001842
    12  H   -0.001762  -0.000319  -0.034097  -0.000051   0.000041   0.005828
    13  H   -0.018693   0.029036   0.002914  -0.053425   0.000732   0.003214
    14  H    0.021472  -0.030267  -0.009794  -0.014500  -0.000634  -0.002085
    15  O    0.009931  -0.000177  -0.044121  -0.000132  -0.000027   0.000093
    16  H    0.000266   0.000021   0.006814  -0.000021  -0.000005   0.000054
    17  O   -0.045208  -0.007717   0.268219  -0.008839   0.000505   0.004788
    18  H    0.007606   0.002347  -0.035342  -0.002459  -0.000142   0.000019
    19  O    0.283329  -0.027729  -0.053148   0.009817   0.006898  -0.040201
    20  H   -0.044843  -0.005463   0.008216   0.002114  -0.000939  -0.003505
    21  O   -0.034821   0.236567   0.002981  -0.030106  -0.037124   0.002980
    22  H    0.010543  -0.047226  -0.000734  -0.003062  -0.005733  -0.000387
    23  O    0.008606  -0.071384  -0.000875   0.256112   0.001628  -0.000125
    24  H   -0.001034   0.004633  -0.000017  -0.036568  -0.000347   0.000017
    25  O   -0.001193   0.004979   0.000358  -0.068380  -0.000054   0.000169
    26  H    0.000142  -0.001461   0.000000   0.010752   0.000036   0.000010
               7          8          9         10         11         12
     1  C    0.003402  -0.044871   0.024704  -0.019557   0.001238  -0.001762
     2  C   -0.010708  -0.010274   0.003177  -0.001027  -0.000122  -0.000319
     3  C    0.296761   0.397762  -0.009831   0.005350  -0.062819  -0.034097
     4  C    0.002742   0.001990   0.249762   0.399147   0.000086  -0.000051
     5  H   -0.000958   0.006368   0.007464  -0.003512   0.000057   0.000041
     6  H   -0.017873   0.008784   0.001038   0.000618   0.001842   0.005828
     7  C    4.727262  -0.028356  -0.000598  -0.000557   0.452822   0.388714
     8  H   -0.028356   0.653470  -0.000969  -0.001657   0.000876   0.008146
     9  C   -0.000598  -0.000969   4.806458  -0.022927  -0.000029  -0.000275
    10  H   -0.000557  -0.001657  -0.022927   0.578333  -0.000056  -0.000038
    11  H    0.452822   0.000876  -0.000029  -0.000056   0.567459  -0.021319
    12  H    0.388714   0.008146  -0.000275  -0.000038  -0.021319   0.592749
    13  H   -0.000134   0.000053   0.415614   0.008587  -0.000001   0.000005
    14  H    0.000877   0.000865   0.409007  -0.006585   0.000050   0.000313
    15  O    0.237968  -0.000949  -0.000027  -0.000002  -0.037897  -0.030910
    16  H   -0.042147   0.004586  -0.000002   0.000006  -0.013759   0.009611
    17  O   -0.019666  -0.045193  -0.011888   0.015136   0.004431   0.001836
    18  H   -0.013616  -0.003697   0.000667   0.000380   0.001792  -0.001419
    19  O    0.000148   0.005920  -0.001067  -0.000184   0.008580   0.000117
    20  H    0.000495  -0.000581  -0.000213  -0.000044  -0.000244  -0.000227
    21  O    0.000051  -0.000108  -0.019067   0.003375  -0.000002  -0.000010
    22  H    0.000036  -0.000055   0.000103   0.001459   0.000001  -0.000002
    23  O    0.000002  -0.000044  -0.033434  -0.038466   0.000000   0.000000
    24  H   -0.000004   0.000004  -0.008705  -0.003662  -0.000000   0.000000
    25  O   -0.000012   0.000003   0.269105   0.005066   0.000000   0.000000
    26  H    0.000002   0.000000  -0.029682   0.000097   0.000000  -0.000000
              13         14         15         16         17         18
     1  C   -0.018693   0.021472   0.009931   0.000266  -0.045208   0.007606
     2  C    0.029036  -0.030267  -0.000177   0.000021  -0.007717   0.002347
     3  C    0.002914  -0.009794  -0.044121   0.006814   0.268219  -0.035342
     4  C   -0.053425  -0.014500  -0.000132  -0.000021  -0.008839  -0.002459
     5  H    0.000732  -0.000634  -0.000027  -0.000005   0.000505  -0.000142
     6  H    0.003214  -0.002085   0.000093   0.000054   0.004788   0.000019
     7  C   -0.000134   0.000877   0.237968  -0.042147  -0.019666  -0.013616
     8  H    0.000053   0.000865  -0.000949   0.004586  -0.045193  -0.003697
     9  C    0.415614   0.409007  -0.000027  -0.000002  -0.011888   0.000667
    10  H    0.008587  -0.006585  -0.000002   0.000006   0.015136   0.000380
    11  H   -0.000001   0.000050  -0.037897  -0.013759   0.004431   0.001792
    12  H    0.000005   0.000313  -0.030910   0.009611   0.001836  -0.001419
    13  H    0.587544  -0.037571   0.000000   0.000000   0.000560   0.000005
    14  H   -0.037571   0.614001  -0.000000  -0.000001   0.014207  -0.000621
    15  O    0.000000  -0.000000   7.904091   0.314205  -0.020787   0.033098
    16  H    0.000000  -0.000001   0.314205   0.533897  -0.000077  -0.002114
    17  O    0.000560   0.014207  -0.020787  -0.000077   7.893758   0.323275
    18  H    0.000005  -0.000621   0.033098  -0.002114   0.323275   0.493813
    19  O    0.000036   0.000074   0.000063  -0.000015   0.001792  -0.000183
    20  H    0.000003  -0.000068   0.000006  -0.000006  -0.000224   0.000040
    21  O    0.016443   0.001051   0.000001  -0.000000  -0.000050   0.000013
    22  H    0.000025   0.000244  -0.000000   0.000000  -0.000003  -0.000002
    23  O   -0.000936   0.006100  -0.000000   0.000000   0.000212  -0.000014
    24  H   -0.002161   0.001797  -0.000000  -0.000000  -0.000009  -0.000001
    25  O   -0.049847  -0.039485   0.000000   0.000000   0.000356   0.000006
    26  H   -0.003740  -0.006658  -0.000000  -0.000000   0.000003  -0.000001
              19         20         21         22         23         24
     1  C    0.283329  -0.044843  -0.034821   0.010543   0.008606  -0.001034
     2  C   -0.027729  -0.005463   0.236567  -0.047226  -0.071384   0.004633
     3  C   -0.053148   0.008216   0.002981  -0.000734  -0.000875  -0.000017
     4  C    0.009817   0.002114  -0.030106  -0.003062   0.256112  -0.036568
     5  H    0.006898  -0.000939  -0.037124  -0.005733   0.001628  -0.000347
     6  H   -0.040201  -0.003505   0.002980  -0.000387  -0.000125   0.000017
     7  C    0.000148   0.000495   0.000051   0.000036   0.000002  -0.000004
     8  H    0.005920  -0.000581  -0.000108  -0.000055  -0.000044   0.000004
     9  C   -0.001067  -0.000213  -0.019067   0.000103  -0.033434  -0.008705
    10  H   -0.000184  -0.000044   0.003375   0.001459  -0.038466  -0.003662
    11  H    0.008580  -0.000244  -0.000002   0.000001   0.000000  -0.000000
    12  H    0.000117  -0.000227  -0.000010  -0.000002   0.000000   0.000000
    13  H    0.000036   0.000003   0.016443   0.000025  -0.000936  -0.002161
    14  H    0.000074  -0.000068   0.001051   0.000244   0.006100   0.001797
    15  O    0.000063   0.000006   0.000001  -0.000000  -0.000000  -0.000000
    16  H   -0.000015  -0.000006  -0.000000   0.000000   0.000000  -0.000000
    17  O    0.001792  -0.000224  -0.000050  -0.000003   0.000212  -0.000009
    18  H   -0.000183   0.000040   0.000013  -0.000002  -0.000014  -0.000001
    19  O    7.871951   0.333218  -0.015335   0.000072  -0.000092   0.000016
    20  H    0.333218   0.475743   0.025064  -0.001416  -0.000021   0.000005
    21  O   -0.015335   0.025064   7.935822   0.329796  -0.013565   0.000103
    22  H    0.000072  -0.001416   0.329796   0.476568   0.031581  -0.001417
    23  O   -0.000092  -0.000021  -0.013565   0.031581   7.937685   0.330672
    24  H    0.000016   0.000005   0.000103  -0.001417   0.330672   0.481989
    25  O   -0.000000  -0.000000   0.000176  -0.000042  -0.010025   0.025825
    26  H   -0.000001  -0.000001   0.000075  -0.000002   0.000137  -0.001565
              25         26
     1  C   -0.001193   0.000142
     2  C    0.004979  -0.001461
     3  C    0.000358   0.000000
     4  C   -0.068380   0.010752
     5  H   -0.000054   0.000036
     6  H    0.000169   0.000010
     7  C   -0.000012   0.000002
     8  H    0.000003   0.000000
     9  C    0.269105  -0.029682
    10  H    0.005066   0.000097
    11  H    0.000000   0.000000
    12  H    0.000000  -0.000000
    13  H   -0.049847  -0.003740
    14  H   -0.039485  -0.006658
    15  O    0.000000  -0.000000
    16  H    0.000000  -0.000000
    17  O    0.000356   0.000003
    18  H    0.000006  -0.000001
    19  O   -0.000000  -0.000001
    20  H   -0.000000  -0.000001
    21  O    0.000176   0.000075
    22  H   -0.000042  -0.000002
    23  O   -0.010025   0.000137
    24  H    0.025825  -0.001565
    25  O    7.896943   0.326717
    26  H    0.326717   0.524611
 Mulliken charges:
               1
     1  C    0.110258
     2  C    0.064434
     3  C    0.111066
     4  C    0.163270
     5  H    0.099611
     6  H    0.075637
     7  C    0.023350
     8  H    0.047927
     9  C   -0.048389
    10  H    0.080721
    11  H    0.097014
    12  H    0.083068
    13  H    0.101737
    14  H    0.078210
    15  O   -0.364429
    16  H    0.188686
    17  O   -0.369416
    18  H    0.196550
    19  O   -0.384076
    20  H    0.212891
    21  O   -0.404311
    22  H    0.209655
    23  O   -0.403757
    24  H    0.210428
    25  O   -0.360666
    26  H    0.180528
 Sum of Mulliken charges =  -0.00000
 Mulliken charges with hydrogens summed into heavy atoms:
               1
     1  C    0.185895
     2  C    0.164045
     3  C    0.158993
     4  C    0.243992
     7  C    0.203432
     9  C    0.131558
    15  O   -0.175743
    17  O   -0.172866
    19  O   -0.171184
    21  O   -0.194657
    23  O   -0.193328
    25  O   -0.180137
 Electronic spatial extent (au):  <R**2>=           2633.7607
 Charge=             -0.0000 electrons
 Dipole moment (field-independent basis, Debye):
    X=             -0.4233    Y=             -0.9407    Z=             -0.5181  Tot=              1.1544
 Quadrupole moment (field-independent basis, Debye-Ang):
   XX=            -68.6550   YY=            -75.4675   ZZ=            -67.5758
   XY=             -3.0928   XZ=             -9.3017   YZ=              3.3523
 Traceless Quadrupole moment (field-independent basis, Debye-Ang):
   XX=              1.9111   YY=             -4.9014   ZZ=              2.9903
   XY=             -3.0928   XZ=             -9.3017   YZ=              3.3523
 Octapole moment (field-independent basis, Debye-Ang**2):
  XXX=              1.3098  YYY=             -7.8367  ZZZ=             -5.1468  XYY=             17.6802
  XXY=              0.9500  XXZ=              9.3095  XZZ=             -2.1551  YZZ=            -12.0204
  YYZ=             -6.3346  XYZ=             11.1674
 Hexadecapole moment (field-independent basis, Debye-Ang**3):
 XXXX=          -2013.7947 YYYY=           -731.0549 ZZZZ=           -244.9188 XXXY=            -79.0636
 XXXZ=           -130.9120 YYYX=              7.0236 YYYZ=             16.5395 ZZZX=            -36.7327
 ZZZY=             10.0755 XXYY=           -494.9102 XXZZ=           -336.7751 YYZZ=           -149.6784
 XXYZ=             13.2941 YYXZ=            -27.5244 ZZXY=            -21.9578
 N-N= 8.178263180986D+02 E-N=-3.253152168738D+03  KE= 6.850150297966D+02
   1 Symmetry operations used in ECPInt.
 ECPInt:  NShTT=   23436 NPrTT=   62434 LenC2=   21702 LenP2D=   44909.
 LDataN:  DoStor=T MaxTD1= 7 Len=  274
 Calling FoFJK, ICntrl=      2127 FMM=F ISym2X=0 I1Cent= 0 IOpClX= 0 NMat=1 NMatS=1 NMatT=0.
 ***** Axes restored to original set *****
 -------------------------------------------------------------------
 Center     Atomic                   Forces (Hartrees/Bohr)
 Number     Number              X              Y              Z
 -------------------------------------------------------------------
      1        6           0.006245633    0.001911283   -0.012685028
      2        6           0.010734918   -0.006974373   -0.011267837
      3        6          -0.006174210   -0.004545363    0.004632126
      4        6           0.013483654   -0.007322004    0.002846015
      5        1          -0.004608927    0.000261859    0.008267511
      6        1           0.001570108   -0.001088802    0.007040517
      7        6          -0.000532050    0.007973650    0.003567193
      8        1           0.000392408    0.001593201   -0.006338659
      9        6          -0.000283342   -0.005214632    0.003881237
     10        1          -0.008369334   -0.001951046   -0.002902500
     11        1           0.004839985   -0.004602051   -0.001397270
     12        1           0.002633040    0.002230553    0.000594415
     13        1          -0.002977531    0.006740183   -0.003388168
     14        1          -0.000444913    0.005601877   -0.002099903
     15        8           0.002490725    0.012808678   -0.005972468
     16        1          -0.002278264   -0.017224816    0.004308477
     17        8          -0.013749325    0.005566144   -0.001099734
     18        1           0.013114762   -0.004647905   -0.012453156
     19        8           0.014863550   -0.007900293    0.003155646
     20        1          -0.012559723    0.007701696    0.012955866
     21        8           0.010410884    0.000022454    0.015660037
     22        1          -0.019126775    0.000262029   -0.004148100
     23        8          -0.006020838   -0.010537449    0.011195114
     24        1          -0.004616499    0.012581588   -0.015014111
     25        8          -0.008664463   -0.010084302    0.001217492
     26        1           0.009626525    0.016837837   -0.000554713
 -------------------------------------------------------------------
 Cartesian Forces:  Max     0.019126775 RMS     0.008093482

 GradGradGradGradGradGradGradGradGradGradGradGradGradGradGradGradGradGrad
 Berny optimization.
 FormGI is forming the generalized inverse of G from B-inverse, IUseBI=4.
 Internal  Forces:  Max     0.019747621 RMS     0.006033411
 Search for a local minimum.
 Step number   1 out of a maximum of  140
 All quantities printed in internal units (Hartrees-Bohrs-Radians)
 Mixed Optimization -- RFO/linear search
 Second derivative matrix not updated -- first step.
 ITU=  0
     Eigenvalues ---    0.00241   0.00302   0.00316   0.00335   0.00345
     Eigenvalues ---    0.01028   0.01051   0.01171   0.01248   0.01248
     Eigenvalues ---    0.01259   0.03556   0.03827   0.03969   0.04233
     Eigenvalues ---    0.04633   0.04770   0.04785   0.04949   0.05146
     Eigenvalues ---    0.05273   0.05543   0.05562   0.07404   0.07670
     Eigenvalues ---    0.07864   0.08152   0.11367   0.11408   0.13617
     Eigenvalues ---    0.13653   0.16000   0.16000   0.16000   0.16000
     Eigenvalues ---    0.16000   0.16000   0.16683   0.16834   0.16914
     Eigenvalues ---    0.17623   0.19246   0.19588   0.19601   0.19775
     Eigenvalues ---    0.21998   0.22015   0.28546   0.28962   0.29055
     Eigenvalues ---    0.29186   0.29254   0.33982   0.34070   0.34101
     Eigenvalues ---    0.34276   0.34298   0.34323   0.34346   0.34493
     Eigenvalues ---    0.38225   0.38452   0.39670   0.40484   0.40485
     Eigenvalues ---    0.40604   0.50962   0.51038   0.51161   0.51198
     Eigenvalues ---    0.52496   0.52585
 RFO step:  Lambda=-1.79769821D-02 EMin= 2.40792636D-03
 Linear search not attempted -- first point.
 Iteration  1 RMS(Cart)=  0.06273520 RMS(Int)=  0.00151640
 Iteration  2 RMS(Cart)=  0.00193144 RMS(Int)=  0.00048469
 Iteration  3 RMS(Cart)=  0.00000300 RMS(Int)=  0.00048468
 Iteration  4 RMS(Cart)=  0.00000000 RMS(Int)=  0.00048468
 Variable       Old X    -DE/DX   Delta X   Delta X   Delta X     New X
                                 (Linear)    (Quad)   (Total)
    R1        2.90961  -0.01085   0.00000  -0.03576  -0.03576   2.87385
    R2        2.89617  -0.01199   0.00000  -0.03870  -0.03870   2.85747
    R3        2.07160  -0.00004   0.00000  -0.00011  -0.00011   2.07149
    R4        2.72004  -0.01415   0.00000  -0.03413  -0.03413   2.68591
    R5        2.90082  -0.01070   0.00000  -0.03478  -0.03478   2.86604
    R6        2.07360  -0.00129   0.00000  -0.00361  -0.00361   2.06999
    R7        2.74040  -0.01280   0.00000  -0.03198  -0.03198   2.70841
    R8        2.89888  -0.00710   0.00000  -0.02303  -0.02303   2.87585
    R9        2.07213   0.00088   0.00000   0.00245   0.00245   2.07458
   R10        2.70740  -0.01189   0.00000  -0.02804  -0.02804   2.67936
   R11        2.89476  -0.01260   0.00000  -0.04057  -0.04057   2.85419
   R12        2.06789  -0.00267   0.00000  -0.00739  -0.00739   2.06050
   R13        2.73713  -0.00957   0.00000  -0.02377  -0.02377   2.71336
   R14        2.06751  -0.00289   0.00000  -0.00800  -0.00800   2.05951
   R15        2.06867  -0.00316   0.00000  -0.00876  -0.00876   2.05990
   R16        2.70900  -0.00329   0.00000  -0.00778  -0.00778   2.70122
   R17        2.06830  -0.00064   0.00000  -0.00177  -0.00177   2.06653
   R18        2.06506  -0.00074   0.00000  -0.00204  -0.00204   2.06302
   R19        2.70900  -0.00200   0.00000  -0.00473  -0.00473   2.70427
   R20        1.84127  -0.01770   0.00000  -0.03261  -0.03261   1.80867
   R21        1.85375  -0.01865   0.00000  -0.03520  -0.03520   1.81855
   R22        1.85532  -0.01955   0.00000  -0.03700  -0.03700   1.81832
   R23        1.85607  -0.01937   0.00000  -0.03672  -0.03672   1.81935
   R24        1.85411  -0.01975   0.00000  -0.03729  -0.03729   1.81683
   R25        1.84043  -0.01909   0.00000  -0.03510  -0.03510   1.80533
    A1        1.98599   0.00376   0.00000   0.00562   0.00561   1.99161
    A2        1.90985  -0.00211   0.00000  -0.00194  -0.00243   1.90741
    A3        1.87555   0.00325   0.00000   0.01514   0.01472   1.89027
    A4        1.92434  -0.00114   0.00000  -0.01648  -0.01610   1.90824
    A5        1.90920  -0.00842   0.00000  -0.05303  -0.05289   1.85631
    A6        1.85365   0.00484   0.00000   0.05496   0.05452   1.90817
    A7        2.04797   0.00294   0.00000  -0.00074  -0.00092   2.04705
    A8        1.91076  -0.00109   0.00000  -0.01741  -0.01726   1.89350
    A9        1.86578  -0.00654   0.00000  -0.03711  -0.03695   1.82883
   A10        1.90634  -0.00276   0.00000  -0.01616  -0.01682   1.88951
   A11        1.89499   0.00253   0.00000   0.01199   0.01165   1.90664
   A12        1.82457   0.00530   0.00000   0.06874   0.06872   1.89330
   A13        1.95565   0.00038   0.00000  -0.00802  -0.00801   1.94764
   A14        1.92652  -0.00097   0.00000  -0.01919  -0.01900   1.90753
   A15        1.93026  -0.00525   0.00000  -0.03405  -0.03390   1.89636
   A16        1.89406  -0.00059   0.00000   0.00300   0.00241   1.89647
   A17        1.88610   0.00339   0.00000   0.01827   0.01781   1.90391
   A18        1.86851   0.00332   0.00000   0.04367   0.04325   1.91176
   A19        1.99810   0.00105   0.00000  -0.00748  -0.00748   1.99063
   A20        1.94336   0.00035   0.00000  -0.01382  -0.01384   1.92952
   A21        1.86552  -0.00806   0.00000  -0.04459  -0.04424   1.82128
   A22        1.92594  -0.00324   0.00000  -0.02023  -0.02128   1.90465
   A23        1.87202   0.00598   0.00000   0.03442   0.03401   1.90603
   A24        1.85037   0.00433   0.00000   0.05894   0.05879   1.90915
   A25        1.96960  -0.00514   0.00000  -0.02737  -0.02820   1.94140
   A26        1.93153  -0.00180   0.00000  -0.02264  -0.02296   1.90857
   A27        1.89097   0.00390   0.00000   0.02092   0.02089   1.91186
   A28        1.90333   0.00135   0.00000  -0.00311  -0.00379   1.89954
   A29        1.90120   0.00427   0.00000   0.05102   0.05119   1.95239
   A30        1.86398  -0.00233   0.00000  -0.01687  -0.01664   1.84734
   A31        1.94221  -0.00319   0.00000  -0.03240  -0.03207   1.91014
   A32        1.95529  -0.00198   0.00000  -0.02986  -0.02985   1.92545
   A33        1.88546  -0.01206   0.00000  -0.04894  -0.04882   1.83664
   A34        1.91257   0.00104   0.00000   0.00861   0.00629   1.91886
   A35        1.86935   0.00936   0.00000   0.06468   0.06359   1.93294
   A36        1.89620   0.00746   0.00000   0.04354   0.04211   1.93831
   A37        1.86331   0.00473   0.00000   0.02658   0.02658   1.88989
   A38        1.83495  -0.00066   0.00000  -0.00368  -0.00368   1.83127
   A39        1.82109   0.00285   0.00000   0.01603   0.01603   1.83712
   A40        1.81033   0.00497   0.00000   0.02793   0.02793   1.83826
   A41        1.81109   0.00664   0.00000   0.03733   0.03733   1.84841
   A42        1.85878   0.00629   0.00000   0.03535   0.03535   1.89413
    D1        1.12275   0.00109   0.00000   0.00737   0.00738   1.13013
    D2       -1.06195   0.00351   0.00000   0.04561   0.04576  -1.01619
    D3       -3.02881   0.00120   0.00000  -0.00709  -0.00697  -3.03579
    D4       -1.03843   0.00149   0.00000   0.02639   0.02626  -1.01218
    D5        3.06006   0.00391   0.00000   0.06463   0.06463   3.12469
    D6        1.09319   0.00160   0.00000   0.01193   0.01190   1.10509
    D7       -3.04397  -0.00486   0.00000  -0.04540  -0.04552  -3.08949
    D8        1.05452  -0.00244   0.00000  -0.00716  -0.00715   1.04737
    D9       -0.91235  -0.00476   0.00000  -0.05986  -0.05988  -0.97222
   D10        3.03264  -0.00043   0.00000  -0.01555  -0.01551   3.01713
   D11        0.91954   0.00073   0.00000  -0.00056  -0.00039   0.91915
   D12       -1.14499   0.00051   0.00000  -0.02131  -0.02117  -1.16616
   D13       -1.09724  -0.00133   0.00000  -0.02670  -0.02696  -1.12420
   D14        3.07285  -0.00016   0.00000  -0.01171  -0.01184   3.06101
   D15        1.00832  -0.00039   0.00000  -0.03246  -0.03262   0.97570
   D16        0.93503  -0.00106   0.00000  -0.00073  -0.00075   0.93428
   D17       -1.17807   0.00010   0.00000   0.01425   0.01437  -1.16370
   D18        3.04059  -0.00013   0.00000  -0.00650  -0.00641   3.03418
   D19        0.71648  -0.00029   0.00000   0.00556   0.00606   0.72254
   D20        2.88043   0.00120   0.00000  -0.01061  -0.01008   2.87035
   D21       -1.32614  -0.00186   0.00000  -0.02712  -0.02816  -1.35430
   D22        0.95049  -0.00303   0.00000  -0.02244  -0.02268   0.92781
   D23       -1.24912   0.00025   0.00000   0.02304   0.02303  -1.22609
   D24        3.02071  -0.00045   0.00000  -0.01440  -0.01450   3.00621
   D25        3.13738  -0.00462   0.00000  -0.06124  -0.06122   3.07617
   D26        0.93778  -0.00134   0.00000  -0.01576  -0.01551   0.92227
   D27       -1.07558  -0.00204   0.00000  -0.05320  -0.05304  -1.12862
   D28       -1.16601   0.00153   0.00000   0.01773   0.01758  -1.14843
   D29        2.91757   0.00481   0.00000   0.06320   0.06328   2.98085
   D30        0.90421   0.00411   0.00000   0.02576   0.02576   0.92997
   D31       -3.00518  -0.00038   0.00000   0.02179   0.02137  -2.98381
   D32       -0.78023   0.00059   0.00000   0.00419   0.00365  -0.77658
   D33        1.25289   0.00125   0.00000   0.02579   0.02675   1.27963
   D34       -1.08283   0.00131   0.00000   0.00828   0.00787  -1.07496
   D35        1.05552  -0.00194   0.00000  -0.03212  -0.03193   1.02359
   D36        3.09365  -0.00347   0.00000  -0.05286  -0.05285   3.04080
   D37        1.04890  -0.00006   0.00000  -0.01904  -0.01940   1.02950
   D38       -3.09594  -0.00332   0.00000  -0.05943  -0.05920   3.12805
   D39       -1.05780  -0.00485   0.00000  -0.08018  -0.08012  -1.13792
   D40        3.06938   0.00534   0.00000   0.04363   0.04338   3.11276
   D41       -1.07546   0.00208   0.00000   0.00324   0.00358  -1.07188
   D42        0.96267   0.00056   0.00000  -0.01751  -0.01734   0.94533
   D43       -2.78820  -0.00098   0.00000  -0.01410  -0.01431  -2.80252
   D44       -0.64170  -0.00159   0.00000  -0.03355  -0.03403  -0.67573
   D45        1.39540   0.00117   0.00000   0.00192   0.00260   1.39801
   D46        0.96582  -0.00317   0.00000  -0.03373  -0.03393   0.93189
   D47       -1.18210  -0.00073   0.00000   0.00067   0.00052  -1.18158
   D48        3.01318  -0.00092   0.00000  -0.00328  -0.00356   3.00962
   D49       -3.10873  -0.00458   0.00000  -0.07552  -0.07526   3.09920
   D50        1.02654  -0.00215   0.00000  -0.04112  -0.04081   0.98573
   D51       -1.06137  -0.00234   0.00000  -0.04507  -0.04489  -1.10626
   D52       -1.10073   0.00219   0.00000   0.00296   0.00294  -1.09779
   D53        3.03454   0.00462   0.00000   0.03736   0.03738   3.07193
   D54        0.94663   0.00443   0.00000   0.03341   0.03330   0.97993
   D55       -2.95570   0.00043   0.00000   0.03414   0.03387  -2.92183
   D56       -0.80514   0.00047   0.00000   0.01931   0.01823  -0.78692
   D57        1.25270   0.00183   0.00000   0.04245   0.04379   1.29650
   D58        1.44247  -0.00036   0.00000  -0.00126  -0.00071   1.44176
   D59       -0.70618   0.00085   0.00000  -0.01243  -0.01305  -0.71923
   D60       -2.75951  -0.00170   0.00000  -0.02612  -0.02605  -2.78556
   D61        3.05399   0.00044   0.00000   0.01151   0.01168   3.06567
   D62       -1.13537  -0.00470   0.00000  -0.01763  -0.01971  -1.15508
   D63        0.92917   0.00563   0.00000   0.05115   0.05306   0.98223
         Item               Value     Threshold  Converged?
 Maximum Force            0.019748     0.000450     NO 
 RMS     Force            0.006033     0.000300     NO 
 Maximum Displacement     0.208370     0.001800     NO 
 RMS     Displacement     0.062774     0.001200     NO 
 Predicted change in Energy=-1.019237D-02
 GradGradGradGradGradGradGradGradGradGradGradGradGradGradGradGradGradGrad

                          Input orientation:                          
 ---------------------------------------------------------------------
 Center     Atomic      Atomic             Coordinates (Angstroms)
 Number     Number       Type             X           Y           Z
 ---------------------------------------------------------------------
      1          6           0        0.024934   -0.008993    0.019506
      2          6           0        1.545695   -0.015096    0.023048
      3          6           0       -0.592829    0.672809    1.219499
      4          6           0        2.235314   -0.796112    1.125155
      5          1           0        1.897146    1.021522    0.065403
      6          1           0       -0.341136   -1.040523   -0.040183
      7          6           0       -2.102367    0.801060    1.075185
      8          1           0       -0.163610    1.677546    1.326665
      9          6           0        1.776585   -2.230300    1.243038
     10          1           0        2.103961   -0.298791    2.086573
     11          1           0       -2.365918    1.409740    0.210426
     12          1           0       -2.539190   -0.190270    0.954079
     13          1           0        1.865549   -2.722051    0.270341
     14          1           0        0.741286   -2.270120    1.587103
     15          8           0       -2.655355    1.326172    2.284201
     16          1           0       -2.562997    2.278669    2.267728
     17          8           0       -0.301118   -0.093255    2.376380
     18          1           0       -0.949229    0.187998    3.029787
     19          8           0       -0.415899    0.713481   -1.122361
     20          1           0        0.166232    0.437369   -1.837022
     21          8           0        1.912178   -0.567429   -1.247688
     22          1           0        2.863066   -0.709899   -1.198507
     23          8           0        3.624364   -0.772754    0.762310
     24          1           0        4.054826   -1.422051    1.325735
     25          8           0        2.658829   -2.830017    2.196898
     26          1           0        2.367286   -3.725208    2.359103
 ---------------------------------------------------------------------
                    Distance matrix (angstroms):
                    1          2          3          4          5
     1  C    0.000000
     2  C    1.520778   0.000000
     3  C    1.512107   2.545190   0.000000
     4  C    2.593800   1.516641   3.188263   0.000000
     5  H    2.137579   1.095394   2.766498   2.131016   0.000000
     6  H    1.096186   2.148402   2.141414   2.838282   3.045174
     7  C    2.509194   3.883486   1.521835   4.622655   4.130904
     8  H    2.142108   2.736088   1.097820   3.451728   2.503570
     9  C    3.082129   2.539452   3.747362   1.510372   3.460593
    10  H    2.946031   2.156451   2.994745   1.090370   2.423041
    11  H    2.786652   4.167252   2.169134   5.184000   4.283160
    12  H    2.735145   4.193303   2.145617   4.815828   4.683936
    13  H    3.288079   2.736981   4.297627   2.139316   3.749312
    14  H    2.843099   2.859804   3.252049   2.149003   3.806113
    15  O    3.754391   4.955869   2.411325   5.455833   5.073572
    16  H    4.121321   5.213569   2.749388   5.812362   5.130647
    17  O    2.380811   2.992491   1.417858   2.914285   3.378714
    18  H    3.170109   3.912336   1.907670   3.838934   4.193350
    19  O    1.421325   2.385505   2.348886   3.789344   2.618367
    20  H    1.914655   2.359556   3.158152   3.817993   2.637521
    21  O    2.340795   1.433231   3.728305   2.405639   2.061359
    22  H    3.166989   1.926243   4.438676   2.408508   2.351231
    23  O    3.753796   2.332685   4.481449   1.435849   2.586192
    24  H    4.465759   3.157888   5.099061   1.934595   3.495007
    25  O    4.431322   3.726724   4.878358   2.337684   4.467414
    26  H    4.977005   4.460616   5.422502   3.181139   5.292782
                    6          7          8          9         10
     6  H    0.000000
     7  C    2.781620   0.000000
     8  H    3.047571   2.142487   0.000000
     9  C    2.747175   4.925809   4.363784   0.000000
    10  H    3.324418   4.463830   3.102458   2.132944   0.000000
    11  H    3.188469   1.089843   2.483520   5.610393   5.139925
    12  H    2.557914   1.090053   3.044821   4.782378   4.780499
    13  H    2.791670   5.366977   4.958806   1.093560   3.037717
    14  H    2.309027   4.216701   4.058415   1.091701   2.447957
    15  O    4.044702   1.429426   2.692421   5.777076   5.032956
    16  H    4.613042   1.953886   2.646509   6.341354   5.334475
    17  O    2.595899   2.395288   2.063140   3.188773   2.431181
    18  H    3.362106   2.350753   2.395115   4.058411   3.232428
    19  O    2.062336   2.771472   2.644012   4.366686   4.203765
    20  H    2.381221   3.709415   3.414052   4.381377   4.437491
    21  O    2.599867   4.835812   3.997012   2.997873   3.350559
    22  H    3.423147   5.666410   4.608379   3.074606   3.396616
    23  O    4.054736   5.947288   4.546561   2.402046   2.071217
    24  H    4.619067   6.551033   5.234760   2.418778   2.376229
    25  O    4.148085   6.091958   5.389025   1.431036   2.593676
    26  H    4.505514   6.489480   6.054842   1.956854   3.447310
                   11         12         13         14         15
    11  H    0.000000
    12  H    1.772872   0.000000
    13  H    5.914440   5.126318   0.000000
    14  H    5.009124   3.935482   1.789433   0.000000
    15  O    2.095543   2.020474   6.393928   4.995641   0.000000
    16  H    2.241957   2.796766   6.972000   5.663305   0.957106
    17  O    3.348694   2.653548   4.005048   2.539351   2.750582
    18  H    3.383557   2.641898   4.899582   3.313838   2.182247
    19  O    2.462453   3.104309   4.352873   4.193107   4.122526
    20  H    3.398431   3.937446   4.160600   4.402932   5.073046
    21  O    4.933295   4.980432   2.636092   3.508017   6.076374
    22  H    5.815517   5.838493   2.683526   3.833518   6.835774
    23  O    6.399323   6.193986   2.671184   3.351795   6.793858
    24  H    7.105555   6.718368   2.756228   3.430318   7.314227
    25  O    6.868020   5.960894   2.086282   2.088613   6.747005
    26  H    7.306690   6.208332   2.370863   2.314550   7.123831
                   16         17         18         19         20
    16  H    0.000000
    17  O    3.279318   0.000000
    18  H    2.748797   0.962337   0.000000
    19  O    4.307268   3.592379   4.219112   0.000000
    20  H    5.261944   4.272322   4.999227   0.962213   0.000000
    21  O    6.362831   4.272867   5.201453   2.660146   2.098871
    22  H    7.098485   4.813744   5.763531   3.575390   2.999473
    23  O    7.061226   4.298413   5.194444   4.699425   4.492171
    24  H    7.640568   4.673736   5.525995   5.526396   5.346180
    25  O    7.305557   4.035265   4.777049   5.746983   5.758590
    26  H    7.769336   4.506857   5.173227   6.290363   6.307071
                   21         22         23         24         25
    21  O    0.000000
    22  H    0.962759   0.000000
    23  O    2.648364   2.104360   0.000000
    24  H    3.455985   2.880843   0.961423   0.000000
    25  O    4.188313   4.008165   2.687496   2.165664   0.000000
    26  H    4.815354   4.689826   3.584268   3.036473   0.955340
                   26
    26  H    0.000000
 Stoichiometry    C6H14O6
 Framework group  C1[X(C6H14O6)]
 Deg. of freedom    72
 Full point group                 C1      NOp   1
 Largest Abelian subgroup         C1      NOp   1
 Largest concise Abelian subgroup C1      NOp   1
                         Standard orientation:                         
 ---------------------------------------------------------------------
 Center     Atomic      Atomic             Coordinates (Angstroms)
 Number     Number       Type             X           Y           Z
 ---------------------------------------------------------------------
      1          6           0       -0.633401    0.806643   -0.337541
      2          6           0        0.685421    0.978895    0.399889
      3          6           0       -1.596311   -0.146835    0.333391
      4          6           0        1.585938   -0.236728    0.507271
      5          1           0        0.472864    1.339099    1.412292
      6          1           0       -0.434708    0.462630   -1.359205
      7          6           0       -2.955306   -0.144469   -0.351523
      8          1           0       -1.730666    0.151089    1.381437
      9          6           0        1.890508   -0.896164   -0.816966
     10          1           0        1.153356   -0.975092    1.182992
     11          1           0       -3.419645    0.840352   -0.303833
     12          1           0       -2.833121   -0.425666   -1.397571
     13          1           0        2.284497   -0.150324   -1.512932
     14          1           0        0.988321   -1.351197   -1.230264
     15          8           0       -3.785221   -1.152982    0.229338
     16          1           0       -4.175888   -0.797378    1.027447
     17          8           0       -1.051684   -1.454764    0.278365
     18          1           0       -1.801191   -2.041490    0.420082
     19          8           0       -1.286618    2.068096   -0.384548
     20          1           0       -0.592134    2.705917   -0.576201
     21          8           0        1.372078    2.013663   -0.315590
     22          1           0        2.261839    2.029681    0.051795
     23          8           0        2.803832    0.271422    1.073116
     24          1           0        3.455477   -0.427420    0.966749
     25          8           0        2.879099   -1.888558   -0.524213
     26          1           0        3.058006   -2.383279   -1.321657
 ---------------------------------------------------------------------
 Rotational constants (GHZ):           1.3727450           0.5476522           0.4340984
 Standard basis: def2TZVPP (5D, 7F)
 There are   642 symmetry adapted cartesian basis functions of A   symmetry.
 There are   568 symmetry adapted basis functions of A   symmetry.
   568 basis functions,   850 primitive gaussians,   642 cartesian basis functions
    49 alpha electrons       49 beta electrons
       nuclear repulsion energy       828.4419763197 Hartrees.
 NAtoms=   26 NActive=   26 NUniq=   26 SFac= 1.00D+00 NAtFMM=   60 NAOKFM=F Big=F
 Integral buffers will be    131072 words long.
 Raffenetti 2 integral format.
 Two-electron integral symmetry is turned on.
 Nuclear repulsion after empirical dispersion term =      828.4237707003 Hartrees.
 One-electron integrals computed using PRISM.
   1 Symmetry operations used in ECPInt.
 ECPInt:  NShTT=   23436 NPrTT=   62434 LenC2=   21785 LenP2D=   45169.
 LDataN:  DoStor=T MaxTD1= 6 Len=  172
[...]
 096159,0.32194229,0.04039911,-0.11789060,0.04731263,0.00681445,-0.0040
 2731,0.00820886,-0.00533100,0.00734962,-0.00577666,-0.00017985,0.00199
 349,-0.00145493,0.00167898,0.00189784,-0.00051709,0.01416966,-0.016091
 19,0.03807760,0.00127128,-0.00068115,0.00079867,-0.00019178,0.00219966
 ,0.00095449,-0.00136223,0.00025148,-0.00010466,0.00018957,-0.00003138,
 0.00030714,-0.00005143,0.00034214,-0.00116733,0.00025174,0.00019288,-0
 .00016823,-0.00023007,0.00014106,0.00011027,0.00054469,0.00004624,-0.0
 0059979,-0.00059589,0.00059802,-0.00056001,0.00007931,-0.00003428,0.00
 027410,0.00151043,0.00110754,-0.00408771,0.00001064,0.00035137,-0.0007
 3395,-0.16576053,0.18875782,-0.04828599,0.07127921,-0.18439354,-0.0123
 3225,0.01138758,-0.02312308,-0.01312736,0.02336083,-0.03618182,0.00010
 681,-0.00170149,0.00416975,0.00096081,-0.00070616,0.00046709,-0.003614
 95,0.01576295,-0.01222610,0.00036434,0.00009681,0.00044441,-0.00093497
 ,-0.00031283,0.00171792,0.00075308,-0.00076422,-0.00014488,0.00032490,
 -0.00013516,0.00028804,0.00150416,-0.00023681,-0.00229728,0.00018728,0
 .00055650,-0.00012181,-0.00001040,0.00020778,-0.00001228,-0.00017522,-
 0.00031346,0.00035622,0.00059016,-0.00028757,-0.00039535,-0.00033406,0
 .00026406,0.00004539,0.00605000,-0.00431178,-0.00977007,-0.00177536,0.
 00102603,-0.00161674,-0.17048911,0.00210675,0.55720845,0.00905909,-0.0
 0457704,-0.01226929,0.00118515,-0.00029033,-0.00811027,-0.00205213,0.0
 0172639,-0.00207024,0.00020988,0.00023005,0.00058775,-0.00035183,0.000
 15754,0.00028388,-0.00023466,0.00097425,-0.00018945,-0.00043300,0.0007
 4090,0.00006719,-0.00001790,-0.00012811,0.00009996,0.00032907,0.000220
 07,-0.00022951,0.00027346,-0.00018677,0.00037749,0.00008380,-0.0001875
 2,0.00033515,0.00001996,-0.00005079,-0.00003361,0.00009009,0.00016818,
 -0.00002429,-0.00011282,-0.00011025,0.00020641,0.00010368,-0.00021091,
 0.00009373,-0.00002603,-0.00000166,0.00000186,0.00066634,-0.00013609,-
 0.00193541,-0.00011611,0.00021136,-0.00030069,-0.20745375,0.10279540,0
 .23837929,0.20109642,-0.01202880,0.00496993,0.01965156,0.00090663,0.00
 250106,0.00281003,0.00133625,-0.00173115,0.00056806,-0.00011440,-0.000
 24233,-0.00067751,-0.00033146,-0.00057453,-0.00073463,-0.00024945,-0.0
 0079166,0.00152100,0.00034367,-0.00018935,0.00001574,-0.00005870,0.000
 08138,0.00018847,0.00012975,0.00006703,0.00034931,-0.00012596,0.000068
 91,-0.00016595,-0.00024341,0.00014060,-0.00010814,0.00000647,0.0000641
 7,-0.00010337,0.00005092,-0.00013915,-0.00004026,-0.00001482,0.0000229
 1,-0.00001703,-0.00000228,0.00001016,-0.00017647,0.00000829,0.00002649
 ,0.00002267,-0.00016377,0.00021635,0.00113064,0.00017506,0.00010139,0.
 00019057,0.11137343,-0.06763282,-0.11647480,-0.10097607,0.06588845,0.0
 1973838,-0.00915869,-0.03613424,-0.00045091,-0.00101906,-0.00084591,-0
 .00267775,0.00489466,-0.00309636,0.00019689,0.00009376,-0.00147901,-0.
 00042711,-0.00009771,-0.00017201,0.00042773,-0.00026487,0.00066384,-0.
 00015564,0.00025749,0.00007344,-0.00011023,-0.00011536,0.00023091,0.00
 000591,0.00027233,-0.00001916,0.00000447,0.00003387,0.00005136,0.00021
 041,-0.00014957,-0.00000206,0.00009603,-0.00000079,-0.00004560,-0.0000
 0194,0.00002801,-0.00000006,0.00004277,-0.00002191,-0.00003161,-0.0002
 7381,0.00011257,0.00054916,0.00003845,-0.00006938,-0.00003876,0.000996
 05,-0.00080331,-0.00133365,-0.00026846,0.00015293,-0.00044149,0.197876
 84,-0.08539091,-0.29830922,-0.21823489,0.09275273,0.33948959,-0.022093
 33,0.02406800,0.04137122,-0.10142179,0.02149118,0.04324530,-0.00916237
 ,0.00008459,-0.00538818,-0.00172037,-0.00424054,-0.00698693,0.00632847
 ,0.00180416,-0.00384066,0.00308747,-0.00014054,-0.00008279,0.00182945,
 0.00069412,0.00191073,-0.00017101,0.00009382,0.00011431,0.00033552,0.0
 0053967,0.00058130,-0.00031148,0.00163955,-0.00196369,0.00011341,-0.00
 003720,-0.00006208,-0.00003405,-0.00014053,-0.00002173,-0.00027760,-0.
 00014047,-0.00005578,0.00030308,0.00035225,-0.00044834,-0.00210391,0.0
 0076992,0.00145087,0.00013149,-0.00026851,-0.00011118,0.00078292,-0.00
 086333,0.00102120,0.00007145,0.00004837,-0.00017884,-0.00357981,0.0020
 9655,0.00580405,-0.00105748,-0.00012331,0.00170753,0.63629584,0.005746
 94,-0.00209890,-0.00432965,0.00765435,-0.09539795,-0.05896047,0.001171
 99,-0.00014918,0.00154660,-0.00129325,0.00815353,0.00844541,0.01264545
 ,-0.01131347,-0.03930690,0.00132727,0.00142311,0.00063828,-0.00052540,
 0.00034090,-0.00023443,-0.00026623,0.00083511,0.00040362,-0.00247953,-
 0.00160568,-0.00231992,0.00183038,-0.00052847,0.00297016,-0.00011694,0
 .00002010,-0.00001025,0.00019816,0.00003355,-0.00000541,0.00029224,0.0
 0194724,0.00200869,-0.00007007,0.00002186,0.00098133,0.00054045,-0.000
 18192,-0.00048088,-0.00012072,0.00007208,0.00005775,-0.00007800,0.0008
 2149,-0.00100819,-0.00007307,-0.00003823,0.00002798,0.00279656,0.00140
 563,-0.00229897,0.00033282,-0.00217661,-0.00045582,-0.10590480,0.11394
 523,0.00919584,-0.00573179,-0.01463956,0.00099038,-0.05123483,-0.18749
 514,0.00070711,0.00039846,0.00168662,0.01098398,-0.01533272,-0.0510511
 3,0.00563213,-0.01539223,-0.01869272,-0.00051074,0.00064694,0.00060726
 ,-0.00085544,0.00005851,-0.00067375,-0.00013629,0.00028771,0.00008934,
 0.00026141,-0.00362393,0.00071106,-0.00526834,0.00510208,-0.00428171,0
 .00018683,-0.00016771,0.00006911,0.00014270,0.00006393,-0.00006355,0.0
 0005023,0.00127889,-0.00062723,-0.00016681,-0.00000450,-0.00034921,0.0
 0094438,-0.00036138,-0.00009595,-0.00020031,0.00013320,-0.00001054,0.0
 0066726,0.00017413,0.00036575,-0.00017025,-0.00004240,0.00019860,-0.00
 211958,0.00030788,0.00391060,0.00075749,0.00076569,-0.00057505,-0.0158
 1933,0.09320519,0.31136650,-0.00041099,0.00186806,0.00148089,-0.013827
 55,0.00225645,0.00472663,-0.00029124,-0.00014101,-0.00008501,0.0032512
 3,-0.00021301,-0.00167650,0.00056136,-0.00086711,-0.00144709,0.0003360
 5,0.00005362,-0.00003153,-0.00004165,0.00012078,0.00017557,0.00000607,
 0.00005073,0.00000163,-0.00016486,-0.00054154,0.00077017,-0.00135981,0
 .00024476,-0.00015507,-0.00001652,0.00001325,-0.00000446,-0.00000136,-
 0.00000780,-0.00000332,-0.00006765,-0.00050811,0.00010866,-0.00008591,
 -0.00023089,-0.00010764,0.00008958,-0.00008551,-0.00014214,-0.00002894
 ,0.00002318,0.00002019,0.00000393,0.00006040,-0.00019874,-0.00002509,0
 .00000347,0.00003240,0.00122589,-0.00043833,0.00010141,-0.00081715,-0.
 00010735,0.00004327,-0.50892756,0.07534664,-0.00583179,0.52397967,-0.0
 0008163,-0.00113131,-0.00051166,0.01766089,-0.00299572,-0.00371194,0.0
 0040577,0.00053539,-0.00031892,-0.00106891,0.00220838,0.00099108,0.000
 78572,-0.00037793,-0.00013855,0.00003955,0.00006705,-0.00007600,0.0000
 8455,-0.00001773,-0.00012397,-0.00001731,-0.00002551,0.00007437,0.0002
 9178,0.00019105,0.00120002,0.00014895,-0.00020405,-0.00024085,0.000014
 75,-0.00000920,0.00000186,-0.00002025,0.00000420,0.00000987,-0.0004683
 7,-0.00070082,-0.00006320,0.00004548,-0.00005258,-0.00040684,-0.000028
 64,-0.00001126,0.00005499,0.00002224,0.00000244,-0.00001331,0.00007378
 ,-0.00026008,0.00015991,0.00001495,0.00001665,-0.00000608,0.00062412,0
 .00008829,-0.00045616,-0.00048479,-0.00040037,-0.00035606,0.05904814,-
 0.01984310,-0.01161727,-0.07723658,0.02621253,0.00106235,-0.00292168,-
 0.00806758,0.04292986,-0.00734089,-0.00364681,0.00223191,-0.00013693,0
 .00124343,0.00608055,-0.00000134,-0.00395193,-0.00008730,-0.00091467,-
 0.00010219,-0.00024111,0.00010445,0.00006542,-0.00026929,-0.00017496,-
 0.00054071,-0.00002099,0.00002208,0.00000873,-0.00016747,0.00072347,-0
 .00025571,-0.00038057,-0.00022187,0.00077769,0.00000381,-0.00001075,0.
 00002410,0.00001824,0.00002176,0.00000574,0.00020394,0.00020303,-0.000
 07413,-0.00020849,-0.00039719,0.00026643,0.00028708,-0.00008568,-0.000
 19340,0.00002152,0.00001147,0.00000868,-0.00046115,0.00030075,-0.00012
 111,0.00002747,-0.00001584,-0.00000477,-0.00220247,0.00109530,0.000623
 24,0.00129314,-0.00111131,0.00063483,-0.05130872,-0.00527454,-0.040963
 52,0.00276061,0.01630141,0.05050766,0.00448551,0.00174231,-0.00292612,
 -0.04342543,0.00307990,-0.00086148,0.00048936,-0.00110534,0.00034574,-
 0.20550071,-0.01830705,0.05386762,0.00148973,-0.00016199,0.00082245,-0
 .00005723,-0.00009191,0.00024998,0.00062079,-0.00014203,-0.00020374,0.
 00003489,0.00026222,0.00000172,-0.04031498,-0.00584648,0.00919156,-0.0
 2409182,0.00213111,0.00963005,-0.00007751,0.00006564,-0.00003997,0.000
 04678,-0.00000770,0.00003246,0.00143095,0.00058537,-0.00094654,0.00034
 431,-0.00613340,0.00081194,-0.00084346,0.00049835,0.00043173,0.0001673
 2,-0.00017553,-0.00008495,-0.00172880,0.00053061,0.00051723,-0.0000149
 6,-0.00002184,-0.00046021,-0.00338390,0.00132422,-0.00288788,-0.000195
 87,0.00016105,0.00096683,-0.00046796,0.00068963,0.00024886,-0.00226721
 ,0.00041801,-0.00018448,0.43664933,-0.00217774,-0.00201605,0.00379769,
 0.02867893,0.00120692,-0.00458638,-0.00047067,0.00005395,0.00051305,0.
 02071141,-0.08573569,0.01072210,-0.00033635,0.00177828,-0.00169790,0.0
 0078868,0.00040010,0.00007885,-0.00027056,-0.00000928,0.00000954,-0.00
 006043,0.00013473,-0.00007771,-0.03607389,-0.00259889,0.01314486,0.014
 94054,0.00545670,-0.00107055,-0.00002506,0.00002001,0.00000789,0.00005
 376,0.00002573,0.00000997,0.00086605,0.00323586,0.00010010,-0.00210228
 ,-0.00741154,0.00133066,0.00029122,-0.00008684,-0.00020108,-0.00006782
 ,0.00003898,0.00002389,0.00080868,0.00063420,-0.00064699,0.00005759,-0
 .00005282,0.00013125,0.00258093,-0.00029049,0.00149227,-0.00005103,-0.
 00021924,-0.00049000,0.00091804,0.00313598,0.00005046,-0.00065984,-0.0
 0309828,-0.00095855,-0.15574302,0.36970183,0.00088902,0.00247832,-0.00
 378377,-0.02708608,0.00007303,-0.00043069,-0.00052976,0.00055681,-0.00
 203988,0.02619536,0.01465715,-0.09182153,0.00041436,-0.00068287,0.0011
 7496,-0.00010136,-0.00024112,0.00005063,0.00022422,-0.00007934,0.00008
 205,-0.00007233,-0.00001418,0.00013992,0.00652252,0.00360088,-0.001155
 99,0.03522801,0.00257714,-0.00051795,0.00016735,-0.00009860,0.00000878
 ,0.00001261,0.00001274,-0.00002589,-0.00019143,0.00188635,0.00095546,0
 .00003548,0.00094556,0.00152453,-0.00007007,0.00004244,0.00044303,-0.0
 0003949,-0.00000358,-0.00003967,0.00175166,-0.00054937,0.00074646,0.00
 008684,0.00000950,0.00021621,-0.00258561,0.00057816,-0.00028806,0.0007
 3555,-0.00024716,0.00056320,-0.00948254,0.00304035,0.00060544,-0.00032
 282,-0.00147066,0.00229864,0.05130655,-0.23126770,0.25032950,0.0007880
 6,0.00114917,-0.00144090,-0.00833825,-0.00057235,0.00260760,0.00001984
 ,0.00009333,-0.00028614,-0.02741271,0.03156478,-0.02236241,0.00021903,
 -0.00013749,0.00033275,-0.00010965,-0.00014769,-0.00000104,-0.00003861
 ,0.00005239,0.00004716,-0.00000588,-0.00003914,0.00003602,-0.00312821,
 0.00048237,-0.00238613,-0.00000370,0.00039329,0.00026286,0.00002655,-0
 .00002507,0.00000223,-0.00001169,-0.00000253,-0.00001070,-0.00001655,-
 0.00028461,0.00016256,0.00046723,0.00091049,-0.00024278,0.00008498,-0.
 00006611,-0.00000447,-0.00002743,0.00002242,0.00000765,0.00018366,-0.0
 0026441,0.00015621,-0.00003523,0.00001813,0.00004401,-0.00074557,0.000
 01901,-0.00033135,-0.00011998,0.00011528,0.00007993,0.00105623,-0.0003
 2374,0.00125097,-0.00035015,-0.00014972,-0.00093450,-0.12872271,0.1344
 6359,-0.08727228,0.16416491,0.00030337,0.00074972,-0.00039292,-0.00168
 640,-0.00054864,-0.00079510,0.00001439,0.00001776,-0.00009882,0.001706
 68,0.00193260,-0.00083006,-0.00006410,0.00010965,0.00007823,-0.0000959
 0,-0.00010148,-0.00004336,0.00008723,0.00000403,0.00001191,0.00000593,
 -0.00006444,0.00000715,-0.00592346,0.00271132,-0.00138577,-0.00014742,
 -0.00034931,0.00045465,0.00000581,-0.00000468,-0.00000552,-0.00002437,
 -0.00001191,-0.00000364,0.00022744,-0.00031382,0.00014306,0.00088056,-
 0.00056465,0.00059324,-0.00009632,0.00001730,0.00004731,0.00002729,-0.
 00001018,-0.00000317,-0.00022914,-0.00022760,0.00005937,0.00001736,0.0
 0003641,-0.00003084,-0.00057505,0.00000777,-0.00018706,0.00013380,0.00
 000692,0.00012178,-0.00158726,0.00005949,-0.00087778,0.00061865,-0.000
 00710,0.00129314,0.17266491,-0.28284024,0.20126722,-0.16919632,0.28045
 760,0.00002107,-0.00003224,0.00014672,0.00082261,0.00033118,-0.0017437
 3,-0.00007296,0.00003053,0.00012127,0.00550068,-0.00819923,0.00575102,
 0.00002333,-0.00000152,-0.00011053,0.00003646,0.00001793,-0.00000535,-
 0.00005329,0.00002457,0.00001633,-0.00001294,-0.00000427,-0.00000944,0
 .00210706,0.00022839,0.00235691,0.00180562,-0.00068132,-0.00040279,-0.
 00000367,0.00000127,-0.00000171,-0.00000044,-0.00000308,0.00000092,-0.
 00065759,-0.00012812,-0.00054217,-0.00027400,0.00062680,-0.00075942,0.
 00005529,-0.00003736,-0.00006810,-0.00000358,0.00000881,0.00001524,0.0
 0010710,0.00001886,-0.00023302,0.00005689,-0.00001532,0.00006547,0.000
 09157,0.00001956,0.00008402,-0.00004228,0.00000359,0.00003072,-0.00152
 149,-0.00007009,0.00007093,0.00021583,0.00106539,0.00116135,-0.1185003
 4,0.20668807,-0.15979107,0.11090037,-0.19865613,0.15602541,-0.00077401
 ,-0.00208763,0.00065994,0.00002224,-0.00216539,0.00120113,0.00027206,-
 0.00065936,0.00047816,-0.00110062,0.00024085,0.00139799,0.00003879,0.0
 0021189,-0.00012126,0.00072189,0.00091722,0.00024878,0.00026718,-0.000
 19307,-0.00018876,-0.00005194,0.00035629,-0.00002408,-0.14617802,0.019
 99070,-0.07182985,0.00040486,0.00039408,0.00036441,-0.00005289,0.00006
 923,-0.00000875,0.00009868,0.00001156,0.00003818,-0.00550142,0.0059802
 5,-0.01119063,-0.02490748,0.02156537,-0.03173979,-0.00041137,0.0003000
 2,0.00018356,0.00009308,-0.00009271,-0.00004550,-0.00039503,0.00126207
 ,0.00046266,0.00008915,0.00011688,-0.00023677,0.00014650,0.00109057,-0
 .00090575,-0.00017167,-0.00008041,0.00017624,0.00094952,0.00070386,-0.
 00094031,-0.00071785,-0.00004776,-0.00030704,0.00483613,-0.00512690,0.
 00256061,0.00029243,0.00203034,0.00088668,0.21411935,-0.00181360,0.000
 31077,-0.00050265,-0.00472031,-0.00721619,-0.00400625,-0.00008613,0.00
 030843,0.00031569,0.02885198,-0.02904880,0.03629962,0.00134506,-0.0015
 1199,0.00224482,0.00012465,0.00008975,-0.00012468,-0.00043024,0.000120
 25,0.00007845,-0.00002095,0.00000132,0.00002533,0.05145172,-0.11454775
 ,0.05047951,0.00051186,0.00279147,-0.00078600,0.00000385,-0.00001932,0
 .00001098,0.00000414,0.00001700,-0.00001233,-0.00561575,0.00756876,0.0
 0047731,0.00760194,-0.00086749,0.00378465,0.00052483,-0.00025544,-0.00
 032769,-0.00011217,0.00008815,0.00005198,0.00051751,-0.00013732,-0.000
 63002,-0.00008483,-0.00016461,0.00022520,0.00108456,-0.00023274,0.0008
 0943,-0.00030925,-0.00004442,-0.00037204,-0.00017784,0.00074871,0.0019
 0866,0.00037923,-0.00010911,-0.00062167,0.00247811,-0.00260582,0.00336
 242,0.00195637,-0.00052173,-0.00100227,0.02726754,0.67975447,0.0003492
 1,-0.00097997,0.00034524,0.00087256,-0.00043274,0.00051297,0.00009612,
 0.00010311,-0.00068296,-0.00407143,0.01016822,-0.00607258,-0.00028531,
 0.00040608,-0.00036607,0.00033726,0.00017521,-0.00000846,0.00036099,-0
 .00019136,-0.00010561,-0.00001807,0.00006114,0.00009292,-0.07543140,0.
 01876161,-0.12976480,0.00075922,0.00076103,0.00090950,0.00003545,-0.00
 000815,0.00000398,0.00002075,0.00000620,-0.00000961,-0.03096980,0.0218
 6689,-0.02296900,-0.00381081,0.00074163,0.00690819,-0.00037412,0.00021
 859,0.00039310,0.00006029,-0.00006080,-0.00006006,-0.00025441,0.000055
 24,0.00092102,-0.00007434,0.00019065,-0.00027504,-0.00058438,0.0005082
 3,-0.00038243,0.00026138,-0.00018073,0.00023218,-0.00007963,0.00203545
 ,-0.00018826,-0.00043897,-0.00055752,0.00032568,-0.00085736,0.00286798
 ,0.00080849,-0.00044838,-0.00058353,-0.00209707,0.13292219,-0.06708953
 ,0.16902475,0.00026149,0.00019729,-0.00001781,0.00067256,0.00101438,0.
 00025354,-0.00001854,0.00009043,-0.00017908,-0.00525642,0.00111188,-0.
 00303674,-0.00012996,0.00021640,-0.00025490,-0.00001935,-0.00009176,-0
 .00000705,0.00001317,0.00003665,0.00002882,-0.00000588,-0.00005640,0.0
 0001752,0.00149742,0.03202206,-0.00219591,-0.00005020,-0.00016959,0.00
 011327,0.00001141,-0.00001716,0.00000169,-0.00001890,-0.00000489,-0.00
 001206,0.00071828,-0.00057826,-0.00065911,-0.00060363,0.00115142,0.000
 16554,0.00002047,-0.00003954,0.00001122,-0.00001187,0.00001164,0.00000
 214,-0.00002546,-0.00019981,0.00017597,-0.00001867,0.00008223,-0.00000
 783,-0.00009738,-0.00010452,0.00007837,0.00004342,0.00001339,-0.000006
 97,0.00004387,-0.00002500,-0.00000038,-0.00005230,-0.00007473,-0.00014
 693,0.00049744,-0.00199383,0.00162363,0.00176341,0.00090198,-0.0014879
 6,-0.04208958,-0.11073225,-0.01837701,0.04285519,-0.00014565,-0.000269
 96,0.00007906,-0.00065801,-0.00086850,-0.00044762,0.00004943,-0.000117
 88,0.00012330,0.00248765,-0.00113458,0.00321442,0.00017404,-0.00003464
 ,0.00017425,0.00012380,0.00012588,0.00003139,0.00007022,-0.00002493,-0
 .00003802,-0.00000496,0.00006002,-0.00000732,-0.00637437,-0.01590106,-
 0.00397997,0.00005625,0.00059399,-0.00002273,-0.00001364,0.00001435,-0
 .00000337,0.00001390,-0.00000211,0.00000668,-0.00140539,0.00197157,-0.
 00046211,-0.00043809,0.00035351,-0.00094480,-0.00010550,0.00005974,0.0
 0003506,0.00002765,-0.00002126,-0.00000750,-0.00011612,0.00021532,-0.0
 0003183,0.00004237,-0.00000212,-0.00003046,-0.00002318,0.00018108,-0.0
 0016373,0.00000985,-0.00002414,0.00004534,-0.00002403,0.00036948,0.000
 00482,-0.00000213,-0.00008182,0.00011100,0.00110485,0.00114190,-0.0004
 3350,-0.00003143,-0.00054478,-0.00023399,-0.07205550,-0.53451634,0.011
 15705,0.07723799,0.54845729,0.00015963,0.00011625,0.00004284,0.0003983
 0,0.00167518,0.00073702,-0.00001185,-0.00004542,0.00010442,-0.00329971
 ,0.00221270,-0.00396942,-0.00020523,0.00014789,-0.00041451,-0.00007594
 ,-0.00004974,0.00001660,-0.00004518,0.00003158,0.00003590,0.00000649,-
 0.00000550,-0.00003097,0.00313073,0.02944220,-0.00268138,-0.00013679,-
 0.00000135,0.00013257,-0.00000575,0.00000593,-0.00000337,-0.00000321,-
 0.00000354,0.00000782,0.00081530,0.00053401,-0.00002216,-0.00019402,-0
 .00067697,0.00060141,0.00003888,-0.00002483,-0.00006981,-0.00000476,0.
 00000495,0.00001031,0.00006606,0.00005351,-0.00016939,0.00001345,-0.00
 006110,0.00005986,0.00000560,-0.00009837,-0.00005246,-0.00004031,0.000
 06728,0.00000497,0.00014541,-0.00060528,0.00002611,0.00000781,0.000210
 09,-0.00002979,-0.00047165,0.00002822,-0.00005281,-0.00016923,-0.00018
 336,-0.00008190,-0.02404205,-0.02459892,-0.01749608,0.02391802,-0.0081
 7544,0.02329422\\-0.00000062,-0.00001225,-0.00001888,0.00000579,-0.000
 00147,-0.00000190,-0.00000802,0.00000451,0.00001127,-0.00000082,-0.000
 00337,-0.00000556,0.00000616,0.00000365,-0.00000567,-0.00000067,-0.000
 00978,0.00000368,0.00000740,0.00000287,0.00001755,0.00000841,-0.000002
 99,-0.00000214,0.00001002,0.00000275,-0.00000993,-0.00000483,0.0000026
 5,0.00000280,-0.00000466,-0.00000107,-0.00000543,0.00000118,-0.0000036
 4,0.00000309,0.00000023,-0.00000373,0.00000287,-0.00000844,-0.00000137
 ,0.00000553,-0.00001284,-0.00000812,-0.00001545,0.00001336,0.00000794,
 0.00000520,0.00001194,0.00001149,-0.00000419,-0.00000496,0.00000011,0.
 00000048,-0.00000954,0.00000854,0.00000669,0.00000851,-0.00001017,-0.0
 0000247,-0.00001068,0.00000551,0.00001721,-0.00000755,-0.00000093,0.00
 000444,0.00000011,0.00000452,-0.00001286,0.00000559,-0.00000221,-0.000
 00147,-0.00000612,0.00001031,0.00000438,0.00000105,-0.00000375,0.00000
 076\\\@
 The archive entry for this job was punched.


 THERE IS NO SUBJECT, HOWEVER COMPLEX,
 WHICH, IF STUDIED WITH PATIENCE AND INTELLIGIENCE
 WILL NOT BECOME
 MORE COMPLEX
                        QUOTED BY D. GORDON ROHMAN
 Job cpu time:       0 days 10 hours 42 minutes 51.0 seconds.
 Elapsed time:       0 days  0 hours 40 minutes 34.9 seconds.
 File lengths (MBytes):  RWF=    704 Int=      0 D2E=      0 Chk=     27 Scr=      1
 Normal termination of Gaussian 16 at Wed Sep 27 12:16:55 2023.
