 Entering Gaussian System, Link 0=/opt/software/gaussian/g16.c01/g16
 Initial command:
 /opt/software/gaussian/g16.c01/l1.exe "/scratch/arhender/14836887/Gau-212820.inp" -scrdir="/scratch/arhender/14836887/"
 Entering Link 1 = /opt/software/gaussian/g16.c01/l1.exe PID=    212851.
  
 Copyright (c) 1988-2019, Gaussian, Inc.  All Rights Reserved.
  
 This is part of the Gaussian(R) 16 program.  It is based on
 the Gaussian(R) 09 system (copyright 2009, Gaussian, Inc.),
 the Gaussian(R) 03 system (copyright 2003, Gaussian, Inc.),
 the Gaussian(R) 98 system (copyright 1998, Gaussian, Inc.),
 the Gaussian(R) 94 system (copyright 1995, Gaussian, Inc.),
 the Gaussian 92(TM) system (copyright 1992, Gaussian, Inc.),
 the Gaussian 90(TM) system (copyright 1990, Gaussian, Inc.),
 the Gaussian 88(TM) system (copyright 1988, Gaussian, Inc.),
 the Gaussian 86(TM) system (copyright 1986, Carnegie Mellon
 University), and the Gaussian 82(TM) system (copyright 1983,
 Carnegie Mellon University). Gaussian is a federally registered
 trademark of Gaussian, Inc.
  
 This software contains proprietary and confidential information,
 including trade secrets, belonging to Gaussian, Inc.
  
 This software is provided under written license and may be
 used, copied, transmitted, or stored only in accord with that
 written license.
  
 The following legend is applicable only to US Government
 contracts under FAR:
  
                    RESTRICTED RIGHTS LEGEND
  
 Use, reproduction and disclosure by the US Government is
 subject to restrictions as set forth in subparagraphs (a)
 and (c) of the Commercial Computer Software - Restricted
 Rights clause in FAR 52.227-19.
  
 Gaussian, Inc.
 340 Quinnipiac St., Bldg. 40, Wallingford CT 06492
  
  
 ---------------------------------------------------------------
 Warning -- This program may not be used in any manner that
 competes with the business of Gaussian, Inc. or will provide
 assistance to any competitor of Gaussian, Inc.  The licensee
 of this program is prohibited from giving any competitor of
 Gaussian, Inc. access to this program.  By using this program,
 the user acknowledges that Gaussian, Inc. is engaged in the
 business of creating and licensing software in the field of
 computational chemistry and represents and warrants to the
 licensee that it is not a competitor of Gaussian, Inc. and that
 it will not use this program in any manner prohibited above.
 ---------------------------------------------------------------
  

 Cite this work as:
 Gaussian 16, Revision C.01,
 M. J. Frisch, G. W. Trucks, H. B. Schlegel, G. E. Scuseria, 
 M. A. Robb, J. R. Cheeseman, G. Scalmani, V. Barone, 
 G. A. Petersson, H. Nakatsuji, X. Li, M. Caricato, A. V. Marenich, 
 J. Bloino, B. G. Janesko, R. Gomperts, B. Mennucci, H. P. Hratchian, 
 J. V. Ortiz, A. F. Izmaylov, J. L. Sonnenberg, D. Williams-Young, 
 F. Ding, F. Lipparini, F. Egidi, J. Goings, B. Peng, A. Petrone, 
 T. Henderson, D. Ranasinghe, V. G. Zakrzewski, J. Gao, N. Rega, 
 G. Zheng, W. Liang, M. Hada, M. Ehara, K. Toyota, R. Fukuda, 
 J. Hasegawa, M. Ishida, T. Nakajima, Y. Honda, O. Kitao, H. Nakai, 
 T. Vreven, K. Throssell, J. A. Montgomery, Jr., J. E. Peralta, 
 F. Ogliaro, M. J. Bearpark, J. J. Heyd, E. N. Brothers, K. N. Kudin, 
 V. N. Staroverov, T. A. Keith, R. Kobayashi, J. Normand, 
 K. Raghavachari, A. P. Rendell, J. C. Burant, S. S. Iyengar, 
 J. Tomasi, M. Cossi, J. M. Millam, M. Klene, C. Adamo, R. Cammi, 
 J. W. Ochterski, R. L. Martin, K. Morokuma, O. Farkas, 
 J. B. Foresman, and D. J. Fox, Gaussian, Inc., Wallingford CT, 2019.
 
 ******************************************
 Gaussian 16:  ES64L-G16RevC.01  3-Jul-2019
                11-Oct-2023 
 ******************************************
 %chk=MannitolConformerOpt_43.chk
 %mem=8GB
 %nprocs=16
 Will use up to   16 processors via shared memory.
 ---------------------------------------------
 # opt freq wb97xd/Def2TZVPP geom=connectivity
 ---------------------------------------------
 1/18=20,19=15,26=3,38=1,57=2/1,3;
 2/9=110,12=2,17=6,18=5,40=1/2;
 3/5=44,7=202,11=2,25=1,30=1,71=1,74=-58/1,2,3;
 4//1;
 5/5=2,38=5/2;
 6/7=2,8=2,9=2,10=2,28=1/1;
 7//1,2,3,16;
 1/18=20,19=15,26=3/3(2);
 2/9=110/2;
 99//99;
 2/9=110/2;
 3/5=44,7=202,11=2,25=1,30=1,71=1,74=-58/1,2,3;
 4/5=5,16=3,69=1/1;
 5/5=2,38=5/2;
 7//1,2,3,16;
 1/18=20,19=15,26=3/3(-5);
 2/9=110/2;
 6/7=2,8=2,9=2,10=2,19=2,28=1/1;
 99/9=1/99;
 -------------------
 Title Card Required
 -------------------
 Symbolic Z-matrix:
 Charge =  0 Multiplicity = 1
 C                     0.        0.        0. 
 C                     1.5395    0.        0. 
 C                    -0.5631    1.1059   -0.9084 
 C                     2.165    -0.7509    1.1885 
 H                     1.9318    1.0237    0. 
 H                    -0.3652    0.159     1.0216 
 C                    -2.0894    1.0312   -1.0296 
 H                    -0.1277    1.0453   -1.913 
 C                     1.7503   -2.219     1.3343 
 H                     1.9552   -0.2179    2.123 
 H                    -2.5642    1.0977   -0.0454 
 H                    -2.4111    0.1154   -1.5338 
 H                     1.9945   -2.7899    0.4335 
 H                     0.6882   -2.3383    1.5628 
 O                    -2.5336    2.1578   -1.7953 
 H                    -3.4971    2.0598   -1.8972 
 O                    -0.2209    2.3936   -0.3738 
 H                    -0.7723    3.0211   -0.8866 
 O                    -0.4616   -1.2804   -0.4537 
 H                     0.1346   -1.5044   -1.2023 
 O                     1.9887   -0.6173   -1.2262 
 H                     2.9634   -0.6642   -1.1246 
 O                     3.5983   -0.7187    1.0096 
 H                     3.9435   -1.4253    1.5948 
 O                     2.5113   -2.7945    2.4061 
 H                     2.0592   -2.5603    3.2364 
 

 GradGradGradGradGradGradGradGradGradGradGradGradGradGradGradGradGradGrad
 Berny optimization.
 Initialization pass.
                           ----------------------------
                           !    Initial Parameters    !
                           ! (Angstroms and Degrees)  !
 --------------------------                            --------------------------
 ! Name  Definition              Value          Derivative Info.                !
 --------------------------------------------------------------------------------
 ! R1    R(1,2)                  1.5395         estimate D2E/DX2                !
 ! R2    R(1,3)                  1.5379         estimate D2E/DX2                !
 ! R3    R(1,6)                  1.0965         estimate D2E/DX2                !
 ! R4    R(1,19)                 1.4347         estimate D2E/DX2                !
 ! R5    R(2,4)                  1.5387         estimate D2E/DX2                !
 ! R6    R(2,5)                  1.0963         estimate D2E/DX2                !
 ! R7    R(2,21)                 1.4444         estimate D2E/DX2                !
 ! R8    R(3,7)                  1.5329         estimate D2E/DX2                !
 ! R9    R(3,8)                  1.0966         estimate D2E/DX2                !
 ! R10   R(3,17)                 1.4356         estimate D2E/DX2                !
 ! R11   R(4,9)                  1.5325         estimate D2E/DX2                !
 ! R12   R(4,10)                 1.0961         estimate D2E/DX2                !
 ! R13   R(4,23)                 1.4448         estimate D2E/DX2                !
 ! R14   R(7,11)                 1.0948         estimate D2E/DX2                !
 ! R15   R(7,12)                 1.0938         estimate D2E/DX2                !
 ! R16   R(7,15)                 1.4328         estimate D2E/DX2                !
 ! R17   R(9,13)                 1.0941         estimate D2E/DX2                !
 ! R18   R(9,14)                 1.0929         estimate D2E/DX2                !
 ! R19   R(9,25)                 1.4349         estimate D2E/DX2                !
 ! R20   R(15,16)                0.9738         estimate D2E/DX2                !
 ! R21   R(17,18)                0.9802         estimate D2E/DX2                !
 ! R22   R(19,20)                0.9829         estimate D2E/DX2                !
 ! R23   R(21,22)                0.9811         estimate D2E/DX2                !
 ! R24   R(23,24)                0.9803         estimate D2E/DX2                !
 ! R25   R(25,26)                0.974          estimate D2E/DX2                !
 ! A1    A(2,1,3)              111.4776         estimate D2E/DX2                !
 ! A2    A(2,1,6)              109.4545         estimate D2E/DX2                !
 ! A3    A(2,1,19)             108.7683         estimate D2E/DX2                !
 ! A4    A(3,1,6)              108.9106         estimate D2E/DX2                !
 ! A5    A(3,1,19)             109.7036         estimate D2E/DX2                !
 ! A6    A(6,1,19)             108.4747         estimate D2E/DX2                !
 ! A7    A(1,2,4)              113.9857         estimate D2E/DX2                !
 ! A8    A(1,2,5)              110.9677         estimate D2E/DX2                !
 ! A9    A(1,2,21)             108.1186         estimate D2E/DX2                !
 ! A10   A(4,2,5)              108.0728         estimate D2E/DX2                !
 ! A11   A(4,2,21)             108.7067         estimate D2E/DX2                !
 ! A12   A(5,2,21)             106.7251         estimate D2E/DX2                !
 ! A13   A(1,3,7)              112.0993         estimate D2E/DX2                !
 ! A14   A(1,3,8)              110.8549         estimate D2E/DX2                !
 ! A15   A(1,3,17)             109.7401         estimate D2E/DX2                !
 ! A16   A(7,3,8)              108.6758         estimate D2E/DX2                !
 ! A17   A(7,3,17)             108.0882         estimate D2E/DX2                !
 ! A18   A(8,3,17)             107.2218         estimate D2E/DX2                !
 ! A19   A(2,4,9)              115.5298         estimate D2E/DX2                !
 ! A20   A(2,4,10)             110.0853         estimate D2E/DX2                !
 ! A21   A(2,4,23)             107.2631         estimate D2E/DX2                !
 ! A22   A(9,4,10)             109.4469         estimate D2E/DX2                !
 ! A23   A(9,4,23)             107.5528         estimate D2E/DX2                !
 ! A24   A(10,4,23)            106.5362         estimate D2E/DX2                !
 ! A25   A(3,7,11)             110.9643         estimate D2E/DX2                !
 ! A26   A(3,7,12)             111.721          estimate D2E/DX2                !
 ! A27   A(3,7,15)             108.2175         estimate D2E/DX2                !
 ! A28   A(11,7,12)            109.7374         estimate D2E/DX2                !
 ! A29   A(11,7,15)            107.3509         estimate D2E/DX2                !
 ! A30   A(12,7,15)            108.7124         estimate D2E/DX2                !
 ! A31   A(4,9,13)             111.1709         estimate D2E/DX2                !
 ! A32   A(4,9,14)             112.7947         estimate D2E/DX2                !
 ! A33   A(4,9,25)             108.1652         estimate D2E/DX2                !
 ! A34   A(13,9,14)            109.3953         estimate D2E/DX2                !
 ! A35   A(13,9,25)            106.6981         estimate D2E/DX2                !
 ! A36   A(14,9,25)            108.387          estimate D2E/DX2                !
 ! A37   A(7,15,16)            106.4713         estimate D2E/DX2                !
 ! A38   A(3,17,18)            104.2002         estimate D2E/DX2                !
 ! A39   A(1,19,20)            104.4236         estimate D2E/DX2                !
 ! A40   A(2,21,22)            103.9736         estimate D2E/DX2                !
 ! A41   A(4,23,24)            105.0325         estimate D2E/DX2                !
 ! A42   A(9,25,26)            107.1056         estimate D2E/DX2                !
 ! D1    D(3,1,2,4)            161.685          estimate D2E/DX2                !
 ! D2    D(3,1,2,5)             39.4001         estimate D2E/DX2                !
 ! D3    D(3,1,2,21)           -77.3217         estimate D2E/DX2                !
 ! D4    D(6,1,2,4)             41.1313         estimate D2E/DX2                !
 ! D5    D(6,1,2,5)            -81.1536         estimate D2E/DX2                !
 ! D6    D(6,1,2,21)           162.1246         estimate D2E/DX2                !
 ! D7    D(19,1,2,4)           -77.2265         estimate D2E/DX2                !
 ! D8    D(19,1,2,5)           160.4886         estimate D2E/DX2                !
 ! D9    D(19,1,2,21)           43.7668         estimate D2E/DX2                !
 ! D10   D(2,1,3,7)            174.2998         estimate D2E/DX2                !
 ! D11   D(2,1,3,8)             52.6638         estimate D2E/DX2                !
 ! D12   D(2,1,3,17)           -65.5859         estimate D2E/DX2                !
 ! D13   D(6,1,3,7)            -64.828          estimate D2E/DX2                !
 ! D14   D(6,1,3,8)            173.536          estimate D2E/DX2                !
 ! D15   D(6,1,3,17)            55.2863         estimate D2E/DX2                !
 ! D16   D(19,1,3,7)            53.7585         estimate D2E/DX2                !
 ! D17   D(19,1,3,8)           -67.8775         estimate D2E/DX2                !
 ! D18   D(19,1,3,17)          173.8728         estimate D2E/DX2                !
 ! D19   D(2,1,19,20)          -41.5045         estimate D2E/DX2                !
 ! D20   D(3,1,19,20)           80.6661         estimate D2E/DX2                !
 ! D21   D(6,1,19,20)         -160.4782         estimate D2E/DX2                !
 ! D22   D(1,2,4,9)             57.2664         estimate D2E/DX2                !
 ! D23   D(1,2,4,10)           -67.3092         estimate D2E/DX2                !
 ! D24   D(1,2,4,23)           177.1611         estimate D2E/DX2                !
 ! D25   D(5,2,4,9)           -178.8725         estimate D2E/DX2                !
 ! D26   D(5,2,4,10)            56.5519         estimate D2E/DX2                !
 ! D27   D(5,2,4,23)           -58.9778         estimate D2E/DX2                !
 ! D28   D(21,2,4,9)           -63.3988         estimate D2E/DX2                !
 ! D29   D(21,2,4,10)          172.0256         estimate D2E/DX2                !
 ! D30   D(21,2,4,23)           56.4958         estimate D2E/DX2                !
 ! D31   D(1,2,21,22)         -174.7222         estimate D2E/DX2                !
 ! D32   D(4,2,21,22)          -50.5023         estimate D2E/DX2                !
 ! D33   D(5,2,21,22)           65.8408         estimate D2E/DX2                !
 ! D34   D(1,3,7,11)            57.6362         estimate D2E/DX2                !
 ! D35   D(1,3,7,12)           -65.1787         estimate D2E/DX2                !
 ! D36   D(1,3,7,15)           175.173          estimate D2E/DX2                !
 ! D37   D(8,3,7,11)          -179.487          estimate D2E/DX2                !
 ! D38   D(8,3,7,12)            57.6981         estimate D2E/DX2                !
 ! D39   D(8,3,7,15)           -61.9502         estimate D2E/DX2                !
 ! D40   D(17,3,7,11)          -63.4356         estimate D2E/DX2                !
 ! D41   D(17,3,7,12)          173.7495         estimate D2E/DX2                !
 ! D42   D(17,3,7,15)           54.1013         estimate D2E/DX2                !
 ! D43   D(1,3,17,18)         -167.9798         estimate D2E/DX2                !
 ! D44   D(7,3,17,18)          -45.4533         estimate D2E/DX2                !
 ! D45   D(8,3,17,18)           71.5419         estimate D2E/DX2                !
 ! D46   D(2,4,9,13)            57.9747         estimate D2E/DX2                !
 ! D47   D(2,4,9,14)           -65.327          estimate D2E/DX2                !
 ! D48   D(2,4,9,25)           174.8057         estimate D2E/DX2                !
 ! D49   D(10,4,9,13)         -177.1189         estimate D2E/DX2                !
 ! D50   D(10,4,9,14)           59.5794         estimate D2E/DX2                !
 ! D51   D(10,4,9,25)          -60.2879         estimate D2E/DX2                !
 ! D52   D(23,4,9,13)          -61.7614         estimate D2E/DX2                !
 ! D53   D(23,4,9,14)          174.9368         estimate D2E/DX2                !
 ! D54   D(23,4,9,25)           55.0696         estimate D2E/DX2                !
 ! D55   D(2,4,23,24)         -162.3923         estimate D2E/DX2                !
 ! D56   D(9,4,23,24)          -37.5271         estimate D2E/DX2                !
 ! D57   D(10,4,23,24)          79.7421         estimate D2E/DX2                !
 ! D58   D(3,7,15,16)          177.0229         estimate D2E/DX2                !
 ! D59   D(11,7,15,16)         -63.1454         estimate D2E/DX2                !
 ! D60   D(12,7,15,16)          55.4999         estimate D2E/DX2                !
 ! D61   D(4,9,25,26)           82.7034         estimate D2E/DX2                !
 ! D62   D(13,9,25,26)        -157.6101         estimate D2E/DX2                !
 ! D63   D(14,9,25,26)         -39.8954         estimate D2E/DX2                !
 --------------------------------------------------------------------------------
 Trust Radius=3.00D-01 FncErr=1.00D-07 GrdErr=1.00D-06 EigMax=2.50D+02 EigMin=1.00D-04
 Number of steps in this run=    140 maximum allowed number of steps=    156.
 GradGradGradGradGradGradGradGradGradGradGradGradGradGradGradGradGradGrad

                          Input orientation:                          
 ---------------------------------------------------------------------
 Center     Atomic      Atomic             Coordinates (Angstroms)
 Number     Number       Type             X           Y           Z
 ---------------------------------------------------------------------
      1          6           0        0.000000    0.000000    0.000000
      2          6           0        1.539500    0.000000    0.000000
      3          6           0       -0.563100    1.105900   -0.908400
      4          6           0        2.165000   -0.750900    1.188500
      5          1           0        1.931800    1.023700    0.000000
      6          1           0       -0.365200    0.159000    1.021600
      7          6           0       -2.089400    1.031200   -1.029600
      8          1           0       -0.127700    1.045300   -1.913000
      9          6           0        1.750300   -2.219000    1.334300
     10          1           0        1.955200   -0.217900    2.123000
     11          1           0       -2.564200    1.097700   -0.045400
     12          1           0       -2.411100    0.115400   -1.533800
     13          1           0        1.994500   -2.789900    0.433500
     14          1           0        0.688200   -2.338300    1.562800
     15          8           0       -2.533600    2.157800   -1.795300
     16          1           0       -3.497100    2.059800   -1.897200
     17          8           0       -0.220900    2.393600   -0.373800
     18          1           0       -0.772300    3.021100   -0.886600
     19          8           0       -0.461600   -1.280400   -0.453700
     20          1           0        0.134600   -1.504400   -1.202300
     21          8           0        1.988700   -0.617300   -1.226200
     22          1           0        2.963400   -0.664200   -1.124600
     23          8           0        3.598300   -0.718700    1.009600
     24          1           0        3.943500   -1.425300    1.594800
     25          8           0        2.511300   -2.794500    2.406100
     26          1           0        2.059200   -2.560300    3.236400
 ---------------------------------------------------------------------
                    Distance matrix (angstroms):
                    1          2          3          4          5
     1  C    0.000000
     2  C    1.539500   0.000000
     3  C    1.537949   2.543449   0.000000
     4  C    2.581397   1.538712   3.909888   0.000000
     5  H    2.186278   1.096294   2.656402   2.148516   0.000000
     6  H    1.096503   2.167217   2.158862   2.694009   2.658492
     7  C    2.547360   3.910545   1.532926   5.118180   4.150925
     8  H    2.183696   2.744408   1.096570   4.254657   2.810974
     9  C    3.125359   2.597836   4.629955   1.532498   3.511182
    10  H    2.894377   2.174262   4.157363   1.096082   2.459522
    11  H    2.789647   4.248218   2.179275   5.225434   4.496838
    12  H    2.859941   4.239469   2.187994   5.394635   4.694500
    13  H    3.456804   2.859806   4.849667   2.180967   3.838671
    14  H    2.895446   2.938486   4.419852   2.200199   3.910490
    15  O    3.781314   4.946650   2.403322   6.280162   4.944601
    16  H    4.480162   5.762767   3.239754   7.034270   5.843443
    17  O    2.432662   2.994671   1.435642   4.245136   2.578850
    18  H    3.241844   3.906088   1.926715   5.211694   3.476755
    19  O    1.434692   2.418609   2.431354   3.142645   3.353071
    20  H    1.930508   2.383797   2.717872   3.225866   3.326671
    21  O    2.416517   1.444440   3.095496   2.424811   2.049313
    22  H    3.238460   1.932195   3.951734   2.448549   2.275507
    23  O    3.805731   2.403015   4.932052   1.444781   2.613900
    24  H    4.486208   3.217776   5.743033   1.944983   3.547947
    25  O    4.461522   3.813521   5.970843   2.403908   4.550142
    26  H    4.611911   4.159268   6.123467   2.734779   4.830691
                    6          7          8          9         10
     6  H    0.000000
     7  C    2.817982   0.000000
     8  H    3.074705   2.151479   0.000000
     9  C    3.198125   5.558338   4.972675   0.000000
    10  H    2.596034   5.278061   4.714175   2.160656   0.000000
    11  H    2.618253   1.094763   3.070376   5.614177   5.182445
    12  H    3.273786   1.093800   2.494478   5.567106   5.705072
    13  H    3.822310   5.780978   4.971776   1.094075   3.077522
    14  H    2.763884   5.078300   4.918905   1.092932   2.532826
    15  O    4.078245   1.432773   2.653274   6.877687   6.414542
    16  H    4.684147   1.947400   3.518852   7.502395   7.146852
    17  O    2.638447   2.403643   2.048350   5.298992   4.217743
    18  H    3.463896   2.390586   2.317928   6.225316   5.195004
    19  O    2.063414   2.885288   2.765850   2.995065   3.689066
    20  H    2.821778   3.377169   2.659862   3.091194   4.003409
    21  O    3.346056   4.403079   2.777604   3.029594   3.373097
    22  H    4.045171   5.330497   3.619235   3.152016   3.429658
    23  O    4.059536   6.290502   5.053352   2.402381   2.047007
    24  H    4.626387   7.022660   5.914659   2.346901   2.385403
    25  O    4.349052   6.899743   6.353189   1.434948   2.651087
    26  H    4.263525   6.950432   6.655765   1.957010   2.595634
                   11         12         13         14         15
    11  H    0.000000
    12  H    1.789885   0.000000
    13  H    6.010368   5.632082   0.000000
    14  H    4.997050   5.021477   1.784848   0.000000
    15  O    2.046191   2.062713   7.067600   6.470838   0.000000
    16  H    2.285848   2.256579   7.688265   6.987962   0.973817
    17  O    2.697825   3.366418   5.694594   5.193049   2.724857
    18  H    2.760071   3.398180   6.570051   6.070897   2.161759
    19  O    3.200468   2.629719   3.016313   2.550973   4.232528
    20  H    3.923374   3.035495   2.790624   2.940687   4.569754
    21  O    5.006437   4.470985   2.734013   3.525856   5.336314
    22  H    5.901129   5.446143   2.808032   3.898880   6.215346
    23  O    6.510664   6.578563   2.682151   3.376065   7.330888
    24  H    7.169794   7.248644   2.647518   3.381061   8.141511
    25  O    6.849801   6.944088   2.039180   2.059846   8.223628
    26  H    6.747370   7.063835   2.813032   2.174825   8.286874
                   16         17         18         19         20
    16  H    0.000000
    17  O    3.628451   0.000000
    18  H    3.061037   0.980185   0.000000
    19  O    4.738659   3.682743   4.334379   0.000000
    20  H    5.135723   4.000899   4.626260   0.982869   0.000000
    21  O    6.140937   3.830723   4.580000   2.653380   2.055530
    22  H    7.053733   4.478125   5.252955   3.544070   2.951963
    23  O    8.155627   5.117274   6.056717   4.351958   4.184142
    24  H    8.927626   5.983445   6.940215   4.860273   4.726282
    25  O    8.842143   6.489156   7.446147   4.394211   4.509281
    26  H    8.864065   6.540147   7.494568   4.648593   4.951875
                   21         22         23         24         25
    21  O    0.000000
    22  H    0.981103   0.000000
    23  O    2.756791   2.227303   0.000000
    24  H    3.525925   2.989148   0.980258   0.000000
    25  O    4.266956   4.148303   2.727770   2.141054   0.000000
    26  H    4.867753   4.840568   3.273982   2.744752   0.973983
                   26
    26  H    0.000000
 Stoichiometry    C6H14O6
 Framework group  C1[X(C6H14O6)]
 Deg. of freedom    72
 Full point group                 C1      NOp   1
 Largest Abelian subgroup         C1      NOp   1
 Largest concise Abelian subgroup C1      NOp   1
                         Standard orientation:                         
 ---------------------------------------------------------------------
 Center     Atomic      Atomic             Coordinates (Angstroms)
 Number     Number       Type             X           Y           Z
 ---------------------------------------------------------------------
      1          6           0        0.536159   -0.319507   -0.177051
      2          6           0       -0.550390    0.728396    0.125225
      3          6           0        1.947077    0.256462    0.029973
      4          6           0       -1.928398    0.390220   -0.470059
      5          1           0       -0.254443    1.717756   -0.242804
      6          1           0        0.439026   -0.657125   -1.215751
      7          6           0        3.035168   -0.811292   -0.130715
      8          1           0        2.042339    0.707947    1.024736
      9          6           0       -2.520550   -0.956676   -0.041365
     10          1           0       -1.888090    0.439433   -1.564293
     11          1           0        2.979878   -1.281414   -1.117850
     12          1           0        2.968829   -1.577147    0.647400
     13          1           0       -2.620986   -1.015853    1.046482
     14          1           0       -1.936973   -1.808810   -0.398865
     15          8           0        4.311752   -0.167892   -0.034762
     16          1           0        4.981206   -0.872803   -0.091778
     17          8           0        2.193840    1.292699   -0.932520
     18          1           0        3.156928    1.461148   -0.862900
     19          8           0        0.342603   -1.447800    0.687722
     20          1           0        0.121718   -1.052583    1.560102
     21          8           0       -0.680097    0.840112    1.559485
     22          1           0       -1.438407    1.450463    1.681960
     23          8           0       -2.844248    1.423794   -0.045401
     24          1           0       -3.737522    1.044915   -0.184750
     25          8           0       -3.845342   -1.055870   -0.583734
     26          1           0       -3.755949   -1.361897   -1.504060
 ---------------------------------------------------------------------
 Rotational constants (GHZ):           1.9532642           0.4138267           0.3861889
 Standard basis: def2TZVPP (5D, 7F)
 There are   642 symmetry adapted cartesian basis functions of A   symmetry.
 There are   568 symmetry adapted basis functions of A   symmetry.
   568 basis functions,   850 primitive gaussians,   642 cartesian basis functions
    49 alpha electrons       49 beta electrons
       nuclear repulsion energy       809.8970926521 Hartrees.
 NAtoms=   26 NActive=   26 NUniq=   26 SFac= 1.00D+00 NAtFMM=   60 NAOKFM=F Big=F
 Integral buffers will be    131072 words long.
 Raffenetti 2 integral format.
 Two-electron integral symmetry is turned on.
 Nuclear repulsion after empirical dispersion term =      809.8795379397 Hartrees.
 One-electron integrals computed using PRISM.
   1 Symmetry operations used in ECPInt.
 ECPInt:  NShTT=   23436 NPrTT=   62434 LenC2=   21437 LenP2D=   44335.
 LDataN:  DoStor=T MaxTD1= 6 Len=  172
 NBasis=   568 RedAO= T EigKep=  5.16D-05  NBF=   568
 NBsUse=   568 1.00D-06 EigRej= -1.00D+00 NBFU=   568
 ExpMin= 9.52D-02 ExpMax= 2.70D+04 ExpMxC= 9.22D+02 IAcc=3 IRadAn=         5 AccDes= 0.00D+00
 Harris functional with IExCor= 4639 and IRadAn=       5 diagonalized for initial guess.
 HarFok:  IExCor= 4639 AccDes= 0.00D+00 IRadAn=         5 IDoV= 1 UseB2=F ITyADJ=14
 ICtDFT=  3500011 ScaDFX=  1.000000  1.000000  1.000000  1.000000
 FoFCou: FMM=F IPFlag=           0 FMFlag=      100000 FMFlg1=           0
         NFxFlg=           0 DoJE=T BraDBF=F KetDBF=T FulRan=T
         wScrn=  0.000000 ICntrl=       500 IOpCl=  0 I1Cent=   200000004 NGrid=           0
         NMat0=    1 NMatS0=      1 NMatT0=    0 NMatD0=    1 NMtDS0=    0 NMtDT0=    0
 Petite list used in FoFCou.
 Requested convergence on RMS density matrix=1.00D-08 within 128 cycles.
 Requested convergence on MAX density matrix=1.00D-06.
 Requested convergence on             energy=1.00D-06.
 No special actions if energy rises.
 Integral accuracy reduced to 1.0D-05 until final iterations.
 Initial convergence to 1.0D-05 achieved.  Increase integral accuracy.
 SCF Done:  E(RwB97XD) =  -688.469963360     A.U. after   14 cycles
            NFock= 14  Conv=0.22D-08     -V/T= 2.0050

 **********************************************************************

            Population analysis using the SCF Density.

 **********************************************************************

 Orbital symmetries:
       Occupied  (A) (A) (A) (A) (A) (A) (A) (A) (A) (A) (A) (A)
                 (A) (A) (A) (A) (A) (A) (A) (A) (A) (A) (A) (A)
                 (A) (A) (A) (A) (A) (A) (A) (A) (A) (A) (A) (A)
                 (A) (A) (A) (A) (A) (A) (A) (A) (A) (A) (A) (A)
                 (A)
       Virtual   (A) (A) (A) (A) (A) (A) (A) (A) (A) (A) (A) (A)
                 (A) (A) (A) (A) (A) (A) (A) (A) (A) (A) (A) (A)
                 (A) (A) (A) (A) (A) (A) (A) (A) (A) (A) (A) (A)
                 (A) (A) (A) (A) (A) (A) (A) (A) (A) (A) (A) (A)
                 (A) (A) (A) (A) (A) (A) (A) (A) (A) (A) (A) (A)
                 (A) (A) (A) (A) (A) (A) (A) (A) (A) (A) (A) (A)
                 (A) (A) (A) (A) (A) (A) (A) (A) (A) (A) (A) (A)
                 (A) (A) (A) (A) (A) (A) (A) (A) (A) (A) (A) (A)
                 (A) (A) (A) (A) (A) (A) (A) (A) (A) (A) (A) (A)
                 (A) (A) (A) (A) (A) (A) (A) (A) (A) (A) (A) (A)
                 (A) (A) (A) (A) (A) (A) (A) (A) (A) (A) (A) (A)
                 (A) (A) (A) (A) (A) (A) (A) (A) (A) (A) (A) (A)
                 (A) (A) (A) (A) (A) (A) (A) (A) (A) (A) (A) (A)
                 (A) (A) (A) (A) (A) (A) (A) (A) (A) (A) (A) (A)
                 (A) (A) (A) (A) (A) (A) (A) (A) (A) (A) (A) (A)
                 (A) (A) (A) (A) (A) (A) (A) (A) (A) (A) (A) (A)
                 (A) (A) (A) (A) (A) (A) (A) (A) (A) (A) (A) (A)
                 (A) (A) (A) (A) (A) (A) (A) (A) (A) (A) (A) (A)
                 (A) (A) (A) (A) (A) (A) (A) (A) (A) (A) (A) (A)
                 (A) (A) (A) (A) (A) (A) (A) (A) (A) (A) (A) (A)
                 (A) (A) (A) (A) (A) (A) (A) (A) (A) (A) (A) (A)
                 (A) (A) (A) (A) (A) (A) (A) (A) (A) (A) (A) (A)
                 (A) (A) (A) (A) (A) (A) (A) (A) (A) (A) (A) (A)
                 (A) (A) (A) (A) (A) (A) (A) (A) (A) (A) (A) (A)
                 (A) (A) (A) (A) (A) (A) (A) (A) (A) (A) (A) (A)
                 (A) (A) (A) (A) (A) (A) (A) (A) (A) (A) (A) (A)
                 (A) (A) (A) (A) (A) (A) (A) (A) (A) (A) (A) (A)
                 (A) (A) (A) (A) (A) (A) (A) (A) (A) (A) (A) (A)
                 (A) (A) (A) (A) (A) (A) (A) (A) (A) (A) (A) (A)
                 (A) (A) (A) (A) (A) (A) (A) (A) (A) (A) (A) (A)
                 (A) (A) (A) (A) (A) (A) (A) (A) (A) (A) (A) (A)
                 (A) (A) (A) (A) (A) (A) (A) (A) (A) (A) (A) (A)
                 (A) (A) (A) (A) (A) (A) (A) (A) (A) (A) (A) (A)
                 (A) (A) (A) (A) (A) (A) (A) (A) (A) (A) (A) (A)
                 (A) (A) (A) (A) (A) (A) (A) (A) (A) (A) (A) (A)
                 (A) (A) (A) (A) (A) (A) (A) (A) (A) (A) (A) (A)
                 (A) (A) (A) (A) (A) (A) (A) (A) (A) (A) (A) (A)
                 (A) (A) (A) (A) (A) (A) (A) (A) (A) (A) (A) (A)
                 (A) (A) (A) (A) (A) (A) (A) (A) (A) (A) (A) (A)
                 (A) (A) (A) (A) (A) (A) (A) (A) (A) (A) (A) (A)
                 (A) (A) (A) (A) (A) (A) (A) (A) (A) (A) (A) (A)
                 (A) (A) (A) (A) (A) (A) (A) (A) (A) (A) (A) (A)
                 (A) (A) (A) (A) (A) (A) (A) (A) (A) (A) (A) (A)
                 (A) (A) (A)
 The electronic state is 1-A.
 Alpha  occ. eigenvalues --  -19.26639 -19.26240 -19.25990 -19.25601 -19.25524
 Alpha  occ. eigenvalues --  -19.24684 -10.35050 -10.34507 -10.34430 -10.33872
 Alpha  occ. eigenvalues --  -10.33602 -10.33340  -1.15294  -1.14244  -1.13689
 Alpha  occ. eigenvalues --   -1.11955  -1.10947  -1.10513  -0.88224  -0.85097
 Alpha  occ. eigenvalues --   -0.80354  -0.75076  -0.69542  -0.68995  -0.62985
 Alpha  occ. eigenvalues --   -0.62150  -0.60923  -0.60152  -0.58732  -0.56894
 Alpha  occ. eigenvalues --   -0.56425  -0.55513  -0.53855  -0.52315  -0.50928
 Alpha  occ. eigenvalues --   -0.50363  -0.47612  -0.45867  -0.44920  -0.44389
 Alpha  occ. eigenvalues --   -0.43548  -0.42930  -0.42405  -0.40123  -0.37728
 Alpha  occ. eigenvalues --   -0.37161  -0.36631  -0.36048  -0.35359
 Alpha virt. eigenvalues --    0.08994   0.09629   0.10981   0.12872   0.13782
 Alpha virt. eigenvalues --    0.15050   0.16327   0.16621   0.18180   0.19280
 Alpha virt. eigenvalues --    0.19464   0.19744   0.20914   0.21095   0.21228
 Alpha virt. eigenvalues --    0.22593   0.23575   0.24208   0.25718   0.26189
 Alpha virt. eigenvalues --    0.27528   0.30064   0.30293   0.31965   0.32769
 Alpha virt. eigenvalues --    0.34764   0.35068   0.36860   0.38017   0.38294
 Alpha virt. eigenvalues --    0.39116   0.40045   0.40745   0.40976   0.41561
 Alpha virt. eigenvalues --    0.41991   0.43169   0.43514   0.44561   0.44757
 Alpha virt. eigenvalues --    0.44932   0.46307   0.47633   0.48243   0.48886
 Alpha virt. eigenvalues --    0.49190   0.49367   0.49818   0.50584   0.51196
 Alpha virt. eigenvalues --    0.51709   0.52635   0.52767   0.54039   0.54752
 Alpha virt. eigenvalues --    0.55502   0.56388   0.57113   0.57568   0.58493
 Alpha virt. eigenvalues --    0.59365   0.60918   0.61094   0.62275   0.63007
 Alpha virt. eigenvalues --    0.64909   0.66436   0.67776   0.68032   0.68408
 Alpha virt. eigenvalues --    0.69304   0.69449   0.70863   0.71567   0.72332
 Alpha virt. eigenvalues --    0.73357   0.74208   0.74890   0.76376   0.79983
 Alpha virt. eigenvalues --    0.81644   0.81740   0.83183   0.83926   0.85545
 Alpha virt. eigenvalues --    0.86233   0.88721   0.89235   0.89941   0.91795
 Alpha virt. eigenvalues --    0.92200   0.93367   0.94450   0.95224   0.95885
 Alpha virt. eigenvalues --    0.96559   0.96840   0.98286   0.99662   1.00424
 Alpha virt. eigenvalues --    1.01675   1.03490   1.03811   1.04948   1.05311
 Alpha virt. eigenvalues --    1.07707   1.09311   1.10337   1.11151   1.11488
 Alpha virt. eigenvalues --    1.12389   1.14372   1.16420   1.17015   1.17977
 Alpha virt. eigenvalues --    1.19605   1.20262   1.21565   1.21658   1.23697
 Alpha virt. eigenvalues --    1.24358   1.25673   1.26854   1.29357   1.29748
 Alpha virt. eigenvalues --    1.30790   1.31665   1.32885   1.33238   1.35387
 Alpha virt. eigenvalues --    1.36164   1.37400   1.37762   1.38603   1.39759
 Alpha virt. eigenvalues --    1.40076   1.41261   1.44302   1.44789   1.44868
 Alpha virt. eigenvalues --    1.46320   1.49238   1.50087   1.50962   1.52399
 Alpha virt. eigenvalues --    1.53243   1.53408   1.54313   1.56773   1.57285
 Alpha virt. eigenvalues --    1.57602   1.58429   1.59277   1.61729   1.62350
 Alpha virt. eigenvalues --    1.65817   1.66787   1.68185   1.70409   1.72397
 Alpha virt. eigenvalues --    1.73010   1.74572   1.76484   1.80437   1.80797
 Alpha virt. eigenvalues --    1.87434   1.88781   1.89619   1.90810   1.92789
 Alpha virt. eigenvalues --    1.93673   1.95381   1.95671   1.97607   1.98952
 Alpha virt. eigenvalues --    1.99814   2.02482   2.02514   2.03469   2.04731
 Alpha virt. eigenvalues --    2.05220   2.06087   2.07144   2.08070   2.08790
 Alpha virt. eigenvalues --    2.10230   2.11179   2.12412   2.15203   2.16036
 Alpha virt. eigenvalues --    2.17350   2.19653   2.20133   2.21610   2.23886
 Alpha virt. eigenvalues --    2.25906   2.28162   2.29853   2.30495   2.31734
 Alpha virt. eigenvalues --    2.34726   2.35451   2.37554   2.39804   2.41858
 Alpha virt. eigenvalues --    2.44195   2.45644   2.47665   2.49403   2.50760
 Alpha virt. eigenvalues --    2.52530   2.55514   2.58139   2.60605   2.62651
 Alpha virt. eigenvalues --    2.65302   2.66515   2.67096   2.69994   2.70521
 Alpha virt. eigenvalues --    2.71804   2.73567   2.75007   2.76299   2.77808
 Alpha virt. eigenvalues --    2.79095   2.80225   2.81775   2.82778   2.84311
 Alpha virt. eigenvalues --    2.85814   2.86495   2.86680   2.88500   2.90128
 Alpha virt. eigenvalues --    2.91105   2.92580   2.94335   2.97913   2.98429
 Alpha virt. eigenvalues --    2.99506   3.00071   3.01157   3.02288   3.03976
 Alpha virt. eigenvalues --    3.05607   3.06138   3.06838   3.09380   3.11695
 Alpha virt. eigenvalues --    3.13099   3.13749   3.14589   3.16146   3.16569
 Alpha virt. eigenvalues --    3.17204   3.17595   3.18692   3.20108   3.20488
 Alpha virt. eigenvalues --    3.22548   3.24366   3.25179   3.25436   3.26315
 Alpha virt. eigenvalues --    3.27317   3.28464   3.30307   3.30502   3.31423
 Alpha virt. eigenvalues --    3.32997   3.33736   3.34482   3.34712   3.35662
 Alpha virt. eigenvalues --    3.38584   3.38824   3.39940   3.40540   3.41562
 Alpha virt. eigenvalues --    3.42622   3.42681   3.43974   3.44387   3.45419
 Alpha virt. eigenvalues --    3.46732   3.48028   3.50346   3.51317   3.52103
 Alpha virt. eigenvalues --    3.53345   3.55811   3.57237   3.58025   3.58467
 Alpha virt. eigenvalues --    3.60740   3.61536   3.62418   3.63879   3.65559
 Alpha virt. eigenvalues --    3.67439   3.70056   3.71401   3.71683   3.72696
 Alpha virt. eigenvalues --    3.73432   3.73793   3.75299   3.76528   3.77946
 Alpha virt. eigenvalues --    3.78484   3.79882   3.80414   3.81525   3.83847
 Alpha virt. eigenvalues --    3.85120   3.87487   3.89031   3.89740   3.89900
 Alpha virt. eigenvalues --    3.90997   3.92151   3.93451   3.94093   3.94761
 Alpha virt. eigenvalues --    3.97112   3.97533   3.99526   4.00060   4.00704
 Alpha virt. eigenvalues --    4.01352   4.02844   4.03555   4.05033   4.05385
 Alpha virt. eigenvalues --    4.06343   4.07823   4.08798   4.11188   4.12123
 Alpha virt. eigenvalues --    4.13085   4.13688   4.14438   4.15273   4.16511
 Alpha virt. eigenvalues --    4.17230   4.18349   4.19295   4.20080   4.21704
 Alpha virt. eigenvalues --    4.22059   4.23256   4.24533   4.25902   4.26979
 Alpha virt. eigenvalues --    4.29048   4.29785   4.31411   4.32782   4.34115
 Alpha virt. eigenvalues --    4.34798   4.36138   4.37272   4.38732   4.39629
 Alpha virt. eigenvalues --    4.40912   4.41565   4.43936   4.44796   4.47192
 Alpha virt. eigenvalues --    4.47609   4.49074   4.52302   4.53032   4.54945
 Alpha virt. eigenvalues --    4.55854   4.56438   4.58439   4.59777   4.60861
 Alpha virt. eigenvalues --    4.63448   4.65545   4.66990   4.70868   4.73202
 Alpha virt. eigenvalues --    4.74297   4.74990   4.75832   4.77427   4.79056
 Alpha virt. eigenvalues --    4.79966   4.81132   4.83430   4.87439   4.89348
 Alpha virt. eigenvalues --    4.90513   4.91389   4.93641   4.95083   4.95785
 Alpha virt. eigenvalues --    4.97700   5.00535   5.01435   5.02614   5.03535
 Alpha virt. eigenvalues --    5.05216   5.05773   5.07899   5.09617   5.10041
 Alpha virt. eigenvalues --    5.12007   5.14638   5.17688   5.17801   5.18692
 Alpha virt. eigenvalues --    5.20132   5.21376   5.24968   5.25443   5.29983
 Alpha virt. eigenvalues --    5.32143   5.35608   5.37522   5.41432   5.44959
 Alpha virt. eigenvalues --    5.45797   5.47852   5.56521   5.56658   5.58612
 Alpha virt. eigenvalues --    5.61321   5.62777   5.63872   5.64418   5.65633
 Alpha virt. eigenvalues --    5.69626   5.70604   5.72146   5.72822   5.72968
 Alpha virt. eigenvalues --    5.75347   5.79375   5.80237   5.83538   5.84633
 Alpha virt. eigenvalues --    5.87764   5.88470   5.92170   5.93774   5.95740
 Alpha virt. eigenvalues --    5.96781   6.01526   6.02579   6.11874   6.13115
 Alpha virt. eigenvalues --    6.13840   6.15744   6.18479   6.19403   6.53201
 Alpha virt. eigenvalues --    6.54359   6.55049   6.56437   6.56654   6.56748
 Alpha virt. eigenvalues --    6.71986   6.73197   6.73471   6.74564   6.76096
 Alpha virt. eigenvalues --    6.77536   6.77831   6.78370   6.78788   6.79957
 Alpha virt. eigenvalues --    6.80354   6.80883   6.82414   6.84633   6.87538
 Alpha virt. eigenvalues --    6.87698   6.90510   6.92021   6.97067   6.98673
 Alpha virt. eigenvalues --    7.02216   7.04621   7.04776   7.05823   7.13842
 Alpha virt. eigenvalues --    7.15274   7.17593   7.21622   7.23167   7.24324
 Alpha virt. eigenvalues --    7.41271   7.41697   7.42380   7.43350   7.44492
 Alpha virt. eigenvalues --    7.47107   7.50057   7.51087   7.55201   7.57883
 Alpha virt. eigenvalues --    7.58789   7.66585  23.13585  23.14785  23.16184
 Alpha virt. eigenvalues --   23.21524  23.41572  23.44312  44.11266  44.13307
 Alpha virt. eigenvalues --   44.20496  44.25749  44.32560  44.35444
          Condensed to atoms (all electrons):
               1          2          3          4          5          6
     1  C    5.110492   0.166408   0.137961   0.055445  -0.046893   0.387429
     2  C    0.166408   5.215055   0.023811   0.060729   0.431472  -0.047129
     3  C    0.137961   0.023811   4.979067  -0.027470  -0.002281  -0.016920
     4  C    0.055445   0.060729  -0.027470   5.062633  -0.018409   0.003959
     5  H   -0.046893   0.431472  -0.002281  -0.018409   0.540915   0.002090
     6  H    0.387429  -0.047129  -0.016920   0.003959   0.002090   0.594844
     7  C   -0.000298  -0.000744   0.291955  -0.000123   0.000691  -0.014639
     8  H   -0.010878  -0.017877   0.387668   0.001157  -0.001657   0.009065
     9  C    0.004763   0.005660   0.004246   0.282945   0.006183  -0.002852
    10  H   -0.007845  -0.050937  -0.001174   0.443312  -0.006529   0.003548
    11  H    0.017447  -0.000874  -0.054682   0.000342  -0.000071   0.007122
    12  H   -0.020008  -0.000819  -0.018806  -0.000124  -0.000155   0.001243
    13  H   -0.008218   0.000704  -0.000306  -0.028429   0.000229   0.000584
    14  H    0.002412   0.000288   0.000122  -0.056977  -0.000801  -0.001221
    15  O    0.007314  -0.000205  -0.076667   0.000002  -0.000019  -0.000398
    16  H   -0.001792   0.000030   0.011040  -0.000001   0.000005  -0.000046
    17  O   -0.069638  -0.010783   0.302365  -0.001265   0.017083   0.012986
    18  H    0.009403   0.000600  -0.041908   0.000021  -0.000780  -0.000497
    19  O    0.229544  -0.002936  -0.023040  -0.024715   0.003016  -0.026862
    20  H   -0.072645  -0.006768   0.023329  -0.000060   0.001527   0.007741
    21  O   -0.057308   0.234693  -0.003709  -0.021484  -0.033037   0.002809
    22  H    0.009965  -0.047442  -0.000162   0.001303  -0.006033  -0.000257
    23  O    0.005650  -0.075474  -0.000136   0.286809   0.001058   0.000030
    24  H   -0.001481   0.012146   0.000057  -0.046463  -0.000551  -0.000018
    25  O   -0.001879   0.018227   0.000022  -0.063465  -0.000372  -0.000092
    26  H   -0.000601   0.000906  -0.000018   0.007733  -0.000038   0.000057
               7          8          9         10         11         12
     1  C   -0.000298  -0.010878   0.004763  -0.007845   0.017447  -0.020008
     2  C   -0.000744  -0.017877   0.005660  -0.050937  -0.000874  -0.000819
     3  C    0.291955   0.387668   0.004246  -0.001174  -0.054682  -0.018806
     4  C   -0.000123   0.001157   0.282945   0.443312   0.000342  -0.000124
     5  H    0.000691  -0.001657   0.006183  -0.006529  -0.000071  -0.000155
     6  H   -0.014639   0.009065  -0.002852   0.003548   0.007122   0.001243
     7  C    4.740456  -0.031569   0.000036   0.000001   0.405983   0.431803
     8  H   -0.031569   0.621216  -0.000106  -0.000061   0.010891  -0.006508
     9  C    0.000036  -0.000106   4.763993  -0.050003  -0.000085   0.000024
    10  H    0.000001  -0.000061  -0.050003   0.632899   0.000001   0.000004
    11  H    0.405983   0.010891  -0.000085   0.000001   0.627236  -0.037614
    12  H    0.431803  -0.006508   0.000024   0.000004  -0.037614   0.588983
    13  H   -0.000023  -0.000024   0.383882   0.007802   0.000002  -0.000003
    14  H    0.000095  -0.000022   0.441926   0.000397   0.000000  -0.000008
    15  O    0.286769   0.008383  -0.000000  -0.000000  -0.051664  -0.045518
    16  H   -0.030021  -0.000438  -0.000000   0.000000  -0.005958  -0.005209
    17  O   -0.030739  -0.046208   0.000002   0.000323   0.001054   0.004847
    18  H   -0.005103  -0.005520   0.000009  -0.000022  -0.002338   0.001468
    19  O   -0.009223  -0.002553   0.013900  -0.000264   0.000536   0.014376
    20  H   -0.005750   0.001494   0.000855   0.000014  -0.000066   0.001052
    21  O    0.000109   0.010516  -0.021634   0.005111  -0.000027   0.000002
    22  H    0.000037  -0.000554  -0.001866   0.001946   0.000001   0.000004
    23  O    0.000006  -0.000009  -0.036175  -0.039896  -0.000000  -0.000000
    24  H   -0.000002   0.000002  -0.010392  -0.002467   0.000000  -0.000000
    25  O   -0.000001  -0.000000   0.240926  -0.000969  -0.000000  -0.000000
    26  H    0.000000  -0.000000  -0.045913   0.005250  -0.000000   0.000000
              13         14         15         16         17         18
     1  C   -0.008218   0.002412   0.007314  -0.001792  -0.069638   0.009403
     2  C    0.000704   0.000288  -0.000205   0.000030  -0.010783   0.000600
     3  C   -0.000306   0.000122  -0.076667   0.011040   0.302365  -0.041908
     4  C   -0.028429  -0.056977   0.000002  -0.000001  -0.001265   0.000021
     5  H    0.000229  -0.000801  -0.000019   0.000005   0.017083  -0.000780
     6  H    0.000584  -0.001221  -0.000398  -0.000046   0.012986  -0.000497
     7  C   -0.000023   0.000095   0.286769  -0.030021  -0.030739  -0.005103
     8  H   -0.000024  -0.000022   0.008383  -0.000438  -0.046208  -0.005520
     9  C    0.383882   0.441926  -0.000000  -0.000000   0.000002   0.000009
    10  H    0.007802   0.000397  -0.000000   0.000000   0.000323  -0.000022
    11  H    0.000002   0.000000  -0.051664  -0.005958   0.001054  -0.002338
    12  H   -0.000003  -0.000008  -0.045518  -0.005209   0.004847   0.001468
    13  H    0.577690  -0.017860  -0.000000  -0.000000  -0.000002  -0.000000
    14  H   -0.017860   0.582951   0.000000  -0.000000  -0.000020   0.000002
    15  O   -0.000000   0.000000   7.886773   0.327063  -0.011163   0.023288
    16  H   -0.000000  -0.000000   0.327063   0.526464   0.000234  -0.001452
    17  O   -0.000002  -0.000020  -0.011163   0.000234   7.876972   0.328832
    18  H   -0.000000   0.000002   0.023288  -0.001452   0.328832   0.489806
    19  O   -0.000674   0.005090   0.000254   0.000092   0.002577  -0.000300
    20  H    0.000779  -0.001923  -0.000045   0.000003  -0.000054   0.000013
    21  O    0.016363   0.000799   0.000002   0.000000   0.000388  -0.000049
    22  H    0.000908   0.000093  -0.000001   0.000000  -0.000005  -0.000007
    23  O    0.001355   0.005402  -0.000000   0.000000   0.000012  -0.000001
    24  H   -0.001503   0.002031   0.000000  -0.000000  -0.000000   0.000000
    25  O   -0.029111  -0.037058  -0.000000  -0.000000  -0.000000   0.000000
    26  H    0.009409  -0.012999  -0.000000  -0.000000  -0.000000  -0.000000
              19         20         21         22         23         24
     1  C    0.229544  -0.072645  -0.057308   0.009965   0.005650  -0.001481
     2  C   -0.002936  -0.006768   0.234693  -0.047442  -0.075474   0.012146
     3  C   -0.023040   0.023329  -0.003709  -0.000162  -0.000136   0.000057
     4  C   -0.024715  -0.000060  -0.021484   0.001303   0.286809  -0.046463
     5  H    0.003016   0.001527  -0.033037  -0.006033   0.001058  -0.000551
     6  H   -0.026862   0.007741   0.002809  -0.000257   0.000030  -0.000018
     7  C   -0.009223  -0.005750   0.000109   0.000037   0.000006  -0.000002
     8  H   -0.002553   0.001494   0.010516  -0.000554  -0.000009   0.000002
     9  C    0.013900   0.000855  -0.021634  -0.001866  -0.036175  -0.010392
    10  H   -0.000264   0.000014   0.005111   0.001946  -0.039896  -0.002467
    11  H    0.000536  -0.000066  -0.000027   0.000001  -0.000000   0.000000
    12  H    0.014376   0.001052   0.000002   0.000004  -0.000000  -0.000000
    13  H   -0.000674   0.000779   0.016363   0.000908   0.001355  -0.001503
    14  H    0.005090  -0.001923   0.000799   0.000093   0.005402   0.002031
    15  O    0.000254  -0.000045   0.000002  -0.000001  -0.000000   0.000000
    16  H    0.000092   0.000003   0.000000   0.000000   0.000000  -0.000000
    17  O    0.002577  -0.000054   0.000388  -0.000005   0.000012  -0.000000
    18  H   -0.000300   0.000013  -0.000049  -0.000007  -0.000001   0.000000
    19  O    7.907149   0.326403  -0.016708   0.000413   0.000062   0.000047
    20  H    0.326403   0.488604   0.028033  -0.001494   0.000007   0.000008
    21  O   -0.016708   0.028033   7.939414   0.329840  -0.010429  -0.000258
    22  H    0.000413  -0.001494   0.329840   0.480339   0.027351  -0.001188
    23  O    0.000062   0.000007  -0.010429   0.027351   7.913549   0.331120
    24  H    0.000047   0.000008  -0.000258  -0.001188   0.331120   0.480510
    25  O    0.000397  -0.000011  -0.000135  -0.000057  -0.015757   0.031315
    26  H    0.000033  -0.000004  -0.000012   0.000006  -0.000101  -0.002106
              25         26
     1  C   -0.001879  -0.000601
     2  C    0.018227   0.000906
     3  C    0.000022  -0.000018
     4  C   -0.063465   0.007733
     5  H   -0.000372  -0.000038
     6  H   -0.000092   0.000057
     7  C   -0.000001   0.000000
     8  H   -0.000000  -0.000000
     9  C    0.240926  -0.045913
    10  H   -0.000969   0.005250
    11  H   -0.000000  -0.000000
    12  H   -0.000000   0.000000
    13  H   -0.029111   0.009409
    14  H   -0.037058  -0.012999
    15  O   -0.000000  -0.000000
    16  H   -0.000000  -0.000000
    17  O   -0.000000  -0.000000
    18  H    0.000000  -0.000000
    19  O    0.000397   0.000033
    20  H   -0.000011  -0.000004
    21  O   -0.000135  -0.000012
    22  H   -0.000057   0.000006
    23  O   -0.015757  -0.000101
    24  H    0.031315  -0.002106
    25  O    7.907956   0.315022
    26  H    0.315022   0.537757
 Mulliken charges:
               1
     1  C    0.155251
     2  C    0.091259
     3  C    0.105636
     4  C    0.082595
     5  H    0.113359
     6  H    0.077426
     7  C   -0.029706
     8  H    0.073592
     9  C    0.019676
    10  H    0.059561
    11  H    0.082765
    12  H    0.090969
    13  H    0.086447
    14  H    0.087281
    15  O   -0.354166
    16  H    0.179985
    17  O   -0.377799
    18  H    0.204535
    19  O   -0.396612
    20  H    0.208957
    21  O   -0.403289
    22  H    0.206860
    23  O   -0.394435
    24  H    0.209193
    25  O   -0.364959
    26  H    0.185618
 Sum of Mulliken charges =  -0.00000
 Mulliken charges with hydrogens summed into heavy atoms:
               1
     1  C    0.232677
     2  C    0.204618
     3  C    0.179228
     4  C    0.142156
     7  C    0.144028
     9  C    0.193404
    15  O   -0.174181
    17  O   -0.173264
    19  O   -0.187655
    21  O   -0.196429
    23  O   -0.185241
    25  O   -0.179341
 Electronic spatial extent (au):  <R**2>=           2892.4690
 Charge=             -0.0000 electrons
 Dipole moment (field-independent basis, Debye):
    X=              0.8075    Y=             -2.0430    Z=             -1.1990  Tot=              2.5027
 Quadrupole moment (field-independent basis, Debye-Ang):
   XX=            -65.5594   YY=            -75.0645   ZZ=            -69.0347
   XY=             -5.1165   XZ=              3.2975   YZ=              4.1924
 Traceless Quadrupole moment (field-independent basis, Debye-Ang):
   XX=              4.3268   YY=             -5.1783   ZZ=              0.8515
   XY=             -5.1165   XZ=              3.2975   YZ=              4.1924
 Octapole moment (field-independent basis, Debye-Ang**2):
  XXX=             67.0039  YYY=              2.3020  ZZZ=              0.6072  XYY=             11.0561
  XXY=            -26.5974  XXZ=            -17.5086  XZZ=            -18.7289  YZZ=             -8.1741
  YYZ=              0.0712  XYZ=             -7.8179
 Hexadecapole moment (field-independent basis, Debye-Ang**3):
 XXXX=          -2452.7179 YYYY=           -497.1974 ZZZZ=           -260.4269 XXXY=           -188.8435
 XXXZ=             12.8753 YYYX=             16.6684 YYYZ=             17.7776 ZZZX=             19.7944
 ZZZY=              8.7806 XXYY=           -489.3263 XXZZ=           -450.2186 YYZZ=           -111.0883
 XXYZ=             28.7767 YYXZ=              2.3163 ZZXY=             10.3873
 N-N= 8.098795379397D+02 E-N=-3.237265408098D+03  KE= 6.850265432332D+02
   1 Symmetry operations used in ECPInt.
 ECPInt:  NShTT=   23436 NPrTT=   62434 LenC2=   21437 LenP2D=   44335.
 LDataN:  DoStor=T MaxTD1= 7 Len=  274
 Calling FoFJK, ICntrl=      2127 FMM=F ISym2X=0 I1Cent= 0 IOpClX= 0 NMat=1 NMatS=1 NMatT=0.
 ***** Axes restored to original set *****
 -------------------------------------------------------------------
 Center     Atomic                   Forces (Hartrees/Bohr)
 Number     Number              X              Y              Z
 -------------------------------------------------------------------
      1        6           0.004971924   -0.006724955   -0.013130616
      2        6           0.012679797   -0.005086041   -0.004659487
      3        6          -0.009011243    0.015807571    0.002366199
      4        6           0.012050562   -0.003742380   -0.003869750
      5        1          -0.005798114   -0.000435888    0.004676780
      6        1           0.000101905   -0.001452093   -0.003303732
      7        6          -0.003828447    0.001013238   -0.004946582
      8        1          -0.000178933   -0.006546593    0.000672736
      9        6          -0.000115091   -0.000353807    0.010605347
     10        1          -0.006325028    0.000797575   -0.001133033
     11        1           0.004582678   -0.004660516    0.003009605
     12        1           0.004467344   -0.001415747    0.003981518
     13        1          -0.001200671    0.003713890    0.002783881
     14        1           0.000622638    0.003279803   -0.006114485
     15        8          -0.011832677   -0.005544053   -0.000857056
     16        1           0.018479527    0.005169581    0.000716628
     17        8          -0.011445447   -0.001747923   -0.010537530
     18        1           0.011478188   -0.009988128    0.011781311
     19        8           0.012975666    0.009906085   -0.008886941
     20        1          -0.011445789    0.002417343    0.015114699
     21        8           0.011203047    0.005728303    0.013104567
     22        1          -0.019447850   -0.001919945   -0.003641822
     23        8          -0.008883087   -0.010831919    0.007204774
     24        1          -0.005927514    0.013045955   -0.010826955
     25        8          -0.008366327    0.004256159    0.009777292
     26        1           0.010192943   -0.004685517   -0.013887347
 -------------------------------------------------------------------
 Cartesian Forces:  Max     0.019447850 RMS     0.008081462

 GradGradGradGradGradGradGradGradGradGradGradGradGradGradGradGradGradGrad
 Berny optimization.
 FormGI is forming the generalized inverse of G from B-inverse, IUseBI=4.
 Internal  Forces:  Max     0.019606835 RMS     0.005767785
 Search for a local minimum.
 Step number   1 out of a maximum of  140
 All quantities printed in internal units (Hartrees-Bohrs-Radians)
 Mixed Optimization -- RFO/linear search
 Second derivative matrix not updated -- first step.
 ITU=  0
     Eigenvalues ---    0.00243   0.00254   0.00264   0.00330   0.00336
     Eigenvalues ---    0.01099   0.01104   0.01220   0.01229   0.01233
     Eigenvalues ---    0.01258   0.03803   0.03950   0.04193   0.04304
     Eigenvalues ---    0.04734   0.04805   0.04808   0.04815   0.05202
     Eigenvalues ---    0.05266   0.05509   0.05579   0.07204   0.07410
     Eigenvalues ---    0.07615   0.07883   0.11350   0.11421   0.13627
     Eigenvalues ---    0.13632   0.16000   0.16000   0.16000   0.16000
     Eigenvalues ---    0.16000   0.16000   0.16521   0.16613   0.16964
     Eigenvalues ---    0.17144   0.19414   0.19597   0.19653   0.19725
     Eigenvalues ---    0.22004   0.22030   0.28563   0.28633   0.28701
     Eigenvalues ---    0.29155   0.29194   0.34064   0.34072   0.34095
     Eigenvalues ---    0.34119   0.34268   0.34346   0.34377   0.34476
     Eigenvalues ---    0.38937   0.38983   0.40189   0.40286   0.40322
     Eigenvalues ---    0.40593   0.50832   0.51171   0.51335   0.51349
     Eigenvalues ---    0.52571   0.52605
 RFO step:  Lambda=-1.55275618D-02 EMin= 2.43438252D-03
 Linear search not attempted -- first point.
 Iteration  1 RMS(Cart)=  0.06482205 RMS(Int)=  0.00145488
 Iteration  2 RMS(Cart)=  0.00186582 RMS(Int)=  0.00043147
 Iteration  3 RMS(Cart)=  0.00000211 RMS(Int)=  0.00043147
 Iteration  4 RMS(Cart)=  0.00000000 RMS(Int)=  0.00043147
 Variable       Old X    -DE/DX   Delta X   Delta X   Delta X     New X
                                 (Linear)    (Quad)   (Total)
    R1        2.90923  -0.00932   0.00000  -0.03093  -0.03093   2.87830
    R2        2.90630  -0.01034   0.00000  -0.03416  -0.03416   2.87214
    R3        2.07209  -0.00332   0.00000  -0.00933  -0.00933   2.06276
    R4        2.71118  -0.01346   0.00000  -0.03214  -0.03214   2.67903
    R5        2.90774  -0.01012   0.00000  -0.03354  -0.03354   2.87420
    R6        2.07170  -0.00248   0.00000  -0.00696  -0.00696   2.06473
    R7        2.72960  -0.01222   0.00000  -0.03015  -0.03015   2.69944
    R8        2.89681  -0.01170   0.00000  -0.03811  -0.03811   2.85870
    R9        2.07222  -0.00033   0.00000  -0.00091  -0.00091   2.07130
   R10        2.71297  -0.01005   0.00000  -0.02409  -0.02409   2.68888
   R11        2.89600  -0.00595   0.00000  -0.01936  -0.01936   2.87664
   R12        2.07129   0.00063   0.00000   0.00177   0.00177   2.07307
   R13        2.73024  -0.01419   0.00000  -0.03506  -0.03506   2.69518
   R14        2.06880   0.00044   0.00000   0.00122   0.00122   2.07002
   R15        2.06698  -0.00196   0.00000  -0.00547  -0.00547   2.06151
   R16        2.70755  -0.00228   0.00000  -0.00541  -0.00541   2.70214
   R17        2.06750  -0.00450   0.00000  -0.01253  -0.01253   2.05497
   R18        2.06534  -0.00224   0.00000  -0.00622  -0.00622   2.05912
   R19        2.71166  -0.00193   0.00000  -0.00461  -0.00461   2.70705
   R20        1.84025  -0.01888   0.00000  -0.03486  -0.03486   1.80539
   R21        1.85228  -0.01902   0.00000  -0.03594  -0.03594   1.81634
   R22        1.85735  -0.01901   0.00000  -0.03628  -0.03628   1.82107
   R23        1.85402  -0.01961   0.00000  -0.03719  -0.03719   1.81683
   R24        1.85242  -0.01795   0.00000  -0.03395  -0.03395   1.81847
   R25        1.84056  -0.01770   0.00000  -0.03270  -0.03270   1.80786
    A1        1.94565  -0.00340   0.00000  -0.00906  -0.00940   1.93625
    A2        1.91034   0.00030   0.00000  -0.00420  -0.00423   1.90611
    A3        1.89836   0.00426   0.00000   0.03342   0.03338   1.93174
    A4        1.90085   0.00048   0.00000  -0.01117  -0.01124   1.88961
    A5        1.91469   0.00071   0.00000   0.01151   0.01137   1.92605
    A6        1.89324  -0.00235   0.00000  -0.02098  -0.02089   1.87235
    A7        1.98943   0.00291   0.00000   0.00533   0.00543   1.99486
    A8        1.93675  -0.00175   0.00000  -0.02786  -0.02774   1.90901
    A9        1.88703  -0.00615   0.00000  -0.03386  -0.03378   1.85325
   A10        1.88623  -0.00188   0.00000  -0.00807  -0.00865   1.87758
   A11        1.89729   0.00337   0.00000   0.02314   0.02302   1.92031
   A12        1.86270   0.00377   0.00000   0.04564   0.04522   1.90792
   A13        1.95650   0.00046   0.00000  -0.00753  -0.00735   1.94916
   A14        1.93478  -0.00085   0.00000  -0.02321  -0.02298   1.91180
   A15        1.91533  -0.00688   0.00000  -0.04380  -0.04356   1.87177
   A16        1.89675  -0.00084   0.00000   0.00397   0.00311   1.89986
   A17        1.88649   0.00513   0.00000   0.03005   0.02947   1.91596
   A18        1.87137   0.00331   0.00000   0.04458   0.04374   1.91512
   A19        2.01638   0.00282   0.00000   0.00544   0.00556   2.02194
   A20        1.92135  -0.00102   0.00000  -0.01891  -0.01874   1.90261
   A21        1.87209  -0.00676   0.00000  -0.03880  -0.03873   1.83337
   A22        1.91021  -0.00198   0.00000  -0.00651  -0.00694   1.90327
   A23        1.87715   0.00377   0.00000   0.02247   0.02234   1.89949
   A24        1.85941   0.00334   0.00000   0.04035   0.03996   1.89937
   A25        1.93669  -0.00257   0.00000  -0.03076  -0.03048   1.90621
   A26        1.94990  -0.00090   0.00000  -0.02139  -0.02120   1.92870
   A27        1.88875  -0.01226   0.00000  -0.04898  -0.04876   1.83999
   A28        1.91528  -0.00014   0.00000  -0.00191  -0.00399   1.91129
   A29        1.87363   0.00875   0.00000   0.05898   0.05789   1.93151
   A30        1.89739   0.00761   0.00000   0.04860   0.04758   1.94497
   A31        1.94030  -0.00196   0.00000  -0.02704  -0.02743   1.91287
   A32        1.96864  -0.00391   0.00000  -0.01955  -0.02064   1.94800
   A33        1.88784   0.00272   0.00000   0.01814   0.01795   1.90579
   A34        1.90931   0.00039   0.00000  -0.01287  -0.01361   1.89569
   A35        1.86223  -0.00175   0.00000  -0.01495  -0.01474   1.84749
   A36        1.89171   0.00483   0.00000   0.05941   0.05938   1.95109
   A37        1.85827   0.00634   0.00000   0.03614   0.03614   1.89442
   A38        1.81864   0.00541   0.00000   0.03080   0.03080   1.84943
   A39        1.82254   0.00284   0.00000   0.01617   0.01617   1.83870
   A40        1.81468   0.00497   0.00000   0.02829   0.02829   1.84298
   A41        1.83316   0.00078   0.00000   0.00446   0.00446   1.83762
   A42        1.86935   0.00408   0.00000   0.02323   0.02323   1.89257
    D1        2.82194  -0.00210   0.00000  -0.02809  -0.02809   2.79385
    D2        0.68766  -0.00041   0.00000   0.00005   0.00017   0.68783
    D3       -1.34952  -0.00033   0.00000  -0.01941  -0.01955  -1.36907
    D4        0.71788  -0.00072   0.00000  -0.00548  -0.00547   0.71241
    D5       -1.41640   0.00098   0.00000   0.02266   0.02278  -1.39361
    D6        2.82961   0.00106   0.00000   0.00320   0.00307   2.83267
    D7       -1.34786  -0.00054   0.00000   0.00273   0.00275  -1.34511
    D8        2.80105   0.00115   0.00000   0.03086   0.03100   2.83206
    D9        0.76387   0.00123   0.00000   0.01141   0.01129   0.77516
   D10        3.04211   0.00075   0.00000   0.02597   0.02581   3.06792
   D11        0.91916   0.00212   0.00000   0.04264   0.04271   0.96186
   D12       -1.14469   0.00286   0.00000   0.02926   0.02917  -1.11552
   D13       -1.13146  -0.00071   0.00000   0.00757   0.00751  -1.12395
   D14        3.02877   0.00066   0.00000   0.02423   0.02441   3.05318
   D15        0.96493   0.00139   0.00000   0.01086   0.01087   0.97580
   D16        0.93826  -0.00287   0.00000  -0.01778  -0.01786   0.92040
   D17       -1.18469  -0.00149   0.00000  -0.00111  -0.00097  -1.18565
   D18        3.03465  -0.00076   0.00000  -0.01449  -0.01450   3.02015
   D19       -0.72439   0.00162   0.00000   0.02332   0.02299  -0.70140
   D20        1.40789   0.00058   0.00000   0.04063   0.04086   1.44875
   D21       -2.80087   0.00018   0.00000   0.02134   0.02144  -2.77943
   D22        0.99949  -0.00166   0.00000  -0.00496  -0.00502   0.99447
   D23       -1.17477  -0.00031   0.00000   0.01536   0.01547  -1.15930
   D24        3.09204   0.00001   0.00000  -0.00115  -0.00128   3.09076
   D25       -3.12191  -0.00334   0.00000  -0.04345  -0.04341   3.11786
   D26        0.98702  -0.00199   0.00000  -0.02313  -0.02293   0.96409
   D27       -1.02936  -0.00167   0.00000  -0.03963  -0.03968  -1.06904
   D28       -1.10652   0.00187   0.00000   0.01814   0.01808  -1.08843
   D29        3.00241   0.00321   0.00000   0.03846   0.03856   3.04098
   D30        0.98604   0.00353   0.00000   0.02196   0.02181   1.00785
   D31       -3.04948  -0.00055   0.00000   0.03429   0.03404  -3.01544
   D32       -0.88143   0.00124   0.00000   0.03392   0.03334  -0.84809
   D33        1.14914   0.00272   0.00000   0.06016   0.06099   1.21013
   D34        1.00594  -0.00264   0.00000  -0.02455  -0.02467   0.98127
   D35       -1.13758   0.00003   0.00000   0.01534   0.01524  -1.12234
   D36        3.05735  -0.00090   0.00000  -0.00010  -0.00016   3.05719
   D37       -3.13264  -0.00401   0.00000  -0.05619  -0.05626   3.09428
   D38        1.00702  -0.00134   0.00000  -0.01629  -0.01635   0.99067
   D39       -1.08123  -0.00227   0.00000  -0.03174  -0.03175  -1.11299
   D40       -1.10716   0.00221   0.00000   0.01465   0.01477  -1.09239
   D41        3.03250   0.00488   0.00000   0.05454   0.05468   3.08718
   D42        0.94425   0.00395   0.00000   0.03910   0.03928   0.98352
   D43       -2.93180  -0.00056   0.00000   0.00734   0.00713  -2.92467
   D44       -0.79331  -0.00098   0.00000  -0.00985  -0.01063  -0.80394
   D45        1.24864   0.00241   0.00000   0.03364   0.03463   1.28327
   D46        1.01185  -0.00245   0.00000  -0.04340  -0.04317   0.96868
   D47       -1.14017   0.00141   0.00000   0.00843   0.00806  -1.13211
   D48        3.05094  -0.00404   0.00000  -0.06588  -0.06585   2.98508
   D49       -3.09131  -0.00331   0.00000  -0.07009  -0.06977   3.12211
   D50        1.03986   0.00055   0.00000  -0.01826  -0.01854   1.02132
   D51       -1.05222  -0.00490   0.00000  -0.09256  -0.09245  -1.14468
   D52       -1.07794   0.00164   0.00000  -0.01369  -0.01343  -1.09137
   D53        3.05322   0.00550   0.00000   0.03814   0.03780   3.09102
   D54        0.96115   0.00005   0.00000  -0.03616  -0.03612   0.92503
   D55       -2.83428  -0.00150   0.00000  -0.00622  -0.00644  -2.84072
   D56       -0.65497   0.00010   0.00000  -0.00954  -0.01006  -0.66503
   D57        1.39176   0.00137   0.00000   0.01461   0.01535   1.40712
   D58        3.08963   0.00071   0.00000   0.01516   0.01529   3.10492
   D59       -1.10210  -0.00419   0.00000  -0.01530  -0.01719  -1.11929
   D60        0.96866   0.00464   0.00000   0.04155   0.04332   1.01197
   D61        1.44345   0.00008   0.00000   0.00109   0.00175   1.44520
   D62       -2.75082  -0.00174   0.00000  -0.02936  -0.02926  -2.78007
   D63       -0.69631   0.00027   0.00000  -0.02191  -0.02267  -0.71898
         Item               Value     Threshold  Converged?
 Maximum Force            0.019607     0.000450     NO 
 RMS     Force            0.005768     0.000300     NO 
 Maximum Displacement     0.209592     0.001800     NO 
 RMS     Displacement     0.064925     0.001200     NO 
 Predicted change in Energy=-8.666515D-03
 GradGradGradGradGradGradGradGradGradGradGradGradGradGradGradGradGradGrad

                          Input orientation:                          
 ---------------------------------------------------------------------
 Center     Atomic      Atomic             Coordinates (Angstroms)
 Number     Number       Type             X           Y           Z
 ---------------------------------------------------------------------
      1          6           0       -0.013863   -0.028225   -0.025513
      2          6           0        1.508895   -0.006071   -0.000069
      3          6           0       -0.558424    1.078519   -0.913531
      4          6           0        2.125523   -0.727911    1.188224
      5          1           0        1.856004    1.029593    0.026599
      6          1           0       -0.392328    0.127638    0.986411
      7          6           0       -2.064856    1.008914   -1.032909
      8          1           0       -0.119545    0.994782   -1.914420
      9          6           0        1.736652   -2.190628    1.350973
     10          1           0        1.871156   -0.185424    2.107167
     11          1           0       -2.507872    1.043327   -0.031675
     12          1           0       -2.366396    0.087601   -1.533241
     13          1           0        1.966956   -2.733154    0.437101
     14          1           0        0.673700   -2.302099    1.563163
     15          8           0       -2.439974    2.162051   -1.790672
     16          1           0       -3.386189    2.144993   -1.921514
     17          8           0       -0.178848    2.317006   -0.324715
     18          1           0       -0.690264    2.992943   -0.777924
     19          8           0       -0.488984   -1.290236   -0.463024
     20          1           0        0.100999   -1.550674   -1.179090
     21          8           0        1.936368   -0.616447   -1.218786
     22          1           0        2.890911   -0.703140   -1.143502
     23          8           0        3.534201   -0.646383    0.980601
     24          1           0        3.914675   -1.317799    1.555446
     25          8           0        2.547763   -2.782722    2.372542
     26          1           0        2.161040   -2.577052    3.223060
 ---------------------------------------------------------------------
                    Distance matrix (angstroms):
                    1          2          3          4          5
     1  C    0.000000
     2  C    1.523132   0.000000
     3  C    1.519870   2.506901   0.000000
     4  C    2.557282   1.520962   3.857996   0.000000
     5  H    2.148976   1.092610   2.591467   2.123873   0.000000
     6  H    1.091568   2.146083   2.131089   2.666883   2.605717
     7  C    2.509397   3.855989   1.512757   5.050670   4.061543
     8  H    2.150740   2.705228   1.096086   4.199334   2.769758
     9  C    3.104030   2.578659   4.591587   1.522251   3.483969
    10  H    2.850673   2.145657   4.077380   1.097019   2.409411
    11  H    2.714469   4.151705   2.139920   5.108208   4.364287
    12  H    2.796618   4.168605   2.152841   5.314957   4.598817
    13  H    3.384420   2.799629   4.767662   2.147167   3.786699
    14  H    2.857820   2.900516   4.368148   2.174036   3.854743
    15  O    3.714715   4.847740   2.341720   6.170046   4.800038
    16  H    4.437373   5.681626   3.185852   6.950037   5.702618
    17  O    2.369990   2.889733   1.422895   4.107387   2.433408
    18  H    3.186079   3.799400   1.923744   5.063512   3.314435
    19  O    1.417683   2.419696   2.412214   3.143005   3.334713
    20  H    1.913578   2.399595   2.723603   3.221771   3.345371
    21  O    2.360785   1.428483   3.031513   2.417003   2.065645
    22  H    3.184826   1.924399   3.889101   2.454258   2.332924
    23  O    3.739404   2.339568   4.828312   1.426229   2.556435
    24  H    4.426720   3.150879   5.643297   1.919345   3.476457
    25  O    4.460925   3.797147   5.946079   2.408971   4.529429
    26  H    4.666899   4.174183   6.153866   2.749752   4.828902
                    6          7          8          9         10
     6  H    0.000000
     7  C    2.766162   0.000000
     8  H    3.039929   2.135766   0.000000
     9  C    3.168567   5.511028   4.924946   0.000000
    10  H    2.545086   5.174815   4.639929   2.147269   0.000000
    11  H    2.520022   1.095407   3.041577   5.512365   5.025969
    12  H    3.201124   1.090906   2.452879   5.508541   5.593207
    13  H    3.748612   5.693814   4.876540   1.087445   3.047824
    14  H    2.715268   5.020168   4.857185   1.089641   2.492018
    15  O    4.005482   1.429910   2.600428   6.801467   6.268145
    16  H    4.635618   1.956072   3.463235   7.466611   7.021452
    17  O    2.560851   2.402014   2.068563   5.176469   4.047063
    18  H    3.378109   2.427116   2.368542   6.106680   4.998664
    19  O    2.029919   2.845036   2.732094   3.009111   3.660158
    20  H    2.783791   3.356156   2.658701   3.079955   3.974525
    21  O    3.292321   4.322747   2.703098   3.020198   3.354400
    22  H    4.000797   5.244329   3.541200   3.125274   3.445980
    23  O    4.002096   6.176056   4.942107   2.398552   2.060911
    24  H    4.578577   6.918668   5.801977   2.355297   2.400550
    25  O    4.362991   6.873853   6.305721   1.432508   2.697069
    26  H    4.340234   6.987891   6.659787   1.958096   2.655021
                   11         12         13         14         15
    11  H    0.000000
    12  H    1.785533   0.000000
    13  H    5.874151   5.533250   0.000000
    14  H    4.884443   4.953844   1.768145   0.000000
    15  O    2.085719   2.091657   6.953204   6.393107   0.000000
    16  H    2.357244   2.328862   7.616794   6.957177   0.955370
    17  O    2.670671   3.349052   5.539761   5.062317   2.699210
    18  H    2.767958   3.438159   6.428475   5.947988   2.185756
    19  O    3.115684   2.562903   2.987287   2.545808   4.181781
    20  H    3.853779   2.982852   2.737175   2.900445   4.540364
    21  O    4.890332   4.371309   2.687628   3.489268   5.215311
    22  H    5.782142   5.330707   2.733670   3.846911   6.086582
    23  O    6.355035   6.455632   2.665757   3.356075   7.159471
    24  H    7.024456   7.139117   2.654719   3.387156   7.980441
    25  O    6.780735   6.902381   2.021318   2.097190   8.164598
    26  H    6.745309   7.086639   2.797071   2.245671   8.292523
                   16         17         18         19         20
    16  H    0.000000
    17  O    3.586975   0.000000
    18  H    3.048742   0.961164   0.000000
    19  O    4.724594   3.623190   4.299453   0.000000
    20  H    5.135137   3.970795   4.629415   0.963669   0.000000
    21  O    6.037299   3.725405   4.485671   2.628212   2.059838
    22  H    6.936796   4.383504   5.159408   3.497345   2.916022
    23  O    8.006613   4.926688   5.846641   4.322571   4.155584
    24  H    8.796749   5.788242   6.725517   4.844296   4.698515
    25  O    8.827972   6.380974   7.332705   4.414724   4.485386
    26  H    8.918302   6.481789   7.427156   4.718659   4.967509
                   21         22         23         24         25
    21  O    0.000000
    22  H    0.961424   0.000000
    23  O    2.718689   2.220103   0.000000
    24  H    3.478787   2.951308   0.962293   0.000000
    25  O    4.238418   4.099387   2.733954   2.163814   0.000000
    26  H    4.860499   4.807403   3.262159   2.727983   0.956680
                   26
    26  H    0.000000
 Stoichiometry    C6H14O6
 Framework group  C1[X(C6H14O6)]
 Deg. of freedom    72
 Full point group                 C1      NOp   1
 Largest Abelian subgroup         C1      NOp   1
 Largest concise Abelian subgroup C1      NOp   1
                         Standard orientation:                         
 ---------------------------------------------------------------------
 Center     Atomic      Atomic             Coordinates (Angstroms)
 Number     Number       Type             X           Y           Z
 ---------------------------------------------------------------------
      1          6           0        0.538828   -0.337554   -0.162089
      2          6           0       -0.530926    0.701151    0.148796
      3          6           0        1.930484    0.237125    0.045377
      4          6           0       -1.889874    0.403257   -0.465893
      5          1           0       -0.207680    1.676699   -0.222167
      6          1           0        0.447921   -0.645662   -1.205317
      7          6           0        3.003461   -0.809414   -0.159349
      8          1           0        2.014385    0.636114    1.062812
      9          6           0       -2.505684   -0.938900   -0.096242
     10          1           0       -1.811066    0.472433   -1.557889
     11          1           0        2.894739   -1.246769   -1.157756
     12          1           0        2.920042   -1.594591    0.593389
     13          1           0       -2.569817   -1.025157    0.985878
     14          1           0       -1.913578   -1.770622   -0.476986
     15          8           0        4.244705   -0.108314   -0.047919
     16          1           0        4.958089   -0.737345   -0.138110
     17          8           0        2.097519    1.288897   -0.898289
     18          1           0        3.034103    1.504735   -0.890560
     19          8           0        0.359415   -1.495389    0.636068
     20          1           0        0.113205   -1.168225    1.508423
     21          8           0       -0.637840    0.748741    1.572477
     22          1           0       -1.390703    1.317740    1.756252
     23          8           0       -2.743880    1.445819    0.000871
     24          1           0       -3.639242    1.125085   -0.145636
     25          8           0       -3.855677   -0.984999   -0.573185
     26          1           0       -3.842069   -1.236469   -1.496122
 ---------------------------------------------------------------------
 Rotational constants (GHZ):           1.9890340           0.4257756           0.3971784
 Standard basis: def2TZVPP (5D, 7F)
 There are   642 symmetry adapted cartesian basis functions of A   symmetry.
 There are   568 symmetry adapted basis functions of A   symmetry.
   568 basis functions,   850 primitive gaussians,   642 cartesian basis functions
    49 alpha electrons       49 beta electrons
       nuclear repulsion energy       818.9122526287 Hartrees.
 NAtoms=   26 NActive=   26 NUniq=   26 SFac= 1.00D+00 NAtFMM=   60 NAOKFM=F Big=F
 Integral buffers will be    131072 words long.
 Raffenetti 2 integral format.
 Two-electron integral symmetry is turned on.
 Nuclear repulsion after empirical dispersion term =      818.8944130749 Hartrees.
 One-electron integrals computed using PRISM.
   1 Symmetry operations used in ECPInt.
 ECPInt:  NShTT=   23436 NPrTT=   62434 LenC2=   21507 LenP2D=   44583.
 LDataN:  DoStor=T MaxTD1= 6 Len=  172
 NBasis=   568 RedAO= T EigKep=  4.45D-05  NBF=   568
[...]
 8,0.00036125,-0.00032849,0.35325879,-0.06152754,-0.20224658,-0.0345907
 3,-0.01278149,-0.01978392,-0.00873643,-0.01527688,-0.03622080,-0.02007
 386,0.00024615,-0.00177931,0.00164831,-0.00227127,0.00162523,0.0000040
 2,-0.00493771,-0.01564259,-0.01065131,-0.00091647,0.00042971,-0.000611
 98,-0.00086107,0.00201206,0.00091236,-0.00161044,-0.00170948,0.0001039
 0,0.00019381,0.00042201,0.00056988,0.00036425,-0.00019230,-0.00053245,
 0.00114386,-0.00150140,0.00043912,-0.00113691,0.00067861,0.00071153,0.
 00160021,-0.00055227,-0.00097530,0.00071599,-0.00027157,0.00061546,-0.
 00012110,0.00010748,-0.00011131,0.00554242,-0.01062580,0.00644228,-0.0
 0191089,-0.00186562,-0.00130129,-0.00203438,0.35177647,-0.01365302,-0.
 06351183,-0.09794049,-0.00321814,-0.01180182,-0.00423301,0.00552142,0.
 00731825,0.00824438,0.00209130,-0.00047097,0.00017658,-0.00181113,0.00
 080376,0.00121923,-0.01321165,-0.03506071,-0.00777472,-0.00222402,-0.0
 0198445,-0.00066176,0.00048856,-0.00174492,0.00264577,0.00131801,0.000
 72340,-0.00249173,-0.00019368,0.00004789,0.00049661,-0.00024399,0.0006
 8419,0.00051039,0.00087557,0.00149643,0.00054942,0.00007027,0.00025087
 ,-0.00026767,-0.00208267,0.00028804,-0.00004329,0.00050587,0.00130699,
 0.00047600,0.00020208,-0.00020472,-0.00009515,-0.00127433,0.00356016,0
 .00025324,-0.00011232,0.00059878,0.00067975,-0.22029433,0.18179667,0.3
 5249019,0.01134925,-0.00457810,-0.01041033,0.00082253,-0.00555667,-0.0
 0594491,-0.00052787,0.00047376,-0.00006245,-0.00022110,-0.00009166,-0.
 00023845,-0.00003402,0.00076662,0.00119581,-0.00121228,-0.00360819,-0.
 00264323,-0.00035715,0.00083401,0.00004416,0.00032807,0.00013206,0.000
 06486,0.00039564,0.00001907,-0.00129194,0.00011562,0.00004313,0.000624
 82,-0.00003016,-0.00024380,-0.00019482,-0.00053004,0.00013083,-0.00002
 520,-0.00028268,0.00075028,-0.00026644,-0.00011692,-0.00008771,0.00036
 058,0.00017925,-0.00052269,0.00007617,-0.00005271,0.00007436,0.0000163
 0,-0.00022993,-0.00125288,-0.00002542,-0.00005017,-0.00003203,-0.00008
 922,-0.23414985,0.09117934,0.24409127,0.22403562,0.02357867,-0.0201334
 7,-0.03394082,-0.00048343,-0.00005148,-0.00337760,0.00046007,-0.001549
 31,-0.00279459,-0.00004315,0.00042893,-0.00046394,0.00054936,0.0000047
 4,0.00008667,-0.00188874,-0.00409775,-0.00001260,0.00021564,-0.0001920
 4,0.00022443,-0.00006873,-0.00059886,0.00098701,-0.00009141,0.00062297
 ,0.00100566,-0.00001381,-0.00021134,0.00016262,-0.00019117,0.00012789,
 0.00008790,0.00028416,-0.00007181,0.00005637,0.00078437,-0.00031061,0.
 00003078,-0.00017831,0.00016185,0.00006829,-0.00026009,0.00031175,-0.0
 0014773,0.00005211,-0.00001738,0.00002210,-0.00017398,0.00005753,0.001
 03669,-0.00008255,-0.00020605,0.00017839,0.05683952,-0.07184760,-0.088
 67983,-0.08147195,0.09871737,0.00747592,-0.00902181,-0.01539937,0.0008
 3451,-0.00013210,0.00055819,0.00029199,0.00062245,0.00244061,-0.000838
 23,-0.00052305,-0.00094126,0.00105618,-0.00010541,-0.00057057,-0.00129
 707,-0.00382109,-0.00034737,0.00012220,0.00024527,-0.00011255,0.000332
 68,0.00014432,-0.00045499,-0.00049050,-0.00003899,-0.00141677,0.000041
 24,0.00023512,0.00010687,0.00006239,-0.00019245,-0.00010057,-0.0001350
 3,0.00002226,0.00016155,-0.00077001,0.00059278,0.00019548,0.00023382,-
 0.00014317,-0.00039889,-0.00014104,0.00014178,-0.00018233,0.00000538,0
 .00003452,0.00002794,-0.00020378,0.00078743,-0.00065987,0.00004698,0.0
 0020643,0.00008148,0.21900995,-0.11496282,-0.25687661,-0.22774466,0.12
 398655,0.27435468,-0.02559412,0.01506114,0.04158346,-0.10449507,0.0277
 9865,0.04783893,0.00120467,-0.00171346,0.00074125,-0.00161056,-0.00353
 244,-0.00245075,0.00552236,0.00228393,-0.00297948,-0.00788956,-0.00051
 392,-0.00090688,0.00059314,-0.00038534,0.00066171,-0.00058008,0.000417
 35,0.00012971,-0.00004078,0.00104392,0.00052711,0.00031738,0.00096331,
 -0.00193323,0.00010054,0.00005186,-0.00016691,0.00014420,-0.00001591,0
 .00003780,-0.00030841,-0.00031798,-0.00015577,0.00028057,0.00031455,-0
 .00058269,-0.00065224,0.00079034,-0.00071299,0.00010251,-0.00004476,0.
 00006129,0.00013704,0.00146262,0.00003639,-0.00001291,-0.00019212,0.00
 011042,-0.00485894,0.00330691,0.00604551,0.00149967,0.00181303,0.00094
 233,0.63536360,0.00245857,-0.00416486,-0.00840076,0.01535047,-0.101705
 12,-0.06518478,-0.00066534,-0.00046266,-0.00021904,-0.00123003,0.00800
 142,0.00448801,0.01598103,-0.01095320,-0.03878370,0.00054874,0.0006716
 3,0.00049489,-0.00027688,-0.00013099,-0.00027984,0.00034471,-0.0002196
 1,-0.00025462,-0.00170826,-0.00178211,-0.00192380,0.00102709,0.0001486
 9,0.00303180,0.00010734,-0.00006555,0.00000224,0.00018162,0.00007677,0
 .00014577,-0.00008553,0.00200809,0.00121427,-0.00019028,0.00002863,0.0
 0068172,0.00037725,0.00009667,0.00024719,-0.00002756,0.00000975,-0.000
 04144,0.00118451,-0.00031102,0.00038042,0.00008954,0.00029787,0.000134
 98,-0.00377690,0.00410441,0.00206131,0.00088711,-0.00195715,0.00216115
 ,-0.11435703,0.12614114,0.01044116,-0.00346500,-0.00812022,0.00415774,
 -0.05550919,-0.18249771,-0.00006692,0.00022672,-0.00201370,0.01550269,
 -0.01856260,-0.04840104,0.00674298,-0.01265992,-0.01547066,-0.00021883
 ,-0.00001270,0.00110128,-0.00042594,-0.00017833,0.00043924,-0.00002971
 ,-0.00022116,0.00136760,0.00009568,-0.00359045,0.00153258,-0.00410160,
 0.00440855,-0.00634339,-0.00033111,0.00002278,0.00011435,0.00011161,0.
 00007925,0.00003813,0.00004849,0.00117541,-0.00063705,-0.00009101,0.00
 002103,-0.00047668,0.00044449,-0.00012331,0.00043844,0.00001259,-0.000
 05723,-0.00005269,0.00072299,-0.00017266,0.00112862,0.00029384,0.00012
 571,-0.00008224,-0.00061105,-0.00085776,0.00234846,0.00101609,0.000721
 36,-0.00119046,0.00816845,0.09634020,0.30084054,-0.00073797,0.00108023
 ,0.00188044,-0.01651894,0.00326053,0.00288930,0.00007038,-0.00005033,0
 .00013010,0.00285465,-0.00036316,-0.00156519,0.00059793,-0.00055597,-0
 .00125737,-0.00025912,-0.00004964,-0.00034173,-0.00011781,0.00004575,-
 0.00010350,-0.00005064,0.00003244,-0.00014360,-0.00025296,-0.00053882,
 0.00078162,-0.00119239,0.00024744,-0.00041732,0.00004750,-0.00001049,-
 0.00002939,-0.00001333,-0.00000425,-0.00000011,-0.00002762,-0.00050891
 ,0.00020536,-0.00004473,-0.00014689,-0.00009338,0.00013892,-0.00012509
 ,0.00007725,-0.00002054,0.00001881,-0.00000836,0.00018582,-0.00027574,
 -0.00004214,0.00000834,0.00006888,0.00001649,0.00107460,0.00066966,0.0
 0033082,-0.00048011,0.00033544,-0.00006854,-0.50239774,0.08358393,-0.0
 4261198,0.51970477,-0.00110532,-0.00251710,-0.00267329,0.02064632,-0.0
 0389970,-0.00182293,0.00002299,0.00026227,-0.00002292,-0.00063108,0.00
 231870,0.00053381,0.00092480,-0.00064615,-0.00021990,0.00045952,0.0002
 4646,0.00019824,0.00003763,-0.00001791,-0.00007926,-0.00002399,0.00001
 364,-0.00004661,0.00000919,0.00043782,0.00114245,0.00012527,-0.0002640
 5,-0.00020539,0.00000835,-0.00000708,0.00003314,0.00000832,-0.00000840
 ,0.00001016,-0.00038047,-0.00082597,0.00003136,0.00008833,-0.00010120,
 -0.00040697,-0.00006542,0.00002375,-0.00000245,0.00001618,-0.00000533,
 0.00000199,-0.00024238,-0.00010676,0.00005981,0.00008035,-0.00001836,-
 0.00003383,-0.00248626,0.00036498,0.00189794,0.00209720,0.00147171,-0.
 00022206,0.06743287,-0.02384218,-0.00848265,-0.08696941,0.02999476,0.0
 0188002,-0.00282256,-0.00703987,0.04094694,-0.00838678,-0.00014386,-0.
 00037411,0.00013943,-0.00043135,0.00635449,-0.00042117,-0.00364701,-0.
 00008651,-0.00080574,-0.00004983,0.00190140,0.00007139,0.00009200,0.00
 003987,-0.00005537,0.00010472,0.00002658,-0.00019350,0.00025671,-0.000
 14226,0.00073832,-0.00041839,-0.00063892,-0.00004106,0.00098847,-0.000
 07807,0.00000809,0.00000977,0.00001462,0.00000919,0.00001612,0.0002454
 6,0.00034370,-0.00001106,-0.00021498,-0.00034564,0.00035808,0.00001102
 ,0.00002697,-0.00001701,-0.00000146,-0.00000033,0.00002003,-0.00000394
 ,0.00012330,0.00005527,-0.00002179,-0.00000749,0.00004312,-0.00088151,
 -0.00029720,0.00014624,0.00015035,0.00066734,-0.00023170,-0.08810075,0
 .00031531,-0.04544744,0.04098484,0.01057555,0.05170123,0.00242626,0.00
 353694,-0.00363982,-0.03949153,0.00204505,-0.00332597,-0.00189779,-0.0
 0167725,0.00046725,-0.21796317,-0.02374751,0.03739093,0.00147642,-0.00
 034073,0.00088394,0.00097268,-0.00021671,0.00009236,0.00074446,0.00028
 160,0.00002239,-0.00005835,0.00010069,-0.00015047,-0.04117055,-0.00655
 508,0.00463262,-0.03075011,0.00305270,0.00995655,0.00002799,0.00002155
 ,-0.00000093,0.00004780,-0.00002765,-0.00000248,0.00163806,0.00066759,
 -0.00106073,0.00050036,-0.00588308,0.00170758,-0.00084913,0.00062591,-
 0.00050159,0.00006230,0.00000236,0.00001249,-0.00001519,0.00094013,-0.
 00006457,-0.00000651,-0.00020878,0.00003199,-0.00082539,-0.00100074,-0
 .00137806,-0.00018589,0.00010449,0.00071608,0.00108701,0.00037557,0.00
 046512,-0.00179440,0.00029762,-0.00066222,0.43073323,-0.00044732,-0.00
 352002,0.00416568,0.02641360,0.00211187,-0.00279192,0.00143091,0.00066
 777,-0.00021115,0.01762127,-0.08616482,0.01483652,-0.00028047,0.001640
 67,-0.00181854,-0.00042809,-0.00008521,0.00009826,-0.00034357,-0.00038
 398,0.00015869,-0.00001492,0.00000736,0.00006158,-0.03901341,-0.003241
 76,0.00945277,0.01690599,0.00566130,-0.00036208,0.00001007,-0.00002880
 ,-0.00003537,0.00003528,0.00003753,0.00005340,0.00052954,0.00353450,0.
 00015701,-0.00209138,-0.00718577,0.00233429,0.00043387,-0.00010993,0.0
 0016168,-0.00000738,-0.00004280,0.00001324,0.00010790,-0.00001544,0.00
 002777,-0.00006125,0.00006484,-0.00000025,0.00066234,0.00226477,0.0001
 6422,0.00017256,-0.00044951,0.00010217,-0.00002523,0.00276878,-0.00006
 011,-0.00051602,-0.00291142,-0.00030283,-0.12713891,0.36909783,0.00014
 447,0.00318542,-0.00497634,-0.03082331,-0.00078720,-0.00241580,-0.0016
 7026,-0.00100027,0.00007105,0.01331894,0.01360081,-0.08313180,0.000598
 89,-0.00087088,0.00139131,-0.00044070,0.00010523,0.00030721,0.00040014
 ,0.00034984,-0.00014760,0.00008591,-0.00011686,0.00023127,0.00400309,0
 .00370440,-0.00139369,0.03153201,0.00248702,0.00257810,-0.00007866,0.0
 0003125,0.00005870,0.00003069,-0.00001342,-0.00000261,-0.00039927,0.00
 166706,0.00059626,-0.00040656,0.00089737,0.00161144,-0.00046622,0.0002
 5393,-0.00011464,0.00001485,0.00001910,-0.00004707,-0.00002588,0.00046
 099,0.00032533,0.00004481,-0.00007346,-0.00002347,-0.00069537,-0.00067
 606,0.00060955,0.00072948,0.00047570,0.00002670,-0.00807707,0.00238042
 ,0.00095548,-0.00011639,-0.00089304,0.00279360,0.06832133,-0.24358391,
 0.25487560,0.00006927,0.00160274,-0.00161071,-0.00811279,-0.00082883,0
 .00221657,-0.00064417,-0.00022503,0.00005061,-0.02609099,0.03222522,-0
 .02561040,0.00020393,-0.00010466,0.00039402,0.00007156,0.00003277,0.00
 001173,0.00004709,0.00018960,-0.00011971,0.00000567,-0.00001184,-0.000
 00919,-0.00350018,0.00002930,-0.00340454,-0.00041637,0.00039929,0.0001
 3305,-0.00000679,0.00000214,0.00001453,-0.00001451,-0.00000956,-0.0000
 1357,-0.00008658,-0.00038277,0.00011534,0.00045891,0.00081680,-0.00040
 017,-0.00004230,-0.00005227,0.00003463,-0.00001519,0.00002688,-0.00001
 989,0.00009065,-0.00008808,0.00004626,0.00000180,0.00001954,-0.0000031
 5,0.00018351,-0.00058128,0.00016669,-0.00015495,0.00006311,-0.00012510
 ,0.00098132,-0.00020616,0.00110116,-0.00015677,-0.00025640,-0.00092745
 ,-0.10993752,0.11273737,-0.08224905,0.14400768,0.00008632,0.00092359,-
 0.00041363,-0.00192499,-0.00065400,-0.00089476,-0.00027052,-0.00006127
 ,0.00004456,0.00198529,0.00223120,-0.00160832,-0.00006514,0.00006599,0
 .00008848,0.00001991,0.00002087,0.00005338,0.00006897,0.00009395,-0.00
 001112,0.00001002,-0.00001952,0.00001392,-0.00613973,0.00148068,-0.002
 06420,-0.00028581,-0.00023810,0.00079805,-0.00000714,0.00001040,0.0000
 0994,-0.00001081,-0.00001023,-0.00002015,0.00005789,-0.00018752,-0.000
 13714,0.00070466,-0.00064051,0.00056897,-0.00011041,0.00001898,-0.0000
 4544,0.00000437,0.00001045,-0.00000083,-0.00007012,-0.00003182,-0.0000
 2151,0.00002249,-0.00001722,0.00000200,0.00001122,-0.00054208,0.000119
 23,0.00008118,0.00020468,-0.00007810,-0.00128263,-0.00006130,-0.000768
 41,0.00045035,0.00019794,0.00117661,0.15100114,-0.28235729,0.21507719,
 -0.14751087,0.28019758,0.00022373,0.00008183,0.00000925,-0.00048664,0.
 00049007,-0.00112440,-0.00005131,0.00005821,0.00005400,0.00113114,-0.0
 0452048,0.00304708,0.00007709,0.00000452,-0.00010356,-0.00004867,-0.00
 000147,0.00005944,-0.00003872,0.00002036,0.00000630,0.00000145,-0.0000
 1100,0.00000630,0.00281845,0.00044169,0.00373822,0.00214203,-0.0007041
 8,-0.00053346,0.00000289,-0.00000409,-0.00000679,-0.00000540,-0.000000
 06,-0.00000088,-0.00049826,-0.00039333,-0.00056589,-0.00015054,0.00073
 103,-0.00110332,0.00004004,-0.00003353,0.00001039,-0.00000498,0.000005
 37,0.00000373,0.00003606,-0.00006457,-0.00002608,-0.00000984,0.0000156
 3,0.00001213,0.00007069,0.00000196,0.00001749,-0.00008675,0.00004390,0
 .00000088,-0.00098029,-0.00016269,0.00029081,0.00005997,0.00109794,0.0
 0066999,-0.11253013,0.21526881,-0.17582625,0.11006233,-0.21056746,0.17
 454962,-0.00035029,-0.00187962,0.00036187,0.00096026,0.00019812,0.0021
 8888,0.00016704,-0.00038534,0.00003811,-0.00621819,0.00301175,-0.00543
 508,-0.00012835,0.00043479,-0.00066255,0.00019628,-0.00027779,-0.00004
 865,0.00019187,-0.00022757,0.00013361,-0.00003798,0.00008362,-0.000058
 51,-0.13240017,0.05350003,-0.03443048,0.00000305,-0.00008021,0.0004160
 9,0.00002428,-0.00000760,-0.00001924,0.00007182,0.00001902,0.00005352,
 0.00296841,-0.00113186,-0.00127729,-0.01917157,0.02114856,-0.03428684,
 -0.00020530,0.00033572,-0.00019523,0.00004259,-0.00003830,0.00002413,-
 0.00003409,0.00053968,-0.00000838,0.00000194,-0.00005941,0.00001641,-0
 .00069365,0.00202351,-0.00211514,-0.00025534,-0.00007741,0.00055354,0.
 00124975,-0.00018492,-0.00077689,-0.00058414,-0.00006537,-0.00049452,0
 .00621667,-0.00541821,0.00647865,0.00293329,0.00208671,-0.00340185,0.2
 2729479,-0.00183782,-0.00041747,-0.00044174,-0.00515846,-0.00776029,-0
 .00462173,0.00014780,0.00036237,-0.00019554,0.02384627,-0.02326806,0.0
 3914984,0.00122114,-0.00104025,0.00247915,0.00001148,0.00008547,-0.000
 09540,-0.00033638,-0.00009300,-0.00004209,-0.00004177,0.00001454,-0.00
 001746,0.04980924,-0.09636431,0.02366970,0.00062728,0.00343527,-0.0006
 8103,0.00001947,-0.00003253,-0.00002900,0.00000599,0.00002281,0.000037
 69,-0.00754619,0.00897631,-0.00580350,0.00428279,-0.00016044,0.0040777
 6,0.00043690,-0.00022242,0.00022243,-0.00004229,0.00000449,-0.00000516
 ,0.00047163,-0.00032703,0.00005600,-0.00003096,0.00013338,0.00000198,0
 .00069196,0.00131078,0.00038795,-0.00026205,-0.00048837,-0.00002409,-0
 .00028287,0.00144681,0.00237343,0.00033109,-0.00017520,-0.00069725,0.0
 0338724,-0.00009709,0.00387377,0.00230484,-0.00158510,-0.00270535,-0.1
 4230855,0.18054940,0.00064428,-0.00119422,-0.00020212,0.00211949,0.002
 99715,0.00260456,0.00000153,-0.00046070,0.00017814,-0.00947443,0.01335
 761,-0.01669780,-0.00067787,0.00057524,-0.00144029,-0.00010844,0.00002
 443,0.00006885,0.00035978,-0.00012418,0.00006205,0.00002764,-0.0000045
 0,0.00003963,-0.07261560,0.05112996,-0.15918359,0.00011344,0.00097956,
 0.00283734,-0.00001967,0.00002766,0.00003148,0.00006251,0.00000412,0.0
 0002705,-0.02472233,0.01995954,-0.03052520,-0.00637397,0.00182789,0.00
 010049,-0.00042398,0.00038960,-0.00022871,0.00005838,-0.00003614,0.000
 00020,-0.00033663,0.00065721,0.00002480,0.00004153,-0.00011459,-0.0000
 0498,-0.00149757,0.00115841,-0.00078042,0.00066694,-0.00034511,0.00096
 482,0.00022682,0.00104613,-0.00050156,-0.00059648,-0.00046261,0.000357
 03,-0.00127122,0.00262728,0.00124991,-0.00056317,-0.00184104,-0.002338
 43,-0.05236244,0.05980464,0.64312598,0.00018737,0.00001810,-0.00018752
 ,0.00012529,0.00003965,-0.00008134,-0.00003299,0.00004669,0.00004816,0
 .00030628,-0.00001425,0.00006840,-0.00002850,0.00001928,-0.00002332,-0
 .00005938,0.00008116,0.00005191,0.00000475,0.00004100,-0.00005654,0.00
 001097,-0.00002801,0.00002705,0.00491567,-0.00654328,-0.02987194,0.000
 17337,0.00023654,0.00043211,-0.00001304,0.00001019,0.00001917,-0.00000
 383,-0.00000273,-0.00000611,-0.00232576,0.00234302,-0.00432164,0.00029
 771,-0.00087670,-0.00096473,-0.00000539,-0.00003927,0.00003562,-0.0000
 0327,0.00000806,-0.00001204,-0.00004959,-0.00003978,0.00000632,0.00001
 150,0.00001007,-0.00000536,-0.00024498,-0.00001794,0.00010512,0.000145
 50,-0.00005526,0.00008877,-0.00014335,0.00021143,-0.00006003,-0.000033
 71,-0.00002883,0.00007289,-0.00098773,-0.00127454,-0.00025450,0.000124
 44,0.00108765,0.00162753,-0.08224297,0.07025222,0.16672143,0.07987165,
 0.00019990,0.00031203,0.00008705,0.00026048,-0.00075442,0.00022235,-0.
 00002317,-0.00004794,0.00002350,-0.00084801,0.00176002,0.00355239,0.00
 003067,-0.00005848,0.00008238,0.00007554,-0.00000190,-0.00000840,0.000
 05910,0.00002164,0.00001501,-0.00000016,-0.00000014,-0.00001114,-0.004
 53429,0.00270224,0.01977416,0.00045179,-0.00091951,-0.00094829,0.00000
 131,0.00001012,0.00000578,-0.00000416,-0.00000638,-0.00001572,0.000608
 42,-0.00042083,0.00103762,0.00055238,0.00040567,-0.00028844,-0.0000832
 3,0.00002831,-0.00004708,0.00001019,0.00000275,0.00000544,-0.00007191,
 0.00001041,-0.00003968,0.00001771,-0.00001979,0.00000409,-0.00012233,-
 0.00031519,-0.00004682,0.00006625,0.00007330,-0.00001709,-0.00007679,-
 0.00014493,-0.00077297,-0.00000985,0.00001479,0.00018171,0.00035585,-0
 .00126336,-0.00055438,-0.00019186,0.00094966,0.00090689,0.06876063,-0.
 06431010,-0.15198333,-0.06548445,0.06197202,-0.00021214,0.00008358,-0.
 00007318,-0.00037209,-0.00027509,-0.00044276,0.00001154,0.00014668,-0.
 00001243,0.00109494,0.00066956,0.00087450,0.00005908,-0.00010126,0.000
 19531,-0.00005757,0.00006099,0.00000875,-0.00009365,0.00001905,-0.0000
 2170,0.00000216,-0.00001354,0.00000548,0.01069048,-0.01153553,-0.02882
 515,0.00022120,0.00079113,-0.00025770,0.00000101,-0.00000450,-0.000004
 48,-0.00000938,0.00000123,-0.00000171,-0.00399846,0.00348181,-0.001694
 26,-0.00006085,-0.00120592,0.00266819,0.00011169,-0.00009417,0.0000630
 9,-0.00001467,0.00000852,-0.00000094,0.00007863,-0.00014000,-0.0000040
 2,-0.00001210,0.00003344,0.00000395,0.00015265,-0.00002539,0.00030156,
 -0.00001299,-0.00007954,-0.00003590,-0.00006436,0.00012488,0.00063930,
 0.00003930,-0.00000848,-0.00017485,-0.00011243,-0.00051719,0.00039777,
 0.00070917,0.00051980,-0.00084657,0.12530826,-0.12077502,-0.43976923,-
 0.13345942,0.12883498,0.46700697\\0.00000067,-0.00001878,0.00000801,-0
 .00000505,0.00000009,-0.00001994,0.00000949,0.00001782,-0.00000108,0.0
 0001173,-0.00001165,-0.00001109,0.00000935,0.00000479,0.00000712,-0.00
 000199,0.00000236,0.00000033,-0.00000047,0.00001562,-0.00000549,0.0000
 0079,0.00000305,-0.00000170,0.00001634,0.00000720,0.00001897,-0.000004
 69,0.00000068,0.00001262,-0.00000193,-0.00000189,0.00000115,-0.0000011
 1,-0.00000505,-0.00000183,0.00000207,-0.00000104,-0.00000719,-0.000010
 72,-0.00000502,-0.00000479,0.00001546,-0.00000255,0.00000522,-0.000013
 02,-0.00000004,-0.00000180,0.00000394,-0.00001320,0.00000379,-0.000005
 33,0.00000957,-0.00000570,-0.00000358,0.00000095,0.00000850,0.00000619
 ,-0.00000096,-0.00001197,-0.00001240,-0.00000331,0.00001632,0.00000806
 ,0.00000709,-0.00000307,-0.00001771,0.00000153,-0.00000132,0.00000511,
 -0.00000498,0.00000593,-0.00000895,-0.00001428,-0.00002311,-0.00000226
 ,0.00001200,0.00001211\\\@
 The archive entry for this job was punched.


 KEEP CLOSE TO NATURES HEART, YOURSELF;
 AND BREAK CLEAR AWAY, ONCE IN A WHILE, AND
 CLIMB A MOUNTAIN OR SPEND A WEEK IN THE
 WOODS.  WASH YOUR SPIRIT CLEAN...
                                         -- JOHN MUIR
 Job cpu time:       0 days  9 hours 36 minutes 35.9 seconds.
 Elapsed time:       0 days  0 hours 36 minutes  8.8 seconds.
 File lengths (MBytes):  RWF=    704 Int=      0 D2E=      0 Chk=     27 Scr=      1
 Normal termination of Gaussian 16 at Wed Oct 11 15:07:55 2023.
