 Entering Gaussian System, Link 0=/opt/software/gaussian/g16.c01/g16
 Initial command:
 /opt/software/gaussian/g16.c01/l1.exe "/scratch/arhender/14836903/Gau-158705.inp" -scrdir="/scratch/arhender/14836903/"
 Entering Link 1 = /opt/software/gaussian/g16.c01/l1.exe PID=    158708.
  
 Copyright (c) 1988-2019, Gaussian, Inc.  All Rights Reserved.
  
 This is part of the Gaussian(R) 16 program.  It is based on
 the Gaussian(R) 09 system (copyright 2009, Gaussian, Inc.),
 the Gaussian(R) 03 system (copyright 2003, Gaussian, Inc.),
 the Gaussian(R) 98 system (copyright 1998, Gaussian, Inc.),
 the Gaussian(R) 94 system (copyright 1995, Gaussian, Inc.),
 the Gaussian 92(TM) system (copyright 1992, Gaussian, Inc.),
 the Gaussian 90(TM) system (copyright 1990, Gaussian, Inc.),
 the Gaussian 88(TM) system (copyright 1988, Gaussian, Inc.),
 the Gaussian 86(TM) system (copyright 1986, Carnegie Mellon
 University), and the Gaussian 82(TM) system (copyright 1983,
 Carnegie Mellon University). Gaussian is a federally registered
 trademark of Gaussian, Inc.
  
 This software contains proprietary and confidential information,
 including trade secrets, belonging to Gaussian, Inc.
  
 This software is provided under written license and may be
 used, copied, transmitted, or stored only in accord with that
 written license.
  
 The following legend is applicable only to US Government
 contracts under FAR:
  
                    RESTRICTED RIGHTS LEGEND
  
 Use, reproduction and disclosure by the US Government is
 subject to restrictions as set forth in subparagraphs (a)
 and (c) of the Commercial Computer Software - Restricted
 Rights clause in FAR 52.227-19.
  
 Gaussian, Inc.
 340 Quinnipiac St., Bldg. 40, Wallingford CT 06492
  
  
 ---------------------------------------------------------------
 Warning -- This program may not be used in any manner that
 competes with the business of Gaussian, Inc. or will provide
 assistance to any competitor of Gaussian, Inc.  The licensee
 of this program is prohibited from giving any competitor of
 Gaussian, Inc. access to this program.  By using this program,
 the user acknowledges that Gaussian, Inc. is engaged in the
 business of creating and licensing software in the field of
 computational chemistry and represents and warrants to the
 licensee that it is not a competitor of Gaussian, Inc. and that
 it will not use this program in any manner prohibited above.
 ---------------------------------------------------------------
  

 Cite this work as:
 Gaussian 16, Revision C.01,
 M. J. Frisch, G. W. Trucks, H. B. Schlegel, G. E. Scuseria, 
 M. A. Robb, J. R. Cheeseman, G. Scalmani, V. Barone, 
 G. A. Petersson, H. Nakatsuji, X. Li, M. Caricato, A. V. Marenich, 
 J. Bloino, B. G. Janesko, R. Gomperts, B. Mennucci, H. P. Hratchian, 
 J. V. Ortiz, A. F. Izmaylov, J. L. Sonnenberg, D. Williams-Young, 
 F. Ding, F. Lipparini, F. Egidi, J. Goings, B. Peng, A. Petrone, 
 T. Henderson, D. Ranasinghe, V. G. Zakrzewski, J. Gao, N. Rega, 
 G. Zheng, W. Liang, M. Hada, M. Ehara, K. Toyota, R. Fukuda, 
 J. Hasegawa, M. Ishida, T. Nakajima, Y. Honda, O. Kitao, H. Nakai, 
 T. Vreven, K. Throssell, J. A. Montgomery, Jr., J. E. Peralta, 
 F. Ogliaro, M. J. Bearpark, J. J. Heyd, E. N. Brothers, K. N. Kudin, 
 V. N. Staroverov, T. A. Keith, R. Kobayashi, J. Normand, 
 K. Raghavachari, A. P. Rendell, J. C. Burant, S. S. Iyengar, 
 J. Tomasi, M. Cossi, J. M. Millam, M. Klene, C. Adamo, R. Cammi, 
 J. W. Ochterski, R. L. Martin, K. Morokuma, O. Farkas, 
 J. B. Foresman, and D. J. Fox, Gaussian, Inc., Wallingford CT, 2019.
 
 ******************************************
 Gaussian 16:  ES64L-G16RevC.01  3-Jul-2019
                11-Oct-2023 
 ******************************************
 %chk=MannitolConformerOpt_40.chk
 %mem=8GB
 %nprocs=16
 Will use up to   16 processors via shared memory.
 ---------------------------------------------
 # opt freq wb97xd/Def2TZVPP geom=connectivity
 ---------------------------------------------
 1/18=20,19=15,26=3,38=1,57=2/1,3;
 2/9=110,12=2,17=6,18=5,40=1/2;
 3/5=44,7=202,11=2,25=1,30=1,71=1,74=-58/1,2,3;
 4//1;
 5/5=2,38=5/2;
 6/7=2,8=2,9=2,10=2,28=1/1;
 7//1,2,3,16;
 1/18=20,19=15,26=3/3(2);
 2/9=110/2;
 99//99;
 2/9=110/2;
 3/5=44,7=202,11=2,25=1,30=1,71=1,74=-58/1,2,3;
 4/5=5,16=3,69=1/1;
 5/5=2,38=5/2;
 7//1,2,3,16;
 1/18=20,19=15,26=3/3(-5);
 2/9=110/2;
 6/7=2,8=2,9=2,10=2,19=2,28=1/1;
 99/9=1/99;
 -------------------
 Title Card Required
 -------------------
 Symbolic Z-matrix:
 Charge =  0 Multiplicity = 1
 C                     0.        0.        0. 
 C                     1.5369    0.        0. 
 C                    -0.6948    0.5457    1.2601 
 C                     2.2022   -0.8117    1.1318 
 H                     1.923     1.0246    0. 
 H                    -0.3713   -1.0131   -0.1964 
 C                    -0.3335    1.9939    1.6061 
 H                    -0.4656   -0.1009    2.1137 
 C                     1.7562   -2.2803    1.2029 
 H                     2.0301   -0.3435    2.105 
 H                    -1.0203    2.3773    2.369 
 H                    -0.4224    2.648     0.7323 
 H                     0.7327   -2.3632    1.5797 
 H                     2.4263   -2.8491    1.8561 
 O                     0.9897    2.0747    2.1181 
 H                     1.1515    3.011     2.3334 
 O                    -2.1134    0.476     1.0366 
 H                    -2.2394    0.7829    0.1141 
 O                    -0.4649    0.7688   -1.1354 
 H                     0.1682    0.5588   -1.8547 
 O                     1.961    -0.5283   -1.2864 
 H                     1.8683   -1.5068   -1.2184 
 O                     3.6251   -0.798     0.911 
 H                     3.7452   -0.9116   -0.0529 
 O                     1.7978   -2.8802   -0.0969 
 H                     1.7107   -3.8422    0.0438 
 

 GradGradGradGradGradGradGradGradGradGradGradGradGradGradGradGradGradGrad
 Berny optimization.
 Initialization pass.
                           ----------------------------
                           !    Initial Parameters    !
                           ! (Angstroms and Degrees)  !
 --------------------------                            --------------------------
 ! Name  Definition              Value          Derivative Info.                !
 --------------------------------------------------------------------------------
 ! R1    R(1,2)                  1.5369         estimate D2E/DX2                !
 ! R2    R(1,3)                  1.539          estimate D2E/DX2                !
 ! R3    R(1,6)                  1.0967         estimate D2E/DX2                !
 ! R4    R(1,19)                 1.4479         estimate D2E/DX2                !
 ! R5    R(2,4)                  1.5435         estimate D2E/DX2                !
 ! R6    R(2,5)                  1.0949         estimate D2E/DX2                !
 ! R7    R(2,21)                 1.4539         estimate D2E/DX2                !
 ! R8    R(3,7)                  1.5322         estimate D2E/DX2                !
 ! R9    R(3,8)                  1.0951         estimate D2E/DX2                !
 ! R10   R(3,17)                 1.4378         estimate D2E/DX2                !
 ! R11   R(4,9)                  1.5365         estimate D2E/DX2                !
 ! R12   R(4,10)                 1.0936         estimate D2E/DX2                !
 ! R13   R(4,23)                 1.44           estimate D2E/DX2                !
 ! R14   R(7,11)                 1.0958         estimate D2E/DX2                !
 ! R15   R(7,12)                 1.0951         estimate D2E/DX2                !
 ! R16   R(7,15)                 1.4211         estimate D2E/DX2                !
 ! R17   R(9,13)                 1.0938         estimate D2E/DX2                !
 ! R18   R(9,14)                 1.0951         estimate D2E/DX2                !
 ! R19   R(9,25)                 1.4322         estimate D2E/DX2                !
 ! R20   R(15,16)                0.9743         estimate D2E/DX2                !
 ! R21   R(17,18)                0.9803         estimate D2E/DX2                !
 ! R22   R(19,20)                0.981          estimate D2E/DX2                !
 ! R23   R(21,22)                0.9852         estimate D2E/DX2                !
 ! R24   R(23,24)                0.978          estimate D2E/DX2                !
 ! R25   R(25,26)                0.9761         estimate D2E/DX2                !
 ! A1    A(2,1,3)              116.8383         estimate D2E/DX2                !
 ! A2    A(2,1,6)              109.7887         estimate D2E/DX2                !
 ! A3    A(2,1,19)             108.729          estimate D2E/DX2                !
 ! A4    A(3,1,6)              108.7437         estimate D2E/DX2                !
 ! A5    A(3,1,19)             107.9897         estimate D2E/DX2                !
 ! A6    A(6,1,19)             103.9669         estimate D2E/DX2                !
 ! A7    A(1,2,4)              115.5328         estimate D2E/DX2                !
 ! A8    A(1,2,5)              110.6479         estimate D2E/DX2                !
 ! A9    A(1,2,21)             106.9598         estimate D2E/DX2                !
 ! A10   A(4,2,5)              109.8833         estimate D2E/DX2                !
 ! A11   A(4,2,21)             109.3883         estimate D2E/DX2                !
 ! A12   A(5,2,21)             103.7195         estimate D2E/DX2                !
 ! A13   A(1,3,7)              114.4312         estimate D2E/DX2                !
 ! A14   A(1,3,8)              109.5343         estimate D2E/DX2                !
 ! A15   A(1,3,17)             107.5164         estimate D2E/DX2                !
 ! A16   A(7,3,8)              109.4334         estimate D2E/DX2                !
 ! A17   A(7,3,17)             108.2755         estimate D2E/DX2                !
 ! A18   A(8,3,17)             107.4002         estimate D2E/DX2                !
 ! A19   A(2,4,9)              114.2966         estimate D2E/DX2                !
 ! A20   A(2,4,10)             111.0732         estimate D2E/DX2                !
 ! A21   A(2,4,23)             107.9673         estimate D2E/DX2                !
 ! A22   A(9,4,10)             108.8054         estimate D2E/DX2                !
 ! A23   A(9,4,23)             107.639          estimate D2E/DX2                !
 ! A24   A(10,4,23)            106.7313         estimate D2E/DX2                !
 ! A25   A(3,7,11)             109.8855         estimate D2E/DX2                !
 ! A26   A(3,7,12)             111.4215         estimate D2E/DX2                !
 ! A27   A(3,7,15)             110.773          estimate D2E/DX2                !
 ! A28   A(11,7,12)            107.1968         estimate D2E/DX2                !
 ! A29   A(11,7,15)            108.2319         estimate D2E/DX2                !
 ! A30   A(12,7,15)            109.2141         estimate D2E/DX2                !
 ! A31   A(4,9,13)             111.1003         estimate D2E/DX2                !
 ! A32   A(4,9,14)             110.2698         estimate D2E/DX2                !
 ! A33   A(4,9,25)             110.4838         estimate D2E/DX2                !
 ! A34   A(13,9,14)            109.1314         estimate D2E/DX2                !
 ! A35   A(13,9,25)            107.9437         estimate D2E/DX2                !
 ! A36   A(14,9,25)            107.8188         estimate D2E/DX2                !
 ! A37   A(7,15,16)            106.7917         estimate D2E/DX2                !
 ! A38   A(3,17,18)            104.9461         estimate D2E/DX2                !
 ! A39   A(1,19,20)            104.7209         estimate D2E/DX2                !
 ! A40   A(2,21,22)            105.8056         estimate D2E/DX2                !
 ! A41   A(4,23,24)            105.7458         estimate D2E/DX2                !
 ! A42   A(9,25,26)            106.2246         estimate D2E/DX2                !
 ! D1    D(3,1,2,4)             59.0627         estimate D2E/DX2                !
 ! D2    D(3,1,2,5)            -66.5845         estimate D2E/DX2                !
 ! D3    D(3,1,2,21)          -178.9115         estimate D2E/DX2                !
 ! D4    D(6,1,2,4)            -65.3241         estimate D2E/DX2                !
 ! D5    D(6,1,2,5)            169.0287         estimate D2E/DX2                !
 ! D6    D(6,1,2,21)            56.7017         estimate D2E/DX2                !
 ! D7    D(19,1,2,4)          -178.4555         estimate D2E/DX2                !
 ! D8    D(19,1,2,5)            55.8974         estimate D2E/DX2                !
 ! D9    D(19,1,2,21)          -56.4297         estimate D2E/DX2                !
 ! D10   D(2,1,3,7)             58.6596         estimate D2E/DX2                !
 ! D11   D(2,1,3,8)            -64.6337         estimate D2E/DX2                !
 ! D12   D(2,1,3,17)           178.9612         estimate D2E/DX2                !
 ! D13   D(6,1,3,7)           -176.425          estimate D2E/DX2                !
 ! D14   D(6,1,3,8)             60.2816         estimate D2E/DX2                !
 ! D15   D(6,1,3,17)           -56.1235         estimate D2E/DX2                !
 ! D16   D(19,1,3,7)           -64.2048         estimate D2E/DX2                !
 ! D17   D(19,1,3,8)           172.5019         estimate D2E/DX2                !
 ! D18   D(19,1,3,17)           56.0968         estimate D2E/DX2                !
 ! D19   D(2,1,19,20)           37.47           estimate D2E/DX2                !
 ! D20   D(3,1,19,20)          165.1548         estimate D2E/DX2                !
 ! D21   D(6,1,19,20)          -79.447          estimate D2E/DX2                !
 ! D22   D(1,2,4,9)             55.3474         estimate D2E/DX2                !
 ! D23   D(1,2,4,10)           -68.2247         estimate D2E/DX2                !
 ! D24   D(1,2,4,23)           175.0771         estimate D2E/DX2                !
 ! D25   D(5,2,4,9)           -178.6146         estimate D2E/DX2                !
 ! D26   D(5,2,4,10)            57.8133         estimate D2E/DX2                !
 ! D27   D(5,2,4,23)           -58.8849         estimate D2E/DX2                !
 ! D28   D(21,2,4,9)           -65.3707         estimate D2E/DX2                !
 ! D29   D(21,2,4,10)          171.0572         estimate D2E/DX2                !
 ! D30   D(21,2,4,23)           54.359          estimate D2E/DX2                !
 ! D31   D(1,2,21,22)          -79.1312         estimate D2E/DX2                !
 ! D32   D(4,2,21,22)           46.6748         estimate D2E/DX2                !
 ! D33   D(5,2,21,22)          163.8723         estimate D2E/DX2                !
 ! D34   D(1,3,7,11)           167.6717         estimate D2E/DX2                !
 ! D35   D(1,3,7,12)            49.0097         estimate D2E/DX2                !
 ! D36   D(1,3,7,15)           -72.7879         estimate D2E/DX2                !
 ! D37   D(8,3,7,11)           -68.9806         estimate D2E/DX2                !
 ! D38   D(8,3,7,12)           172.3574         estimate D2E/DX2                !
 ! D39   D(8,3,7,15)            50.5598         estimate D2E/DX2                !
 ! D40   D(17,3,7,11)           47.7931         estimate D2E/DX2                !
 ! D41   D(17,3,7,12)          -70.8688         estimate D2E/DX2                !
 ! D42   D(17,3,7,15)          167.3336         estimate D2E/DX2                !
 ! D43   D(1,3,17,18)          -42.5202         estimate D2E/DX2                !
 ! D44   D(7,3,17,18)           81.6034         estimate D2E/DX2                !
 ! D45   D(8,3,17,18)         -160.3181         estimate D2E/DX2                !
 ! D46   D(2,4,9,13)           -72.2667         estimate D2E/DX2                !
 ! D47   D(2,4,9,14)           166.603          estimate D2E/DX2                !
 ! D48   D(2,4,9,25)            47.5126         estimate D2E/DX2                !
 ! D49   D(10,4,9,13)           52.5171         estimate D2E/DX2                !
 ! D50   D(10,4,9,14)          -68.6133         estimate D2E/DX2                !
 ! D51   D(10,4,9,25)          172.2963         estimate D2E/DX2                !
 ! D52   D(23,4,9,13)          167.8197         estimate D2E/DX2                !
 ! D53   D(23,4,9,14)           46.6893         estimate D2E/DX2                !
 ! D54   D(23,4,9,25)          -72.4011         estimate D2E/DX2                !
 ! D55   D(2,4,23,24)          -40.8629         estimate D2E/DX2                !
 ! D56   D(9,4,23,24)           82.9862         estimate D2E/DX2                !
 ! D57   D(10,4,23,24)        -160.3474         estimate D2E/DX2                !
 ! D58   D(3,7,15,16)         -178.9325         estimate D2E/DX2                !
 ! D59   D(11,7,15,16)         -58.4039         estimate D2E/DX2                !
 ! D60   D(12,7,15,16)          57.9839         estimate D2E/DX2                !
 ! D61   D(4,9,25,26)          167.1068         estimate D2E/DX2                !
 ! D62   D(13,9,25,26)         -71.2304         estimate D2E/DX2                !
 ! D63   D(14,9,25,26)          46.5406         estimate D2E/DX2                !
 --------------------------------------------------------------------------------
 Trust Radius=3.00D-01 FncErr=1.00D-07 GrdErr=1.00D-06 EigMax=2.50D+02 EigMin=1.00D-04
 Number of steps in this run=    140 maximum allowed number of steps=    156.
 GradGradGradGradGradGradGradGradGradGradGradGradGradGradGradGradGradGrad

                          Input orientation:                          
 ---------------------------------------------------------------------
 Center     Atomic      Atomic             Coordinates (Angstroms)
 Number     Number       Type             X           Y           Z
 ---------------------------------------------------------------------
      1          6           0        0.000000    0.000000    0.000000
      2          6           0        1.536900    0.000000    0.000000
      3          6           0       -0.694800    0.545700    1.260100
      4          6           0        2.202200   -0.811700    1.131800
      5          1           0        1.923000    1.024600    0.000000
      6          1           0       -0.371300   -1.013100   -0.196400
      7          6           0       -0.333500    1.993900    1.606100
      8          1           0       -0.465600   -0.100900    2.113700
      9          6           0        1.756200   -2.280300    1.202900
     10          1           0        2.030100   -0.343500    2.105000
     11          1           0       -1.020300    2.377300    2.369000
     12          1           0       -0.422400    2.648000    0.732300
     13          1           0        0.732700   -2.363200    1.579700
     14          1           0        2.426300   -2.849100    1.856100
     15          8           0        0.989700    2.074700    2.118100
     16          1           0        1.151500    3.011000    2.333400
     17          8           0       -2.113400    0.476000    1.036600
     18          1           0       -2.239400    0.782900    0.114100
     19          8           0       -0.464900    0.768800   -1.135400
     20          1           0        0.168200    0.558800   -1.854700
     21          8           0        1.961000   -0.528300   -1.286400
     22          1           0        1.868300   -1.506800   -1.218400
     23          8           0        3.625100   -0.798000    0.911000
     24          1           0        3.745200   -0.911600   -0.052900
     25          8           0        1.797800   -2.880200   -0.096900
     26          1           0        1.710700   -3.842200    0.043800
 ---------------------------------------------------------------------
                    Distance matrix (angstroms):
                    1          2          3          4          5
     1  C    0.000000
     2  C    1.536900   0.000000
     3  C    1.538957   2.620329   0.000000
     4  C    2.605669   1.543519   3.201813   0.000000
     5  H    2.178930   1.094933   2.944499   2.175068   0.000000
     6  H    1.096726   2.169371   2.157754   2.903029   3.074834
     7  C    2.581940   3.170740   1.532167   3.811316   2.934432
     8  H    2.166724   2.913403   1.095106   2.930277   3.382290
     9  C    3.119451   2.587437   3.741250   1.536476   3.520959
    10  H    2.944541   2.189124   2.988246   1.093594   2.512806
    11  H    3.507810   4.219359   2.165726   4.699456   4.013100
    12  H    2.779674   3.374466   2.184591   4.360923   2.944926
    13  H    2.935475   2.954133   3.256010   2.183391   3.922940
    14  H    4.177249   3.514756   4.649855   2.173897   4.324809
    15  O    3.125737   3.014988   2.431367   3.282415   2.541674
    16  H    3.979551   3.828761   3.261671   4.142565   3.160024
    17  O    2.401578   3.824370   1.437789   4.504624   4.203335
    18  H    2.375050   3.858289   1.937877   4.827657   4.170972
    19  O    1.447867   2.426394   2.416826   3.840781   2.656432
    20  H    1.944341   2.371816   3.232169   3.864532   2.595420
    21  O    2.404048   1.453887   3.832938   2.446668   2.016871
    22  H    2.691745   1.965902   4.114025   2.473478   2.809889
    23  O    3.822051   2.413981   4.537503   1.439995   2.654983
    24  H    3.854911   2.389645   4.853998   1.947907   2.659339
    25  O    3.396620   2.893615   4.448741   2.439659   3.908008
    26  H    4.206057   3.846378   5.149707   3.257184   4.871625
                    6          7          8          9         10
     6  H    0.000000
     7  C    3.506064   0.000000
     8  H    2.485470   2.159466   0.000000
     9  C    2.844309   4.774746   3.242798   0.000000
    10  H    3.392864   3.361390   2.507479   2.154066   0.000000
    11  H    4.300848   1.095767   2.552322   5.546348   4.096021
    12  H    3.777400   1.095115   3.076781   5.408873   4.104648
    13  H    2.489200   4.485733   2.615164   1.093802   2.457311
    14  H    3.925585   5.579753   3.997755   1.095097   2.548913
    15  O    4.091912   1.421102   2.617471   4.515655   2.632545
    16  H    4.991211   1.941310   3.513859   5.444405   3.475165
    17  O    2.602426   2.407570   2.051390   4.753804   4.356794
    18  H    2.609947   2.706481   2.815292   5.151068   4.843665
    19  O    2.016346   3.005654   3.363485   4.438236   4.238211
    20  H    2.347741   3.779994   4.072481   4.464432   4.467666
    21  O    2.619686   4.471329   4.199016   3.050912   3.397134
    22  H    2.510783   5.008056   4.304246   2.544320   3.524831
    23  O    4.152567   4.893709   4.320447   2.403166   2.043583
    24  H    4.120251   5.275415   4.804397   2.721488   2.814398
    25  O    2.863731   5.585651   4.211204   1.432163   3.367072
    26  H    3.520828   6.378056   4.797718   1.945537   4.073262
                   11         12         13         14         15
    11  H    0.000000
    12  H    1.763392   0.000000
    13  H    5.115500   5.211954   0.000000
    14  H    6.281511   6.292545   1.783473   0.000000
    15  O    2.048077   2.059889   4.477821   5.135783   0.000000
    16  H    2.262644   2.274302   5.442930   6.016120   0.974264
    17  O    2.566145   2.769416   4.056636   5.686541   3.654410
    18  H    3.018756   2.676240   4.569388   6.163988   4.013957
    19  O    3.895711   2.649812   4.314561   5.513376   3.795589
    20  H    4.749644   3.377297   4.544430   5.521126   4.330815
    21  O    5.540091   4.454731   3.618025   3.934199   4.394275
    22  H    6.024922   5.129805   3.138849   3.400836   4.973059
    23  O    5.812748   5.318750   3.356038   2.556824   4.081033
    24  H    6.276341   5.536802   3.721247   3.022860   4.606952
    25  O    6.454739   6.014803   2.052490   2.051874   5.487284
    26  H    7.179631   6.866356   2.345829   2.186953   6.311281
                   16         17         18         19         20
    16  H    0.000000
    17  O    4.332146   0.000000
    18  H    4.624708   0.980342   0.000000
    19  O    4.435401   2.742420   2.170322   0.000000
    20  H    4.951802   3.684043   3.118162   0.980973   0.000000
    21  O    5.126879   4.796424   4.617792   2.755043   2.172299
    22  H    5.791339   4.987029   4.887891   3.260225   2.749895
    23  O    4.759244   5.879561   6.125900   4.834327   4.630352
    24  H    5.273376   6.118467   6.222110   4.660525   4.266555
    25  O    6.405490   5.276968   5.455438   4.417408   4.191918
    26  H    7.247160   5.852883   6.082745   5.233075   5.035118
                   21         22         23         24         25
    21  O    0.000000
    22  H    0.985231   0.000000
    23  O    2.769573   2.850103   0.000000
    24  H    2.202683   2.288101   0.977974   0.000000
    25  O    2.640640   1.774531   2.947956   2.769420   0.000000
    26  H    3.579667   2.659338   3.699205   3.568887   0.976129
                   26
    26  H    0.000000
 Stoichiometry    C6H14O6
 Framework group  C1[X(C6H14O6)]
 Deg. of freedom    72
 Full point group                 C1      NOp   1
 Largest Abelian subgroup         C1      NOp   1
 Largest concise Abelian subgroup C1      NOp   1
                         Standard orientation:                         
 ---------------------------------------------------------------------
 Center     Atomic      Atomic             Coordinates (Angstroms)
 Number     Number       Type             X           Y           Z
 ---------------------------------------------------------------------
      1          6           0        0.601340   -0.818999    0.157756
      2          6           0       -0.476570    0.115766    0.729055
      3          6           0        1.683082   -0.173609   -0.726379
      4          6           0       -1.309750    0.887652   -0.316151
      5          1           0       -0.038644    0.816526    1.447411
      6          1           0        0.127171   -1.633306   -0.403382
      7          6           0        2.490985    0.929804   -0.035504
      8          1           0        1.222059    0.227113   -1.635300
      9          6           0       -2.000538   -0.005187   -1.358460
     10          1           0       -0.697616    1.629055   -0.837265
     11          1           0        3.369238    1.182775   -0.639973
     12          1           0        2.855317    0.604682    0.944718
     13          1           0       -1.275163   -0.420246   -2.064123
     14          1           0       -2.751481    0.568695   -1.911617
     15          8           0        1.707005    2.104446    0.122995
     16          1           0        2.278240    2.768704    0.549191
     17          8           0        2.591326   -1.213528   -1.127499
     18          1           0        2.733134   -1.750785   -0.319838
     19          8           0        1.263675   -1.490849    1.256050
     20          1           0        0.550533   -1.669263    1.905592
     21          8           0       -1.360948   -0.703466    1.541780
     22          1           0       -1.961055   -1.160571    0.908055
     23          8           0       -2.336250    1.615657    0.383770
     24          1           0       -2.665036    1.009929    1.077618
     25          8           0       -2.668482   -1.098339   -0.718178
     26          1           0       -3.248584   -1.497236   -1.394335
 ---------------------------------------------------------------------
 Rotational constants (GHZ):           1.2405002           0.6207670           0.5527747
 Standard basis: def2TZVPP (5D, 7F)
 There are   642 symmetry adapted cartesian basis functions of A   symmetry.
 There are   568 symmetry adapted basis functions of A   symmetry.
   568 basis functions,   850 primitive gaussians,   642 cartesian basis functions
    49 alpha electrons       49 beta electrons
       nuclear repulsion energy       841.1379704218 Hartrees.
 NAtoms=   26 NActive=   26 NUniq=   26 SFac= 1.00D+00 NAtFMM=   60 NAOKFM=F Big=F
 Integral buffers will be    131072 words long.
 Raffenetti 2 integral format.
 Two-electron integral symmetry is turned on.
 Nuclear repulsion after empirical dispersion term =      841.1184483716 Hartrees.
 One-electron integrals computed using PRISM.
   1 Symmetry operations used in ECPInt.
 ECPInt:  NShTT=   23436 NPrTT=   62434 LenC2=   22163 LenP2D=   46126.
 LDataN:  DoStor=T MaxTD1= 6 Len=  172
 NBasis=   568 RedAO= T EigKep=  3.68D-05  NBF=   568
 NBsUse=   568 1.00D-06 EigRej= -1.00D+00 NBFU=   568
 ExpMin= 9.52D-02 ExpMax= 2.70D+04 ExpMxC= 9.22D+02 IAcc=3 IRadAn=         5 AccDes= 0.00D+00
 Harris functional with IExCor= 4639 and IRadAn=       5 diagonalized for initial guess.
 HarFok:  IExCor= 4639 AccDes= 0.00D+00 IRadAn=         5 IDoV= 1 UseB2=F ITyADJ=14
 ICtDFT=  3500011 ScaDFX=  1.000000  1.000000  1.000000  1.000000
 FoFCou: FMM=F IPFlag=           0 FMFlag=      100000 FMFlg1=           0
         NFxFlg=           0 DoJE=T BraDBF=F KetDBF=T FulRan=T
         wScrn=  0.000000 ICntrl=       500 IOpCl=  0 I1Cent=   200000004 NGrid=           0
         NMat0=    1 NMatS0=      1 NMatT0=    0 NMatD0=    1 NMtDS0=    0 NMtDT0=    0
 Petite list used in FoFCou.
 Requested convergence on RMS density matrix=1.00D-08 within 128 cycles.
 Requested convergence on MAX density matrix=1.00D-06.
 Requested convergence on             energy=1.00D-06.
 No special actions if energy rises.
 Integral accuracy reduced to 1.0D-05 until final iterations.
 Initial convergence to 1.0D-05 achieved.  Increase integral accuracy.
 SCF Done:  E(RwB97XD) =  -688.468195337     A.U. after   14 cycles
            NFock= 14  Conv=0.28D-08     -V/T= 2.0050

 **********************************************************************

            Population analysis using the SCF Density.

 **********************************************************************

 Orbital symmetries:
       Occupied  (A) (A) (A) (A) (A) (A) (A) (A) (A) (A) (A) (A)
                 (A) (A) (A) (A) (A) (A) (A) (A) (A) (A) (A) (A)
                 (A) (A) (A) (A) (A) (A) (A) (A) (A) (A) (A) (A)
                 (A) (A) (A) (A) (A) (A) (A) (A) (A) (A) (A) (A)
                 (A)
       Virtual   (A) (A) (A) (A) (A) (A) (A) (A) (A) (A) (A) (A)
                 (A) (A) (A) (A) (A) (A) (A) (A) (A) (A) (A) (A)
                 (A) (A) (A) (A) (A) (A) (A) (A) (A) (A) (A) (A)
                 (A) (A) (A) (A) (A) (A) (A) (A) (A) (A) (A) (A)
                 (A) (A) (A) (A) (A) (A) (A) (A) (A) (A) (A) (A)
                 (A) (A) (A) (A) (A) (A) (A) (A) (A) (A) (A) (A)
                 (A) (A) (A) (A) (A) (A) (A) (A) (A) (A) (A) (A)
                 (A) (A) (A) (A) (A) (A) (A) (A) (A) (A) (A) (A)
                 (A) (A) (A) (A) (A) (A) (A) (A) (A) (A) (A) (A)
                 (A) (A) (A) (A) (A) (A) (A) (A) (A) (A) (A) (A)
                 (A) (A) (A) (A) (A) (A) (A) (A) (A) (A) (A) (A)
                 (A) (A) (A) (A) (A) (A) (A) (A) (A) (A) (A) (A)
                 (A) (A) (A) (A) (A) (A) (A) (A) (A) (A) (A) (A)
                 (A) (A) (A) (A) (A) (A) (A) (A) (A) (A) (A) (A)
                 (A) (A) (A) (A) (A) (A) (A) (A) (A) (A) (A) (A)
                 (A) (A) (A) (A) (A) (A) (A) (A) (A) (A) (A) (A)
                 (A) (A) (A) (A) (A) (A) (A) (A) (A) (A) (A) (A)
                 (A) (A) (A) (A) (A) (A) (A) (A) (A) (A) (A) (A)
                 (A) (A) (A) (A) (A) (A) (A) (A) (A) (A) (A) (A)
                 (A) (A) (A) (A) (A) (A) (A) (A) (A) (A) (A) (A)
                 (A) (A) (A) (A) (A) (A) (A) (A) (A) (A) (A) (A)
                 (A) (A) (A) (A) (A) (A) (A) (A) (A) (A) (A) (A)
                 (A) (A) (A) (A) (A) (A) (A) (A) (A) (A) (A) (A)
                 (A) (A) (A) (A) (A) (A) (A) (A) (A) (A) (A) (A)
                 (A) (A) (A) (A) (A) (A) (A) (A) (A) (A) (A) (A)
                 (A) (A) (A) (A) (A) (A) (A) (A) (A) (A) (A) (A)
                 (A) (A) (A) (A) (A) (A) (A) (A) (A) (A) (A) (A)
                 (A) (A) (A) (A) (A) (A) (A) (A) (A) (A) (A) (A)
                 (A) (A) (A) (A) (A) (A) (A) (A) (A) (A) (A) (A)
                 (A) (A) (A) (A) (A) (A) (A) (A) (A) (A) (A) (A)
                 (A) (A) (A) (A) (A) (A) (A) (A) (A) (A) (A) (A)
                 (A) (A) (A) (A) (A) (A) (A) (A) (A) (A) (A) (A)
                 (A) (A) (A) (A) (A) (A) (A) (A) (A) (A) (A) (A)
                 (A) (A) (A) (A) (A) (A) (A) (A) (A) (A) (A) (A)
                 (A) (A) (A) (A) (A) (A) (A) (A) (A) (A) (A) (A)
                 (A) (A) (A) (A) (A) (A) (A) (A) (A) (A) (A) (A)
                 (A) (A) (A) (A) (A) (A) (A) (A) (A) (A) (A) (A)
                 (A) (A) (A) (A) (A) (A) (A) (A) (A) (A) (A) (A)
                 (A) (A) (A) (A) (A) (A) (A) (A) (A) (A) (A) (A)
                 (A) (A) (A) (A) (A) (A) (A) (A) (A) (A) (A) (A)
                 (A) (A) (A) (A) (A) (A) (A) (A) (A) (A) (A) (A)
                 (A) (A) (A) (A) (A) (A) (A) (A) (A) (A) (A) (A)
                 (A) (A) (A) (A) (A) (A) (A) (A) (A) (A) (A) (A)
                 (A) (A) (A)
 The electronic state is 1-A.
 Alpha  occ. eigenvalues --  -19.28442 -19.25834 -19.25305 -19.25276 -19.24857
 Alpha  occ. eigenvalues --  -19.24375 -10.34823 -10.34701 -10.34582 -10.34380
 Alpha  occ. eigenvalues --  -10.34238 -10.33075  -1.16163  -1.14193  -1.13096
 Alpha  occ. eigenvalues --   -1.12307  -1.10912  -1.09705  -0.88613  -0.84683
 Alpha  occ. eigenvalues --   -0.80238  -0.75462  -0.70695  -0.68277  -0.65306
 Alpha  occ. eigenvalues --   -0.62293  -0.61844  -0.59929  -0.57871  -0.56131
 Alpha  occ. eigenvalues --   -0.55604  -0.54317  -0.54000  -0.52707  -0.51128
 Alpha  occ. eigenvalues --   -0.49701  -0.48807  -0.48652  -0.45739  -0.44022
 Alpha  occ. eigenvalues --   -0.43298  -0.42080  -0.40956  -0.39266  -0.38896
 Alpha  occ. eigenvalues --   -0.36801  -0.36670  -0.35924  -0.35209
 Alpha virt. eigenvalues --    0.08198   0.09831   0.11785   0.12222   0.14166
 Alpha virt. eigenvalues --    0.15343   0.16359   0.17275   0.18180   0.18361
 Alpha virt. eigenvalues --    0.19565   0.19864   0.20513   0.20838   0.21831
 Alpha virt. eigenvalues --    0.22875   0.23950   0.24903   0.25819   0.27965
 Alpha virt. eigenvalues --    0.28224   0.28889   0.31845   0.33365   0.33982
 Alpha virt. eigenvalues --    0.34935   0.35636   0.36282   0.37318   0.37481
 Alpha virt. eigenvalues --    0.39240   0.39448   0.39893   0.40162   0.41372
 Alpha virt. eigenvalues --    0.41786   0.42195   0.43417   0.43610   0.44553
 Alpha virt. eigenvalues --    0.45589   0.46601   0.46922   0.47540   0.48101
 Alpha virt. eigenvalues --    0.50114   0.50372   0.51280   0.51549   0.52465
 Alpha virt. eigenvalues --    0.52879   0.53413   0.53992   0.54478   0.55490
 Alpha virt. eigenvalues --    0.56183   0.56556   0.57276   0.58242   0.59075
 Alpha virt. eigenvalues --    0.60568   0.61582   0.62122   0.62651   0.63701
 Alpha virt. eigenvalues --    0.65132   0.67228   0.67586   0.68809   0.69983
 Alpha virt. eigenvalues --    0.70306   0.71381   0.72196   0.72569   0.73142
 Alpha virt. eigenvalues --    0.75973   0.76562   0.78012   0.80382   0.80815
 Alpha virt. eigenvalues --    0.82027   0.82961   0.84217   0.85689   0.86256
 Alpha virt. eigenvalues --    0.86984   0.87928   0.89077   0.89368   0.91582
 Alpha virt. eigenvalues --    0.92313   0.92926   0.94800   0.95482   0.97771
 Alpha virt. eigenvalues --    0.98090   0.98959   0.99894   1.01637   1.02201
 Alpha virt. eigenvalues --    1.04683   1.05720   1.06247   1.07188   1.08629
 Alpha virt. eigenvalues --    1.09189   1.09855   1.12042   1.12578   1.12937
 Alpha virt. eigenvalues --    1.14117   1.15383   1.17200   1.17726   1.17922
 Alpha virt. eigenvalues --    1.18532   1.21240   1.21810   1.23339   1.23895
 Alpha virt. eigenvalues --    1.24478   1.25078   1.26234   1.28108   1.29433
 Alpha virt. eigenvalues --    1.31557   1.32490   1.33113   1.34628   1.35279
 Alpha virt. eigenvalues --    1.36290   1.37271   1.39715   1.41139   1.41352
 Alpha virt. eigenvalues --    1.41998   1.44088   1.44364   1.45540   1.46484
 Alpha virt. eigenvalues --    1.47725   1.49494   1.50540   1.51096   1.51779
 Alpha virt. eigenvalues --    1.52772   1.53611   1.56175   1.57884   1.59432
 Alpha virt. eigenvalues --    1.61152   1.61502   1.62537   1.64863   1.65193
 Alpha virt. eigenvalues --    1.67792   1.69889   1.70489   1.73862   1.74969
 Alpha virt. eigenvalues --    1.77536   1.79479   1.80054   1.85570   1.85940
 Alpha virt. eigenvalues --    1.87711   1.88217   1.89214   1.90998   1.94378
 Alpha virt. eigenvalues --    1.95054   1.97630   1.98463   1.98833   2.00334
 Alpha virt. eigenvalues --    2.01169   2.02371   2.03438   2.04128   2.05940
 Alpha virt. eigenvalues --    2.06723   2.07305   2.08467   2.10964   2.11999
 Alpha virt. eigenvalues --    2.13012   2.14727   2.15652   2.16308   2.17423
 Alpha virt. eigenvalues --    2.20053   2.21248   2.22152   2.22603   2.25207
 Alpha virt. eigenvalues --    2.27083   2.29093   2.30806   2.32657   2.33431
 Alpha virt. eigenvalues --    2.34736   2.36789   2.37907   2.40167   2.42872
 Alpha virt. eigenvalues --    2.46189   2.46227   2.50953   2.51652   2.52395
 Alpha virt. eigenvalues --    2.54454   2.57842   2.59804   2.60444   2.63322
 Alpha virt. eigenvalues --    2.64054   2.64483   2.68048   2.69818   2.70704
 Alpha virt. eigenvalues --    2.71578   2.75358   2.75757   2.77264   2.78701
 Alpha virt. eigenvalues --    2.79537   2.80724   2.82146   2.82634   2.83772
 Alpha virt. eigenvalues --    2.86122   2.86989   2.89150   2.90157   2.91702
 Alpha virt. eigenvalues --    2.93928   2.95135   2.96477   2.98673   2.99553
 Alpha virt. eigenvalues --    3.01310   3.03195   3.03722   3.04552   3.06078
 Alpha virt. eigenvalues --    3.06967   3.08174   3.08919   3.10226   3.10985
 Alpha virt. eigenvalues --    3.12991   3.13787   3.14238   3.17570   3.18410
 Alpha virt. eigenvalues --    3.18935   3.19385   3.20571   3.21645   3.22864
 Alpha virt. eigenvalues --    3.23144   3.23606   3.24383   3.26495   3.27064
 Alpha virt. eigenvalues --    3.28443   3.29865   3.30964   3.31740   3.32095
 Alpha virt. eigenvalues --    3.33073   3.33728   3.35201   3.36122   3.37305
 Alpha virt. eigenvalues --    3.39014   3.39695   3.40914   3.42641   3.44057
 Alpha virt. eigenvalues --    3.44364   3.44996   3.46208   3.47402   3.48490
 Alpha virt. eigenvalues --    3.49607   3.51215   3.52138   3.52788   3.54322
 Alpha virt. eigenvalues --    3.54877   3.55377   3.57851   3.59456   3.61034
 Alpha virt. eigenvalues --    3.61629   3.63151   3.64141   3.65445   3.66074
 Alpha virt. eigenvalues --    3.66932   3.69427   3.69651   3.70845   3.72317
 Alpha virt. eigenvalues --    3.72945   3.75072   3.76076   3.76545   3.77554
 Alpha virt. eigenvalues --    3.78711   3.79352   3.79798   3.80800   3.82604
 Alpha virt. eigenvalues --    3.85099   3.85311   3.87133   3.87668   3.88699
 Alpha virt. eigenvalues --    3.89689   3.91040   3.92326   3.94766   3.95257
 Alpha virt. eigenvalues --    3.96588   3.98902   3.99423   4.00278   4.00926
 Alpha virt. eigenvalues --    4.03201   4.03436   4.04719   4.05488   4.07899
 Alpha virt. eigenvalues --    4.08018   4.09341   4.09623   4.10643   4.11010
 Alpha virt. eigenvalues --    4.13236   4.14354   4.15435   4.16344   4.16529
 Alpha virt. eigenvalues --    4.18040   4.19478   4.20028   4.21048   4.21795
 Alpha virt. eigenvalues --    4.24155   4.25282   4.26168   4.26834   4.28690
 Alpha virt. eigenvalues --    4.30087   4.30286   4.33356   4.33751   4.35707
 Alpha virt. eigenvalues --    4.36733   4.37818   4.38581   4.39503   4.40221
 Alpha virt. eigenvalues --    4.42018   4.44854   4.45980   4.47661   4.48282
 Alpha virt. eigenvalues --    4.50449   4.51576   4.52641   4.54368   4.55601
 Alpha virt. eigenvalues --    4.56262   4.57112   4.58380   4.60229   4.60839
 Alpha virt. eigenvalues --    4.62281   4.63398   4.66551   4.69010   4.70550
 Alpha virt. eigenvalues --    4.72605   4.75395   4.77510   4.78954   4.79960
 Alpha virt. eigenvalues --    4.82033   4.84412   4.85499   4.87615   4.88484
 Alpha virt. eigenvalues --    4.92202   4.94225   4.96559   4.97054   4.98522
 Alpha virt. eigenvalues --    4.99575   5.01085   5.01550   5.03893   5.05885
 Alpha virt. eigenvalues --    5.07190   5.09869   5.10811   5.10884   5.14200
 Alpha virt. eigenvalues --    5.15098   5.16875   5.17083   5.19014   5.21570
 Alpha virt. eigenvalues --    5.23388   5.26901   5.27926   5.28022   5.29646
 Alpha virt. eigenvalues --    5.33890   5.38555   5.40070   5.42131   5.44243
 Alpha virt. eigenvalues --    5.46881   5.49536   5.52178   5.54504   5.58751
 Alpha virt. eigenvalues --    5.58913   5.60527   5.62550   5.63833   5.65003
 Alpha virt. eigenvalues --    5.67996   5.68834   5.69315   5.71683   5.73687
 Alpha virt. eigenvalues --    5.76885   5.78307   5.79490   5.81107   5.84408
 Alpha virt. eigenvalues --    5.86582   5.88972   5.91019   5.92451   5.93852
 Alpha virt. eigenvalues --    5.97639   6.02116   6.05677   6.09852   6.12238
 Alpha virt. eigenvalues --    6.13886   6.15033   6.19416   6.20412   6.49734
 Alpha virt. eigenvalues --    6.54119   6.55522   6.56610   6.57162   6.58841
 Alpha virt. eigenvalues --    6.69327   6.73366   6.74928   6.75705   6.76095
 Alpha virt. eigenvalues --    6.76775   6.77822   6.78369   6.79872   6.81302
 Alpha virt. eigenvalues --    6.82996   6.83976   6.86120   6.87633   6.88261
 Alpha virt. eigenvalues --    6.89231   6.92483   6.97426   6.98947   7.01211
 Alpha virt. eigenvalues --    7.02736   7.03592   7.04221   7.08505   7.15344
 Alpha virt. eigenvalues --    7.16908   7.20499   7.21383   7.24428   7.26978
 Alpha virt. eigenvalues --    7.42088   7.43376   7.44792   7.46597   7.47674
 Alpha virt. eigenvalues --    7.50821   7.53054   7.55982   7.57193   7.60017
 Alpha virt. eigenvalues --    7.63555   7.78368  23.14046  23.15372  23.22039
 Alpha virt. eigenvalues --   23.25002  23.42866  23.46729  44.15498  44.16144
 Alpha virt. eigenvalues --   44.21745  44.31432  44.31842  44.39930
          Condensed to atoms (all electrons):
               1          2          3          4          5          6
     1  C    5.122194   0.166108   0.269625  -0.037776   0.008152   0.397551
     2  C    0.166108   5.062124  -0.041595   0.263137   0.375053   0.007904
     3  C    0.269625  -0.041595   4.802183   0.037160  -0.023300  -0.056119
     4  C   -0.037776   0.263137   0.037160   4.852203  -0.023220  -0.018425
     5  H    0.008152   0.375053  -0.023300  -0.023220   0.545653   0.006231
     6  H    0.397551   0.007904  -0.056119  -0.018425   0.006231   0.592089
     7  C   -0.004684   0.015848   0.295766  -0.008361   0.001505   0.007257
     8  H   -0.018988  -0.026954   0.400073   0.007406  -0.000698  -0.004903
     9  C    0.046491  -0.032596  -0.018391   0.288560   0.005454  -0.001695
    10  H   -0.019987  -0.006427   0.006995   0.398236  -0.006821  -0.000187
    11  H    0.005949  -0.000718  -0.032407   0.000473   0.001003  -0.000232
    12  H   -0.024116   0.003596  -0.018359  -0.000453  -0.003849   0.000675
    13  H    0.006056  -0.011409  -0.004065  -0.035910  -0.000692  -0.012862
    14  H   -0.002122   0.007723   0.000683  -0.016276  -0.000148   0.001006
    15  O   -0.017855  -0.006753  -0.046400  -0.015661   0.021951  -0.000582
    16  H    0.003352  -0.002694   0.003745   0.001330   0.000953   0.000085
    17  O   -0.032892   0.011587   0.280064  -0.001558   0.000043   0.010307
    18  H   -0.012935   0.000110  -0.048553  -0.000094   0.000065  -0.002218
    19  O    0.232911  -0.021210  -0.045959   0.010074   0.004697  -0.039347
    20  H   -0.033698  -0.016778   0.007724   0.003627  -0.001394  -0.002745
    21  O   -0.021311   0.192361   0.007867  -0.036431  -0.026729  -0.004326
    22  H    0.015454  -0.062720   0.001076   0.005447   0.004347  -0.000098
    23  O    0.009683  -0.031658  -0.001628   0.264509   0.008508   0.000094
    24  H    0.000238  -0.016595  -0.000297  -0.047701  -0.002710   0.000018
    25  O   -0.018832   0.002818   0.002674  -0.050580  -0.000366   0.015386
    26  H    0.001930  -0.002120  -0.000137   0.005606   0.000072  -0.000272
               7          8          9         10         11         12
     1  C   -0.004684  -0.018988   0.046491  -0.019987   0.005949  -0.024116
     2  C    0.015848  -0.026954  -0.032596  -0.006427  -0.000718   0.003596
     3  C    0.295766   0.400073  -0.018391   0.006995  -0.032407  -0.018359
     4  C   -0.008361   0.007406   0.288560   0.398236   0.000473  -0.000453
     5  H    0.001505  -0.000698   0.005454  -0.006821   0.001003  -0.003849
     6  H    0.007257  -0.004903  -0.001695  -0.000187  -0.000232   0.000675
     7  C    4.800421  -0.035845   0.000967  -0.002989   0.429074   0.401255
     8  H   -0.035845   0.629731   0.001017  -0.000809  -0.012077   0.010346
     9  C    0.000967   0.001017   4.814121  -0.036199  -0.000018   0.000110
    10  H   -0.002989  -0.000809  -0.036199   0.580316  -0.000086   0.000743
    11  H    0.429074  -0.012077  -0.000018  -0.000086   0.584891  -0.041191
    12  H    0.401255   0.010346   0.000110   0.000743  -0.041191   0.611196
    13  H    0.000352   0.001393   0.431547   0.001383   0.000025  -0.000041
    14  H   -0.000071   0.000028   0.415343  -0.001721  -0.000000   0.000003
    15  O    0.245903   0.006723   0.001227   0.017185  -0.036222  -0.045992
    16  H   -0.016412  -0.000282  -0.000067  -0.001286  -0.007156  -0.007875
    17  O   -0.045152  -0.026219   0.000007  -0.000017   0.007449   0.001920
    18  H    0.002000   0.008891   0.000082  -0.000022  -0.001462   0.002948
    19  O   -0.015153   0.002676  -0.001330  -0.000021   0.000292   0.017830
    20  H    0.000759  -0.000339  -0.000573  -0.000026   0.000058  -0.000806
    21  O   -0.000347  -0.000061  -0.004983   0.003832   0.000023  -0.000139
    22  H   -0.000054   0.000041  -0.008041   0.000263   0.000001  -0.000004
    23  O    0.000165   0.000020  -0.041741  -0.021312  -0.000007  -0.000004
    24  H    0.000017  -0.000029  -0.001977   0.007893  -0.000001  -0.000004
    25  O   -0.000112  -0.000387   0.231499   0.002609   0.000000   0.000001
    26  H    0.000007   0.000017  -0.015596  -0.000558  -0.000000   0.000000
              13         14         15         16         17         18
     1  C    0.006056  -0.002122  -0.017855   0.003352  -0.032892  -0.012935
     2  C   -0.011409   0.007723  -0.006753  -0.002694   0.011587   0.000110
     3  C   -0.004065   0.000683  -0.046400   0.003745   0.280064  -0.048553
     4  C   -0.035910  -0.016276  -0.015661   0.001330  -0.001558  -0.000094
     5  H   -0.000692  -0.000148   0.021951   0.000953   0.000043   0.000065
     6  H   -0.012862   0.001006  -0.000582   0.000085   0.010307  -0.002218
     7  C    0.000352  -0.000071   0.245903  -0.016412  -0.045152   0.002000
     8  H    0.001393   0.000028   0.006723  -0.000282  -0.026219   0.008891
     9  C    0.431547   0.415343   0.001227  -0.000067   0.000007   0.000082
    10  H    0.001383  -0.001721   0.017185  -0.001286  -0.000017  -0.000022
    11  H    0.000025  -0.000000  -0.036222  -0.007156   0.007449  -0.001462
    12  H   -0.000041   0.000003  -0.045992  -0.007875   0.001920   0.002948
    13  H    0.605596  -0.026305  -0.000161   0.000006   0.000436  -0.000052
    14  H   -0.026305   0.546360  -0.000001  -0.000000  -0.000003   0.000000
    15  O   -0.000161  -0.000001   7.902046   0.313410   0.003001  -0.000128
    16  H    0.000006  -0.000000   0.313410   0.536216  -0.000360  -0.000004
    17  O    0.000436  -0.000003   0.003001  -0.000360   7.850927   0.326824
    18  H   -0.000052   0.000000  -0.000128  -0.000004   0.326824   0.503744
    19  O    0.000112   0.000013   0.001070  -0.000030  -0.010062   0.020587
    20  H    0.000016   0.000006   0.000011  -0.000005   0.000010  -0.001007
    21  O    0.000582  -0.000611   0.000198  -0.000011  -0.000148  -0.000023
    22  H    0.000918   0.000534  -0.000019   0.000000  -0.000025  -0.000003
    23  O    0.005691   0.004366   0.000262   0.000004   0.000002   0.000002
    24  H    0.000347  -0.001911  -0.000019   0.000007   0.000002  -0.000000
    25  O   -0.049659  -0.031703  -0.000003   0.000000  -0.000004   0.000002
    26  H   -0.004401  -0.010016   0.000000  -0.000000  -0.000000   0.000000
              19         20         21         22         23         24
     1  C    0.232911  -0.033698  -0.021311   0.015454   0.009683   0.000238
     2  C   -0.021210  -0.016778   0.192361  -0.062720  -0.031658  -0.016595
     3  C   -0.045959   0.007724   0.007867   0.001076  -0.001628  -0.000297
     4  C    0.010074   0.003627  -0.036431   0.005447   0.264509  -0.047701
     5  H    0.004697  -0.001394  -0.026729   0.004347   0.008508  -0.002710
     6  H   -0.039347  -0.002745  -0.004326  -0.000098   0.000094   0.000018
     7  C   -0.015153   0.000759  -0.000347  -0.000054   0.000165   0.000017
     8  H    0.002676  -0.000339  -0.000061   0.000041   0.000020  -0.000029
     9  C   -0.001330  -0.000573  -0.004983  -0.008041  -0.041741  -0.001977
    10  H   -0.000021  -0.000026   0.003832   0.000263  -0.021312   0.007893
    11  H    0.000292   0.000058   0.000023   0.000001  -0.000007  -0.000001
    12  H    0.017830  -0.000806  -0.000139  -0.000004  -0.000004  -0.000004
    13  H    0.000112   0.000016   0.000582   0.000918   0.005691   0.000347
    14  H    0.000013   0.000006  -0.000611   0.000534   0.004366  -0.001911
    15  O    0.001070   0.000011   0.000198  -0.000019   0.000262  -0.000019
    16  H   -0.000030  -0.000005  -0.000011   0.000000   0.000004   0.000007
    17  O   -0.010062   0.000010  -0.000148  -0.000025   0.000002   0.000002
    18  H    0.020587  -0.001007  -0.000023  -0.000003   0.000002  -0.000000
    19  O    7.925536   0.336902  -0.016563   0.000118  -0.000153  -0.000026
    20  H    0.336902   0.472443   0.029081  -0.000041  -0.000044  -0.000112
    21  O   -0.016563   0.029081   7.988713   0.336019  -0.010793   0.029527
    22  H    0.000118  -0.000041   0.336019   0.448011   0.000659  -0.000799
    23  O   -0.000153  -0.000044  -0.010793   0.000659   7.859762   0.330151
    24  H   -0.000026  -0.000112   0.029527  -0.000799   0.330151   0.504744
    25  O    0.000021   0.000065  -0.025663   0.044421   0.000664   0.006250
    26  H   -0.000009  -0.000007   0.001562  -0.002558  -0.000700  -0.000234
              25         26
     1  C   -0.018832   0.001930
     2  C    0.002818  -0.002120
     3  C    0.002674  -0.000137
     4  C   -0.050580   0.005606
     5  H   -0.000366   0.000072
     6  H    0.015386  -0.000272
     7  C   -0.000112   0.000007
     8  H   -0.000387   0.000017
     9  C    0.231499  -0.015596
    10  H    0.002609  -0.000558
    11  H    0.000000  -0.000000
    12  H    0.000001   0.000000
    13  H   -0.049659  -0.004401
    14  H   -0.031703  -0.010016
    15  O   -0.000003   0.000000
    16  H    0.000000  -0.000000
    17  O   -0.000004  -0.000000
    18  H    0.000002   0.000000
    19  O    0.000021  -0.000009
    20  H    0.000065  -0.000007
    21  O   -0.025663   0.001562
    22  H    0.044421  -0.002558
    23  O    0.000664  -0.000700
    24  H    0.006250  -0.000234
    25  O    7.902253   0.306871
    26  H    0.306871   0.549981
 Mulliken charges:
               1
     1  C   -0.040497
     2  C    0.171859
     3  C    0.221575
     4  C    0.154677
     5  H    0.106240
     6  H    0.105407
     7  C   -0.072118
     8  H    0.059230
     9  C   -0.073221
    10  H    0.079013
    11  H    0.102338
    12  H    0.092210
    13  H    0.091100
    14  H    0.114824
    15  O   -0.343192
    16  H    0.177072
    17  O   -0.376136
    18  H    0.201244
    19  O   -0.402976
    20  H    0.206873
    21  O   -0.441628
    22  H    0.217050
    23  O   -0.376500
    24  H    0.193218
    25  O   -0.338224
    26  H    0.170562
 Sum of Mulliken charges =  -0.00000
 Mulliken charges with hydrogens summed into heavy atoms:
               1
     1  C    0.064910
     2  C    0.278099
     3  C    0.280804
     4  C    0.233690
     7  C    0.122430
     9  C    0.132702
    15  O   -0.166120
    17  O   -0.174891
    19  O   -0.196103
    21  O   -0.224578
    23  O   -0.183282
    25  O   -0.167662
 Electronic spatial extent (au):  <R**2>=           2266.8630
 Charge=              0.0000 electrons
 Dipole moment (field-independent basis, Debye):
    X=             -0.8592    Y=             -0.3079    Z=             -1.2699  Tot=              1.5639
 Quadrupole moment (field-independent basis, Debye-Ang):
   XX=            -67.5747   YY=            -72.6519   ZZ=            -70.9020
   XY=             13.7900   XZ=             10.9481   YZ=              1.4902
 Traceless Quadrupole moment (field-independent basis, Debye-Ang):
   XX=              2.8015   YY=             -2.2757   ZZ=             -0.5258
   XY=             13.7900   XZ=             10.9481   YZ=              1.4902
 Octapole moment (field-independent basis, Debye-Ang**2):
  XXX=            -20.1903  YYY=             -5.3764  ZZZ=              0.7822  XYY=             14.9661
  XXY=             -2.3918  XXZ=             -1.0495  XZZ=            -19.8597  YZZ=              2.4196
  YYZ=              6.9739  XYZ=             -6.3954
 Hexadecapole moment (field-independent basis, Debye-Ang**3):
 XXXX=          -1514.5882 YYYY=           -604.0565 ZZZZ=           -438.4731 XXXY=            130.0556
 XXXZ=             90.1630 YYYX=             82.5075 YYYZ=             15.0507 ZZZX=             35.0598
 ZZZY=             -0.9150 XXYY=           -333.1039 XXZZ=           -325.7273 YYZZ=           -170.6888
 XXYZ=             27.8862 YYXZ=             34.3427 ZZXY=             25.2133
 N-N= 8.411184483716D+02 E-N=-3.299719011526D+03  KE= 6.850513206107D+02
   1 Symmetry operations used in ECPInt.
 ECPInt:  NShTT=   23436 NPrTT=   62434 LenC2=   22163 LenP2D=   46126.
 LDataN:  DoStor=T MaxTD1= 7 Len=  274
 Calling FoFJK, ICntrl=      2127 FMM=F ISym2X=0 I1Cent= 0 IOpClX= 0 NMat=1 NMatS=1 NMatT=0.
 ***** Axes restored to original set *****
 -------------------------------------------------------------------
 Center     Atomic                   Forces (Hartrees/Bohr)
 Number     Number              X              Y              Z
 -------------------------------------------------------------------
      1        6          -0.000965561    0.008233723   -0.011111869
      2        6          -0.001417283   -0.009600347   -0.011773228
      3        6          -0.011310840    0.005321402   -0.012146486
      4        6           0.020269722   -0.009066948   -0.010283632
      5        1          -0.003511875   -0.004139384    0.005759766
      6        1           0.003839917   -0.002555614    0.009030715
      7        6           0.002410839    0.006753952    0.005050102
      8        1          -0.001138218    0.001751133   -0.001994251
      9        6          -0.005660619    0.001486130   -0.000795295
     10        1          -0.000666107    0.000108303   -0.003952777
     11        1          -0.004260692   -0.006204088   -0.002685353
     12        1          -0.002932503   -0.005087362   -0.003217126
     13        1          -0.000667145    0.002496822    0.003051537
     14        1          -0.000665451    0.007422681    0.002406534
     15        8           0.003932617    0.013945360    0.003350692
     16        1          -0.000190604   -0.018931273   -0.003481654
     17        8           0.012660843    0.006098474   -0.013352142
     18        1           0.000775760   -0.005992076    0.017394047
     19        8           0.018197338   -0.005466823    0.002043558
     20        1          -0.013098548    0.003552647    0.013172272
     21        8          -0.002880329   -0.009664989    0.013301025
     22        1          -0.000476982    0.017412601   -0.004357163
     23        8          -0.011646130    0.001514813   -0.011443439
     24        1          -0.001531915    0.003080228    0.016452531
     25        8          -0.001007030   -0.022248059    0.008311119
     26        1           0.001940795    0.019778693   -0.008729484
 -------------------------------------------------------------------
 Cartesian Forces:  Max     0.022248059 RMS     0.008794982

 GradGradGradGradGradGradGradGradGradGradGradGradGradGradGradGradGradGrad
 Berny optimization.
 FormGI is forming the generalized inverse of G from B-inverse, IUseBI=4.
 Internal  Forces:  Max     0.020924068 RMS     0.005748493
 Search for a local minimum.
 Step number   1 out of a maximum of  140
 All quantities printed in internal units (Hartrees-Bohrs-Radians)
 Mixed Optimization -- RFO/linear search
 Second derivative matrix not updated -- first step.
 ITU=  0
     Eigenvalues ---    0.00230   0.00251   0.00278   0.00283   0.00340
     Eigenvalues ---    0.00979   0.01059   0.01163   0.01192   0.01266
     Eigenvalues ---    0.01413   0.03577   0.03653   0.03897   0.03965
     Eigenvalues ---    0.04590   0.04649   0.04804   0.04819   0.04938
     Eigenvalues ---    0.05007   0.05616   0.05714   0.07687   0.07721
     Eigenvalues ---    0.08000   0.08093   0.11521   0.11566   0.13797
     Eigenvalues ---    0.13866   0.16000   0.16000   0.16000   0.16000
     Eigenvalues ---    0.16000   0.16000   0.16918   0.16982   0.17252
     Eigenvalues ---    0.17643   0.19459   0.19513   0.19572   0.19723
     Eigenvalues ---    0.21987   0.22055   0.28209   0.28612   0.28795
     Eigenvalues ---    0.28833   0.29224   0.34047   0.34155   0.34228
     Eigenvalues ---    0.34229   0.34230   0.34249   0.34377   0.34401
     Eigenvalues ---    0.37740   0.38526   0.39586   0.39890   0.40680
     Eigenvalues ---    0.42295   0.50382   0.51196   0.51318   0.51780
     Eigenvalues ---    0.52144   0.52515
 RFO step:  Lambda=-1.78825039D-02 EMin= 2.30000000D-03
 Linear search not attempted -- first point.
 Iteration  1 RMS(Cart)=  0.09526078 RMS(Int)=  0.00289790
 Iteration  2 RMS(Cart)=  0.00415724 RMS(Int)=  0.00057365
 Iteration  3 RMS(Cart)=  0.00000682 RMS(Int)=  0.00057362
 Iteration  4 RMS(Cart)=  0.00000000 RMS(Int)=  0.00057362
 Variable       Old X    -DE/DX   Delta X   Delta X   Delta X     New X
                                 (Linear)    (Quad)   (Total)
    R1        2.90432  -0.00792   0.00000  -0.02589  -0.02589   2.87843
    R2        2.90821  -0.00988   0.00000  -0.03250  -0.03250   2.87571
    R3        2.07251  -0.00056   0.00000  -0.00155  -0.00155   2.07096
    R4        2.73607  -0.01459   0.00000  -0.03618  -0.03618   2.69989
    R5        2.91683  -0.00590   0.00000  -0.01967  -0.01967   2.89716
    R6        2.06912  -0.00511   0.00000  -0.01418  -0.01418   2.05494
    R7        2.74745  -0.01171   0.00000  -0.02962  -0.02962   2.71783
    R8        2.89538  -0.00947   0.00000  -0.03053  -0.03053   2.86484
    R9        2.06945  -0.00283   0.00000  -0.00785  -0.00785   2.06160
   R10        2.71703  -0.01389   0.00000  -0.03333  -0.03333   2.68370
   R11        2.90352  -0.00659   0.00000  -0.02151  -0.02151   2.88201
   R12        2.06659  -0.00337   0.00000  -0.00930  -0.00930   2.05729
   R13        2.72120  -0.01375   0.00000  -0.03322  -0.03322   2.68797
   R14        2.07070  -0.00137   0.00000  -0.00381  -0.00381   2.06689
   R15        2.06947  -0.00023   0.00000  -0.00065  -0.00065   2.06882
   R16        2.68549   0.00315   0.00000   0.00715   0.00715   2.69265
   R17        2.06699   0.00149   0.00000   0.00411   0.00411   2.07109
   R18        2.06943  -0.00283   0.00000  -0.00785  -0.00785   2.06158
   R19        2.70640   0.00144   0.00000   0.00339   0.00339   2.70979
   R20        1.84109  -0.01899   0.00000  -0.03498  -0.03498   1.80611
   R21        1.85258  -0.01834   0.00000  -0.03454  -0.03454   1.81804
   R22        1.85377  -0.01887   0.00000  -0.03562  -0.03562   1.81815
   R23        1.86182  -0.01755   0.00000  -0.03364  -0.03364   1.82818
   R24        1.84810  -0.01676   0.00000  -0.03129  -0.03129   1.81681
   R25        1.84462  -0.02092   0.00000  -0.03880  -0.03880   1.80582
    A1        2.03921   0.00356   0.00000   0.00216   0.00196   2.04117
    A2        1.91618  -0.00228   0.00000  -0.01343  -0.01394   1.90224
    A3        1.89768   0.00077   0.00000   0.00324   0.00300   1.90068
    A4        1.89793  -0.00195   0.00000  -0.02183  -0.02169   1.87624
    A5        1.88478  -0.00526   0.00000  -0.03058  -0.03048   1.85429
    A6        1.81457   0.00543   0.00000   0.06888   0.06890   1.88346
    A7        2.01643  -0.00227   0.00000  -0.00734  -0.00863   2.00780
    A8        1.93117   0.00100   0.00000  -0.01662  -0.01760   1.91357
    A9        1.86680  -0.00077   0.00000   0.01595   0.01547   1.88227
   A10        1.91783  -0.00298   0.00000  -0.04225  -0.04279   1.87504
   A11        1.90919   0.00588   0.00000   0.04943   0.04944   1.95863
   A12        1.81025  -0.00045   0.00000   0.00574   0.00656   1.81680
   A13        1.99720  -0.00134   0.00000  -0.00122  -0.00148   1.99572
   A14        1.91173  -0.00002   0.00000  -0.00673  -0.00674   1.90499
   A15        1.87652   0.00228   0.00000   0.02159   0.02149   1.89801
   A16        1.90997  -0.00029   0.00000  -0.01271  -0.01273   1.89724
   A17        1.88976   0.00076   0.00000   0.01222   0.01206   1.90183
   A18        1.87449  -0.00136   0.00000  -0.01317  -0.01306   1.86143
   A19        1.99485   0.00260   0.00000   0.02501   0.02285   2.01770
   A20        1.93859  -0.00290   0.00000  -0.05023  -0.05017   1.88842
   A21        1.88439  -0.00068   0.00000   0.02369   0.02122   1.90561
   A22        1.89901  -0.00277   0.00000  -0.03735  -0.03706   1.86195
   A23        1.87865   0.00480   0.00000   0.05695   0.05542   1.93407
   A24        1.86281  -0.00099   0.00000  -0.01640  -0.01538   1.84744
   A25        1.91786  -0.00454   0.00000  -0.03951  -0.03938   1.87848
   A26        1.94467  -0.00359   0.00000  -0.03674  -0.03680   1.90788
   A27        1.93335  -0.00883   0.00000  -0.03831  -0.03829   1.89506
   A28        1.87094   0.00270   0.00000   0.02288   0.02064   1.89157
   A29        1.88900   0.00807   0.00000   0.05474   0.05361   1.94262
   A30        1.90615   0.00697   0.00000   0.04199   0.04067   1.94681
   A31        1.93907  -0.00178   0.00000  -0.01538  -0.01583   1.92323
   A32        1.92457  -0.00635   0.00000  -0.05013  -0.05048   1.87409
   A33        1.92831  -0.00038   0.00000   0.00247   0.00264   1.93095
   A34        1.90470   0.00136   0.00000  -0.00123  -0.00278   1.90192
   A35        1.88397   0.00290   0.00000   0.03199   0.03190   1.91587
   A36        1.88179   0.00465   0.00000   0.03547   0.03537   1.91716
   A37        1.86387   0.00573   0.00000   0.03220   0.03220   1.89607
   A38        1.83166   0.00298   0.00000   0.01673   0.01673   1.84839
   A39        1.82772   0.00107   0.00000   0.00602   0.00602   1.83374
   A40        1.84666   0.00420   0.00000   0.02359   0.02359   1.87025
   A41        1.84561   0.00104   0.00000   0.00584   0.00584   1.85146
   A42        1.85397   0.01064   0.00000   0.05984   0.05984   1.91381
    D1        1.03084  -0.00250   0.00000  -0.03345  -0.03327   0.99757
    D2       -1.16212   0.00255   0.00000   0.04464   0.04467  -1.11745
    D3       -3.12259   0.00300   0.00000   0.03746   0.03747  -3.08512
    D4       -1.14012  -0.00066   0.00000   0.00623   0.00624  -1.13388
    D5        2.95011   0.00439   0.00000   0.08432   0.08417   3.03428
    D6        0.98963   0.00484   0.00000   0.07714   0.07698   1.06661
    D7       -3.11464  -0.00632   0.00000  -0.07005  -0.06992   3.09863
    D8        0.97559  -0.00127   0.00000   0.00803   0.00801   0.98361
    D9       -0.98488  -0.00081   0.00000   0.00086   0.00082  -0.98406
   D10        1.02380  -0.00093   0.00000  -0.02847  -0.02846   0.99535
   D11       -1.12807   0.00044   0.00000  -0.00565  -0.00563  -1.13370
   D12        3.12346   0.00081   0.00000   0.00158   0.00164   3.12511
   D13       -3.07920  -0.00295   0.00000  -0.06369  -0.06374   3.14025
   D14        1.05211  -0.00158   0.00000  -0.04087  -0.04091   1.01120
   D15       -0.97954  -0.00122   0.00000  -0.03364  -0.03364  -1.01317
   D16       -1.12059  -0.00022   0.00000  -0.00947  -0.00950  -1.13009
   D17        3.01073   0.00115   0.00000   0.01334   0.01332   3.02405
   D18        0.97907   0.00152   0.00000   0.02057   0.02060   0.99968
   D19        0.65398   0.00035   0.00000   0.03519   0.03551   0.68949
   D20        2.88250   0.00175   0.00000   0.01930   0.01969   2.90219
   D21       -1.38661  -0.00014   0.00000   0.01427   0.01356  -1.37305
   D22        0.96599  -0.00303   0.00000  -0.06396  -0.06416   0.90183
   D23       -1.19075   0.00100   0.00000   0.00693   0.00666  -1.18408
   D24        3.05567   0.00421   0.00000   0.04061   0.04053   3.09620
   D25       -3.11741  -0.00601   0.00000  -0.12854  -0.12806   3.03771
   D26        1.00903  -0.00198   0.00000  -0.05765  -0.05724   0.95180
   D27       -1.02774   0.00123   0.00000  -0.02397  -0.02337  -1.05111
   D28       -1.14093  -0.00495   0.00000  -0.11752  -0.11785  -1.25879
   D29        2.98551  -0.00092   0.00000  -0.04663  -0.04703   2.93848
   D30        0.94874   0.00230   0.00000  -0.01294  -0.01316   0.93558
   D31       -1.38110   0.00189   0.00000   0.05205   0.05145  -1.32965
   D32        0.81463   0.00229   0.00000   0.08456   0.08487   0.89950
   D33        2.86011   0.00130   0.00000   0.06131   0.06158   2.92169
   D34        2.92642   0.00006   0.00000   0.00137   0.00136   2.92778
   D35        0.85538   0.00188   0.00000   0.02142   0.02143   0.87681
   D36       -1.27039   0.00161   0.00000   0.01985   0.01979  -1.25059
   D37       -1.20394  -0.00116   0.00000  -0.01822  -0.01818  -1.22212
   D38        3.00820   0.00065   0.00000   0.00184   0.00189   3.01010
   D39        0.88243   0.00038   0.00000   0.00027   0.00026   0.88269
   D40        0.83415  -0.00252   0.00000  -0.03403  -0.03403   0.80011
   D41       -1.23689  -0.00071   0.00000  -0.01398  -0.01397  -1.25086
   D42        2.92052  -0.00098   0.00000  -0.01555  -0.01560   2.90492
   D43       -0.74212   0.00010   0.00000  -0.00680  -0.00698  -0.74910
   D44        1.42425   0.00032   0.00000   0.01234   0.01249   1.43673
   D45       -2.79808  -0.00035   0.00000  -0.00329  -0.00327  -2.80135
   D46       -1.26129   0.00125   0.00000   0.05209   0.05290  -1.20839
   D47        2.90777   0.00499   0.00000   0.09763   0.09778   3.00555
   D48        0.82925   0.00348   0.00000   0.08382   0.08427   0.91352
   D49        0.91660  -0.00285   0.00000  -0.02520  -0.02462   0.89197
   D50       -1.19753   0.00089   0.00000   0.02034   0.02025  -1.17727
   D51        3.00714  -0.00062   0.00000   0.00653   0.00674   3.01388
   D52        2.92901  -0.00291   0.00000  -0.03359  -0.03395   2.89506
   D53        0.81488   0.00083   0.00000   0.01195   0.01093   0.82581
   D54       -1.26364  -0.00068   0.00000  -0.00185  -0.00258  -1.26622
   D55       -0.71319  -0.00265   0.00000  -0.02231  -0.02301  -0.73620
   D56        1.44838   0.00299   0.00000   0.05656   0.05724   1.50562
   D57       -2.79859   0.00165   0.00000   0.03316   0.03318  -2.76541
   D58       -3.12296  -0.00010   0.00000  -0.00693  -0.00684  -3.12980
   D59       -1.01934  -0.00591   0.00000  -0.04398  -0.04582  -1.06516
   D60        1.01201   0.00554   0.00000   0.03617   0.03791   1.04992
   D61        2.91656  -0.00136   0.00000  -0.00869  -0.00884   2.90772
   D62       -1.24320  -0.00192   0.00000  -0.00567  -0.00602  -1.24922
   D63        0.81229   0.00372   0.00000   0.02895   0.02945   0.84173
         Item               Value     Threshold  Converged?
 Maximum Force            0.020924     0.000450     NO 
 RMS     Force            0.005748     0.000300     NO 
 Maximum Displacement     0.390399     0.001800     NO 
 RMS     Displacement     0.095875     0.001200     NO 
 Predicted change in Energy=-1.060127D-02
 GradGradGradGradGradGradGradGradGradGradGradGradGradGradGradGradGradGrad

                          Input orientation:                          
 ---------------------------------------------------------------------
 Center     Atomic      Atomic             Coordinates (Angstroms)
 Number     Number       Type             X           Y           Z
 ---------------------------------------------------------------------
      1          6           0        0.008436   -0.002769   -0.042838
      2          6           0        1.531585    0.005359   -0.052148
      3          6           0       -0.676312    0.508490    1.216321
      4          6           0        2.191616   -0.784838    1.083796
      5          1           0        1.892001    1.029369    0.011114
      6          1           0       -0.343798   -1.025754   -0.217309
      7          6           0       -0.294698    1.923350    1.604683
      8          1           0       -0.440972   -0.157954    2.047372
      9          6           0        1.706490   -2.220345    1.256647
     10          1           0        1.985090   -0.270218    2.020662
     11          1           0       -0.997025    2.256503    2.374122
     12          1           0       -0.400053    2.578698    0.734083
     13          1           0        0.674938   -2.229094    1.626764
     14          1           0        2.352610   -2.695835    1.995968
     15          8           0        1.043478    1.914531    2.094082
     16          1           0        1.281309    2.804410    2.349070
     17          8           0       -2.082622    0.444613    1.029116
     18          1           0       -2.244759    0.766670    0.137177
     19          8           0       -0.465296    0.814012   -1.115075
     20          1           0        0.128379    0.631260   -1.849808
     21          8           0        1.966809   -0.439670   -1.348676
     22          1           0        1.849088   -1.399541   -1.375298
     23          8           0        3.604198   -0.744749    0.921724
     24          1           0        3.768280   -0.872443   -0.016941
     25          8           0        1.782124   -2.932391    0.014267
     26          1           0        1.678404   -3.868865    0.173726
 ---------------------------------------------------------------------
                    Distance matrix (angstroms):
                    1          2          3          4          5
     1  C    0.000000
     2  C    1.523200   0.000000
     3  C    1.521758   2.595566   0.000000
     4  C    2.578219   1.533108   3.148853   0.000000
     5  H    2.148496   1.087427   2.884453   2.128794   0.000000
     6  H    1.095905   2.146517   2.125974   2.859937   3.045407
     7  C    2.552675   3.123954   1.516009   3.713134   2.849617
     8  H    2.143602   2.885418   1.090954   2.872627   3.316451
     9  C    3.080534   2.587913   3.622970   1.525091   3.485169
    10  H    2.869970   2.139662   2.887285   1.088671   2.394969
    11  H    3.457883   4.165129   2.121063   4.591528   3.928885
    12  H    2.726617   3.312319   2.143509   4.260566   2.859478
    13  H    2.861523   2.923246   3.080374   2.163562   3.835250
    14  H    4.111507   3.487881   4.477714   2.123649   4.246051
    15  O    3.051849   2.913673   2.388534   3.102498   2.417076
    16  H    3.901498   3.696372   3.222833   3.913090   2.998291
    17  O    2.392020   3.797969   1.420152   4.447882   4.144381
    18  H    2.387745   3.856969   1.921258   4.794235   4.147009
    19  O    1.428721   2.402346   2.360779   3.801386   2.621360
    20  H    1.918728   2.364809   3.172341   3.855945   2.594587
    21  O    2.394018   1.438213   3.803197   2.467104   2.003173
    22  H    2.667287   1.955832   4.090809   2.557797   2.797067
    23  O    3.796106   2.409733   4.469918   1.422414   2.628369
    24  H    3.859201   2.403036   4.814802   1.924881   2.671722
    25  O    3.425188   2.949162   4.396420   2.433837   3.963285
    26  H    4.216917   3.883579   5.078674   3.256200   4.905584
                    6          7          8          9         10
     6  H    0.000000
     7  C    3.466883   0.000000
     8  H    2.427200   2.132884   0.000000
     9  C    2.793434   4.614768   3.080632   0.000000
    10  H    3.317088   3.190958   2.428806   2.112897   0.000000
    11  H    4.232662   1.093751   2.499112   5.347888   3.924572
    12  H    3.728322   1.094771   3.035731   5.267011   3.931986
    13  H    2.426201   4.264208   2.389934   1.095976   2.389320
    14  H    3.867607   5.338372   3.774598   1.090944   2.453426
    15  O    3.989027   1.424887   2.549700   4.270607   2.380158
    16  H    4.888500   1.952991   3.439894   5.159683   3.171198
    17  O    2.595970   2.390526   2.023597   4.638010   4.247403
    18  H    2.636682   2.700782   2.785215   5.078173   4.744922
    19  O    2.050727   2.942247   3.308531   4.421429   4.124657
    20  H    2.373542   3.712412   4.016844   4.502460   4.386409
    21  O    2.638635   4.406882   4.172519   3.166430   3.373647
    22  H    2.507869   4.951536   4.301230   2.760649   3.581398
    23  O    4.118620   4.773528   4.239671   2.427107   2.013543
    24  H    4.119811   5.191716   4.742330   2.773057   2.773855
    25  O    2.865037   5.515508   4.095507   1.433959   3.339758
    26  H    3.510767   6.284148   4.666172   1.972594   4.056537
                   11         12         13         14         15
    11  H    0.000000
    12  H    1.774799   0.000000
    13  H    4.845057   5.006729   0.000000
    14  H    5.990718   6.081957   1.780097   0.000000
    15  O    2.087826   2.091529   4.186148   4.793634   0.000000
    16  H    2.343424   2.342244   5.121091   5.614718   0.955754
    17  O    2.504098   2.733569   3.887161   5.519828   3.614874
    18  H    2.963169   2.653805   4.440506   6.048128   3.994943
    19  O    3.812874   2.556904   4.251859   5.471582   3.712981
    20  H    4.663640   3.278452   4.535074   5.550383   4.247171
    21  O    5.469267   4.364684   3.704621   4.052872   4.271696
    22  H    5.960299   5.033340   3.328537   3.646826   4.865046
    23  O    5.682273   5.207162   3.358709   2.554840   3.873433
    24  H    6.181878   5.463461   3.756466   3.062790   4.432628
    25  O    6.341703   5.970941   2.078614   2.075705   5.325775
    26  H    7.037030   6.797429   2.409795   2.269608   6.126873
                   16         17         18         19         20
    16  H    0.000000
    17  O    4.315895   0.000000
    18  H    4.634438   0.962063   0.000000
    19  O    4.360346   2.711043   2.176433   0.000000
    20  H    4.866457   3.634772   3.098101   0.962124   0.000000
    21  O    4.966617   4.778467   4.626048   2.746165   2.185828
    22  H    5.645041   4.963915   4.872333   3.213084   2.703729
    23  O    4.475451   5.810855   6.091814   4.810309   4.653612
    24  H    5.030137   6.087851   6.234347   4.687558   4.343893
    25  O    6.213936   5.231667   5.469364   4.512410   4.348477
    26  H    7.030107   5.786458   6.072950   5.309029   5.171884
                   21         22         23         24         25
    21  O    0.000000
    22  H    0.967430   0.000000
    23  O    2.815818   2.964029   0.000000
    24  H    2.281690   2.409619   0.961416   0.000000
    25  O    2.846996   2.070025   2.988178   2.861674   0.000000
    26  H    3.763013   2.919960   3.745435   3.658207   0.955598
                   26
    26  H    0.000000
 Stoichiometry    C6H14O6
 Framework group  C1[X(C6H14O6)]
 Deg. of freedom    72
 Full point group                 C1      NOp   1
 Largest Abelian subgroup         C1      NOp   1
 Largest concise Abelian subgroup C1      NOp   1
                         Standard orientation:                         
 ---------------------------------------------------------------------
 Center     Atomic      Atomic             Coordinates (Angstroms)
 Number     Number       Type             X           Y           Z
 ---------------------------------------------------------------------
      1          6           0        0.617242   -0.827475    0.169806
      2          6           0       -0.472268    0.051830    0.769744
      3          6           0        1.647564   -0.141572   -0.715475
      4          6           0       -1.310231    0.832780   -0.249255
      5          1           0       -0.025876    0.775637    1.447486
      6          1           0        0.148767   -1.620823   -0.423605
      7          6           0        2.393637    0.993424   -0.042093
      8          1           0        1.152239    0.245686   -1.607026
      9          6           0       -1.910698    0.005555   -1.381087
     10          1           0       -0.669981    1.580462   -0.714287
     11          1           0        3.241160    1.257773   -0.680931
     12          1           0        2.782084    0.649714    0.922012
     13          1           0       -1.119728   -0.346909   -2.052874
     14          1           0       -2.585201    0.657106   -1.938478
     15          8           0        1.501234    2.093033    0.115321
     16          1           0        1.973678    2.812835    0.530229
     17          8           0        2.585444   -1.111055   -1.159676
     18          1           0        2.785030   -1.655810   -0.392231
     19          8           0        1.349185   -1.445478    1.229795
     20          1           0        0.687108   -1.679985    1.887323
     21          8           0       -1.284126   -0.773083    1.623478
     22          1           0       -1.855637   -1.302153    1.049561
     23          8           0       -2.321867    1.560143    0.436893
     24          1           0       -2.669099    0.965262    1.107615
     25          8           0       -2.637510   -1.114382   -0.857903
     26          1           0       -3.174895   -1.499471   -1.547897
 ---------------------------------------------------------------------
 Rotational constants (GHZ):           1.2309958           0.6364972           0.5759755
 Standard basis: def2TZVPP (5D, 7F)
 There are   642 symmetry adapted cartesian basis functions of A   symmetry.
 There are   568 symmetry adapted basis functions of A   symmetry.
   568 basis functions,   850 primitive gaussians,   642 cartesian basis functions
    49 alpha electrons       49 beta electrons
       nuclear repulsion energy       847.9568921350 Hartrees.
 NAtoms=   26 NActive=   26 NUniq=   26 SFac= 1.00D+00 NAtFMM=   60 NAOKFM=F Big=F
 Integral buffers will be    131072 words long.
 Raffenetti 2 integral format.
 Two-electron integral symmetry is turned on.
 Nuclear repulsion after empirical dispersion term =      847.9368802835 Hartrees.
 One-electron integrals computed using PRISM.
   1 Symmetry operations used in ECPInt.
 ECPInt:  NShTT=   23436 NPrTT=   62434 LenC2=   22224 LenP2D=   46350.
 LDataN:  DoStor=T MaxTD1= 6 Len=  172
 NBasis=   568 RedAO= T EigKep=  2.92D-05  NBF=   568
[...]
 ,0.00315703,-0.00098682,0.00521477,0.00056885,-0.00107024,-0.00009973,
 0.31928788,0.04351117,-0.12466056,0.04842960,0.00656293,-0.00422888,0.
 00796959,-0.00160525,0.00692021,-0.00296576,-0.00023383,0.00171780,-0.
 00135986,0.00156222,0.00175908,-0.00070008,0.01591410,-0.02162229,0.03
 787141,-0.00047520,-0.00203183,0.00126699,0.00129616,0.00004840,-0.002
 39201,-0.00113105,0.00008989,-0.00008840,0.00021746,-0.00018531,0.0002
 0164,0.00005373,0.00115744,-0.00077014,-0.00018816,0.00156249,-0.00188
 029,0.00047783,0.00019215,-0.00056393,0.00044826,-0.00000675,-0.000080
 80,-0.00092061,0.00048367,-0.00102133,0.00006787,0.00007598,0.00034907
 ,-0.00025718,0.00214032,-0.00018543,-0.00070714,-0.00104412,0.00003790
 ,-0.14473392,0.18188482,-0.04446738,0.07180976,-0.16072534,-0.01068585
 ,0.01080718,-0.02110981,-0.01004526,0.02397339,-0.04677748,-0.00022392
 ,-0.00121561,0.00369932,0.00106460,-0.00072349,0.00030504,-0.00315267,
 0.01518117,-0.00813845,0.00014909,0.00168637,0.00138879,0.00463640,-0.
 00322908,-0.00499647,0.00067745,-0.00081214,-0.00120750,0.00035845,-0.
 00019748,0.00049636,-0.00003629,0.00022003,0.00009185,-0.00022252,-0.0
 0066175,-0.00107764,-0.00030785,-0.00032078,0.00043925,-0.00032297,0.0
 0027411,0.00016606,-0.00103776,-0.00060799,-0.00040787,0.00022302,0.00
 014531,-0.00004106,-0.00081537,0.00083268,-0.00093107,-0.00059404,-0.0
 0043686,-0.00136090,-0.18426401,-0.02652951,0.55605702,0.00986905,-0.0
 0362132,-0.01260859,0.00041736,-0.00000329,-0.00752105,-0.00297722,0.0
 0165011,-0.00365637,0.00008620,0.00045606,0.00058206,-0.00030634,-0.00
 020456,0.00001313,-0.00019118,0.00097902,-0.00019011,0.00070867,0.0002
 5341,0.00006962,0.00074716,-0.00022134,-0.00111198,0.00048334,0.000022
 73,-0.00032822,0.00020056,-0.00021287,0.00039306,-0.00007392,-0.000075
 27,-0.00007582,-0.00002566,0.00010965,0.00003304,-0.00018877,-0.000089
 34,0.00016577,-0.00007420,-0.00007949,0.00007022,-0.00066286,0.0000664
 6,0.00002236,0.00007088,0.00000409,-0.00006525,-0.00019808,-0.00020252
 ,0.00131252,0.00104945,0.00010281,-0.00034628,-0.20246667,0.07666377,0
 .24612519,0.19098128,-0.01278478,0.00334029,0.02138921,0.00076908,0.00
 269851,0.00374236,0.00117476,-0.00242981,0.00197202,-0.00010257,-0.000
 32282,-0.00066062,-0.00034730,-0.00041177,-0.00054976,-0.00020246,-0.0
 0106763,0.00128012,0.00011922,0.00026194,-0.00037573,-0.00039578,0.000
 49048,0.00062616,0.00002965,0.00015978,0.00055448,-0.00012921,0.000122
 17,-0.00019987,0.00001164,-0.00005272,-0.00000457,0.00019435,0.0002977
 6,0.00005981,0.00003796,0.00001382,-0.00004251,-0.00001540,-0.00005528
 ,-0.00007641,-0.00016054,-0.00008200,-0.00006811,0.00002231,0.00002969
 ,-0.00010252,0.00030373,0.00015038,0.00015156,-0.00009864,-0.00060284,
 -0.00012146,0.08729217,-0.04530899,-0.08936629,-0.07299447,0.04535383,
 0.01780190,-0.00498003,-0.03407103,-0.00016942,-0.00071785,-0.00043030
 ,-0.00243297,0.00448858,-0.00487550,0.00028378,0.00000181,-0.00139104,
 -0.00050103,-0.00019271,-0.00021097,0.00044535,-0.00033599,0.00070536,
 -0.00009504,0.00065053,0.00019986,0.00088052,-0.00063090,-0.00098653,0
 .00011346,0.00016979,0.00023212,-0.00003236,0.00005820,-0.00001132,-0.
 00000806,0.00001858,0.00014023,0.00002209,-0.00024490,0.00004187,0.000
 01157,-0.00000460,-0.00006757,0.00003768,-0.00013381,-0.00000429,-0.00
 001837,0.00000706,0.00029122,-0.00002271,-0.00004866,-0.00007577,-0.00
 120046,-0.00013489,0.00174898,0.00097120,-0.00010107,-0.00067446,0.208
 36747,-0.06083454,-0.32145923,-0.22722674,0.06473306,0.35998034,-0.022
 17594,0.02034153,0.04172564,-0.07915025,-0.00207960,0.04195274,-0.0044
 1670,-0.00123034,-0.00733475,-0.00358834,-0.00203468,-0.00711765,0.004
 74825,0.00005047,-0.00518121,0.00366899,0.00022137,-0.00012597,-0.0016
 2047,-0.00067575,-0.00024078,0.00002827,-0.00024280,0.00053271,-0.0005
 5940,-0.00024484,0.00078335,-0.00026108,0.00120555,-0.00200899,0.00013
 465,0.00033376,0.00027223,0.00012739,-0.00012579,0.00000141,0.00057150
 ,0.00037514,-0.00037868,0.00010201,-0.00017996,0.00028240,0.00168234,0
 .00018405,0.00035086,-0.00014527,-0.00008362,0.00004269,-0.00460024,0.
 00144403,0.00293934,0.00111043,-0.00054710,0.00016771,-0.00195211,0.00
 219758,0.00682133,0.00314887,-0.00482662,0.00183386,0.12052585,0.00441
 918,-0.00225506,-0.00441620,0.01317280,-0.11037203,-0.05153425,0.00017
 944,0.00138385,0.00177326,-0.00299595,0.00839217,0.01086874,0.01518279
 ,-0.01115460,-0.03918493,0.00144667,0.00216649,0.00121454,-0.00136876,
 0.00037020,0.00038706,0.00014981,-0.00002597,-0.00044275,-0.00107757,-
 0.00243973,-0.00557631,0.00180164,-0.00109224,0.00242437,0.00019515,0.
 00002200,-0.00009579,-0.00016462,0.00024776,0.00008675,-0.00026016,0.0
 0015227,0.00085350,0.00023312,0.00116849,0.00042111,0.00111484,-0.0006
 2040,-0.00218567,0.00009166,0.00017136,0.00028199,0.00158529,-0.000083
 88,-0.00093420,-0.00054954,0.00007830,-0.00008121,0.00386730,0.0013855
 6,-0.00336530,-0.00355257,-0.00104489,-0.00132938,0.05625982,0.6117928
 1,0.01269116,-0.00817296,-0.02672412,0.04554532,-0.01416034,-0.1814451
 4,0.00041629,0.00183291,0.00455441,0.01233524,-0.01516231,-0.04807990,
 0.00496654,-0.00817406,-0.01265247,-0.00076276,0.00099557,0.00079856,-
 0.00095029,0.00047969,-0.00039643,-0.00030956,-0.00000755,0.00030904,-
 0.00117566,-0.00438514,-0.00103756,-0.00423595,0.00559233,-0.00463083,
 0.00019231,-0.00017687,-0.00005774,0.00000624,-0.00020034,0.00010258,-
 0.00004184,0.00012101,0.00024573,-0.00012780,0.00070578,0.00054248,0.0
 0078638,-0.00076924,-0.00040840,0.00014809,0.00009107,0.00006930,0.003
 62698,-0.00097279,-0.00064696,0.00000011,0.00021522,-0.00078427,-0.003
 96781,0.00195976,0.00641937,0.00339118,-0.00350866,-0.00008249,-0.0849
 0677,0.06318857,0.30413926,0.00128406,0.00389190,0.00030589,0.00127864
 ,0.01432009,0.00165833,-0.00049380,-0.00057498,0.00045170,0.00231063,-
 0.00120323,-0.00055251,0.00001776,0.00020441,0.00121305,-0.00101417,-0
 .00107133,0.00038521,0.00061303,0.00000544,-0.00011779,0.00003783,0.00
 002970,-0.00009058,0.00039084,0.00042876,0.00053479,-0.00012794,-0.000
 05426,0.00026035,-0.00005872,-0.00012869,-0.00006441,-0.00002106,0.000
 03465,-0.00000241,-0.00018873,-0.00008080,0.00033299,-0.00009769,-0.00
 021966,-0.00025960,-0.00037924,0.00005870,-0.00004689,0.00002173,0.000
 02157,0.00000699,0.00005612,-0.00021212,-0.00019169,-0.00013159,0.0001
 5021,0.00009665,-0.00138597,-0.00087925,0.00002912,0.00080327,0.001583
 08,0.00009717,-0.02920131,-0.08509868,0.00861203,0.03228264,0.00064534
 ,0.00187576,0.00146420,-0.00180765,-0.01643355,-0.00571125,-0.00028254
 ,0.00005780,-0.00108393,-0.00016357,0.00344351,0.00039919,0.00087636,0
 .00178592,-0.00113970,0.00023113,-0.00029330,-0.00016966,-0.00012170,-
 0.00008753,0.00001405,-0.00001790,-0.00000731,0.00019776,-0.00007641,0
 .00562342,0.00443505,0.00031983,-0.00078515,0.00080507,-0.00000610,0.0
 0007515,0.00009771,0.00002530,-0.00010680,-0.00000847,0.00029930,-0.00
 052485,-0.00111391,0.00004844,-0.00083561,-0.00120375,0.00002449,0.000
 06376,0.00028222,-0.00000081,-0.00003805,-0.00009181,-0.00085769,0.000
 12589,0.00050514,0.00030270,-0.00006055,-0.00007380,-0.00076148,-0.000
 14710,0.00114030,0.00160392,-0.00141474,0.00010983,-0.06864721,-0.4893
 5443,-0.02760028,0.06987842,0.50431557,-0.00001067,-0.00088543,0.00084
 546,-0.00559447,-0.04496979,-0.00645495,0.00018970,0.00011340,0.000140
 50,-0.00122938,-0.00159850,-0.00030200,0.00287916,-0.00192875,-0.00627
 516,0.00095166,0.00046869,0.00025131,-0.00029350,0.00004716,0.00008811
 ,0.00006125,-0.00000219,-0.00018767,0.00012618,0.00000661,-0.00542224,
 0.00050634,0.00018743,0.00046165,0.00002154,0.00003443,0.00000058,-0.0
 0002714,0.00008188,-0.00000810,-0.00025958,0.00009957,0.00044553,0.000
 09130,0.00007955,0.00047712,0.00020809,-0.00003827,-0.00049024,0.00000
 602,0.00002580,0.00003653,-0.00007288,0.00009753,-0.00015298,-0.000014
 23,0.00000042,0.00005438,-0.00082629,0.00030813,-0.00086664,0.00036065
 ,0.00100365,0.00044174,0.01567116,0.01668140,-0.04249059,-0.01090802,0
 .03299837,0.05836713,0.00494275,0.00294433,-0.00439262,-0.04789116,0.0
 0294339,0.00175797,0.00130353,-0.00086400,-0.00026964,-0.23241493,-0.0
 0451187,-0.00292984,0.00136108,-0.00019998,0.00105753,-0.00014959,-0.0
 0023622,0.00022675,-0.00030548,-0.00040793,-0.00027350,0.00016772,0.00
 010601,-0.00032144,-0.03876049,-0.00776352,0.00902160,-0.02084540,0.00
 035689,0.00594612,-0.00000480,0.00015208,0.00015229,0.00004757,0.00000
 955,-0.00007962,-0.00115778,-0.00563049,0.00008839,0.00179789,0.000982
 43,0.00014393,0.00074792,0.00100266,0.00051374,-0.00052806,0.00011967,
 -0.00007729,-0.00113998,0.00049545,0.00014936,0.00035242,-0.00015424,-
 0.00008732,-0.00443977,0.00171190,-0.00326246,-0.00031938,0.00018880,0
 .00106872,0.00424552,-0.00087906,0.00199777,-0.00127351,-0.00031134,-0
 .00005029,0.38660792,-0.00151278,-0.00114790,0.00338010,0.02336463,0.0
 0101259,-0.00308906,-0.00057414,-0.00006575,0.00069375,-0.00287878,-0.
 06570097,-0.00086994,-0.00046093,0.00254022,-0.00192788,0.00108958,0.0
 0044479,0.00017064,-0.00050174,0.00009750,-0.00020836,0.00001144,-0.00
 009028,-0.00022372,-0.03724539,0.00062735,0.00725070,0.01290204,0.0042
 7453,-0.00002455,0.00011662,-0.00006077,-0.00004431,0.00000390,0.00010
 122,0.00003943,-0.00361868,-0.00650053,0.00007838,0.00011930,0.0036820
 1,-0.00124807,0.00058571,0.00001442,-0.00030775,-0.00020786,0.00012353
 ,0.00020291,0.00055739,0.00010917,-0.00023840,-0.00021235,0.00000742,0
 .00007169,0.00224192,-0.00011910,0.00112610,-0.00018317,-0.00019746,-0
 .00040949,-0.00034002,0.00312362,0.00006156,0.00096893,-0.00145325,0.0
 0108341,0.00388106,0.06292241,0.00082934,0.00288984,-0.00322302,-0.024
 03459,-0.00052855,-0.00071789,-0.00019782,0.00030700,-0.00157845,0.044
 84984,-0.00314253,-0.10081025,0.00026953,-0.00117290,0.00089543,-0.000
 15372,-0.00029011,0.00005061,-0.00064475,0.00000743,-0.00020469,-0.000
 24439,-0.00020388,0.00059683,0.00954198,-0.00016846,-0.00051021,0.0381
 3818,0.00282376,-0.00150028,0.00009346,0.00007286,0.00009138,0.0001117
 2,-0.00020737,0.00004921,0.00103771,0.00196878,0.00127537,0.00046223,-
 0.00155254,0.00036594,0.00026518,-0.00062004,0.00046863,0.00016136,-0.
 00013577,-0.00005671,-0.00013126,0.00008144,0.00083944,0.00031216,-0.0
 0012951,-0.00021713,-0.00256586,0.00046549,-0.00014091,0.00070545,-0.0
 0029143,0.00045774,-0.00920979,0.00122402,0.00064927,0.00074707,0.0013
 9324,-0.00016775,-0.10349273,0.03826213,0.60835657,-0.00029509,-0.0004
 6647,0.00028982,-0.00268739,0.00291743,0.00392168,-0.00004992,0.000005
 58,0.00062824,-0.01614181,0.00552520,0.04737884,-0.00004038,0.00012752
 ,-0.00031748,0.00004885,0.00003099,-0.00000789,0.00015402,0.00005764,0
 .00006649,0.00005005,0.00004357,-0.00014307,-0.00168401,0.00006124,0.0
 0199185,-0.00660561,-0.00083228,0.00016522,-0.00000174,-0.00005376,-0.
 00006423,-0.00004071,0.00007191,0.00001616,-0.00001705,-0.00046703,-0.
 00031392,-0.00008970,0.00010463,-0.00017722,-0.00004871,0.00003973,-0.
 00027130,0.00000312,0.00007677,0.00004027,0.00038361,-0.00014115,-0.00
 033598,-0.00020523,0.00008566,0.00007176,0.00101446,-0.00035538,-0.000
 10509,-0.00071319,0.00040060,-0.00027130,0.00455835,-0.00187519,0.0005
 3300,-0.00211011,-0.00134219,-0.00140060,-0.05552432,0.00245086,0.0445
 1576,0.07972327,0.00034472,0.00008359,-0.00039484,0.00139238,0.0012691
 7,-0.00158484,0.00006101,0.00005941,-0.00036430,0.00080697,-0.00144150
 ,-0.00037480,0.00044640,-0.00078931,0.00001556,-0.00030842,-0.00009061
 ,-0.00001544,0.00005096,0.00001004,-0.00001965,-0.00004703,-0.00005142
 ,0.00013901,-0.00298653,0.00062009,0.00313689,0.00290160,0.00017108,-0
 .00076604,-0.00001707,0.00001423,0.00003115,0.00003400,-0.00006124,0.0
 0000668,-0.00011774,-0.00055029,-0.00045438,-0.00011263,0.00001058,-0.
 00003019,-0.00019786,-0.00014903,0.00022132,0.00010529,-0.00005987,-0.
 00009998,-0.00017014,-0.00001690,0.00017366,0.00010147,-0.00001567,-0.
 00003411,-0.00052826,-0.00002288,-0.00002185,0.00022441,0.00001943,0.0
 0012674,-0.00106731,-0.00255154,-0.00007166,-0.00183526,0.00115378,-0.
 00098241,0.00617746,-0.00730240,-0.04327161,-0.00662491,0.01007881,0.0
 0100013,-0.00051149,-0.00117230,-0.00490440,0.00190898,0.00361203,0.00
 030557,-0.00004444,0.00037268,0.00395272,-0.00168040,-0.00616078,0.000
 25332,-0.00026345,-0.00004322,-0.00010922,-0.00004519,0.00005218,0.000
 17264,0.00002218,0.00008179,0.00003956,0.00003488,-0.00009795,-0.00058
 342,0.00024494,0.00019686,0.00021560,0.00128663,0.00113911,-0.00002754
 ,-0.00001169,-0.00001993,-0.00002440,0.00003974,-0.00001356,-0.0004747
 9,-0.00057550,0.00004897,0.00013078,0.00012588,-0.00017910,-0.00019997
 ,0.00005052,-0.00011971,0.00002006,-0.00000175,0.00000126,0.00010278,-
 0.00005335,-0.00021845,-0.00006630,0.00002789,0.00003447,-0.00033700,0
 .00024440,-0.00091162,-0.00068344,0.00037660,0.00014693,0.00298562,-0.
 00069099,-0.00098094,-0.00182513,-0.00147787,-0.00005413,0.09550451,-0
 .04445529,-0.50904547,-0.09500340,0.04534846,0.51425847,-0.00156384,-0
 .00220813,0.00084866,-0.00102051,0.00098252,0.00032605,0.00041512,0.00
 029760,0.00024598,0.00108627,-0.00599141,-0.01099748,0.00014344,0.0000
 6299,-0.00007660,0.00019742,0.00141641,0.00015195,-0.00067702,-0.00006
 730,-0.00016609,0.00002923,-0.00010670,-0.00026100,-0.06507970,-0.0033
 0881,0.00914346,-0.00013037,-0.00222325,0.00026572,0.00006774,0.000091
 58,0.00004952,0.00007002,0.00006724,0.00000542,0.00701486,0.01504363,0
 .03039775,0.00661815,-0.01027947,-0.01679901,0.00050306,-0.00004719,0.
 00011040,-0.00003715,-0.00002897,-0.00000208,0.00000892,0.00028771,-0.
 00001119,0.00004325,-0.00013972,-0.00000045,0.00054942,0.00099755,-0.0
 0061232,-0.00047570,-0.00011722,0.00005188,0.00259327,-0.00235846,0.00
 135835,-0.00193632,0.00034847,-0.00072032,0.00303181,-0.00087223,-0.00
 128037,-0.00000930,0.00135424,-0.00046547,0.07564320,0.00001609,-0.000
 13008,-0.00083751,-0.00021678,0.00515012,0.00083201,-0.00075717,0.0000
 7293,-0.00016398,0.00536192,-0.02281127,-0.04675166,-0.00012029,0.0003
 5401,-0.00047911,0.00045758,-0.00085712,-0.00018679,-0.00040543,0.0000
 2768,-0.00010385,-0.00016908,-0.00006888,0.00033455,-0.00027654,-0.115
 25400,-0.06942204,-0.00375281,-0.00736478,0.00185941,0.00013006,-0.000
 06800,-0.00005029,0.00002588,-0.00005066,0.00007712,0.00360337,-0.0016
 4743,-0.00941226,-0.00426651,0.00835924,0.00426525,0.00048832,-0.00060
 689,-0.00009803,0.00013751,-0.00001489,0.00010766,0.00091332,-0.000025
 47,0.00014396,-0.00019402,-0.00003110,-0.00006369,0.00089103,-0.000309
 70,0.00051585,-0.00065345,0.00009385,-0.00032046,-0.00048847,-0.009859
 73,0.00803271,0.00005194,-0.00598309,-0.00267502,-0.00068129,0.0027703
 1,0.00211854,0.00020270,-0.00031539,-0.00008447,0.11782171,0.66646798,
 -0.00109732,-0.00047800,-0.00024974,-0.00037987,-0.00057649,-0.0048887
 2,-0.00043933,0.00072437,-0.00154573,0.00235427,-0.00605790,-0.0038965
 3,0.00014637,-0.00022771,0.00096698,0.00036525,0.00047531,-0.00042578,
 -0.00035242,0.00000621,0.00023675,-0.00016196,-0.00000181,0.00079310,0
 .01664432,-0.02480930,-0.20690452,-0.00021842,0.00119806,0.00163954,0.
 00006792,0.00008133,0.00003116,0.00000241,-0.00023887,0.00002443,0.004
 50240,-0.01618405,-0.02699221,0.00258991,-0.02084771,-0.03689522,0.000
 21017,-0.00027290,0.00029472,0.00007475,-0.00000273,-0.00001441,0.0004
 0417,-0.00001473,0.00072038,0.00012931,-0.00017171,-0.00021594,0.00018
 668,0.00019592,0.00114384,0.00034475,-0.00049749,-0.00013673,0.0002677
 4,0.00740241,0.00340532,-0.00101545,-0.00236633,-0.00170205,-0.0022281
 9,-0.00004084,0.00353540,-0.00084921,-0.00063815,-0.00085833,-0.035056
 35,0.02772226,0.32350985,0.00012914,0.00038438,0.00001561,0.00006995,-
 0.00033187,-0.00001029,0.00006080,0.00004617,-0.00001428,-0.00032212,-
 0.00003545,-0.00045570,-0.00007106,0.00001499,-0.00001960,-0.00003240,
 0.00003963,-0.00002494,0.00012024,0.00003304,0.00004351,0.00002877,0.0
 0001329,0.00002575,-0.00101820,0.00276410,0.00123643,0.00020917,-0.000
 10071,0.00012043,-0.00000972,-0.00000862,-0.00000734,-0.00001261,-0.00
 000867,0.00000216,0.00021648,0.00125461,0.00034954,0.00024631,-0.00068
 843,0.00044411,-0.00012823,-0.00003185,-0.00004564,0.00001954,0.000004
 21,0.00000399,-0.00009381,-0.00014798,-0.00003681,0.00000299,0.0000699
 6,0.00000717,-0.00014025,-0.00019558,0.00007113,0.00010708,0.00004766,
 -0.00000819,0.00042541,0.00048105,-0.00012855,-0.00067639,-0.00020712,
 0.00033434,0.00014852,0.00031471,-0.00008569,0.00032857,0.00001226,0.0
 0002121,-0.02708527,-0.11811957,0.01350811,0.02747709,-0.00005334,-0.0
 0038112,0.00015550,-0.00002160,0.00071109,0.00048643,0.00015403,-0.000
 03195,0.00006060,0.00097654,-0.00038165,-0.00472659,-0.00002330,0.0001
 0256,-0.00015314,0.00019697,-0.00002213,0.00004854,-0.00009115,-0.0000
 3097,-0.00004740,0.00000684,-0.00001436,-0.00009799,-0.00404709,-0.015
 79371,0.00575764,-0.00048906,-0.00073760,0.00037749,-0.00000269,0.0000
 2560,0.00002191,0.00001656,0.00001872,-0.00000834,0.00021747,0.0005248
 7,0.00126532,-0.00053433,0.00184883,0.00129809,0.00004850,0.00003332,0
 .00005440,-0.00000519,-0.00001633,-0.00001597,-0.00014195,0.00009468,-
 0.00000739,0.00004652,-0.00003154,0.00000529,-0.00003978,0.00026970,-0
 .00022412,-0.00004278,-0.00004097,0.00005511,0.00020079,0.00039962,0.0
 0008604,-0.00026955,-0.00099525,-0.00023708,0.00056825,0.00078732,0.00
 010019,-0.00004368,-0.00007217,0.00018477,-0.11102280,-0.51789763,0.03
 562086,0.11439581,0.53163110,-0.00000676,-0.00004320,0.00014337,0.0004
 2171,-0.00035254,-0.00128784,0.00002810,-0.00004231,-0.00006297,0.0018
 0994,-0.00240103,-0.00770909,-0.00006659,0.00008531,0.00008518,0.00007
 301,0.00007894,0.00005802,-0.00005757,-0.00002306,-0.00003921,-0.00002
 046,-0.00001174,-0.00001183,-0.00922106,-0.04157194,0.00124717,-0.0006
 3062,-0.00175075,0.00046133,0.00000968,0.00000750,0.00001502,0.0000181
 0,0.00000079,-0.00000188,0.00088942,-0.00034269,0.00017258,-0.00111839
 ,-0.00004638,0.00030216,0.00004528,-0.00004726,0.00004102,0.00001506,-
 0.00002236,-0.00000329,-0.00011581,0.00002951,0.00001315,0.00004563,0.
 00000545,0.00001366,-0.00018540,0.00007220,-0.00005491,0.00022484,-0.0
 0002361,0.00009081,-0.00012622,0.00302926,-0.00081748,0.00034314,-0.00
 180137,0.00296446,-0.00016371,0.00066683,0.00054095,-0.00035841,-0.000
 07524,-0.00006928,0.02349356,0.08463984,-0.05157558,-0.01534646,-0.040
 06016,0.05548446\\-0.00000500,0.00000382,-0.00000850,0.00000944,-0.000
 01320,0.00000180,0.00001131,-0.00000564,0.00000085,0.00000070,0.000009
 83,0.00000482,-0.00000121,0.00001296,0.00000787,-0.00000147,-0.0000081
 2,0.00001700,-0.00000109,-0.00000236,-0.00000317,0.00000650,-0.0000042
 7,-0.00000078,-0.00000244,0.00000017,-0.00002327,-0.00000648,0.0000134
 0,-0.00000235,-0.00000354,-0.00000612,-0.00000007,-0.00000048,-0.00000
 046,-0.00000228,-0.00000319,-0.00000188,-0.00000331,0.00000340,0.00000
 161,0.00000485,0.00000462,-0.00001589,-0.00001235,-0.00000406,0.000001
 84,-0.00000194,-0.00000564,0.00000270,-0.00000649,-0.00000204,0.000002
 98,-0.00000230,-0.00001117,0.00000694,0.00001271,0.00000718,-0.0000027
 5,-0.00000089,-0.00000157,0.00000187,0.00001246,0.00000283,0.00000390,
 0.00001055,0.00000054,-0.00001222,-0.00000625,-0.00000026,0.00000708,-
 0.00000356,0.00000648,0.00000611,0.00000470,-0.00000335,-0.00000230,-0
 .00000008\\\@
 The archive entry for this job was punched.


 Sometimes the fool who rushes in gets the job done.
                                    -- Al Bernstein
 Job cpu time:       0 days 10 hours  7 minutes 14.1 seconds.
 Elapsed time:       0 days  0 hours 38 minutes 11.2 seconds.
 File lengths (MBytes):  RWF=    704 Int=      0 D2E=      0 Chk=     27 Scr=      1
 Normal termination of Gaussian 16 at Wed Oct 11 15:25:53 2023.
