 Entering Gaussian System, Link 0=/opt/software/gaussian/g16.c01/g16
 Initial command:
 /opt/software/gaussian/g16.c01/l1.exe "/scratch/arhender/14836894/Gau-251789.inp" -scrdir="/scratch/arhender/14836894/"
 Entering Link 1 = /opt/software/gaussian/g16.c01/l1.exe PID=    251790.
  
 Copyright (c) 1988-2019, Gaussian, Inc.  All Rights Reserved.
  
 This is part of the Gaussian(R) 16 program.  It is based on
 the Gaussian(R) 09 system (copyright 2009, Gaussian, Inc.),
 the Gaussian(R) 03 system (copyright 2003, Gaussian, Inc.),
 the Gaussian(R) 98 system (copyright 1998, Gaussian, Inc.),
 the Gaussian(R) 94 system (copyright 1995, Gaussian, Inc.),
 the Gaussian 92(TM) system (copyright 1992, Gaussian, Inc.),
 the Gaussian 90(TM) system (copyright 1990, Gaussian, Inc.),
 the Gaussian 88(TM) system (copyright 1988, Gaussian, Inc.),
 the Gaussian 86(TM) system (copyright 1986, Carnegie Mellon
 University), and the Gaussian 82(TM) system (copyright 1983,
 Carnegie Mellon University). Gaussian is a federally registered
 trademark of Gaussian, Inc.
  
 This software contains proprietary and confidential information,
 including trade secrets, belonging to Gaussian, Inc.
  
 This software is provided under written license and may be
 used, copied, transmitted, or stored only in accord with that
 written license.
  
 The following legend is applicable only to US Government
 contracts under FAR:
  
                    RESTRICTED RIGHTS LEGEND
  
 Use, reproduction and disclosure by the US Government is
 subject to restrictions as set forth in subparagraphs (a)
 and (c) of the Commercial Computer Software - Restricted
 Rights clause in FAR 52.227-19.
  
 Gaussian, Inc.
 340 Quinnipiac St., Bldg. 40, Wallingford CT 06492
  
  
 ---------------------------------------------------------------
 Warning -- This program may not be used in any manner that
 competes with the business of Gaussian, Inc. or will provide
 assistance to any competitor of Gaussian, Inc.  The licensee
 of this program is prohibited from giving any competitor of
 Gaussian, Inc. access to this program.  By using this program,
 the user acknowledges that Gaussian, Inc. is engaged in the
 business of creating and licensing software in the field of
 computational chemistry and represents and warrants to the
 licensee that it is not a competitor of Gaussian, Inc. and that
 it will not use this program in any manner prohibited above.
 ---------------------------------------------------------------
  

 Cite this work as:
 Gaussian 16, Revision C.01,
 M. J. Frisch, G. W. Trucks, H. B. Schlegel, G. E. Scuseria, 
 M. A. Robb, J. R. Cheeseman, G. Scalmani, V. Barone, 
 G. A. Petersson, H. Nakatsuji, X. Li, M. Caricato, A. V. Marenich, 
 J. Bloino, B. G. Janesko, R. Gomperts, B. Mennucci, H. P. Hratchian, 
 J. V. Ortiz, A. F. Izmaylov, J. L. Sonnenberg, D. Williams-Young, 
 F. Ding, F. Lipparini, F. Egidi, J. Goings, B. Peng, A. Petrone, 
 T. Henderson, D. Ranasinghe, V. G. Zakrzewski, J. Gao, N. Rega, 
 G. Zheng, W. Liang, M. Hada, M. Ehara, K. Toyota, R. Fukuda, 
 J. Hasegawa, M. Ishida, T. Nakajima, Y. Honda, O. Kitao, H. Nakai, 
 T. Vreven, K. Throssell, J. A. Montgomery, Jr., J. E. Peralta, 
 F. Ogliaro, M. J. Bearpark, J. J. Heyd, E. N. Brothers, K. N. Kudin, 
 V. N. Staroverov, T. A. Keith, R. Kobayashi, J. Normand, 
 K. Raghavachari, A. P. Rendell, J. C. Burant, S. S. Iyengar, 
 J. Tomasi, M. Cossi, J. M. Millam, M. Klene, C. Adamo, R. Cammi, 
 J. W. Ochterski, R. L. Martin, K. Morokuma, O. Farkas, 
 J. B. Foresman, and D. J. Fox, Gaussian, Inc., Wallingford CT, 2019.
 
 ******************************************
 Gaussian 16:  ES64L-G16RevC.01  3-Jul-2019
                11-Oct-2023 
 ******************************************
 %chk=MannitolConformerOpt_37.chk
 %mem=8GB
 %nprocs=16
 Will use up to   16 processors via shared memory.
 ---------------------------------------------
 # opt freq wb97xd/Def2TZVPP geom=connectivity
 ---------------------------------------------
 1/18=20,19=15,26=3,38=1,57=2/1,3;
 2/9=110,12=2,17=6,18=5,40=1/2;
 3/5=44,7=202,11=2,25=1,30=1,71=1,74=-58/1,2,3;
 4//1;
 5/5=2,38=5/2;
 6/7=2,8=2,9=2,10=2,28=1/1;
 7//1,2,3,16;
 1/18=20,19=15,26=3/3(2);
 2/9=110/2;
 99//99;
 2/9=110/2;
 3/5=44,7=202,11=2,25=1,30=1,71=1,74=-58/1,2,3;
 4/5=5,16=3,69=1/1;
 5/5=2,38=5/2;
 7//1,2,3,16;
 1/18=20,19=15,26=3/3(-5);
 2/9=110/2;
 6/7=2,8=2,9=2,10=2,19=2,28=1/1;
 99/9=1/99;
 -------------------
 Title Card Required
 -------------------
 Symbolic Z-matrix:
 Charge =  0 Multiplicity = 1
 C                     0.        0.        0. 
 C                     1.5422    0.        0. 
 C                    -0.6037    0.6444    1.2602 
 C                     2.2331   -0.7746    1.1416 
 H                     1.9057    1.0349    0. 
 H                    -0.3601   -1.0295   -0.1119 
 C                    -2.085     1.0136    1.1011 
 H                    -0.0478    1.5513    1.5229 
 C                     1.86     -2.2622    1.2165 
 H                     2.0438   -0.2993    2.1082 
 H                    -2.2573    1.749     0.3093 
 H                    -2.4682    1.4242    2.0409 
 H                     0.8337   -2.4045    1.5634 
 H                     2.5425   -2.7889    1.8918 
 O                    -2.8429   -0.1685    0.8309 
 H                    -2.7968   -0.2967   -0.1363 
 O                    -0.488    -0.2785    2.3544 
 H                    -1.3356   -0.7717    2.3701 
 O                    -0.4377    0.7035   -1.1764 
 H                     0.2215    0.477    -1.8677 
 O                     1.9684   -0.5279   -1.2838 
 H                     1.9326   -1.5086   -1.1959 
 O                     3.656    -0.6918    0.9229 
 H                     3.7899   -0.8933   -0.0243 
 O                     1.9732   -2.8697   -0.0776 
 H                     1.9324   -3.8333    0.0729 
 

 GradGradGradGradGradGradGradGradGradGradGradGradGradGradGradGradGradGrad
 Berny optimization.
 Initialization pass.
                           ----------------------------
                           !    Initial Parameters    !
                           ! (Angstroms and Degrees)  !
 --------------------------                            --------------------------
 ! Name  Definition              Value          Derivative Info.                !
 --------------------------------------------------------------------------------
 ! R1    R(1,2)                  1.5422         estimate D2E/DX2                !
 ! R2    R(1,3)                  1.5388         estimate D2E/DX2                !
 ! R3    R(1,6)                  1.0964         estimate D2E/DX2                !
 ! R4    R(1,19)                 1.4389         estimate D2E/DX2                !
 ! R5    R(2,4)                  1.5429         estimate D2E/DX2                !
 ! R6    R(2,5)                  1.0969         estimate D2E/DX2                !
 ! R7    R(2,21)                 1.4521         estimate D2E/DX2                !
 ! R8    R(3,7)                  1.5349         estimate D2E/DX2                !
 ! R9    R(3,8)                  1.0957         estimate D2E/DX2                !
 ! R10   R(3,17)                 1.4361         estimate D2E/DX2                !
 ! R11   R(4,9)                  1.5355         estimate D2E/DX2                !
 ! R12   R(4,10)                 1.0936         estimate D2E/DX2                !
 ! R13   R(4,23)                 1.442          estimate D2E/DX2                !
 ! R14   R(7,11)                 1.0943         estimate D2E/DX2                !
 ! R15   R(7,12)                 1.0948         estimate D2E/DX2                !
 ! R16   R(7,15)                 1.43           estimate D2E/DX2                !
 ! R17   R(9,13)                 1.0926         estimate D2E/DX2                !
 ! R18   R(9,14)                 1.0951         estimate D2E/DX2                !
 ! R19   R(9,25)                 1.4341         estimate D2E/DX2                !
 ! R20   R(15,16)                0.9767         estimate D2E/DX2                !
 ! R21   R(17,18)                0.9808         estimate D2E/DX2                !
 ! R22   R(19,20)                0.9817         estimate D2E/DX2                !
 ! R23   R(21,22)                0.9853         estimate D2E/DX2                !
 ! R24   R(23,24)                0.9776         estimate D2E/DX2                !
 ! R25   R(25,26)                0.9761         estimate D2E/DX2                !
 ! A1    A(2,1,3)              113.0993         estimate D2E/DX2                !
 ! A2    A(2,1,6)              109.1743         estimate D2E/DX2                !
 ! A3    A(2,1,19)             107.7096         estimate D2E/DX2                !
 ! A4    A(3,1,6)              110.3624         estimate D2E/DX2                !
 ! A5    A(3,1,19)             110.2108         estimate D2E/DX2                !
 ! A6    A(6,1,19)             106.006          estimate D2E/DX2                !
 ! A7    A(1,2,4)              116.6018         estimate D2E/DX2                !
 ! A8    A(1,2,5)              109.3534         estimate D2E/DX2                !
 ! A9    A(1,2,21)             107.0685         estimate D2E/DX2                !
 ! A10   A(4,2,5)              108.9821         estimate D2E/DX2                !
 ! A11   A(4,2,21)             109.8898         estimate D2E/DX2                !
 ! A12   A(5,2,21)             104.2256         estimate D2E/DX2                !
 ! A13   A(1,3,7)              113.233          estimate D2E/DX2                !
 ! A14   A(1,3,8)              110.1165         estimate D2E/DX2                !
 ! A15   A(1,3,17)             108.86           estimate D2E/DX2                !
 ! A16   A(7,3,8)              108.3851         estimate D2E/DX2                !
 ! A17   A(7,3,17)             108.1382         estimate D2E/DX2                !
 ! A18   A(8,3,17)             107.9607         estimate D2E/DX2                !
 ! A19   A(2,4,9)              114.435          estimate D2E/DX2                !
 ! A20   A(2,4,10)             110.9929         estimate D2E/DX2                !
 ! A21   A(2,4,23)             107.5066         estimate D2E/DX2                !
 ! A22   A(9,4,10)             109.6256         estimate D2E/DX2                !
 ! A23   A(9,4,23)             107.6255         estimate D2E/DX2                !
 ! A24   A(10,4,23)            106.2537         estimate D2E/DX2                !
 ! A25   A(3,7,11)             112.8683         estimate D2E/DX2                !
 ! A26   A(3,7,12)             109.8173         estimate D2E/DX2                !
 ! A27   A(3,7,15)             109.4055         estimate D2E/DX2                !
 ! A28   A(11,7,12)            108.2987         estimate D2E/DX2                !
 ! A29   A(11,7,15)            109.5953         estimate D2E/DX2                !
 ! A30   A(12,7,15)            106.6616         estimate D2E/DX2                !
 ! A31   A(4,9,13)             111.7086         estimate D2E/DX2                !
 ! A32   A(4,9,14)             110.1575         estimate D2E/DX2                !
 ! A33   A(4,9,25)             110.3165         estimate D2E/DX2                !
 ! A34   A(13,9,14)            109.0849         estimate D2E/DX2                !
 ! A35   A(13,9,25)            107.7865         estimate D2E/DX2                !
 ! A36   A(14,9,25)            107.6696         estimate D2E/DX2                !
 ! A37   A(7,15,16)            105.6997         estimate D2E/DX2                !
 ! A38   A(3,17,18)            105.4106         estimate D2E/DX2                !
 ! A39   A(1,19,20)            104.9904         estimate D2E/DX2                !
 ! A40   A(2,21,22)            105.8025         estimate D2E/DX2                !
 ! A41   A(4,23,24)            105.6801         estimate D2E/DX2                !
 ! A42   A(9,25,26)            106.0066         estimate D2E/DX2                !
 ! D1    D(3,1,2,4)             61.2405         estimate D2E/DX2                !
 ! D2    D(3,1,2,5)            -62.9172         estimate D2E/DX2                !
 ! D3    D(3,1,2,21)          -175.2697         estimate D2E/DX2                !
 ! D4    D(6,1,2,4)            -62.0456         estimate D2E/DX2                !
 ! D5    D(6,1,2,5)            173.7967         estimate D2E/DX2                !
 ! D6    D(6,1,2,21)            61.4442         estimate D2E/DX2                !
 ! D7    D(19,1,2,4)          -176.7222         estimate D2E/DX2                !
 ! D8    D(19,1,2,5)            59.1201         estimate D2E/DX2                !
 ! D9    D(19,1,2,21)          -53.2324         estimate D2E/DX2                !
 ! D10   D(2,1,3,7)            163.4758         estimate D2E/DX2                !
 ! D11   D(2,1,3,8)             41.9575         estimate D2E/DX2                !
 ! D12   D(2,1,3,17)           -76.2164         estimate D2E/DX2                !
 ! D13   D(6,1,3,7)            -73.8967         estimate D2E/DX2                !
 ! D14   D(6,1,3,8)            164.585          estimate D2E/DX2                !
 ! D15   D(6,1,3,17)            46.4111         estimate D2E/DX2                !
 ! D16   D(19,1,3,7)            42.8502         estimate D2E/DX2                !
 ! D17   D(19,1,3,8)           -78.6681         estimate D2E/DX2                !
 ! D18   D(19,1,3,17)          163.158          estimate D2E/DX2                !
 ! D19   D(2,1,19,20)           35.39           estimate D2E/DX2                !
 ! D20   D(3,1,19,20)          159.1988         estimate D2E/DX2                !
 ! D21   D(6,1,19,20)          -81.3721         estimate D2E/DX2                !
 ! D22   D(1,2,4,9)             58.2625         estimate D2E/DX2                !
 ! D23   D(1,2,4,10)           -66.4522         estimate D2E/DX2                !
 ! D24   D(1,2,4,23)           177.738          estimate D2E/DX2                !
 ! D25   D(5,2,4,9)           -177.3902         estimate D2E/DX2                !
 ! D26   D(5,2,4,10)            57.8951         estimate D2E/DX2                !
 ! D27   D(5,2,4,23)           -57.9147         estimate D2E/DX2                !
 ! D28   D(21,2,4,9)           -63.7615         estimate D2E/DX2                !
 ! D29   D(21,2,4,10)          171.5238         estimate D2E/DX2                !
 ! D30   D(21,2,4,23)           55.7139         estimate D2E/DX2                !
 ! D31   D(1,2,21,22)          -82.7384         estimate D2E/DX2                !
 ! D32   D(4,2,21,22)           44.7946         estimate D2E/DX2                !
 ! D33   D(5,2,21,22)          161.4465         estimate D2E/DX2                !
 ! D34   D(1,3,7,11)           -61.602          estimate D2E/DX2                !
 ! D35   D(1,3,7,12)           177.4546         estimate D2E/DX2                !
 ! D36   D(1,3,7,15)            60.7066         estimate D2E/DX2                !
 ! D37   D(8,3,7,11)            60.884          estimate D2E/DX2                !
 ! D38   D(8,3,7,12)           -60.0594         estimate D2E/DX2                !
 ! D39   D(8,3,7,15)          -176.8074         estimate D2E/DX2                !
 ! D40   D(17,3,7,11)          177.6804         estimate D2E/DX2                !
 ! D41   D(17,3,7,12)           56.737          estimate D2E/DX2                !
 ! D42   D(17,3,7,15)          -60.011          estimate D2E/DX2                !
 ! D43   D(1,3,17,18)          -93.4988         estimate D2E/DX2                !
 ! D44   D(7,3,17,18)           29.9061         estimate D2E/DX2                !
 ! D45   D(8,3,17,18)          146.9767         estimate D2E/DX2                !
 ! D46   D(2,4,9,13)           -71.1482         estimate D2E/DX2                !
 ! D47   D(2,4,9,14)           167.45           estimate D2E/DX2                !
 ! D48   D(2,4,9,25)            48.7195         estimate D2E/DX2                !
 ! D49   D(10,4,9,13)           54.2871         estimate D2E/DX2                !
 ! D50   D(10,4,9,14)          -67.1146         estimate D2E/DX2                !
 ! D51   D(10,4,9,25)          174.1549         estimate D2E/DX2                !
 ! D52   D(23,4,9,13)          169.443          estimate D2E/DX2                !
 ! D53   D(23,4,9,14)           48.0412         estimate D2E/DX2                !
 ! D54   D(23,4,9,25)          -70.6893         estimate D2E/DX2                !
 ! D55   D(2,4,23,24)          -46.3853         estimate D2E/DX2                !
 ! D56   D(9,4,23,24)           77.348          estimate D2E/DX2                !
 ! D57   D(10,4,23,24)        -165.2833         estimate D2E/DX2                !
 ! D58   D(3,7,15,16)          -85.9339         estimate D2E/DX2                !
 ! D59   D(11,7,15,16)          38.3125         estimate D2E/DX2                !
 ! D60   D(12,7,15,16)         155.3402         estimate D2E/DX2                !
 ! D61   D(4,9,25,26)          166.9917         estimate D2E/DX2                !
 ! D62   D(13,9,25,26)         -70.8002         estimate D2E/DX2                !
 ! D63   D(14,9,25,26)          46.7534         estimate D2E/DX2                !
 --------------------------------------------------------------------------------
 Trust Radius=3.00D-01 FncErr=1.00D-07 GrdErr=1.00D-06 EigMax=2.50D+02 EigMin=1.00D-04
 Number of steps in this run=    140 maximum allowed number of steps=    156.
 GradGradGradGradGradGradGradGradGradGradGradGradGradGradGradGradGradGrad

                          Input orientation:                          
 ---------------------------------------------------------------------
 Center     Atomic      Atomic             Coordinates (Angstroms)
 Number     Number       Type             X           Y           Z
 ---------------------------------------------------------------------
      1          6           0        0.000000    0.000000    0.000000
      2          6           0        1.542200    0.000000    0.000000
      3          6           0       -0.603700    0.644400    1.260200
      4          6           0        2.233100   -0.774600    1.141600
      5          1           0        1.905700    1.034900    0.000000
      6          1           0       -0.360100   -1.029500   -0.111900
      7          6           0       -2.085000    1.013600    1.101100
      8          1           0       -0.047800    1.551300    1.522900
      9          6           0        1.860000   -2.262200    1.216500
     10          1           0        2.043800   -0.299300    2.108200
     11          1           0       -2.257300    1.749000    0.309300
     12          1           0       -2.468200    1.424200    2.040900
     13          1           0        0.833700   -2.404500    1.563400
     14          1           0        2.542500   -2.788900    1.891800
     15          8           0       -2.842900   -0.168500    0.830900
     16          1           0       -2.796800   -0.296700   -0.136300
     17          8           0       -0.488000   -0.278500    2.354400
     18          1           0       -1.335600   -0.771700    2.370100
     19          8           0       -0.437700    0.703500   -1.176400
     20          1           0        0.221500    0.477000   -1.867700
     21          8           0        1.968400   -0.527900   -1.283800
     22          1           0        1.932600   -1.508600   -1.195900
     23          8           0        3.656000   -0.691800    0.922900
     24          1           0        3.789900   -0.893300   -0.024300
     25          8           0        1.973200   -2.869700   -0.077600
     26          1           0        1.932400   -3.833300    0.072900
 ---------------------------------------------------------------------
                    Distance matrix (angstroms):
                    1          2          3          4          5
     1  C    0.000000
     2  C    1.542200   0.000000
     3  C    1.538769   2.570650   0.000000
     4  C    2.624879   1.542919   3.174124   0.000000
     5  H    2.168573   1.096882   2.835081   2.164424   0.000000
     6  H    1.096387   2.165903   2.178059   2.891526   3.067266
     7  C    2.566521   3.923823   1.534885   4.673894   4.139875
     8  H    2.174406   2.693298   1.095675   3.279894   2.530228
     9  C    3.171281   2.588130   3.810518   1.535502   3.514659
    10  H    2.951475   2.187622   2.935801   1.093645   2.498733
    11  H    2.872294   4.194147   2.204256   5.217755   4.235112
    12  H    3.505086   4.719844   2.166550   5.267417   4.842296
    13  H    2.986787   2.954287   3.384352   2.189249   3.927197
    14  H    4.221514   3.515319   4.699473   2.171620   4.313452
    15  O    2.966626   4.466306   2.420562   5.121491   4.968679
    16  H    2.815795   4.351268   2.765062   5.211651   4.889299
    17  O    2.420518   3.121294   1.436107   3.020163   3.605276
    18  H    2.827848   3.807181   1.942394   3.774234   4.403090
    19  O    1.438892   2.408077   2.442963   3.832894   2.642965
    20  H    1.940334   2.336682   3.239249   3.830003   2.576060
    21  O    2.408614   1.452056   3.802883   2.452242   2.023467
    22  H    2.727818   1.964297   4.135294   2.468393   2.810746
    23  O    3.833623   2.408004   4.477080   1.441988   2.626174
    24  H    3.893831   2.418828   4.828890   1.948599   2.696063
    25  O    3.483492   2.902923   4.558401   2.437917   3.905954
    26  H    4.293445   3.853798   5.281220   3.253949   4.868819
                    6          7          8          9         10
     6  H    0.000000
     7  C    2.936138   0.000000
     8  H    3.070933   2.148772   0.000000
     9  C    2.865840   5.129055   4.275086   0.000000
    10  H    3.352726   4.448027   2.853434   2.163767   0.000000
    11  H    3.390699   1.094280   2.528597   5.819355   5.092252
    12  H    3.885779   1.094833   2.478470   5.744780   4.830437
    13  H    2.474351   4.518400   4.053028   1.092648   2.488577
    14  H    3.941496   6.041355   5.067847   1.095102   2.548262
    15  O    2.791861   1.429958   3.353977   5.162319   5.052568
    16  H    2.544621   1.937706   3.704733   5.232499   5.335653
    17  O    2.581278   2.406386   2.057507   3.277649   2.543827
    18  H    2.679251   2.315007   2.787921   3.710019   3.422294
    19  O    2.035306   2.827855   2.856048   4.449806   4.236986
    20  H    2.385505   3.797585   3.566905   4.438489   4.441982
    21  O    2.654593   4.949144   4.033076   3.044839   3.400530
    22  H    2.580904   5.270561   4.547180   2.528410   3.520206
    23  O    4.160999   5.991596   4.371457   2.403741   2.039162
    24  H    4.153158   6.278315   4.806021   2.671701   2.819443
    25  O    2.971835   5.739193   5.117742   1.434073   3.374857
    26  H    3.626431   6.378804   5.917568   1.944587   4.079707
                   11         12         13         14         15
    11  H    0.000000
    12  H    1.774377   0.000000
    13  H    5.327158   5.078336   0.000000
    14  H    6.792269   6.548248   1.782023   0.000000
    15  O    2.071666   2.034992   4.365048   6.082314   0.000000
    16  H    2.162061   2.794580   4.529054   6.231563   0.976748
    17  O    3.379884   2.630335   2.625347   3.962327   2.806903
    18  H    3.383837   2.492616   2.832431   4.397445   2.237172
    19  O    2.571249   3.872126   4.333893   5.521983   3.251865
    20  H    3.535783   4.838267   4.522198   5.494268   4.133964
    21  O    5.057547   5.877733   3.593845   3.940323   5.267801
    22  H    5.516597   6.200422   3.102250   3.397799   5.358095
    23  O    6.426595   6.575196   3.362880   2.564464   6.520583
    24  H    6.607697   6.985676   3.680168   2.969974   6.726867
    25  O    6.275286   6.530823   2.051281   2.051626   5.596130
    26  H    6.983663   7.132995   2.338846   2.184351   6.067027
                   16         17         18         19         20
    16  H    0.000000
    17  O    3.396244   0.000000
    18  H    2.939859   0.980774   0.000000
    19  O    2.765422   3.665161   3.944629   0.000000
    20  H    3.564617   4.347447   4.684310   0.981704   0.000000
    21  O    4.906867   4.396885   4.932225   2.705032   2.098195
    22  H    4.995866   4.469573   4.892904   3.242235   2.705880
    23  O    6.551079   4.403719   5.197773   4.807526   4.577044
    24  H    6.614612   4.933216   5.658506   4.663658   4.243739
    25  O    5.420025   4.322782   4.619632   4.448321   4.180109
    26  H    5.909030   4.868283   5.032926   5.268840   5.027106
                   21         22         23         24         25
    21  O    0.000000
    22  H    0.985282   0.000000
    23  O    2.782873   2.850716   0.000000
    24  H    2.244487   2.280527   0.977609   0.000000
    25  O    2.634192   1.762055   2.928492   2.685032   0.000000
    26  H    3.573178   2.648412   3.682705   3.478988   0.976135
                   26
    26  H    0.000000
 Stoichiometry    C6H14O6
 Framework group  C1[X(C6H14O6)]
 Deg. of freedom    72
 Full point group                 C1      NOp   1
 Largest Abelian subgroup         C1      NOp   1
 Largest concise Abelian subgroup C1      NOp   1
                         Standard orientation:                         
 ---------------------------------------------------------------------
 Center     Atomic      Atomic             Coordinates (Angstroms)
 Number     Number       Type             X           Y           Z
 ---------------------------------------------------------------------
      1          6           0        0.640903    0.610772    0.048373
      2          6           0       -0.761476    0.734484   -0.581237
      3          6           0        1.582730   -0.306730   -0.750976
      4          6           0       -1.580353   -0.567292   -0.705403
      5          1           0       -0.675652    1.197849   -1.571731
      6          1           0        0.542295    0.251124    1.079389
      7          6           0        3.061402   -0.126800   -0.380810
      8          1           0        1.469951   -0.119163   -1.824570
      9          6           0       -1.831641   -1.289085    0.626377
     10          1           0       -1.114515   -1.257035   -1.414846
     11          1           0        3.430010    0.883850   -0.581214
     12          1           0        3.674689   -0.835011   -0.947357
     13          1           0       -0.918863   -1.744775    1.017611
     14          1           0       -2.592577   -2.065910    0.496879
     15          8           0        3.246352   -0.439254    1.002284
     16          1           0        3.050315    0.385174    1.488004
     17          8           0        1.222213   -1.674012   -0.500029
     18          1           0        1.796204   -1.963128    0.240826
     19          8           0        1.197240    1.934495    0.141423
     20          1           0        0.433390    2.517400    0.342661
     21          8           0       -1.497527    1.707966    0.205547
     22          1           0       -1.850217    1.214153    0.981781
     23          8           0       -2.864121   -0.220668   -1.263185
     24          1           0       -3.167368    0.561966   -0.761942
     25          8           0       -2.316187   -0.364796    1.609977
     26          1           0       -2.650813   -0.908437    2.348434
 ---------------------------------------------------------------------
 Rotational constants (GHZ):           1.4410639           0.5640327           0.5145198
 Standard basis: def2TZVPP (5D, 7F)
 There are   642 symmetry adapted cartesian basis functions of A   symmetry.
 There are   568 symmetry adapted basis functions of A   symmetry.
   568 basis functions,   850 primitive gaussians,   642 cartesian basis functions
    49 alpha electrons       49 beta electrons
       nuclear repulsion energy       838.9008508683 Hartrees.
 NAtoms=   26 NActive=   26 NUniq=   26 SFac= 1.00D+00 NAtFMM=   60 NAOKFM=F Big=F
 Integral buffers will be    131072 words long.
 Raffenetti 2 integral format.
 Two-electron integral symmetry is turned on.
 Nuclear repulsion after empirical dispersion term =      838.8815748238 Hartrees.
 One-electron integrals computed using PRISM.
   1 Symmetry operations used in ECPInt.
 ECPInt:  NShTT=   23436 NPrTT=   62434 LenC2=   22066 LenP2D=   45927.
 LDataN:  DoStor=T MaxTD1= 6 Len=  172
 NBasis=   568 RedAO= T EigKep=  4.01D-05  NBF=   568
 NBsUse=   568 1.00D-06 EigRej= -1.00D+00 NBFU=   568
 ExpMin= 9.52D-02 ExpMax= 2.70D+04 ExpMxC= 9.22D+02 IAcc=3 IRadAn=         5 AccDes= 0.00D+00
 Harris functional with IExCor= 4639 and IRadAn=       5 diagonalized for initial guess.
 HarFok:  IExCor= 4639 AccDes= 0.00D+00 IRadAn=         5 IDoV= 1 UseB2=F ITyADJ=14
 ICtDFT=  3500011 ScaDFX=  1.000000  1.000000  1.000000  1.000000
 FoFCou: FMM=F IPFlag=           0 FMFlag=      100000 FMFlg1=           0
         NFxFlg=           0 DoJE=T BraDBF=F KetDBF=T FulRan=T
         wScrn=  0.000000 ICntrl=       500 IOpCl=  0 I1Cent=   200000004 NGrid=           0
         NMat0=    1 NMatS0=      1 NMatT0=    0 NMatD0=    1 NMtDS0=    0 NMtDT0=    0
 Petite list used in FoFCou.
 Requested convergence on RMS density matrix=1.00D-08 within 128 cycles.
 Requested convergence on MAX density matrix=1.00D-06.
 Requested convergence on             energy=1.00D-06.
 No special actions if energy rises.
 Integral accuracy reduced to 1.0D-05 until final iterations.
 Initial convergence to 1.0D-05 achieved.  Increase integral accuracy.
 SCF Done:  E(RwB97XD) =  -688.471749377     A.U. after   14 cycles
            NFock= 14  Conv=0.19D-08     -V/T= 2.0050

 **********************************************************************

            Population analysis using the SCF Density.

 **********************************************************************

 Orbital symmetries:
       Occupied  (A) (A) (A) (A) (A) (A) (A) (A) (A) (A) (A) (A)
                 (A) (A) (A) (A) (A) (A) (A) (A) (A) (A) (A) (A)
                 (A) (A) (A) (A) (A) (A) (A) (A) (A) (A) (A) (A)
                 (A) (A) (A) (A) (A) (A) (A) (A) (A) (A) (A) (A)
                 (A)
       Virtual   (A) (A) (A) (A) (A) (A) (A) (A) (A) (A) (A) (A)
                 (A) (A) (A) (A) (A) (A) (A) (A) (A) (A) (A) (A)
                 (A) (A) (A) (A) (A) (A) (A) (A) (A) (A) (A) (A)
                 (A) (A) (A) (A) (A) (A) (A) (A) (A) (A) (A) (A)
                 (A) (A) (A) (A) (A) (A) (A) (A) (A) (A) (A) (A)
                 (A) (A) (A) (A) (A) (A) (A) (A) (A) (A) (A) (A)
                 (A) (A) (A) (A) (A) (A) (A) (A) (A) (A) (A) (A)
                 (A) (A) (A) (A) (A) (A) (A) (A) (A) (A) (A) (A)
                 (A) (A) (A) (A) (A) (A) (A) (A) (A) (A) (A) (A)
                 (A) (A) (A) (A) (A) (A) (A) (A) (A) (A) (A) (A)
                 (A) (A) (A) (A) (A) (A) (A) (A) (A) (A) (A) (A)
                 (A) (A) (A) (A) (A) (A) (A) (A) (A) (A) (A) (A)
                 (A) (A) (A) (A) (A) (A) (A) (A) (A) (A) (A) (A)
                 (A) (A) (A) (A) (A) (A) (A) (A) (A) (A) (A) (A)
                 (A) (A) (A) (A) (A) (A) (A) (A) (A) (A) (A) (A)
                 (A) (A) (A) (A) (A) (A) (A) (A) (A) (A) (A) (A)
                 (A) (A) (A) (A) (A) (A) (A) (A) (A) (A) (A) (A)
                 (A) (A) (A) (A) (A) (A) (A) (A) (A) (A) (A) (A)
                 (A) (A) (A) (A) (A) (A) (A) (A) (A) (A) (A) (A)
                 (A) (A) (A) (A) (A) (A) (A) (A) (A) (A) (A) (A)
                 (A) (A) (A) (A) (A) (A) (A) (A) (A) (A) (A) (A)
                 (A) (A) (A) (A) (A) (A) (A) (A) (A) (A) (A) (A)
                 (A) (A) (A) (A) (A) (A) (A) (A) (A) (A) (A) (A)
                 (A) (A) (A) (A) (A) (A) (A) (A) (A) (A) (A) (A)
                 (A) (A) (A) (A) (A) (A) (A) (A) (A) (A) (A) (A)
                 (A) (A) (A) (A) (A) (A) (A) (A) (A) (A) (A) (A)
                 (A) (A) (A) (A) (A) (A) (A) (A) (A) (A) (A) (A)
                 (A) (A) (A) (A) (A) (A) (A) (A) (A) (A) (A) (A)
                 (A) (A) (A) (A) (A) (A) (A) (A) (A) (A) (A) (A)
                 (A) (A) (A) (A) (A) (A) (A) (A) (A) (A) (A) (A)
                 (A) (A) (A) (A) (A) (A) (A) (A) (A) (A) (A) (A)
                 (A) (A) (A) (A) (A) (A) (A) (A) (A) (A) (A) (A)
                 (A) (A) (A) (A) (A) (A) (A) (A) (A) (A) (A) (A)
                 (A) (A) (A) (A) (A) (A) (A) (A) (A) (A) (A) (A)
                 (A) (A) (A) (A) (A) (A) (A) (A) (A) (A) (A) (A)
                 (A) (A) (A) (A) (A) (A) (A) (A) (A) (A) (A) (A)
                 (A) (A) (A) (A) (A) (A) (A) (A) (A) (A) (A) (A)
                 (A) (A) (A) (A) (A) (A) (A) (A) (A) (A) (A) (A)
                 (A) (A) (A) (A) (A) (A) (A) (A) (A) (A) (A) (A)
                 (A) (A) (A) (A) (A) (A) (A) (A) (A) (A) (A) (A)
                 (A) (A) (A) (A) (A) (A) (A) (A) (A) (A) (A) (A)
                 (A) (A) (A) (A) (A) (A) (A) (A) (A) (A) (A) (A)
                 (A) (A) (A) (A) (A) (A) (A) (A) (A) (A) (A) (A)
                 (A) (A) (A)
 The electronic state is 1-A.
 Alpha  occ. eigenvalues --  -19.28254 -19.26370 -19.25771 -19.25465 -19.25129
 Alpha  occ. eigenvalues --  -19.24398 -10.34645 -10.34621 -10.34597 -10.34275
 Alpha  occ. eigenvalues --  -10.34220 -10.33733  -1.16069  -1.14714  -1.13468
 Alpha  occ. eigenvalues --   -1.11766  -1.11577  -1.09963  -0.88257  -0.84953
 Alpha  occ. eigenvalues --   -0.80603  -0.75468  -0.70883  -0.68731  -0.65124
 Alpha  occ. eigenvalues --   -0.62478  -0.60394  -0.59494  -0.58752  -0.57221
 Alpha  occ. eigenvalues --   -0.56321  -0.55473  -0.53810  -0.52009  -0.51439
 Alpha  occ. eigenvalues --   -0.49975  -0.48785  -0.48496  -0.45119  -0.44201
 Alpha  occ. eigenvalues --   -0.43253  -0.42085  -0.41509  -0.39655  -0.39012
 Alpha  occ. eigenvalues --   -0.38458  -0.36763  -0.36039  -0.35021
 Alpha virt. eigenvalues --    0.08180   0.10323   0.11976   0.12621   0.14368
 Alpha virt. eigenvalues --    0.15652   0.16199   0.16515   0.17255   0.18069
 Alpha virt. eigenvalues --    0.18588   0.19734   0.20306   0.21064   0.22248
 Alpha virt. eigenvalues --    0.22539   0.23357   0.25155   0.25524   0.27762
 Alpha virt. eigenvalues --    0.27909   0.28871   0.30480   0.32513   0.32886
 Alpha virt. eigenvalues --    0.34453   0.36172   0.36564   0.37158   0.37680
 Alpha virt. eigenvalues --    0.39276   0.39645   0.40174   0.41341   0.41739
 Alpha virt. eigenvalues --    0.42433   0.42711   0.43432   0.44228   0.44662
 Alpha virt. eigenvalues --    0.45344   0.45934   0.46437   0.47457   0.47868
 Alpha virt. eigenvalues --    0.48437   0.49800   0.50213   0.50929   0.51297
 Alpha virt. eigenvalues --    0.51379   0.52331   0.53692   0.54348   0.54483
 Alpha virt. eigenvalues --    0.54788   0.56378   0.57733   0.58427   0.59484
 Alpha virt. eigenvalues --    0.60195   0.60851   0.61947   0.62592   0.63338
 Alpha virt. eigenvalues --    0.64266   0.66045   0.67525   0.68693   0.69505
 Alpha virt. eigenvalues --    0.70060   0.70404   0.71033   0.72822   0.73374
 Alpha virt. eigenvalues --    0.74387   0.75410   0.77597   0.79070   0.80630
 Alpha virt. eigenvalues --    0.81970   0.82908   0.84595   0.85680   0.86455
 Alpha virt. eigenvalues --    0.87133   0.87789   0.89010   0.90270   0.90995
 Alpha virt. eigenvalues --    0.91914   0.93416   0.93717   0.96045   0.97678
 Alpha virt. eigenvalues --    0.98083   0.98596   1.00862   1.01924   1.03004
 Alpha virt. eigenvalues --    1.04106   1.05580   1.06615   1.08111   1.08302
 Alpha virt. eigenvalues --    1.09283   1.09937   1.11274   1.12247   1.12616
 Alpha virt. eigenvalues --    1.14753   1.14875   1.15912   1.17218   1.18775
 Alpha virt. eigenvalues --    1.19234   1.20638   1.21901   1.23674   1.25093
 Alpha virt. eigenvalues --    1.26912   1.27338   1.27909   1.28316   1.29211
 Alpha virt. eigenvalues --    1.30062   1.32202   1.32985   1.33757   1.35142
 Alpha virt. eigenvalues --    1.36229   1.37043   1.38369   1.39668   1.40498
 Alpha virt. eigenvalues --    1.41440   1.42234   1.45038   1.46426   1.46643
 Alpha virt. eigenvalues --    1.48668   1.48932   1.49054   1.50541   1.51044
 Alpha virt. eigenvalues --    1.53476   1.54644   1.54846   1.55933   1.57204
 Alpha virt. eigenvalues --    1.58696   1.59936   1.61384   1.62586   1.64491
 Alpha virt. eigenvalues --    1.64985   1.67320   1.68546   1.70894   1.72902
 Alpha virt. eigenvalues --    1.76366   1.80410   1.81835   1.84181   1.85934
 Alpha virt. eigenvalues --    1.87124   1.88208   1.90252   1.91350   1.92821
 Alpha virt. eigenvalues --    1.94467   1.95693   1.96552   1.97850   2.00600
 Alpha virt. eigenvalues --    2.01723   2.02893   2.04192   2.04817   2.05510
 Alpha virt. eigenvalues --    2.05886   2.06991   2.07697   2.08868   2.12089
 Alpha virt. eigenvalues --    2.12816   2.13050   2.15829   2.17293   2.18021
 Alpha virt. eigenvalues --    2.20044   2.22671   2.23422   2.24903   2.25402
 Alpha virt. eigenvalues --    2.26553   2.29056   2.30365   2.31933   2.33682
 Alpha virt. eigenvalues --    2.34264   2.36033   2.37716   2.40313   2.42626
 Alpha virt. eigenvalues --    2.43565   2.47201   2.49186   2.51627   2.53690
 Alpha virt. eigenvalues --    2.56295   2.57526   2.58976   2.60208   2.64214
 Alpha virt. eigenvalues --    2.65278   2.66502   2.68983   2.69629   2.70687
 Alpha virt. eigenvalues --    2.71804   2.73198   2.74201   2.77511   2.78051
 Alpha virt. eigenvalues --    2.79810   2.81273   2.82661   2.83911   2.84766
 Alpha virt. eigenvalues --    2.86739   2.87641   2.88674   2.89229   2.92415
 Alpha virt. eigenvalues --    2.94639   2.96548   2.96957   2.98161   2.98953
 Alpha virt. eigenvalues --    3.01081   3.01811   3.03419   3.04445   3.05805
 Alpha virt. eigenvalues --    3.06713   3.07798   3.09521   3.09971   3.10852
 Alpha virt. eigenvalues --    3.12872   3.14024   3.14237   3.16530   3.17820
 Alpha virt. eigenvalues --    3.18330   3.18780   3.20533   3.21254   3.22070
 Alpha virt. eigenvalues --    3.23543   3.23675   3.24957   3.25235   3.26862
 Alpha virt. eigenvalues --    3.28087   3.29450   3.31279   3.31484   3.32350
 Alpha virt. eigenvalues --    3.33540   3.34066   3.35542   3.36951   3.37770
 Alpha virt. eigenvalues --    3.38896   3.39713   3.40911   3.42252   3.42784
 Alpha virt. eigenvalues --    3.43943   3.44383   3.45433   3.47089   3.48060
 Alpha virt. eigenvalues --    3.48367   3.48942   3.49836   3.50643   3.52943
 Alpha virt. eigenvalues --    3.53956   3.54957   3.57790   3.58849   3.60573
 Alpha virt. eigenvalues --    3.61364   3.63601   3.64635   3.66092   3.67453
 Alpha virt. eigenvalues --    3.67793   3.69725   3.70791   3.71483   3.71581
 Alpha virt. eigenvalues --    3.72844   3.74083   3.75025   3.75875   3.77486
 Alpha virt. eigenvalues --    3.78684   3.79485   3.80606   3.81677   3.82879
 Alpha virt. eigenvalues --    3.83365   3.85548   3.86396   3.87133   3.88539
 Alpha virt. eigenvalues --    3.91098   3.92114   3.93984   3.94576   3.97244
 Alpha virt. eigenvalues --    3.98171   3.99306   4.00233   4.01037   4.02080
 Alpha virt. eigenvalues --    4.03735   4.04316   4.05017   4.07062   4.07428
 Alpha virt. eigenvalues --    4.07797   4.08343   4.10475   4.10928   4.11894
 Alpha virt. eigenvalues --    4.12534   4.13413   4.15000   4.16108   4.17342
 Alpha virt. eigenvalues --    4.18077   4.18901   4.20608   4.21952   4.22276
 Alpha virt. eigenvalues --    4.23124   4.24491   4.24885   4.26969   4.27003
 Alpha virt. eigenvalues --    4.27622   4.31100   4.31331   4.32215   4.33534
 Alpha virt. eigenvalues --    4.35911   4.36877   4.37947   4.39139   4.40107
 Alpha virt. eigenvalues --    4.42085   4.43910   4.44163   4.46108   4.48159
 Alpha virt. eigenvalues --    4.48685   4.50937   4.51889   4.53654   4.54757
 Alpha virt. eigenvalues --    4.56131   4.57522   4.59333   4.59544   4.61298
 Alpha virt. eigenvalues --    4.63347   4.65325   4.66430   4.68838   4.71243
 Alpha virt. eigenvalues --    4.73034   4.75219   4.75618   4.80369   4.81268
 Alpha virt. eigenvalues --    4.82963   4.85218   4.86106   4.88550   4.90193
 Alpha virt. eigenvalues --    4.91423   4.93813   4.94158   4.96043   4.97684
 Alpha virt. eigenvalues --    4.98451   4.99656   5.01451   5.03837   5.04880
 Alpha virt. eigenvalues --    5.06777   5.07569   5.09729   5.10506   5.12131
 Alpha virt. eigenvalues --    5.14548   5.15850   5.17920   5.18580   5.20668
 Alpha virt. eigenvalues --    5.21259   5.24831   5.25892   5.28751   5.29311
 Alpha virt. eigenvalues --    5.30542   5.35946   5.37351   5.40625   5.42242
 Alpha virt. eigenvalues --    5.43708   5.49862   5.52573   5.58242   5.60006
 Alpha virt. eigenvalues --    5.60668   5.61819   5.63308   5.65724   5.67365
 Alpha virt. eigenvalues --    5.67900   5.69528   5.70914   5.73276   5.74877
 Alpha virt. eigenvalues --    5.76375   5.78170   5.78456   5.81084   5.81953
 Alpha virt. eigenvalues --    5.84106   5.88857   5.90762   5.91771   5.95319
 Alpha virt. eigenvalues --    5.97643   6.00045   6.02142   6.09188   6.11408
 Alpha virt. eigenvalues --    6.14321   6.14978   6.19503   6.22254   6.50471
 Alpha virt. eigenvalues --    6.53635   6.56133   6.56488   6.57442   6.58736
 Alpha virt. eigenvalues --    6.69269   6.72029   6.74504   6.74996   6.76081
 Alpha virt. eigenvalues --    6.76881   6.77784   6.78487   6.80523   6.81262
 Alpha virt. eigenvalues --    6.83610   6.83756   6.85320   6.87903   6.88949
 Alpha virt. eigenvalues --    6.90082   6.91428   6.97260   7.00974   7.02301
 Alpha virt. eigenvalues --    7.02751   7.03419   7.04854   7.06148   7.16469
 Alpha virt. eigenvalues --    7.17325   7.20488   7.22167   7.24556   7.26482
 Alpha virt. eigenvalues --    7.39867   7.41217   7.43862   7.44989   7.46777
 Alpha virt. eigenvalues --    7.50414   7.55067   7.55313   7.56711   7.61433
 Alpha virt. eigenvalues --    7.62998   7.78602  23.11053  23.17084  23.23422
 Alpha virt. eigenvalues --   23.24217  23.40005  23.44389  44.09349  44.16675
 Alpha virt. eigenvalues --   44.25816  44.30662  44.31578  44.36592
          Condensed to atoms (all electrons):
               1          2          3          4          5          6
     1  C    5.268158   0.200755   0.114254  -0.074290  -0.018917   0.343513
     2  C    0.200755   4.913509  -0.029766   0.338396   0.401003   0.029260
     3  C    0.114254  -0.029766   5.170278   0.023533  -0.014973  -0.045492
     4  C   -0.074290   0.338396   0.023533   4.764907  -0.033569  -0.013778
     5  H   -0.018917   0.401003  -0.014973  -0.033569   0.559773   0.007471
     6  H    0.343513   0.029260  -0.045492  -0.013778   0.007471   0.635810
     7  C    0.003005  -0.002481   0.257803  -0.000559  -0.000501  -0.009023
     8  H   -0.060772   0.016229   0.394857  -0.005360   0.006111   0.008331
     9  C    0.049653  -0.026566  -0.019940   0.295511   0.007781  -0.000766
    10  H   -0.017459  -0.002551   0.004321   0.400347  -0.003670  -0.000010
    11  H   -0.007452   0.001621  -0.047311   0.000008   0.000085   0.002818
    12  H    0.012817  -0.000080  -0.061525  -0.000058   0.000041   0.000176
    13  H    0.007234  -0.007901  -0.007792  -0.041633  -0.000678  -0.010169
    14  H   -0.001896   0.005400   0.000647  -0.011450  -0.000192   0.000903
    15  O    0.006919   0.005872  -0.081943  -0.000267   0.000028   0.015163
    16  H    0.007236   0.000042   0.002024  -0.000098  -0.000022  -0.003108
    17  O   -0.040432  -0.008934   0.246277   0.001392   0.000671   0.001576
    18  H    0.003595   0.002382  -0.058252  -0.001375  -0.000083   0.003655
    19  O    0.249231  -0.015324  -0.047497   0.010546   0.006643  -0.045529
    20  H   -0.036651  -0.023263   0.013242   0.004367  -0.001147  -0.002774
    21  O   -0.026111   0.207560   0.007779  -0.036272  -0.028561  -0.000493
    22  H    0.013035  -0.051628   0.001473  -0.002821   0.004788  -0.000014
    23  O    0.011989  -0.039190  -0.001665   0.276653   0.008261   0.000026
    24  H    0.000219  -0.015456  -0.000231  -0.047485  -0.003395  -0.000133
    25  O   -0.013788  -0.003173   0.002947  -0.046098  -0.000627   0.011631
    26  H    0.001547  -0.001244  -0.000113   0.004285   0.000089  -0.000160
               7          8          9         10         11         12
     1  C    0.003005  -0.060772   0.049653  -0.017459  -0.007452   0.012817
     2  C   -0.002481   0.016229  -0.026566  -0.002551   0.001621  -0.000080
     3  C    0.257803   0.394857  -0.019940   0.004321  -0.047311  -0.061525
     4  C   -0.000559  -0.005360   0.295511   0.400347   0.000008  -0.000058
     5  H   -0.000501   0.006111   0.007781  -0.003670   0.000085   0.000041
     6  H   -0.009023   0.008331  -0.000766  -0.000010   0.002818   0.000176
     7  C    4.723582  -0.017751   0.000530  -0.000114   0.444360   0.433578
     8  H   -0.017751   0.599368   0.000003  -0.001616   0.000440  -0.002011
     9  C    0.000530   0.000003   4.832350  -0.028403   0.000046   0.000008
    10  H   -0.000114  -0.001616  -0.028403   0.568217  -0.000025   0.000008
    11  H    0.444360   0.000440   0.000046  -0.000025   0.570670  -0.023429
    12  H    0.433578  -0.002011   0.000008   0.000008  -0.023429   0.564390
    13  H   -0.000762   0.000210   0.432774   0.001741  -0.000030  -0.000017
    14  H   -0.000001  -0.000002   0.407828  -0.002962  -0.000000  -0.000000
    15  O    0.241491   0.004310  -0.000253  -0.000048  -0.034466  -0.031724
    16  H   -0.035688  -0.000220  -0.000016  -0.000001  -0.014350   0.007573
    17  O   -0.026945  -0.027810  -0.015898   0.006236   0.003696   0.001360
    18  H   -0.007237   0.007280   0.000114  -0.000561   0.001819  -0.001020
    19  O    0.004692   0.006898  -0.001548  -0.000166   0.004179   0.000135
    20  H   -0.001696  -0.000625  -0.000499  -0.000016   0.000095   0.000004
    21  O   -0.000312   0.000159  -0.004664   0.003099  -0.000014   0.000009
    22  H   -0.000047  -0.000012  -0.005813   0.000149  -0.000008   0.000000
    23  O    0.000024   0.000023  -0.044299  -0.023155  -0.000000   0.000000
    24  H    0.000005  -0.000029  -0.003700   0.008295   0.000000  -0.000000
    25  O    0.000027   0.000014   0.223225   0.002464  -0.000002   0.000000
    26  H   -0.000000   0.000004  -0.016886  -0.000489  -0.000000  -0.000000
              13         14         15         16         17         18
     1  C    0.007234  -0.001896   0.006919   0.007236  -0.040432   0.003595
     2  C   -0.007901   0.005400   0.005872   0.000042  -0.008934   0.002382
     3  C   -0.007792   0.000647  -0.081943   0.002024   0.246277  -0.058252
     4  C   -0.041633  -0.011450  -0.000267  -0.000098   0.001392  -0.001375
     5  H   -0.000678  -0.000192   0.000028  -0.000022   0.000671  -0.000083
     6  H   -0.010169   0.000903   0.015163  -0.003108   0.001576   0.003655
     7  C   -0.000762  -0.000001   0.241491  -0.035688  -0.026945  -0.007237
     8  H    0.000210  -0.000002   0.004310  -0.000220  -0.027810   0.007280
     9  C    0.432774   0.407828  -0.000253  -0.000016  -0.015898   0.000114
    10  H    0.001741  -0.002962  -0.000048  -0.000001   0.006236  -0.000561
    11  H   -0.000030  -0.000000  -0.034466  -0.014350   0.003696   0.001819
    12  H   -0.000017  -0.000000  -0.031724   0.007573   0.001360  -0.001020
    13  H    0.582770  -0.024653   0.000053   0.000050   0.019446   0.000803
    14  H   -0.024653   0.555538  -0.000004  -0.000001   0.000368  -0.000051
    15  O    0.000053  -0.000004   7.925668   0.319443  -0.009795   0.025223
    16  H    0.000050  -0.000001   0.319443   0.510457   0.000430  -0.001801
    17  O    0.019446   0.000368  -0.009795   0.000430   7.914071   0.326446
    18  H    0.000803  -0.000051   0.025223  -0.001801   0.326446   0.496822
    19  O    0.000172   0.000012  -0.003768   0.005919   0.002933  -0.000071
    20  H   -0.000030   0.000005   0.000006  -0.000159  -0.000378   0.000036
    21  O    0.000474  -0.000669   0.000004   0.000010  -0.000123   0.000019
    22  H    0.000511   0.000704  -0.000018   0.000008   0.000006  -0.000018
    23  O    0.005689   0.004363   0.000000   0.000000   0.000094  -0.000003
    24  H    0.000437  -0.001985  -0.000000   0.000000  -0.000027   0.000002
    25  O   -0.049312  -0.031638  -0.000003  -0.000001   0.000274  -0.000080
    26  H   -0.003620  -0.010600  -0.000000   0.000000   0.000045  -0.000000
              19         20         21         22         23         24
     1  C    0.249231  -0.036651  -0.026111   0.013035   0.011989   0.000219
     2  C   -0.015324  -0.023263   0.207560  -0.051628  -0.039190  -0.015456
     3  C   -0.047497   0.013242   0.007779   0.001473  -0.001665  -0.000231
     4  C    0.010546   0.004367  -0.036272  -0.002821   0.276653  -0.047485
     5  H    0.006643  -0.001147  -0.028561   0.004788   0.008261  -0.003395
     6  H   -0.045529  -0.002774  -0.000493  -0.000014   0.000026  -0.000133
     7  C    0.004692  -0.001696  -0.000312  -0.000047   0.000024   0.000005
     8  H    0.006898  -0.000625   0.000159  -0.000012   0.000023  -0.000029
     9  C   -0.001548  -0.000499  -0.004664  -0.005813  -0.044299  -0.003700
    10  H   -0.000166  -0.000016   0.003099   0.000149  -0.023155   0.008295
    11  H    0.004179   0.000095  -0.000014  -0.000008  -0.000000   0.000000
    12  H    0.000135   0.000004   0.000009   0.000000   0.000000  -0.000000
    13  H    0.000172  -0.000030   0.000474   0.000511   0.005689   0.000437
    14  H    0.000012   0.000005  -0.000669   0.000704   0.004363  -0.001985
    15  O   -0.003768   0.000006   0.000004  -0.000018   0.000000  -0.000000
    16  H    0.005919  -0.000159   0.000010   0.000008   0.000000   0.000000
    17  O    0.002933  -0.000378  -0.000123   0.000006   0.000094  -0.000027
    18  H   -0.000071   0.000036   0.000019  -0.000018  -0.000003   0.000002
    19  O    7.905758   0.331082  -0.022647   0.000104  -0.000153  -0.000003
    20  H    0.331082   0.475960   0.033112  -0.000085  -0.000063  -0.000104
    21  O   -0.022647   0.033112   7.981453   0.335169  -0.009524   0.026398
    22  H    0.000104  -0.000085   0.335169   0.442545   0.000587  -0.000416
    23  O   -0.000153  -0.000063  -0.009524   0.000587   7.856529   0.327801
    24  H   -0.000003  -0.000104   0.026398  -0.000416   0.327801   0.510677
    25  O    0.000007   0.000037  -0.027029   0.046705  -0.000230   0.007898
    26  H   -0.000005  -0.000008   0.001583  -0.002719  -0.000654  -0.000311
              25         26
     1  C   -0.013788   0.001547
     2  C   -0.003173  -0.001244
     3  C    0.002947  -0.000113
     4  C   -0.046098   0.004285
     5  H   -0.000627   0.000089
     6  H    0.011631  -0.000160
     7  C    0.000027  -0.000000
     8  H    0.000014   0.000004
     9  C    0.223225  -0.016886
    10  H    0.002464  -0.000489
    11  H   -0.000002  -0.000000
    12  H    0.000000  -0.000000
    13  H   -0.049312  -0.003620
    14  H   -0.031638  -0.010600
    15  O   -0.000003  -0.000000
    16  H   -0.000001   0.000000
    17  O    0.000274   0.000045
    18  H   -0.000080  -0.000000
    19  O    0.000007  -0.000005
    20  H    0.000037  -0.000008
    21  O   -0.027029   0.001583
    22  H    0.046705  -0.002719
    23  O   -0.000230  -0.000654
    24  H    0.007898  -0.000311
    25  O    7.912970   0.308293
    26  H    0.308293   0.548464
 Mulliken charges:
               1
     1  C    0.004607
     2  C    0.105530
     3  C    0.177069
     4  C    0.195168
     5  H    0.103590
     6  H    0.071117
     7  C   -0.005977
     8  H    0.071971
     9  C   -0.080572
    10  H    0.086367
    11  H    0.097249
    12  H    0.099766
    13  H    0.094234
    14  H    0.110333
    15  O   -0.381890
    16  H    0.202269
    17  O   -0.394977
    18  H    0.202355
    19  O   -0.391599
    20  H    0.209553
    21  O   -0.440406
    22  H    0.217815
    23  O   -0.373103
    24  H    0.191542
    25  O   -0.344510
    26  H    0.172498
 Sum of Mulliken charges =  -0.00000
 Mulliken charges with hydrogens summed into heavy atoms:
               1
     1  C    0.075724
     2  C    0.209120
     3  C    0.249040
     4  C    0.281535
     7  C    0.191038
     9  C    0.123995
    15  O   -0.179621
    17  O   -0.192622
    19  O   -0.182046
    21  O   -0.222591
    23  O   -0.181560
    25  O   -0.172012
 Electronic spatial extent (au):  <R**2>=           2357.2484
 Charge=              0.0000 electrons
 Dipole moment (field-independent basis, Debye):
    X=             -0.0080    Y=             -0.9419    Z=              2.4246  Tot=              2.6012
 Quadrupole moment (field-independent basis, Debye-Ang):
   XX=            -75.2019   YY=            -73.9583   ZZ=            -67.9659
   XY=              3.9726   XZ=            -10.3605   YZ=             -3.1996
 Traceless Quadrupole moment (field-independent basis, Debye-Ang):
   XX=             -2.8265   YY=             -1.5829   ZZ=              4.4094
   XY=              3.9726   XZ=            -10.3605   YZ=             -3.1996
 Octapole moment (field-independent basis, Debye-Ang**2):
  XXX=             -7.7372  YYY=             -4.0195  ZZZ=             25.0806  XYY=             -8.5526
  XXY=              3.0796  XXZ=             19.3388  XZZ=             -3.9617  YZZ=             -0.3019
  YYZ=             12.9121  XYZ=             14.3135
 Hexadecapole moment (field-independent basis, Debye-Ang**3):
 XXXX=          -1917.5181 YYYY=           -568.0870 ZZZZ=           -343.7012 XXXY=             15.5414
 XXXZ=           -122.3347 YYYX=              0.7419 YYYZ=             -8.1468 ZZZX=            -46.6504
 ZZZY=            -13.0463 XXYY=           -399.0776 XXZZ=           -359.6886 YYZZ=           -150.8306
 XXYZ=            -10.8980 YYXZ=             -2.4758 ZZXY=             22.1231
 N-N= 8.388815748238D+02 E-N=-3.295102089574D+03  KE= 6.850495705361D+02
   1 Symmetry operations used in ECPInt.
 ECPInt:  NShTT=   23436 NPrTT=   62434 LenC2=   22066 LenP2D=   45927.
 LDataN:  DoStor=T MaxTD1= 7 Len=  274
 Calling FoFJK, ICntrl=      2127 FMM=F ISym2X=0 I1Cent= 0 IOpClX= 0 NMat=1 NMatS=1 NMatT=0.
 ***** Axes restored to original set *****
 -------------------------------------------------------------------
 Center     Atomic                   Forces (Hartrees/Bohr)
 Number     Number              X              Y              Z
 -------------------------------------------------------------------
      1        6           0.002449565    0.007849293   -0.012802356
      2        6          -0.003406838   -0.010347293   -0.010324789
      3        6          -0.008271376   -0.005270527    0.003499221
      4        6           0.020723661   -0.007235004   -0.010771245
      5        1          -0.002717980   -0.003170663    0.003192168
      6        1           0.001402814   -0.001085303    0.007897261
      7        6          -0.001286159   -0.004482023   -0.005068260
      8        1           0.000580437   -0.002582248   -0.000041920
      9        6          -0.007111251   -0.000506948    0.002222874
     10        1          -0.001968631   -0.003234734   -0.003945484
     11        1           0.005204468   -0.000437152    0.002445620
     12        1           0.003292398   -0.001799297   -0.001579781
     13        1           0.000659808    0.004663590    0.003056913
     14        1          -0.000591411    0.007371903    0.002078643
     15        8           0.002229540    0.004191625   -0.017663410
     16        1          -0.001275078   -0.000872451    0.018719499
     17        8          -0.015895804    0.000449249   -0.006674198
     18        1           0.017600705    0.007447320   -0.001604861
     19        8           0.014057794   -0.004264061    0.001512960
     20        1          -0.012618506    0.003219721    0.013096608
     21        8          -0.001387018   -0.008373099    0.014734868
     22        1          -0.001560092    0.016755118   -0.004549664
     23        8          -0.011056253   -0.001063816   -0.011796020
     24        1          -0.001099981    0.004877895    0.016279558
     25        8           0.000901927   -0.022062032    0.007171068
     26        1           0.001143259    0.019960938   -0.009085273
 -------------------------------------------------------------------
 Cartesian Forces:  Max     0.022062032 RMS     0.008484759

 GradGradGradGradGradGradGradGradGradGradGradGradGradGradGradGradGradGrad
 Berny optimization.
 FormGI is forming the generalized inverse of G from B-inverse, IUseBI=4.
 Internal  Forces:  Max     0.021154533 RMS     0.005537461
 Search for a local minimum.
 Step number   1 out of a maximum of  140
 All quantities printed in internal units (Hartrees-Bohrs-Radians)
 Mixed Optimization -- RFO/linear search
 Second derivative matrix not updated -- first step.
 ITU=  0
     Eigenvalues ---    0.00230   0.00230   0.00253   0.00296   0.00304
     Eigenvalues ---    0.01003   0.01136   0.01177   0.01214   0.01241
     Eigenvalues ---    0.01295   0.03582   0.03844   0.04003   0.04111
     Eigenvalues ---    0.04562   0.04704   0.04802   0.04835   0.04992
     Eigenvalues ---    0.05013   0.05591   0.05644   0.07480   0.07564
     Eigenvalues ---    0.07790   0.08021   0.11478   0.11525   0.13752
     Eigenvalues ---    0.13785   0.16000   0.16000   0.16000   0.16000
     Eigenvalues ---    0.16000   0.16000   0.16811   0.16836   0.16903
     Eigenvalues ---    0.17581   0.19391   0.19618   0.19706   0.19755
     Eigenvalues ---    0.21996   0.22046   0.28262   0.28325   0.28628
     Eigenvalues ---    0.28921   0.28977   0.34029   0.34085   0.34165
     Eigenvalues ---    0.34230   0.34260   0.34323   0.34395   0.34508
     Eigenvalues ---    0.37977   0.39314   0.39738   0.40124   0.40410
     Eigenvalues ---    0.40995   0.50372   0.51055   0.51235   0.51852
     Eigenvalues ---    0.52022   0.52143
 RFO step:  Lambda=-1.63417779D-02 EMin= 2.30000000D-03
 Linear search not attempted -- first point.
 Iteration  1 RMS(Cart)=  0.06416635 RMS(Int)=  0.00232074
 Iteration  2 RMS(Cart)=  0.00302960 RMS(Int)=  0.00051878
 Iteration  3 RMS(Cart)=  0.00000369 RMS(Int)=  0.00051877
 Iteration  4 RMS(Cart)=  0.00000000 RMS(Int)=  0.00051877
 Variable       Old X    -DE/DX   Delta X   Delta X   Delta X     New X
                                 (Linear)    (Quad)   (Total)
    R1        2.91434  -0.00746   0.00000  -0.02492  -0.02492   2.88942
    R2        2.90785  -0.00878   0.00000  -0.02902  -0.02902   2.87883
    R3        2.07187  -0.00025   0.00000  -0.00069  -0.00069   2.07118
    R4        2.71911  -0.01289   0.00000  -0.03116  -0.03116   2.68795
    R5        2.91569  -0.00423   0.00000  -0.01414  -0.01414   2.90156
    R6        2.07281  -0.00389   0.00000  -0.01091  -0.01091   2.06189
    R7        2.74399  -0.01292   0.00000  -0.03261  -0.03261   2.71138
    R8        2.90051  -0.00837   0.00000  -0.02735  -0.02735   2.87316
    R9        2.07053  -0.00185   0.00000  -0.00518  -0.00518   2.06535
   R10        2.71385  -0.01124   0.00000  -0.02692  -0.02692   2.68693
   R11        2.90168  -0.00766   0.00000  -0.02506  -0.02506   2.87661
   R12        2.06669  -0.00455   0.00000  -0.01264  -0.01264   2.05405
   R13        2.72496  -0.01246   0.00000  -0.03042  -0.03042   2.69455
   R14        2.06789  -0.00289   0.00000  -0.00802  -0.00802   2.05987
   R15        2.06893  -0.00318   0.00000  -0.00887  -0.00887   2.06007
   R16        2.70223  -0.00345   0.00000  -0.00808  -0.00808   2.69414
   R17        2.06481  -0.00026   0.00000  -0.00071  -0.00071   2.06409
   R18        2.06944  -0.00263   0.00000  -0.00734  -0.00734   2.06210
   R19        2.71001   0.00278   0.00000   0.00662   0.00662   2.71662
   R20        1.84579  -0.01848   0.00000  -0.03445  -0.03445   1.81134
   R21        1.85340  -0.01898   0.00000  -0.03590  -0.03590   1.81749
   R22        1.85515  -0.01844   0.00000  -0.03500  -0.03500   1.82015
   R23        1.86191  -0.01703   0.00000  -0.03274  -0.03274   1.82917
   R24        1.84741  -0.01693   0.00000  -0.03165  -0.03165   1.81576
   R25        1.84463  -0.02115   0.00000  -0.03934  -0.03934   1.80529
    A1        1.97396   0.00378   0.00000   0.00758   0.00764   1.98159
    A2        1.90545  -0.00150   0.00000   0.00006  -0.00035   1.90510
    A3        1.87989   0.00229   0.00000   0.01322   0.01299   1.89288
    A4        1.92619  -0.00197   0.00000  -0.02437  -0.02411   1.90208
    A5        1.92354  -0.00683   0.00000  -0.04260  -0.04251   1.88103
    A6        1.85015   0.00441   0.00000   0.04998   0.04950   1.89965
    A7        2.03509  -0.00158   0.00000  -0.00097  -0.00205   2.03303
    A8        1.90858  -0.00003   0.00000  -0.02133  -0.02173   1.88685
    A9        1.86870   0.00029   0.00000   0.02001   0.01940   1.88810
   A10        1.90210  -0.00165   0.00000  -0.03001  -0.03023   1.87187
   A11        1.91794   0.00413   0.00000   0.03985   0.03955   1.95749
   A12        1.81908  -0.00107   0.00000  -0.00736  -0.00676   1.81232
   A13        1.97629  -0.00552   0.00000  -0.02356  -0.02372   1.95257
   A14        1.92190   0.00120   0.00000  -0.00609  -0.00624   1.91566
   A15        1.89997   0.00062   0.00000   0.00738   0.00759   1.90755
   A16        1.89168   0.00092   0.00000   0.00000  -0.00024   1.89144
   A17        1.88737   0.00492   0.00000   0.03281   0.03289   1.92026
   A18        1.88427  -0.00198   0.00000  -0.00951  -0.00957   1.87470
   A19        1.99727   0.00326   0.00000   0.02715   0.02478   2.02205
   A20        1.93719  -0.00189   0.00000  -0.04096  -0.04104   1.89616
   A21        1.87634  -0.00092   0.00000   0.02616   0.02361   1.89995
   A22        1.91333  -0.00446   0.00000  -0.05507  -0.05478   1.85855
   A23        1.87842   0.00459   0.00000   0.05605   0.05442   1.93284
   A24        1.85448  -0.00051   0.00000  -0.01039  -0.00899   1.84549
   A25        1.96992  -0.00581   0.00000  -0.03594  -0.03631   1.93361
   A26        1.91667  -0.00218   0.00000  -0.01950  -0.01977   1.89690
   A27        1.90949   0.00421   0.00000   0.01993   0.02010   1.92959
   A28        1.89017   0.00238   0.00000   0.00828   0.00753   1.89770
   A29        1.91280   0.00272   0.00000   0.03156   0.03183   1.94463
   A30        1.86160  -0.00111   0.00000  -0.00268  -0.00254   1.85906
   A31        1.94968  -0.00347   0.00000  -0.02826  -0.02871   1.92097
   A32        1.92261  -0.00568   0.00000  -0.04847  -0.04893   1.87368
   A33        1.92539  -0.00206   0.00000  -0.00501  -0.00477   1.92062
   A34        1.90389   0.00198   0.00000   0.00471   0.00253   1.90642
   A35        1.88123   0.00488   0.00000   0.04459   0.04444   1.92567
   A36        1.87919   0.00492   0.00000   0.03690   0.03654   1.91573
   A37        1.84481   0.00549   0.00000   0.03112   0.03112   1.87593
   A38        1.83976   0.00087   0.00000   0.00496   0.00496   1.84472
   A39        1.83243  -0.00101   0.00000  -0.00571  -0.00571   1.82671
   A40        1.84660   0.00408   0.00000   0.02316   0.02316   1.86976
   A41        1.84447   0.00250   0.00000   0.01416   0.01416   1.85862
   A42        1.85016   0.01088   0.00000   0.06168   0.06168   1.91184
    D1        1.06885  -0.00080   0.00000  -0.00069  -0.00056   1.06829
    D2       -1.09811   0.00267   0.00000   0.05869   0.05866  -1.03945
    D3       -3.05903   0.00378   0.00000   0.06728   0.06734  -2.99169
    D4       -1.08290   0.00023   0.00000   0.02545   0.02549  -1.05741
    D5        3.03332   0.00370   0.00000   0.08484   0.08472   3.11804
    D6        1.07240   0.00481   0.00000   0.09342   0.09340   1.16580
    D7       -3.08438  -0.00539   0.00000  -0.04034  -0.04029  -3.12467
    D8        1.03184  -0.00192   0.00000   0.01904   0.01894   1.05078
    D9       -0.92908  -0.00081   0.00000   0.02763   0.02761  -0.90147
   D10        2.85319  -0.00152   0.00000  -0.03499  -0.03486   2.81833
   D11        0.73230   0.00023   0.00000  -0.01423  -0.01424   0.71805
   D12       -1.33023   0.00157   0.00000  -0.00354  -0.00350  -1.33373
   D13       -1.28974  -0.00225   0.00000  -0.04764  -0.04774  -1.33748
   D14        2.87255  -0.00049   0.00000  -0.02688  -0.02712   2.84542
   D15        0.81003   0.00084   0.00000  -0.01619  -0.01638   0.79364
   D16        0.74788  -0.00215   0.00000  -0.02670  -0.02650   0.72138
   D17       -1.37302  -0.00039   0.00000  -0.00594  -0.00588  -1.37890
   D18        2.84764   0.00094   0.00000   0.00475   0.00486   2.85251
   D19        0.61767   0.00045   0.00000   0.03296   0.03339   0.65106
   D20        2.77854   0.00232   0.00000   0.02415   0.02457   2.80311
   D21       -1.42021  -0.00113   0.00000   0.00141   0.00056  -1.41965
   D22        1.01687  -0.00261   0.00000  -0.04207  -0.04216   0.97471
   D23       -1.15981   0.00240   0.00000   0.04448   0.04439  -1.11542
   D24        3.10211   0.00455   0.00000   0.06374   0.06389  -3.11718
   D25       -3.09604  -0.00524   0.00000  -0.09689  -0.09674   3.09040
   D26        1.01046  -0.00023   0.00000  -0.01034  -0.01020   1.00027
   D27       -1.01080   0.00192   0.00000   0.00891   0.00931  -1.00149
   D28       -1.11285  -0.00521   0.00000  -0.10075  -0.10105  -1.21390
   D29        2.99365  -0.00020   0.00000  -0.01420  -0.01450   2.97915
   D30        0.97239   0.00195   0.00000   0.00506   0.00500   0.97739
   D31       -1.44406   0.00135   0.00000   0.04918   0.04867  -1.39539
   D32        0.78181   0.00232   0.00000   0.08833   0.08878   0.87059
   D33        2.81777   0.00175   0.00000   0.06811   0.06818   2.88595
   D34       -1.07516  -0.00059   0.00000   0.01179   0.01201  -1.06315
   D35        3.09717   0.00181   0.00000   0.03921   0.03889   3.13606
   D36        1.05953   0.00196   0.00000   0.04210   0.04195   1.10148
   D37        1.06263  -0.00208   0.00000  -0.01171  -0.01142   1.05121
   D38       -1.04823   0.00033   0.00000   0.01571   0.01546  -1.03278
   D39       -3.08587   0.00048   0.00000   0.01860   0.01852  -3.06735
   D40        3.10111  -0.00128   0.00000  -0.00530  -0.00490   3.09621
   D41        0.99025   0.00113   0.00000   0.02211   0.02198   1.01222
   D42       -1.04739   0.00128   0.00000   0.02501   0.02504  -1.02235
   D43       -1.63186   0.00293   0.00000   0.05492   0.05476  -1.57710
   D44        0.52196  -0.00037   0.00000   0.05116   0.05136   0.57332
   D45        2.56523   0.00227   0.00000   0.06353   0.06349   2.62872
   D46       -1.24177   0.00094   0.00000   0.05149   0.05235  -1.18942
   D47        2.92255   0.00468   0.00000   0.09801   0.09806   3.02061
   D48        0.85032   0.00343   0.00000   0.08580   0.08614   0.93646
   D49        0.94749  -0.00272   0.00000  -0.02726  -0.02644   0.92105
   D50       -1.17137   0.00102   0.00000   0.01925   0.01928  -1.15210
   D51        3.03958  -0.00023   0.00000   0.00705   0.00735   3.04693
   D52        2.95734  -0.00314   0.00000  -0.03764  -0.03800   2.91934
   D53        0.83848   0.00060   0.00000   0.00887   0.00771   0.84619
   D54       -1.23376  -0.00065   0.00000  -0.00333  -0.00421  -1.23797
   D55       -0.80958  -0.00226   0.00000  -0.01327  -0.01401  -0.82359
   D56        1.34998   0.00384   0.00000   0.06809   0.06871   1.41869
   D57       -2.88474   0.00067   0.00000   0.02659   0.02672  -2.85802
   D58       -1.49983   0.00147   0.00000   0.03009   0.02988  -1.46995
   D59        0.66868  -0.00117   0.00000   0.01948   0.01966   0.68833
   D60        2.71120   0.00244   0.00000   0.04411   0.04414   2.75534
   D61        2.91455  -0.00072   0.00000  -0.00389  -0.00404   2.91051
   D62       -1.23570  -0.00312   0.00000  -0.01319  -0.01389  -1.24959
   D63        0.81600   0.00437   0.00000   0.03532   0.03617   0.85217
         Item               Value     Threshold  Converged?
 Maximum Force            0.021155     0.000450     NO 
 RMS     Force            0.005537     0.000300     NO 
 Maximum Displacement     0.281728     0.001800     NO 
 RMS     Displacement     0.064116     0.001200     NO 
 Predicted change in Energy=-9.647489D-03
 GradGradGradGradGradGradGradGradGradGradGradGradGradGradGradGradGradGrad

                          Input orientation:                          
 ---------------------------------------------------------------------
 Center     Atomic      Atomic             Coordinates (Angstroms)
 Number     Number       Type             X           Y           Z
 ---------------------------------------------------------------------
      1          6           0       -0.001644   -0.019021    0.004075
      2          6           0        1.527162   -0.023023   -0.020893
      3          6           0       -0.587900    0.609884    1.261680
      4          6           0        2.228253   -0.803604    1.100149
      5          1           0        1.870068    1.010924    0.041429
      6          1           0       -0.365411   -1.049315   -0.082105
      7          6           0       -2.042946    1.007430    1.070756
      8          1           0       -0.018519    1.504119    1.527494
      9          6           0        1.834291   -2.267658    1.236341
     10          1           0        1.994498   -0.331523    2.050926
     11          1           0       -2.141187    1.744728    0.273941
     12          1           0       -2.410284    1.444564    1.999402
     13          1           0        0.800722   -2.347125    1.580542
     14          1           0        2.496074   -2.714996    1.979771
     15          8           0       -2.847064   -0.142419    0.818156
     16          1           0       -2.791484   -0.332292   -0.119723
     17          8           0       -0.471290   -0.305862    2.343113
     18          1           0       -1.282092   -0.823104    2.334618
     19          8           0       -0.468240    0.727838   -1.112938
     20          1           0        0.145591    0.513049   -1.823431
     21          8           0        1.952494   -0.447711   -1.323729
     22          1           0        1.885194   -1.413090   -1.344984
     23          8           0        3.639096   -0.673046    0.940013
     24          1           0        3.825449   -0.844703    0.013158
     25          8           0        1.994122   -2.940200   -0.024119
     26          1           0        1.946948   -3.884943    0.109557
 ---------------------------------------------------------------------
                    Distance matrix (angstroms):
                    1          2          3          4          5
     1  C    0.000000
     2  C    1.529015   0.000000
     3  C    1.523413   2.553243   0.000000
     4  C    2.605646   1.535438   3.155116   0.000000
     5  H    2.136701   1.091108   2.773347   2.131125   0.000000
     6  H    1.096020   2.153800   2.146672   2.860977   3.042567
     7  C    2.521572   3.872880   1.520412   4.639380   4.046135
     8  H    2.154309   2.668107   1.092935   3.249029   2.453241
     9  C    3.153650   2.591014   3.761370   1.522239   3.489728
    10  H    2.876081   2.146162   2.859709   1.086959   2.419861
    11  H    2.785907   4.082726   2.162452   5.125292   4.084446
    12  H    3.453253   4.662497   2.135886   5.232489   4.726850
    13  H    2.923886   2.914406   3.282354   2.156637   3.845630
    14  H    4.172560   3.491156   4.591447   2.121058   4.246356
    15  O    2.962157   4.455571   2.422085   5.125966   4.917809
    16  H    2.810101   4.330833   2.766180   5.187290   4.853892
    17  O    2.402904   3.108429   1.421861   3.013343   3.537461
    18  H    2.778044   3.752395   1.920041   3.721131   4.307957
    19  O    1.422402   2.395408   2.380555   3.809743   2.623049
    20  H    1.909071   2.333506   3.172585   3.823398   2.588321
    21  O    2.401145   1.434799   3.775771   2.465337   1.999517
    22  H    2.706206   1.952868   4.123508   2.543194   2.792529
    23  O    3.815589   2.409593   4.429094   1.425892   2.602435
    24  H    3.915159   2.440992   4.811681   1.932426   2.695861
    25  O    3.537961   2.954316   4.574190   2.425663   3.953615
    26  H    4.330530   3.886858   5.287373   3.248855   4.896945
                    6          7          8          9         10
     6  H    0.000000
     7  C    2.893685   0.000000
     8  H    3.038284   2.133920   0.000000
     9  C    2.839252   5.078050   4.212360   0.000000
    10  H    3.261015   4.365144   2.774130   2.106617   0.000000
    11  H    3.329688   1.090034   2.476894   5.729737   4.957054
    12  H    3.838439   1.090141   2.438602   5.690279   4.749657
    13  H    2.410098   4.427117   3.937772   1.092270   2.389354
    14  H    3.900503   5.940158   4.932410   1.091218   2.436717
    15  O    2.791332   1.425680   3.348867   5.158160   4.999621
    16  H    2.530092   1.942267   3.711477   5.194453   5.255220
    17  O    2.538822   2.411168   2.036238   3.223243   2.483171
    18  H    2.594615   2.350979   2.768399   3.606216   3.325383
    19  O    2.057052   2.706730   2.788681   4.449018   4.146970
    20  H    2.394644   3.662025   3.498264   4.466122   4.375202
    21  O    2.697451   4.880014   3.977940   3.143269   3.376916
    22  H    2.606227   5.208167   4.515016   2.719580   3.565661
    23  O    4.149986   5.926778   4.296898   2.426504   2.013820
    24  H    4.196933   6.243954   4.752501   2.735998   2.787155
    25  O    3.024270   5.751561   5.119590   1.437574   3.333318
    26  H    3.663949   6.385802   5.908942   1.974321   4.049440
                   11         12         13         14         15
    11  H    0.000000
    12  H    1.771928   0.000000
    13  H    5.206274   4.986272   0.000000
    14  H    6.656064   6.432315   1.780150   0.000000
    15  O    2.087044   2.025990   4.329931   6.042900   0.000000
    16  H    2.211757   2.791635   4.455827   6.167935   0.958519
    17  O    3.357819   2.634735   2.523150   3.839427   2.827811
    18  H    3.402675   2.554898   2.688751   4.240249   2.283009
    19  O    2.399218   3.737899   4.280245   5.495918   3.185165
    20  H    3.338466   4.691937   4.494087   5.514471   4.045195
    21  O    4.910964   5.801529   3.656384   4.043411   5.264659
    22  H    5.366980   6.148353   3.256870   3.622448   5.356123
    23  O    6.300869   6.496274   3.356961   2.560695   6.508970
    24  H    6.509524   6.933273   3.723296   3.022052   6.757489
    25  O    6.256051   6.536022   2.085876   2.078039   5.654564
    26  H    6.959387   7.138672   2.417130   2.273327   6.123002
                   16         17         18         19         20
    16  H    0.000000
    17  O    3.383720   0.000000
    18  H    2.922833   0.961776   0.000000
    19  O    2.740039   3.607331   3.866965   0.000000
    20  H    3.499090   4.290833   4.594884   0.963184   0.000000
    21  O    4.895741   4.397793   4.897650   2.699316   2.106575
    22  H    4.953858   4.514536   4.890732   3.189996   2.639156
    23  O    6.526217   4.358760   5.117180   4.800760   4.609557
    24  H    6.638073   4.917418   5.610402   4.709219   4.331039
    25  O    5.450903   4.315297   4.558434   4.550083   4.310396
    26  H    5.926772   4.862764   4.975184   5.348399   5.130659
                   21         22         23         24         25
    21  O    0.000000
    22  H    0.967956   0.000000
    23  O    2.831948   2.974063   0.000000
    24  H    2.335129   2.435611   0.960861   0.000000
    25  O    2.811267   2.022032   2.962343   2.783209   0.000000
    26  H    3.724097   2.868721   3.724151   3.575068   0.955319
                   26
    26  H    0.000000
 Stoichiometry    C6H14O6
 Framework group  C1[X(C6H14O6)]
 Deg. of freedom    72
 Full point group                 C1      NOp   1
 Largest Abelian subgroup         C1      NOp   1
 Largest concise Abelian subgroup C1      NOp   1
                         Standard orientation:                         
 ---------------------------------------------------------------------
 Center     Atomic      Atomic             Coordinates (Angstroms)
 Number     Number       Type             X           Y           Z
 ---------------------------------------------------------------------
      1          6           0        0.640955    0.590696    0.091315
      2          6           0       -0.751482    0.780073   -0.511298
      3          6           0        1.550834   -0.298299   -0.746894
      4          6           0       -1.598067   -0.488212   -0.691071
      5          1           0       -0.635689    1.234163   -1.496646
      6          1           0        0.543294    0.157034    1.093144
      7          6           0        3.015784   -0.109488   -0.386441
      8          1           0        1.423660   -0.062551   -1.806496
      9          6           0       -1.823562   -1.319293    0.564184
     10          1           0       -1.101787   -1.138680   -1.406667
     11          1           0        3.328517    0.919408   -0.564609
     12          1           0        3.617008   -0.771115   -1.010290
     13          1           0       -0.884098   -1.773868    0.886401
     14          1           0       -2.535109   -2.106547    0.309843
     15          8           0        3.253282   -0.499369    0.964170
     16          1           0        3.035018    0.248601    1.522434
     17          8           0        1.176170   -1.657867   -0.565537
     18          1           0        1.700980   -1.975792    0.175078
     19          8           0        1.261231    1.865999    0.201254
     20          1           0        0.547764    2.463549    0.449491
     21          8           0       -1.436388    1.784279    0.251017
     22          1           0       -1.770583    1.355659    1.051976
     23          8           0       -2.841594   -0.131183   -1.290519
     24          1           0       -3.170135    0.629822   -0.804530
     25          8           0       -2.364232   -0.494842    1.610403
     26          1           0       -2.693358   -1.048669    2.315801
 ---------------------------------------------------------------------
 Rotational constants (GHZ):           1.4346490           0.5684231           0.5166871
 Standard basis: def2TZVPP (5D, 7F)
 There are   642 symmetry adapted cartesian basis functions of A   symmetry.
 There are   568 symmetry adapted basis functions of A   symmetry.
   568 basis functions,   850 primitive gaussians,   642 cartesian basis functions
    49 alpha electrons       49 beta electrons
       nuclear repulsion energy       841.6645191425 Hartrees.
 NAtoms=   26 NActive=   26 NUniq=   26 SFac= 1.00D+00 NAtFMM=   60 NAOKFM=F Big=F
 Integral buffers will be    131072 words long.
 Raffenetti 2 integral format.
 Two-electron integral symmetry is turned on.
 Nuclear repulsion after empirical dispersion term =      841.6449551379 Hartrees.
 One-electron integrals computed using PRISM.
   1 Symmetry operations used in ECPInt.
 ECPInt:  NShTT=   23436 NPrTT=   62434 LenC2=   22096 LenP2D=   46040.
 LDataN:  DoStor=T MaxTD1= 6 Len=  172
 NBasis=   568 RedAO= T EigKep=  3.90D-05  NBF=   568
[...]
 ,0.00213477,0.00134676,-0.00102246,0.00002980,-0.00067348,0.00673535,-
 0.00022627,0.00049672,-0.00029501,0.35178803,0.04151731,-0.11367300,0.
 04667086,0.00615132,-0.00291180,0.00514513,-0.00437530,0.00702361,-0.0
 0303415,-0.00041385,0.00164320,-0.00100072,0.00169512,0.00184743,-0.00
 055690,0.01669099,-0.01548410,0.03782573,0.00115080,-0.00189457,-0.000
 07671,-0.00006096,0.00085043,0.00143599,-0.00110840,-0.00002100,0.0001
 4294,0.00010055,-0.00006858,0.00025773,0.00021964,0.00088447,-0.001758
 36,-0.00016066,0.00082716,-0.00059603,0.00045204,0.00025390,-0.0005615
 3,0.00042091,0.00009402,-0.00010159,-0.00045478,0.00146241,-0.00000802
 ,0.00050272,-0.00131466,0.00007323,0.00072662,0.00270618,-0.00240115,0
 .00070206,-0.00050428,-0.00102174,-0.14643862,0.15932537,-0.05214597,0
 .06779744,-0.17447583,-0.01205829,0.00952793,-0.02144109,-0.01282825,0
 .02117115,-0.03002113,0.00012728,-0.00100553,0.00390196,0.00099089,-0.
 00080475,0.00047331,-0.00532996,0.01649807,-0.01248128,-0.00072397,-0.
 00016170,-0.00052135,-0.00042436,-0.00157200,0.00030190,0.00060911,-0.
 00073391,-0.00141904,0.00048674,-0.00021437,0.00048639,0.00157954,-0.0
 0016421,-0.00223058,-0.00048345,0.00050255,-0.00014478,-0.00013190,-0.
 00046448,0.00041354,-0.00037321,0.00027360,0.00018483,0.00334304,0.000
 79759,-0.00014644,-0.00046160,-0.00048992,-0.00207173,0.00378600,-0.00
 110009,-0.01111118,-0.00140639,-0.00044877,0.00012379,-0.17258717,-0.0
 2419683,0.54193471,0.01153504,-0.00448834,-0.01235800,-0.00031281,-0.0
 0031959,-0.00896041,-0.00223229,0.00182859,-0.00205019,-0.00000486,0.0
 0054644,0.00077588,-0.00025481,-0.00007268,0.00013273,-0.00032453,0.00
 107350,-0.00038296,-0.00034544,0.00028754,-0.00009274,0.00006545,-0.00
 042852,-0.00007289,0.00043308,0.00004482,-0.00048640,0.00030749,-0.000
 16784,0.00042546,-0.00003417,-0.00011789,0.00019687,-0.00000709,-0.000
 07505,-0.00001792,-0.00012812,-0.00014123,0.00014979,-0.00006420,-0.00
 007304,0.00008758,-0.00005566,-0.00003853,0.00023650,0.00037507,0.0005
 2672,0.00031672,0.00051273,0.00033894,-0.00196784,-0.00010088,-0.00006
 573,0.00001418,-0.22520062,0.07937591,0.24425288,0.21574873,-0.0113910
 8,0.00323712,0.01826913,0.00108337,0.00316876,0.00386177,0.00172624,-0
 .00121265,0.00008426,-0.00004138,-0.00036696,-0.00077054,-0.00038333,-
 0.00056608,-0.00060940,-0.00003000,-0.00106905,0.00158364,0.00031492,-
 0.00085171,-0.00060120,-0.00011115,-0.00008122,0.00013039,0.00006823,0
 .00017739,0.00058013,-0.00014223,0.00009077,-0.00019703,-0.00005107,0.
 00037134,-0.00029338,0.00002442,0.00015306,-0.00013346,0.00000608,0.00
 001498,-0.00002860,-0.00002015,-0.00007187,-0.00007476,-0.00037118,-0.
 00004958,0.00036557,0.00040671,0.00025016,0.00009537,-0.00023529,0.000
 06176,0.00118469,0.00005959,0.00005746,-0.00004584,0.08729913,-0.04310
 040,-0.08398602,-0.07648484,0.04346649,0.01931824,-0.00564201,-0.03660
 709,-0.00030067,-0.00085255,-0.00077302,-0.00225288,0.00447797,-0.0022
 4715,0.00030536,-0.00006013,-0.00155703,-0.00055524,-0.00015200,-0.000
 14837,0.00037938,-0.00031498,0.00044984,-0.00042542,0.00010620,0.00013
 752,0.00001585,-0.00026137,-0.00004373,0.00009676,0.00017182,0.0002814
 0,-0.00004191,0.00008717,-0.00002920,0.00020369,-0.00011975,-0.0000273
 0,-0.00013505,-0.00004271,0.00015699,0.00002209,-0.00001391,-0.0000828
 2,0.00005182,-0.00012991,-0.00000826,-0.00052502,0.00003555,0.00066914
 ,0.00095017,0.00035034,-0.00021650,0.00049014,-0.00008005,-0.00194569,
 -0.00010870,-0.00007202,-0.00015623,0.20399929,-0.05931374,-0.29745973
 ,-0.22439133,0.06322559,0.33882127,-0.01934773,0.01983138,0.03825377,-
 0.07831070,0.00241206,0.04319101,-0.00807415,0.00070041,-0.00640679,-0
 .00262186,-0.00379068,-0.00934247,0.00382151,0.00116264,-0.00262609,0.
 00316652,-0.00033538,-0.00047766,0.00052036,0.00116872,0.00330283,0.00
 013051,0.00018455,0.00009048,-0.00040810,-0.00019691,0.00134425,-0.000
 86146,0.00140016,-0.00226645,0.00021171,-0.00018089,-0.00005165,-0.001
 15712,0.00022342,0.00008984,0.00039364,0.00046453,-0.00039032,0.000079
 97,-0.00026219,0.00022962,-0.00061629,-0.00034518,-0.00004236,0.000748
 86,0.00012608,0.00003983,0.00061770,-0.00152909,0.00199478,0.00011661,
 0.00026740,-0.00026758,-0.00253482,0.00260307,0.00766948,0.00063978,-0
 .00404535,0.00186234,0.10748810,0.00477501,-0.00093606,-0.00275494,0.0
 1528661,-0.11150400,-0.05198395,0.00078016,0.00005950,0.00103349,-0.00
 342378,0.00793408,0.00959801,0.01494564,-0.01302700,-0.04088007,0.0019
 9523,0.00202110,0.00065367,-0.00043922,0.00017661,-0.00049735,-0.00016
 600,0.00071816,0.00065269,-0.00110482,-0.00308998,-0.00606874,0.001767
 13,-0.00042817,0.00243113,-0.00012632,0.00009976,-0.00001197,0.0002105
 5,-0.00004714,-0.00008733,-0.00005244,0.00009175,0.00080184,0.00012718
 ,0.00129025,0.00056109,0.00073168,0.00031425,0.00004401,-0.00038579,-0
 .00018167,-0.00009462,0.00031968,0.00118265,-0.00116169,0.00006468,-0.
 00017743,-0.00001149,0.00416210,0.00199774,-0.00334700,-0.00266910,-0.
 00229697,-0.00106867,-0.00062395,0.62141619,0.01199187,-0.00808995,-0.
 02639570,0.04339780,-0.01327288,-0.18624885,0.00350393,0.00055556,0.00
 407124,0.01354046,-0.01567805,-0.04791874,0.00488108,-0.00920296,-0.01
 241314,-0.00045644,0.00100374,0.00073116,-0.00096865,-0.00061281,-0.00
 232000,-0.00047032,0.00031167,0.00030122,-0.00045639,-0.00472262,-0.00
 064034,-0.00516962,0.00497048,-0.00456248,0.00015247,-0.00018633,0.000
 10256,0.00062101,-0.00021589,0.00013955,-0.00004196,0.00011917,0.00022
 437,-0.00023953,0.00055240,0.00056278,0.00083026,0.00036280,0.00072585
 ,-0.00002236,0.00010512,-0.00047913,0.00058518,0.00043205,-0.00028801,
 -0.00020140,-0.00013631,0.00007026,-0.00435890,0.00230086,0.00637576,0
 .00305228,-0.00333280,-0.00020046,-0.08371989,0.04518843,0.30904930,0.
 00085953,0.00315085,0.00000845,-0.00030051,0.01426773,0.00168580,-0.00
 047850,-0.00037558,0.00098456,0.00248283,-0.00124472,-0.00062145,0.000
 22868,-0.00037712,0.00056454,-0.00068364,-0.00083786,0.00041592,-0.000
 07085,0.00000821,-0.00009813,-0.00002745,-0.00026984,-0.00020593,0.000
 39542,-0.00017632,0.00008033,-0.00012346,0.00006219,0.00020176,-0.0000
 3987,0.00001770,0.00001475,0.00008097,-0.00000769,-0.00002479,-0.00015
 841,-0.00006283,0.00045700,-0.00009077,-0.00012990,-0.00013004,0.00012
 843,-0.00013342,-0.00007214,-0.00017588,0.00009373,0.00001574,-0.00011
 274,0.00018299,-0.00036607,-0.00005071,-0.00001145,0.00013729,-0.00145
 568,-0.00087344,0.00009190,0.00077047,0.00183447,0.00011018,-0.0167371
 9,-0.03402666,0.01123888,0.02165467,0.00069403,0.00196774,0.00111740,-
 0.00017283,-0.01628882,-0.00600523,-0.00078406,0.00045000,-0.00123376,
 -0.00042425,0.00364557,0.00030588,0.00074647,0.00194229,-0.00088018,-0
 .00000262,-0.00044978,-0.00006554,0.00021624,0.00019492,0.00049354,-0.
 00000971,-0.00005051,0.00000135,-0.00057739,0.00638601,0.00487960,0.00
 050428,-0.00085160,0.00086971,0.00007242,-0.00007721,-0.00000619,-0.00
 020869,0.00003383,0.00003648,0.00016053,-0.00045317,-0.00108342,0.0001
 1167,-0.00097168,-0.00141082,-0.00029536,-0.00020346,0.00001161,0.0002
 4906,0.00011015,-0.00001935,0.00008350,-0.00079031,0.00057513,-0.00007
 256,0.00019821,-0.00007139,-0.00108457,-0.00012163,0.00127114,0.002037
 31,-0.00127449,0.00014134,-0.01959246,-0.49457357,-0.00994685,0.019573
 40,0.50886220,0.00023768,-0.00091514,0.00049573,-0.00155140,-0.0454728
 0,-0.00478089,0.00025131,-0.00018237,0.00018988,-0.00119504,-0.0018296
 0,-0.00018643,0.00275262,-0.00240312,-0.00652669,0.00079843,0.00046622
 ,0.00013568,0.00004925,0.00006615,-0.00001887,-0.00001654,0.00017794,0
 .00017114,-0.00012019,-0.00001166,-0.00603459,0.00047652,0.00041480,0.
 00053642,-0.00004228,0.00002892,-0.00002359,0.00001467,-0.00001582,-0.
 00001479,-0.00014436,0.00003200,0.00040620,0.00011297,0.00011246,0.000
 51236,-0.00004478,0.00004303,-0.00007669,0.00001333,-0.00000067,0.0000
 7088,-0.00018552,0.00054787,-0.00022703,0.00013729,-0.00008509,-0.0000
 4044,-0.00092307,0.00015271,-0.00082176,0.00040968,0.00107684,0.000398
 67,0.01343331,0.03474772,-0.04417496,-0.01318305,0.01594615,0.05944136
 ,0.00464813,0.00294136,-0.00523695,-0.05089071,-0.00148191,0.00228746,
 0.00072599,-0.00087920,-0.00065844,-0.22881905,-0.02416661,-0.00316928
 ,0.00137799,-0.00024154,0.00149256,-0.00011545,-0.00025519,0.00023703,
 0.00045287,-0.00004088,0.00024845,0.00012366,-0.00000303,0.00007819,-0
 .03386348,-0.01061313,0.00814986,-0.02141208,-0.00160921,0.00552833,-0
 .00001853,-0.00001510,-0.00012434,-0.00017292,0.00000451,0.00008751,-0
 .00017731,-0.00522450,-0.00004492,0.00172279,0.00078663,0.00027535,-0.
 00072893,0.00007888,-0.00010875,0.00047112,0.00001679,0.00006408,-0.00
 103071,0.00036342,0.00065872,0.00030336,0.00002625,-0.00027458,-0.0047
 8591,0.00134870,-0.00342206,-0.00034226,0.00023420,0.00115186,0.004370
 10,-0.00077493,0.00148562,-0.00127229,-0.00025202,-0.00010103,0.385124
 46,-0.00056673,-0.00064740,0.00294325,0.01825768,0.00253871,-0.0026689
 9,-0.00049566,-0.00046864,0.00106404,-0.01862702,-0.06922680,-0.004400
 69,-0.00024318,0.00266116,-0.00189504,0.00106931,0.00046714,0.00004711
 ,-0.00020334,-0.00001276,-0.00019903,-0.00010997,0.00018326,0.00002659
 ,-0.04160531,-0.00473566,0.00823679,0.01054222,0.00531115,0.00077167,-
 0.00006855,0.00005952,-0.00002108,0.00008839,-0.00002226,-0.00001818,-
 0.00267119,-0.00771506,-0.00024473,-0.00009198,0.00380565,-0.00130850,
 0.00024935,0.00019764,-0.00001041,-0.00014596,-0.00008205,0.00002012,0
 .00002110,0.00129581,-0.00051916,0.00029853,-0.00036550,0.00002248,0.0
 0179393,0.00015286,0.00079156,-0.00019504,-0.00022279,-0.00031766,-0.0
 0030391,0.00288604,0.00030392,0.00088582,-0.00155216,0.00111041,0.0311
 7020,0.07626680,0.00060808,0.00240609,-0.00347970,-0.02491275,-0.00245
 921,-0.00024135,-0.00038612,0.00069500,-0.00176156,0.04330739,-0.00095
 633,-0.10006309,0.00033548,-0.00117571,0.00101179,-0.00025088,-0.00032
 055,0.00002790,-0.00008816,0.00006623,0.00024441,-0.00006417,0.0002000
 3,0.00006313,0.00857619,0.00068668,-0.00025527,0.03733141,0.00595471,-
 0.00103965,0.00013909,-0.00009041,0.00003065,-0.00015489,0.00004103,0.
 00004353,0.00087643,0.00183628,0.00121288,0.00065187,-0.00139943,0.000
 38307,0.00008262,-0.00000357,0.00024193,0.00018911,0.00003053,-0.00010
 576,0.00120016,-0.00052386,0.00080235,0.00007183,-0.00012132,-0.000039
 64,-0.00254720,0.00039022,-0.00019457,0.00064021,-0.00019711,0.0004940
 5,-0.00804444,0.00025559,0.00142851,0.00058750,0.00143101,-0.00026741,
 -0.11523050,0.06219902,0.59859232,-0.00024601,-0.00042196,0.00038045,-
 0.00245301,0.00255175,0.00382313,0.00018576,-0.00017638,0.00071763,-0.
 01703785,0.00689309,0.04658429,-0.00011201,0.00008895,-0.00036972,0.00
 010106,0.00006460,0.00000343,-0.00008362,-0.00001771,-0.00017526,-0.00
 000250,-0.00004942,-0.00001196,-0.00093052,-0.00014148,0.00166273,-0.0
 0677555,-0.00135007,0.00010099,-0.00004744,0.00003525,0.00001417,0.000
 09953,-0.00001520,-0.00003678,0.00001965,-0.00023681,-0.00024102,-0.00
 009095,0.00004678,-0.00018020,0.00017001,-0.00000994,-0.00004579,-0.00
 018081,-0.00000461,0.00001028,-0.00016168,0.00009470,-0.00039422,-0.00
 009872,0.00004245,0.00007372,0.00104591,-0.00030168,-0.00010854,-0.000
 73457,0.00036067,-0.00027815,0.00482509,-0.00123491,0.00050615,-0.0017
 9627,-0.00158624,-0.00115783,-0.05890535,0.00133936,0.05845154,0.08303
 699,0.00027748,0.00002895,-0.00039332,0.00076737,0.00147445,-0.0012496
 0,0.00001994,0.00018390,-0.00038006,-0.00119944,-0.00060913,0.00488194
 ,0.00052172,-0.00074197,0.00004640,-0.00031518,-0.00011601,0.00000245,
 0.00005246,0.00003015,0.00006393,0.00000309,-0.00001381,-0.00003099,-0
 .00282404,0.00055416,0.00319142,0.00159887,0.00021691,-0.00049088,0.00
 003130,-0.00002379,0.00000945,-0.00003557,0.00000727,0.00001035,-0.000
 06010,-0.00046765,-0.00042435,-0.00012758,-0.00007518,-0.00000493,-0.0
 0006750,-0.00006262,0.00002115,0.00006092,0.00002815,-0.00000872,0.000
 13037,-0.00029493,0.00020949,-0.00000466,0.00004076,-0.00001325,-0.000
 45644,-0.00006841,-0.00004550,0.00015636,0.00007419,0.00010961,-0.0006
 7071,-0.00243488,-0.00007843,-0.00185135,0.00097025,-0.00101984,0.0087
 3758,-0.01423828,-0.07096866,-0.00622008,0.01584197,0.00081396,-0.0004
 9502,-0.00097764,-0.00445765,0.00143142,0.00353674,0.00037270,-0.00015
 790,0.00034030,0.00304559,-0.00147198,-0.00572770,0.00019848,-0.000256
 74,-0.00004426,-0.00005357,-0.00000410,0.00004295,0.00003190,-0.000040
 65,-0.00011435,0.00001212,-0.00002370,0.00000161,-0.00059383,0.0001777
 7,0.00022518,0.00003553,0.00131673,0.00134404,-0.00002983,0.00002146,-
 0.00000937,0.00005069,-0.00001353,-0.00000723,-0.00035582,-0.00062178,
 0.00001270,0.00013660,0.00015554,-0.00020703,-0.00002885,0.00001576,-0
 .00004691,-0.00002717,-0.00000736,0.00002490,-0.00017899,0.00020157,-0
 .00012830,0.00003327,-0.00003555,0.00000751,-0.00030295,0.00018067,-0.
 00088535,-0.00067843,0.00034081,0.00014609,0.00319177,-0.00044604,-0.0
 0068105,-0.00156888,-0.00158703,0.00003944,0.10904617,-0.06613095,-0.5
 0106876,-0.10821808,0.06733367,0.50505779,-0.00113712,-0.00172891,0.00
 089393,-0.00091868,0.00026622,0.00004643,0.00019789,-0.00034382,0.0002
 4838,0.00069321,-0.00386247,-0.00643239,0.00009949,0.00007220,-0.00000
 018,0.00044975,0.00071342,-0.00004353,0.00004076,-0.00006010,-0.000121
 94,-0.00001023,0.00022160,0.00014424,-0.06583875,0.00117766,0.01643535
 ,0.00032540,-0.00152894,0.00013737,-0.00003498,0.00004247,-0.00005247,
 -0.00000243,-0.00000951,0.00002457,0.00652023,0.01538954,0.03073645,0.
 00815880,-0.01041652,-0.01716239,-0.00014764,0.00025057,-0.00001000,0.
 00012790,-0.00014155,0.00005524,-0.00045044,0.00141420,0.00008555,0.00
 041950,-0.00030821,-0.00016702,0.00039219,0.00073468,-0.00055684,-0.00
 036053,-0.00017100,0.00006903,0.00309082,-0.00081099,0.00055843,-0.002
 30871,0.00088612,-0.00056051,0.00316514,-0.00060766,-0.00126685,-0.000
 18698,0.00139907,-0.00049389,0.05822593,-0.00042634,-0.00043060,-0.000
 45144,-0.00092162,0.00498468,0.00111841,-0.00004017,0.00017365,-0.0000
 2181,0.00759197,-0.02228441,-0.04694624,-0.00015292,0.00033450,-0.0004
 8152,0.00021236,-0.00010484,-0.00017620,-0.00043356,-0.00009233,-0.000
 23686,-0.00004411,0.00017106,0.00006540,0.00530032,-0.11428609,-0.0674
 3754,-0.00275509,-0.00840350,0.00146500,0.00003773,0.00002153,0.000057
 20,0.00008765,0.00000643,-0.00001929,0.00362477,0.00047407,-0.00594200
 ,-0.00444612,0.00688362,0.00254659,0.00057136,0.00024547,0.00020807,-0
 .00023637,-0.00012478,-0.00007717,0.00076170,-0.00042438,-0.00022898,-
 0.00020786,-0.00009787,0.00013267,0.00103097,-0.00011219,0.00033017,-0
 .00084409,0.00008074,-0.00031562,0.00109252,-0.01202285,0.00918752,0.0
 0059260,-0.00586867,-0.00279053,-0.00063907,0.00260342,0.00193864,0.00
 026960,-0.00021732,-0.00007418,0.06202239,0.68321621,-0.00111401,0.000
 00118,0.00012274,-0.00024599,-0.00096953,-0.00539178,0.00003631,0.0014
 8083,-0.00188746,0.00289467,-0.00563891,-0.00387101,0.00013693,-0.0001
 0035,0.00110097,0.00018948,0.00022966,-0.00045188,-0.00026307,-0.00018
 946,0.00019125,-0.00009079,0.00001441,0.00018238,0.02106074,-0.0215675
 9,-0.20519284,-0.00030151,0.00089593,0.00158589,0.00018491,-0.00007502
 ,0.00007953,-0.00010924,0.00006375,0.00002933,0.00387921,-0.01488346,-
 0.02596480,0.00457270,-0.02060755,-0.03687547,0.00030416,0.00010969,0.
 00033335,0.00002324,-0.00010147,-0.00015677,0.00131390,-0.00267649,0.0
 0063626,-0.00068741,0.00037582,-0.00003820,0.00015324,0.00000931,0.001
 26577,0.00050766,-0.00050871,-0.00014310,-0.00051531,0.00906818,0.0034
 5066,-0.00106770,-0.00272594,-0.00247691,-0.00221457,-0.00041893,0.003
 40518,-0.00075273,-0.00066626,-0.00081806,-0.03820306,0.02240905,0.322
 37778,0.00017964,0.00037883,-0.00008719,0.00010432,-0.00038118,-0.0000
 8268,-0.00005352,0.00006369,-0.00005443,-0.00044261,-0.00004889,0.0000
 7565,-0.00006524,-0.00000142,0.00000497,-0.00007271,-0.00005241,0.0000
 1687,0.00005222,0.00008899,0.00006121,-0.00000448,-0.00005382,-0.00002
 034,-0.00071473,0.00441058,0.00058553,0.00024631,0.00001409,0.00010443
 ,-0.00000512,-0.00002000,0.00001184,-0.00000596,-0.00000281,-0.0000149
 3,-0.00000060,0.00122794,0.00025926,0.00036980,-0.00081873,0.00026015,
 -0.00000330,-0.00017330,-0.00003134,-0.00002366,0.00009477,-0.00001486
 ,0.00000993,-0.00022634,-0.00001550,-0.00007881,0.00014787,0.00006003,
 -0.00012664,-0.00020472,0.00010508,0.00011500,0.00006000,-0.00001182,0
 .00044814,0.00067328,-0.00023994,-0.00071807,-0.00027227,0.00053852,0.
 00004937,0.00021962,-0.00010295,0.00035983,0.00007613,0.00001916,-0.01
 051053,-0.07204860,0.01030824,0.01089141,-0.00001674,-0.00031774,0.000
 16609,-0.00008983,0.00065095,0.00053044,0.00004377,-0.00012360,0.00003
 721,0.00098275,-0.00016631,-0.00467164,-0.00004228,0.00011301,-0.00014
 598,0.00018154,0.00002788,0.00000304,0.00007069,0.00001022,0.00000839,
 0.00000308,0.00003788,0.00002012,-0.00294189,-0.01579633,0.00572447,-0
 .00037776,-0.00083185,0.00036952,-0.00001203,0.00000424,-0.00001872,-0
 .00001214,-0.00000284,0.00000922,0.00041659,0.00059891,0.00122350,-0.0
 0065837,0.00166369,0.00131892,-0.00011993,0.00002180,-0.00002865,0.000
 07003,-0.00001419,0.00002325,-0.00020138,0.00036649,0.00006886,0.00014
 538,-0.00006810,-0.00006201,-0.00007048,0.00020585,-0.00022613,-0.0000
 3459,-0.00004047,0.00005150,0.00023975,0.00053163,0.00008218,-0.000291
 51,-0.00123412,-0.00019658,0.00048779,0.00086018,0.00008511,-0.0000206
 9,-0.00008712,0.00019110,-0.06460046,-0.53472554,0.03647187,0.06684871
 ,0.54831547,0.00001195,-0.00001742,0.00012568,0.00044084,-0.00038555,-
 0.00141249,-0.00009148,-0.00007061,-0.00004781,0.00197090,-0.00218107,
 -0.00762337,-0.00007756,0.00012240,0.00012627,0.00004914,0.00003792,0.
 00004144,0.00005130,0.00004989,0.00004908,0.00000227,0.00003127,-0.000
 00768,-0.00538293,-0.04195581,0.00141468,-0.00039296,-0.00189672,0.000
 36856,-0.00000434,-0.00000248,-0.00000773,-0.00001865,-0.00000482,0.00
 000233,0.00095683,-0.00022297,0.00019737,-0.00112792,-0.00016120,0.000
 26395,-0.00006880,-0.00002326,-0.00003539,0.00004441,0.00002976,0.0000
 2502,-0.00003029,0.00014279,-0.00001600,0.00007854,-0.00006516,0.00001
 876,-0.00021027,0.00004210,-0.00003613,0.00026068,-0.00001932,0.000090
 72,-0.00054231,0.00337801,-0.00091036,0.00074357,-0.00204463,0.0032732
 8,-0.00020578,0.00061636,0.00053508,-0.00035826,-0.00010505,-0.0000632
 4,0.01563609,0.08574066,-0.05149282,-0.01173496,-0.04103509,0.05512078
 \\0.00001741,0.00000649,0.00000720,0.00003583,-0.00004141,-0.00003249,
 -0.00003740,-0.00001040,-0.00001128,0.00003492,-0.00000867,-0.00003842
 ,-0.00000096,0.00001139,0.00000241,-0.00000433,-0.00002332,-0.00000571
 ,-0.00002828,-0.00007282,-0.00001708,0.00000126,0.00002879,0.00000575,
 0.00002395,0.00000070,-0.00001650,-0.00000716,0.00002874,0.00004119,-0
 .00000614,0.00001153,-0.00001057,0.00001570,-0.00000948,0.00000823,-0.
 00000287,0.00000816,0.00000466,0.00000156,-0.00000119,-0.00000100,0.00
 001571,0.00007327,0.00002675,0.00001032,-0.00002059,-0.00001276,0.0000
 2892,0.00000343,-0.00002914,-0.00001439,-0.00000196,0.00000273,0.00000
 181,0.00001140,0.00002699,-0.00000595,-0.00000754,-0.00000559,-0.00003
 073,0.00001610,0.00002184,-0.00000203,0.00000453,0.00000634,-0.0000470
 7,-0.00002945,0.00002558,-0.00000191,0.00001592,-0.00001299,0.00000010
 ,0.00004363,0.00000716,0.00000174,-0.00003727,0.00000673\\\@
 The archive entry for this job was punched.


 IBM COMPATIBILITY IS LIKE PREGNANCY. YOU ARE OR
 OR YOU ARE NOT. -- ADAM OSBORNE
 Job cpu time:       0 days  9 hours 57 minutes 24.8 seconds.
 Elapsed time:       0 days  0 hours 37 minutes 57.8 seconds.
 File lengths (MBytes):  RWF=    704 Int=      0 D2E=      0 Chk=     27 Scr=      1
 Normal termination of Gaussian 16 at Wed Oct 11 15:26:26 2023.
