 Entering Gaussian System, Link 0=/opt/software/gaussian/g16.c01/g16
 Initial command:
 /opt/software/gaussian/g16.c01/l1.exe "/scratch/arhender/13209946/Gau-43786.inp" -scrdir="/scratch/arhender/13209946/"
 Entering Link 1 = /opt/software/gaussian/g16.c01/l1.exe PID=     43788.
  
 Copyright (c) 1988-2019, Gaussian, Inc.  All Rights Reserved.
  
 This is part of the Gaussian(R) 16 program.  It is based on
 the Gaussian(R) 09 system (copyright 2009, Gaussian, Inc.),
 the Gaussian(R) 03 system (copyright 2003, Gaussian, Inc.),
 the Gaussian(R) 98 system (copyright 1998, Gaussian, Inc.),
 the Gaussian(R) 94 system (copyright 1995, Gaussian, Inc.),
 the Gaussian 92(TM) system (copyright 1992, Gaussian, Inc.),
 the Gaussian 90(TM) system (copyright 1990, Gaussian, Inc.),
 the Gaussian 88(TM) system (copyright 1988, Gaussian, Inc.),
 the Gaussian 86(TM) system (copyright 1986, Carnegie Mellon
 University), and the Gaussian 82(TM) system (copyright 1983,
 Carnegie Mellon University). Gaussian is a federally registered
 trademark of Gaussian, Inc.
  
 This software contains proprietary and confidential information,
 including trade secrets, belonging to Gaussian, Inc.
  
 This software is provided under written license and may be
 used, copied, transmitted, or stored only in accord with that
 written license.
  
 The following legend is applicable only to US Government
 contracts under FAR:
  
                    RESTRICTED RIGHTS LEGEND
  
 Use, reproduction and disclosure by the US Government is
 subject to restrictions as set forth in subparagraphs (a)
 and (c) of the Commercial Computer Software - Restricted
 Rights clause in FAR 52.227-19.
  
 Gaussian, Inc.
 340 Quinnipiac St., Bldg. 40, Wallingford CT 06492
  
  
 ---------------------------------------------------------------
 Warning -- This program may not be used in any manner that
 competes with the business of Gaussian, Inc. or will provide
 assistance to any competitor of Gaussian, Inc.  The licensee
 of this program is prohibited from giving any competitor of
 Gaussian, Inc. access to this program.  By using this program,
 the user acknowledges that Gaussian, Inc. is engaged in the
 business of creating and licensing software in the field of
 computational chemistry and represents and warrants to the
 licensee that it is not a competitor of Gaussian, Inc. and that
 it will not use this program in any manner prohibited above.
 ---------------------------------------------------------------
  

 Cite this work as:
 Gaussian 16, Revision C.01,
 M. J. Frisch, G. W. Trucks, H. B. Schlegel, G. E. Scuseria, 
 M. A. Robb, J. R. Cheeseman, G. Scalmani, V. Barone, 
 G. A. Petersson, H. Nakatsuji, X. Li, M. Caricato, A. V. Marenich, 
 J. Bloino, B. G. Janesko, R. Gomperts, B. Mennucci, H. P. Hratchian, 
 J. V. Ortiz, A. F. Izmaylov, J. L. Sonnenberg, D. Williams-Young, 
 F. Ding, F. Lipparini, F. Egidi, J. Goings, B. Peng, A. Petrone, 
 T. Henderson, D. Ranasinghe, V. G. Zakrzewski, J. Gao, N. Rega, 
 G. Zheng, W. Liang, M. Hada, M. Ehara, K. Toyota, R. Fukuda, 
 J. Hasegawa, M. Ishida, T. Nakajima, Y. Honda, O. Kitao, H. Nakai, 
 T. Vreven, K. Throssell, J. A. Montgomery, Jr., J. E. Peralta, 
 F. Ogliaro, M. J. Bearpark, J. J. Heyd, E. N. Brothers, K. N. Kudin, 
 V. N. Staroverov, T. A. Keith, R. Kobayashi, J. Normand, 
 K. Raghavachari, A. P. Rendell, J. C. Burant, S. S. Iyengar, 
 J. Tomasi, M. Cossi, J. M. Millam, M. Klene, C. Adamo, R. Cammi, 
 J. W. Ochterski, R. L. Martin, K. Morokuma, O. Farkas, 
 J. B. Foresman, and D. J. Fox, Gaussian, Inc., Wallingford CT, 2019.
 
 ******************************************
 Gaussian 16:  ES64L-G16RevC.01  3-Jul-2019
                27-Sep-2023 
 ******************************************
 %chk=MannitolConformerOpt_21.chk
 %mem=8GB
 %nprocs=16
 Will use up to   16 processors via shared memory.
 ---------------------------------------------
 # opt freq wb97xd/def2tzvpp geom=connectivity
 ---------------------------------------------
 1/18=20,19=15,26=3,38=1,57=2/1,3;
 2/9=110,12=2,17=6,18=5,40=1/2;
 3/5=44,7=202,11=2,25=1,30=1,71=1,74=-58/1,2,3;
 4//1;
 5/5=2,38=5/2;
 6/7=2,8=2,9=2,10=2,28=1/1;
 7//1,2,3,16;
 1/18=20,19=15,26=3/3(2);
 2/9=110/2;
 99//99;
 2/9=110/2;
 3/5=44,7=202,11=2,25=1,30=1,71=1,74=-58/1,2,3;
 4/5=5,16=3,69=1/1;
 5/5=2,38=5/2;
 7//1,2,3,16;
 1/18=20,19=15,26=3/3(-5);
 2/9=110/2;
 6/7=2,8=2,9=2,10=2,19=2,28=1/1;
 99/9=1/99;
 --------------------------------
 Mannitol Conformer Optimziations
 --------------------------------
 Symbolic Z-matrix:
 Charge =  0 Multiplicity = 1
 C                     0.        0.        0. 
 C                     1.5538    0.        0. 
 C                    -0.6566    0.7455   -1.1828 
 C                     2.2104   -0.751     1.1793 
 H                     1.9374    1.024     0. 
 H                    -0.3836    0.4374    0.9259 
 C                    -0.3474    2.241    -1.252 
 H                    -1.7442    0.619    -1.1111 
 C                     1.9012   -0.1747    2.5611 
 H                     3.298    -0.7402    1.0343 
 H                    -1.0132    2.7279   -1.9725 
 H                    -0.4815    2.7245   -0.2799 
 H                     2.0353    0.9108    2.5829 
 H                     2.567    -0.6181    3.3091 
 O                     0.9842    2.4668   -1.704 
 H                     1.0435    2.0017   -2.5622 
 O                    -0.2515    0.1246   -2.4195 
 H                    -0.5334   -0.8103   -2.3111 
 O                    -0.4948   -1.3543   -0.0893 
 H                     0.0155   -1.8759    0.5644 
 O                     2.0486   -0.6593   -1.1864 
 H                     1.5383   -0.2911   -1.9372 
 O                     1.8053   -2.1344    1.1462 
 H                     2.0872   -2.4358    0.2546 
 O                     0.5696   -0.4869    2.9583 
 H                     0.5103   -1.4615    2.9044 
 

 GradGradGradGradGradGradGradGradGradGradGradGradGradGradGradGradGradGrad
 Berny optimization.
 Initialization pass.
                           ----------------------------
                           !    Initial Parameters    !
                           ! (Angstroms and Degrees)  !
 --------------------------                            --------------------------
 ! Name  Definition              Value          Derivative Info.                !
 --------------------------------------------------------------------------------
 ! R1    R(1,2)                  1.5538         estimate D2E/DX2                !
 ! R2    R(1,3)                  1.5446         estimate D2E/DX2                !
 ! R3    R(1,6)                  1.0935         estimate D2E/DX2                !
 ! R4    R(1,19)                 1.4446         estimate D2E/DX2                !
 ! R5    R(2,4)                  1.5446         estimate D2E/DX2                !
 ! R6    R(2,5)                  1.0935         estimate D2E/DX2                !
 ! R7    R(2,21)                 1.4447         estimate D2E/DX2                !
 ! R8    R(3,7)                  1.5287         estimate D2E/DX2                !
 ! R9    R(3,8)                  1.0973         estimate D2E/DX2                !
 ! R10   R(3,17)                 1.4419         estimate D2E/DX2                !
 ! R11   R(4,9)                  1.5288         estimate D2E/DX2                !
 ! R12   R(4,10)                 1.0973         estimate D2E/DX2                !
 ! R13   R(4,23)                 1.4419         estimate D2E/DX2                !
 ! R14   R(7,11)                 1.0952         estimate D2E/DX2                !
 ! R15   R(7,12)                 1.094          estimate D2E/DX2                !
 ! R16   R(7,15)                 1.4242         estimate D2E/DX2                !
 ! R17   R(9,13)                 1.094          estimate D2E/DX2                !
 ! R18   R(9,14)                 1.0952         estimate D2E/DX2                !
 ! R19   R(9,25)                 1.4242         estimate D2E/DX2                !
 ! R20   R(15,16)                0.9779         estimate D2E/DX2                !
 ! R21   R(17,18)                0.9825         estimate D2E/DX2                !
 ! R22   R(19,20)                0.9797         estimate D2E/DX2                !
 ! R23   R(21,22)                0.9796         estimate D2E/DX2                !
 ! R24   R(23,24)                0.9825         estimate D2E/DX2                !
 ! R25   R(25,26)                0.9779         estimate D2E/DX2                !
 ! A1    A(2,1,3)              115.1559         estimate D2E/DX2                !
 ! A2    A(2,1,6)              110.5361         estimate D2E/DX2                !
 ! A3    A(2,1,19)             110.03           estimate D2E/DX2                !
 ! A4    A(3,1,6)              107.8306         estimate D2E/DX2                !
 ! A5    A(3,1,19)             105.0422         estimate D2E/DX2                !
 ! A6    A(6,1,19)             107.8892         estimate D2E/DX2                !
 ! A7    A(1,2,4)              115.1561         estimate D2E/DX2                !
 ! A8    A(1,2,5)              110.5364         estimate D2E/DX2                !
 ! A9    A(1,2,21)             110.0294         estimate D2E/DX2                !
 ! A10   A(4,2,5)              107.8293         estimate D2E/DX2                !
 ! A11   A(4,2,21)             105.0414         estimate D2E/DX2                !
 ! A12   A(5,2,21)             107.8916         estimate D2E/DX2                !
 ! A13   A(1,3,7)              114.8877         estimate D2E/DX2                !
 ! A14   A(1,3,8)              108.4005         estimate D2E/DX2                !
 ! A15   A(1,3,17)             109.2394         estimate D2E/DX2                !
 ! A16   A(7,3,8)              108.4345         estimate D2E/DX2                !
 ! A17   A(7,3,17)             109.0027         estimate D2E/DX2                !
 ! A18   A(8,3,17)             106.5513         estimate D2E/DX2                !
 ! A19   A(2,4,9)              114.8871         estimate D2E/DX2                !
 ! A20   A(2,4,10)             108.4007         estimate D2E/DX2                !
 ! A21   A(2,4,23)             109.2401         estimate D2E/DX2                !
 ! A22   A(9,4,10)             108.4335         estimate D2E/DX2                !
 ! A23   A(9,4,23)             109.0026         estimate D2E/DX2                !
 ! A24   A(10,4,23)            106.5521         estimate D2E/DX2                !
 ! A25   A(3,7,11)             109.9828         estimate D2E/DX2                !
 ! A26   A(3,7,12)             111.5528         estimate D2E/DX2                !
 ! A27   A(3,7,15)             111.0126         estimate D2E/DX2                !
 ! A28   A(11,7,12)            108.2749         estimate D2E/DX2                !
 ! A29   A(11,7,15)            106.805          estimate D2E/DX2                !
 ! A30   A(12,7,15)            109.0596         estimate D2E/DX2                !
 ! A31   A(4,9,13)             111.5476         estimate D2E/DX2                !
 ! A32   A(4,9,14)             109.9841         estimate D2E/DX2                !
 ! A33   A(4,9,25)             111.0111         estimate D2E/DX2                !
 ! A34   A(13,9,14)            108.2764         estimate D2E/DX2                !
 ! A35   A(13,9,25)            109.0603         estimate D2E/DX2                !
 ! A36   A(14,9,25)            106.8086         estimate D2E/DX2                !
 ! A37   A(7,15,16)            105.0583         estimate D2E/DX2                !
 ! A38   A(3,17,18)            103.5632         estimate D2E/DX2                !
 ! A39   A(1,19,20)            106.2286         estimate D2E/DX2                !
 ! A40   A(2,21,22)            106.2278         estimate D2E/DX2                !
 ! A41   A(4,23,24)            103.5653         estimate D2E/DX2                !
 ! A42   A(9,25,26)            105.058          estimate D2E/DX2                !
 ! D1    D(3,1,2,4)           -179.7328         estimate D2E/DX2                !
 ! D2    D(3,1,2,5)             57.7774         estimate D2E/DX2                !
 ! D3    D(3,1,2,21)           -61.2842         estimate D2E/DX2                !
 ! D4    D(6,1,2,4)             57.776          estimate D2E/DX2                !
 ! D5    D(6,1,2,5)            -64.7137         estimate D2E/DX2                !
 ! D6    D(6,1,2,21)           176.2247         estimate D2E/DX2                !
 ! D7    D(19,1,2,4)           -61.2828         estimate D2E/DX2                !
 ! D8    D(19,1,2,5)           176.2275         estimate D2E/DX2                !
 ! D9    D(19,1,2,21)           57.1659         estimate D2E/DX2                !
 ! D10   D(2,1,3,7)            -62.3413         estimate D2E/DX2                !
 ! D11   D(2,1,3,8)            176.212          estimate D2E/DX2                !
 ! D12   D(2,1,3,17)            60.4849         estimate D2E/DX2                !
 ! D13   D(6,1,3,7)             61.5879         estimate D2E/DX2                !
 ! D14   D(6,1,3,8)            -59.8588         estimate D2E/DX2                !
 ! D15   D(6,1,3,17)          -175.586          estimate D2E/DX2                !
 ! D16   D(19,1,3,7)           176.4582         estimate D2E/DX2                !
 ! D17   D(19,1,3,8)            55.0115         estimate D2E/DX2                !
 ! D18   D(19,1,3,17)          -60.7156         estimate D2E/DX2                !
 ! D19   D(2,1,19,20)           46.8796         estimate D2E/DX2                !
 ! D20   D(3,1,19,20)          171.3845         estimate D2E/DX2                !
 ! D21   D(6,1,19,20)          -73.786          estimate D2E/DX2                !
 ! D22   D(1,2,4,9)            -62.3422         estimate D2E/DX2                !
 ! D23   D(1,2,4,10)           176.2125         estimate D2E/DX2                !
 ! D24   D(1,2,4,23)            60.4839         estimate D2E/DX2                !
 ! D25   D(5,2,4,9)             61.5865         estimate D2E/DX2                !
 ! D26   D(5,2,4,10)           -59.8589         estimate D2E/DX2                !
 ! D27   D(5,2,4,23)          -175.5874         estimate D2E/DX2                !
 ! D28   D(21,2,4,9)           176.4585         estimate D2E/DX2                !
 ! D29   D(21,2,4,10)           55.0132         estimate D2E/DX2                !
 ! D30   D(21,2,4,23)          -60.7153         estimate D2E/DX2                !
 ! D31   D(1,2,21,22)           46.8779         estimate D2E/DX2                !
 ! D32   D(4,2,21,22)          171.3821         estimate D2E/DX2                !
 ! D33   D(5,2,21,22)          -73.7892         estimate D2E/DX2                !
 ! D34   D(1,3,7,11)          -167.6914         estimate D2E/DX2                !
 ! D35   D(1,3,7,12)           -47.5343         estimate D2E/DX2                !
 ! D36   D(1,3,7,15)            74.3245         estimate D2E/DX2                !
 ! D37   D(8,3,7,11)           -46.2632         estimate D2E/DX2                !
 ! D38   D(8,3,7,12)            73.8939         estimate D2E/DX2                !
 ! D39   D(8,3,7,15)          -164.2473         estimate D2E/DX2                !
 ! D40   D(17,3,7,11)           69.3555         estimate D2E/DX2                !
 ! D41   D(17,3,7,12)         -170.4874         estimate D2E/DX2                !
 ! D42   D(17,3,7,15)          -48.6286         estimate D2E/DX2                !
 ! D43   D(1,3,17,18)           57.0608         estimate D2E/DX2                !
 ! D44   D(7,3,17,18)         -176.6673         estimate D2E/DX2                !
 ! D45   D(8,3,17,18)          -59.8435         estimate D2E/DX2                !
 ! D46   D(2,4,9,13)           -47.532          estimate D2E/DX2                !
 ! D47   D(2,4,9,14)          -167.6885         estimate D2E/DX2                !
 ! D48   D(2,4,9,25)            74.323          estimate D2E/DX2                !
 ! D49   D(10,4,9,13)           73.8955         estimate D2E/DX2                !
 ! D50   D(10,4,9,14)          -46.2611         estimate D2E/DX2                !
 ! D51   D(10,4,9,25)         -164.2495         estimate D2E/DX2                !
 ! D52   D(23,4,9,13)         -170.4855         estimate D2E/DX2                !
 ! D53   D(23,4,9,14)           69.358          estimate D2E/DX2                !
 ! D54   D(23,4,9,25)          -48.6305         estimate D2E/DX2                !
 ! D55   D(2,4,23,24)           57.0625         estimate D2E/DX2                !
 ! D56   D(9,4,23,24)         -176.6659         estimate D2E/DX2                !
 ! D57   D(10,4,23,24)         -59.8428         estimate D2E/DX2                !
 ! D58   D(3,7,15,16)           55.8193         estimate D2E/DX2                !
 ! D59   D(11,7,15,16)         -64.0762         estimate D2E/DX2                !
 ! D60   D(12,7,15,16)         179.1219         estimate D2E/DX2                !
 ! D61   D(4,9,25,26)           55.8219         estimate D2E/DX2                !
 ! D62   D(13,9,25,26)         179.1174         estimate D2E/DX2                !
 ! D63   D(14,9,25,26)         -64.0766         estimate D2E/DX2                !
 --------------------------------------------------------------------------------
 Trust Radius=3.00D-01 FncErr=1.00D-07 GrdErr=1.00D-06 EigMax=2.50D+02 EigMin=1.00D-04
 Number of steps in this run=    140 maximum allowed number of steps=    156.
 GradGradGradGradGradGradGradGradGradGradGradGradGradGradGradGradGradGrad

                          Input orientation:                          
 ---------------------------------------------------------------------
 Center     Atomic      Atomic             Coordinates (Angstroms)
 Number     Number       Type             X           Y           Z
 ---------------------------------------------------------------------
      1          6           0        0.000000    0.000000    0.000000
      2          6           0        1.553800    0.000000    0.000000
      3          6           0       -0.656600    0.745500   -1.182800
      4          6           0        2.210400   -0.751000    1.179300
      5          1           0        1.937400    1.024000    0.000000
      6          1           0       -0.383600    0.437400    0.925900
      7          6           0       -0.347400    2.241000   -1.252000
      8          1           0       -1.744200    0.619000   -1.111100
      9          6           0        1.901200   -0.174700    2.561100
     10          1           0        3.298000   -0.740200    1.034300
     11          1           0       -1.013200    2.727900   -1.972500
     12          1           0       -0.481500    2.724500   -0.279900
     13          1           0        2.035300    0.910800    2.582900
     14          1           0        2.567000   -0.618100    3.309100
     15          8           0        0.984200    2.466800   -1.704000
     16          1           0        1.043500    2.001700   -2.562200
     17          8           0       -0.251500    0.124600   -2.419500
     18          1           0       -0.533400   -0.810300   -2.311100
     19          8           0       -0.494800   -1.354300   -0.089300
     20          1           0        0.015500   -1.875900    0.564400
     21          8           0        2.048600   -0.659300   -1.186400
     22          1           0        1.538300   -0.291100   -1.937200
     23          8           0        1.805300   -2.134400    1.146200
     24          1           0        2.087200   -2.435800    0.254600
     25          8           0        0.569600   -0.486900    2.958300
     26          1           0        0.510300   -1.461500    2.904400
 ---------------------------------------------------------------------
                    Distance matrix (angstroms):
                    1          2          3          4          5
     1  C    0.000000
     2  C    1.553800   0.000000
     3  C    1.544639   2.615464   0.000000
     4  C    2.615457   1.544627   4.004837   0.000000
     5  H    2.191368   1.093492   2.864509   2.148465   0.000000
     6  H    1.093507   2.191376   2.148504   2.864497   2.566794
     7  C    2.590419   3.194393   1.528697   4.626621   2.875570
     8  H    2.158689   3.534757   1.097277   4.770922   3.866878
     9  C    3.194419   2.590452   4.626651   1.528757   2.827972
    10  H    3.534753   2.158682   4.770922   1.097276   2.456300
    11  H    3.515504   4.233401   2.163492   5.694575   3.937013
    12  H    2.780843   3.412285   2.182276   4.631921   2.970037
    13  H    3.412239   2.780786   4.631862   2.182277   2.587232
    14  H    4.233400   3.515503   5.694574   2.163533   3.747403
    15  O    3.155530   3.051747   2.434491   4.491238   2.427731
    16  H    3.414757   3.291212   2.524108   4.789346   2.884410
    17  O    2.435725   3.021360   1.441891   4.447357   3.384403
    18  H    2.506449   3.217790   1.925812   4.440140   3.848466
    19  O    1.444621   2.457410   2.372990   3.048184   3.402923
    20  H    1.959027   2.490766   3.221205   2.541867   3.524439
    21  O    2.457434   1.444662   3.048210   2.372999   2.062380
    22  H    2.490753   1.959011   2.541898   3.221149   2.375187
    23  O    3.021348   2.435711   4.447361   1.441873   3.362546
    24  H    3.217817   2.506483   4.440183   1.925824   3.472388
    25  O    3.051730   3.155513   4.491223   2.434505   3.592386
    26  H    3.291189   3.414735   4.789333   2.524108   4.080424
                    6          7          8          9         10
     6  H    0.000000
     7  C    2.827991   0.000000
     8  H    2.456335   2.145178   0.000000
     9  C    2.875562   5.042969   5.234879   0.000000
    10  H    3.866868   5.234851   5.645702   2.145218   0.000000
    11  H    3.747467   1.095208   2.392453   6.121466   6.297222
    12  H    2.587347   1.093953   2.591994   4.706793   5.293004
    13  H    2.969989   4.706713   5.292958   1.093969   2.591983
    14  H    3.936974   6.121422   6.297224   1.095170   2.392485
    15  O    3.592453   1.424236   3.348143   5.099950   4.810073
    16  H    4.080501   1.925744   3.433485   5.632102   5.053276
    17  O    3.362588   2.418967   2.045604   5.434158   5.027481
    18  H    3.472372   3.235231   2.224620   5.483575   5.086869
    19  O    2.062325   3.781505   2.549311   3.762565   4.003115
    20  H    2.375146   4.514407   3.482581   3.230597   3.505057
    21  O    3.402963   3.762560   4.003130   3.781576   2.549324
    22  H    3.524451   3.230618   3.505072   4.514416   3.482535
    23  O    3.384372   5.434115   5.027481   2.419000   2.045597
    24  H    3.848477   5.483574   5.086901   3.235292   2.224641
    25  O    2.427668   5.099897   4.810063   1.424217   3.348149
    26  H    2.884327   5.632035   5.053265   1.925698   3.433485
                   11         12         13         14         15
    11  H    0.000000
    12  H    1.774151   0.000000
    13  H    5.774675   4.221305   0.000000
    14  H    7.204779   5.774708   1.774150   0.000000
    15  O    2.032209   2.059793   4.680113   6.095329   0.000000
    16  H    2.259453   2.838478   5.352176   6.607312   0.977927
    17  O    2.749030   3.374947   5.556219   6.427473   2.743136
    18  H    3.586602   4.077165   5.788924   6.421532   3.662112
    19  O    4.525432   4.083273   4.321196   4.633113   4.404033
    20  H    5.356217   4.703566   3.989941   3.952922   4.994303
    21  O    4.633109   4.321256   4.083260   4.525479   3.342657
    22  H    3.952943   3.989997   4.703496   5.356194   2.822662
    23  O    6.427456   5.556269   3.374944   2.749089   5.474385
    24  H    6.421546   5.789007   4.077181   3.586671   5.393349
    25  O    6.095325   4.680154   2.059798   2.032211   5.534734
    26  H    6.607290   5.352199   2.838449   2.259451   6.074000
                   16         17         18         19         20
    16  H    0.000000
    17  O    2.284927   0.000000
    18  H    3.233730   0.982475   0.000000
    19  O    4.443460   2.770591   2.287755   0.000000
    20  H    5.086078   3.602353   3.115332   0.979692   0.000000
    21  O    3.159742   2.724976   2.820368   2.855790   2.945999
    22  H    2.427423   1.899685   2.168251   2.945950   3.329942
    23  O    5.607129   4.695500   4.379005   2.724973   1.899657
    24  H    5.358645   4.379038   4.011560   2.820396   2.168272
    25  O    6.074013   5.474383   5.393308   3.342633   2.822606
    26  H    6.493210   5.607135   5.358620   3.159740   2.427376
                   21         22         23         24         25
    21  O    0.000000
    22  H    0.979632   0.000000
    23  O    2.770584   3.602277   0.000000
    24  H    2.287777   3.115288   0.982477   0.000000
    25  O    4.404055   4.994260   2.743158   3.662146   0.000000
    26  H    4.443482   5.086031   2.284970   3.233777   0.977889
                   26
    26  H    0.000000
 Stoichiometry    C6H14O6
 Framework group  C1[X(C6H14O6)]
 Deg. of freedom    72
 Full point group                 C1      NOp   1
 Largest Abelian subgroup         C1      NOp   1
 Largest concise Abelian subgroup C1      NOp   1
                         Standard orientation:                         
 ---------------------------------------------------------------------
 Center     Atomic      Atomic             Coordinates (Angstroms)
 Number     Number       Type             X           Y           Z
 ---------------------------------------------------------------------
      1          6           0       -0.253439    0.021427    0.734398
      2          6           0        0.253448    0.021359   -0.734397
      3          6           0       -1.789282    0.018192    0.898973
      4          6           0        1.789279    0.018075   -0.898976
      5          1           0       -0.139446    0.886352   -1.275827
      6          1           0        0.139503    0.886458    1.275764
      7          6           0       -2.500234    1.244447    0.326469
      8          1           0       -2.022834   -0.050247    1.968920
      9          6           0        2.500273    1.244426   -0.326571
     10          1           0        2.022830   -0.050451   -1.968916
     11          1           0       -3.539095    1.270178    0.672285
     12          1           0       -2.012329    2.173134    0.636665
     13          1           0        2.012282    2.173049   -0.636882
     14          1           0        3.539087    1.270158   -0.672406
     15          8           0       -2.541001    1.193227   -1.096262
     16          1           0       -2.971663    0.341043   -1.307578
     17          8           0       -2.330563   -1.168183    0.283685
     18          1           0       -1.863006   -1.899901    0.743289
     19          8           0        0.198967   -1.170369    1.414016
     20          1           0        1.151312   -1.261156    1.202846
     21          8           0       -0.198978   -1.170538   -1.413912
     22          1           0       -1.151256   -1.261299   -1.202710
     23          8           0        2.330546   -1.168229   -0.283583
     24          1           0        1.863015   -1.900014   -0.743110
     25          8           0        2.540989    1.193333    1.096147
     26          1           0        2.971646    0.341209    1.307540
 ---------------------------------------------------------------------
 Rotational constants (GHZ):           1.4223157           0.6021389           0.5779177
 Standard basis: def2TZVPP (5D, 7F)
 There are   642 symmetry adapted cartesian basis functions of A   symmetry.
 There are   568 symmetry adapted basis functions of A   symmetry.
   568 basis functions,   850 primitive gaussians,   642 cartesian basis functions
    49 alpha electrons       49 beta electrons
       nuclear repulsion energy       853.6343017343 Hartrees.
 NAtoms=   26 NActive=   26 NUniq=   26 SFac= 1.00D+00 NAtFMM=   60 NAOKFM=F Big=F
 Integral buffers will be    131072 words long.
 Raffenetti 2 integral format.
 Two-electron integral symmetry is turned on.
 Nuclear repulsion after empirical dispersion term =      853.6145266210 Hartrees.
 One-electron integrals computed using PRISM.
   1 Symmetry operations used in ECPInt.
 ECPInt:  NShTT=   23436 NPrTT=   62434 LenC2=   22212 LenP2D=   46548.
 LDataN:  DoStor=T MaxTD1= 6 Len=  172
 NBasis=   568 RedAO= T EigKep=  3.87D-05  NBF=   568
 NBsUse=   568 1.00D-06 EigRej= -1.00D+00 NBFU=   568
 ExpMin= 9.52D-02 ExpMax= 2.70D+04 ExpMxC= 9.22D+02 IAcc=3 IRadAn=         5 AccDes= 0.00D+00
 Harris functional with IExCor= 4639 and IRadAn=       5 diagonalized for initial guess.
 HarFok:  IExCor= 4639 AccDes= 0.00D+00 IRadAn=         5 IDoV= 1 UseB2=F ITyADJ=14
 ICtDFT=  3500011 ScaDFX=  1.000000  1.000000  1.000000  1.000000
 FoFCou: FMM=F IPFlag=           0 FMFlag=      100000 FMFlg1=           0
         NFxFlg=           0 DoJE=T BraDBF=F KetDBF=T FulRan=T
         wScrn=  0.000000 ICntrl=       500 IOpCl=  0 I1Cent=   200000004 NGrid=           0
         NMat0=    1 NMatS0=      1 NMatT0=    0 NMatD0=    1 NMtDS0=    0 NMtDT0=    0
 Petite list used in FoFCou.
 Requested convergence on RMS density matrix=1.00D-08 within 128 cycles.
 Requested convergence on MAX density matrix=1.00D-06.
 Requested convergence on             energy=1.00D-06.
 No special actions if energy rises.
 Integral accuracy reduced to 1.0D-05 until final iterations.
 Initial convergence to 1.0D-05 achieved.  Increase integral accuracy.
 SCF Done:  E(RwB97XD) =  -688.472609969     A.U. after   13 cycles
            NFock= 13  Conv=0.75D-08     -V/T= 2.0050

 **********************************************************************

            Population analysis using the SCF Density.

 **********************************************************************

 Orbital symmetries:
       Occupied  (A) (A) (A) (A) (A) (A) (A) (A) (A) (A) (A) (A)
                 (A) (A) (A) (A) (A) (A) (A) (A) (A) (A) (A) (A)
                 (A) (A) (A) (A) (A) (A) (A) (A) (A) (A) (A) (A)
                 (A) (A) (A) (A) (A) (A) (A) (A) (A) (A) (A) (A)
                 (A)
       Virtual   (A) (A) (A) (A) (A) (A) (A) (A) (A) (A) (A) (A)
                 (A) (A) (A) (A) (A) (A) (A) (A) (A) (A) (A) (A)
                 (A) (A) (A) (A) (A) (A) (A) (A) (A) (A) (A) (A)
                 (A) (A) (A) (A) (A) (A) (A) (A) (A) (A) (A) (A)
                 (A) (A) (A) (A) (A) (A) (A) (A) (A) (A) (A) (A)
                 (A) (A) (A) (A) (A) (A) (A) (A) (A) (A) (A) (A)
                 (A) (A) (A) (A) (A) (A) (A) (A) (A) (A) (A) (A)
                 (A) (A) (A) (A) (A) (A) (A) (A) (A) (A) (A) (A)
                 (A) (A) (A) (A) (A) (A) (A) (A) (A) (A) (A) (A)
                 (A) (A) (A) (A) (A) (A) (A) (A) (A) (A) (A) (A)
                 (A) (A) (A) (A) (A) (A) (A) (A) (A) (A) (A) (A)
                 (A) (A) (A) (A) (A) (A) (A) (A) (A) (A) (A) (A)
                 (A) (A) (A) (A) (A) (A) (A) (A) (A) (A) (A) (A)
                 (A) (A) (A) (A) (A) (A) (A) (A) (A) (A) (A) (A)
                 (A) (A) (A) (A) (A) (A) (A) (A) (A) (A) (A) (A)
                 (A) (A) (A) (A) (A) (A) (A) (A) (A) (A) (A) (A)
                 (A) (A) (A) (A) (A) (A) (A) (A) (A) (A) (A) (A)
                 (A) (A) (A) (A) (A) (A) (A) (A) (A) (A) (A) (A)
                 (A) (A) (A) (A) (A) (A) (A) (A) (A) (A) (A) (A)
                 (A) (A) (A) (A) (A) (A) (A) (A) (A) (A) (A) (A)
                 (A) (A) (A) (A) (A) (A) (A) (A) (A) (A) (A) (A)
                 (A) (A) (A) (A) (A) (A) (A) (A) (A) (A) (A) (A)
                 (A) (A) (A) (A) (A) (A) (A) (A) (A) (A) (A) (A)
                 (A) (A) (A) (A) (A) (A) (A) (A) (A) (A) (A) (A)
                 (A) (A) (A) (A) (A) (A) (A) (A) (A) (A) (A) (A)
                 (A) (A) (A) (A) (A) (A) (A) (A) (A) (A) (A) (A)
                 (A) (A) (A) (A) (A) (A) (A) (A) (A) (A) (A) (A)
                 (A) (A) (A) (A) (A) (A) (A) (A) (A) (A) (A) (A)
                 (A) (A) (A) (A) (A) (A) (A) (A) (A) (A) (A) (A)
                 (A) (A) (A) (A) (A) (A) (A) (A) (A) (A) (A) (A)
                 (A) (A) (A) (A) (A) (A) (A) (A) (A) (A) (A) (A)
                 (A) (A) (A) (A) (A) (A) (A) (A) (A) (A) (A) (A)
                 (A) (A) (A) (A) (A) (A) (A) (A) (A) (A) (A) (A)
                 (A) (A) (A) (A) (A) (A) (A) (A) (A) (A) (A) (A)
                 (A) (A) (A) (A) (A) (A) (A) (A) (A) (A) (A) (A)
                 (A) (A) (A) (A) (A) (A) (A) (A) (A) (A) (A) (A)
                 (A) (A) (A) (A) (A) (A) (A) (A) (A) (A) (A) (A)
                 (A) (A) (A) (A) (A) (A) (A) (A) (A) (A) (A) (A)
                 (A) (A) (A) (A) (A) (A) (A) (A) (A) (A) (A) (A)
                 (A) (A) (A) (A) (A) (A) (A) (A) (A) (A) (A) (A)
                 (A) (A) (A) (A) (A) (A) (A) (A) (A) (A) (A) (A)
                 (A) (A) (A) (A) (A) (A) (A) (A) (A) (A) (A) (A)
                 (A) (A) (A) (A) (A) (A) (A) (A) (A) (A) (A) (A)
                 (A) (A) (A)
 The electronic state is 1-A.
 Alpha  occ. eigenvalues --  -19.27438 -19.27438 -19.25758 -19.25758 -19.24469
 Alpha  occ. eigenvalues --  -19.24469 -10.35093 -10.35093 -10.34313 -10.34313
 Alpha  occ. eigenvalues --  -10.34186 -10.34167  -1.16259  -1.15180  -1.12745
 Alpha  occ. eigenvalues --   -1.12354  -1.11035  -1.10407  -0.88472  -0.86034
 Alpha  occ. eigenvalues --   -0.80026  -0.75664  -0.70802  -0.68602  -0.64741
 Alpha  occ. eigenvalues --   -0.61258  -0.60620  -0.60442  -0.59181  -0.57255
 Alpha  occ. eigenvalues --   -0.56752  -0.55500  -0.53114  -0.51979  -0.51860
 Alpha  occ. eigenvalues --   -0.50850  -0.49439  -0.46991  -0.46473  -0.45289
 Alpha  occ. eigenvalues --   -0.43808  -0.42877  -0.42647  -0.39835  -0.38186
 Alpha  occ. eigenvalues --   -0.37275  -0.36587  -0.35689  -0.34947
 Alpha virt. eigenvalues --    0.08928   0.10749   0.11931   0.12527   0.14302
 Alpha virt. eigenvalues --    0.14979   0.15279   0.17334   0.17908   0.18390
 Alpha virt. eigenvalues --    0.19573   0.19803   0.20861   0.21823   0.22450
 Alpha virt. eigenvalues --    0.23077   0.23520   0.23742   0.24752   0.26105
 Alpha virt. eigenvalues --    0.27694   0.28478   0.30814   0.31990   0.34706
 Alpha virt. eigenvalues --    0.35099   0.36625   0.36949   0.37592   0.37602
 Alpha virt. eigenvalues --    0.38485   0.39254   0.39530   0.39960   0.40572
 Alpha virt. eigenvalues --    0.40772   0.42220   0.42377   0.44300   0.45168
 Alpha virt. eigenvalues --    0.45332   0.45418   0.46931   0.46968   0.47557
 Alpha virt. eigenvalues --    0.49000   0.49757   0.50117   0.50259   0.50578
 Alpha virt. eigenvalues --    0.51695   0.51769   0.52515   0.53103   0.54460
 Alpha virt. eigenvalues --    0.55256   0.56448   0.57165   0.58219   0.59764
 Alpha virt. eigenvalues --    0.61145   0.61630   0.62528   0.62993   0.63072
 Alpha virt. eigenvalues --    0.64863   0.66985   0.67244   0.67861   0.68961
 Alpha virt. eigenvalues --    0.69608   0.72070   0.72375   0.73215   0.75416
 Alpha virt. eigenvalues --    0.76142   0.76648   0.77936   0.79682   0.81523
 Alpha virt. eigenvalues --    0.82826   0.82902   0.85143   0.86710   0.87234
 Alpha virt. eigenvalues --    0.87611   0.87808   0.88657   0.91614   0.91712
 Alpha virt. eigenvalues --    0.92906   0.94127   0.94404   0.95555   0.96186
 Alpha virt. eigenvalues --    0.96485   0.98324   0.98362   0.99883   1.01008
 Alpha virt. eigenvalues --    1.03443   1.04132   1.06903   1.07740   1.08918
 Alpha virt. eigenvalues --    1.09960   1.11079   1.11517   1.13530   1.15009
 Alpha virt. eigenvalues --    1.15618   1.15920   1.16706   1.17707   1.18357
 Alpha virt. eigenvalues --    1.20105   1.21831   1.23154   1.23476   1.25580
 Alpha virt. eigenvalues --    1.25949   1.26468   1.28029   1.29766   1.29839
 Alpha virt. eigenvalues --    1.31975   1.33296   1.33808   1.34542   1.34745
 Alpha virt. eigenvalues --    1.35150   1.36907   1.38530   1.39992   1.41648
 Alpha virt. eigenvalues --    1.44100   1.44189   1.44529   1.45893   1.46462
 Alpha virt. eigenvalues --    1.46989   1.48005   1.49949   1.50608   1.52296
 Alpha virt. eigenvalues --    1.53336   1.53820   1.53876   1.55460   1.57103
 Alpha virt. eigenvalues --    1.59896   1.61442   1.61789   1.62706   1.66177
 Alpha virt. eigenvalues --    1.67683   1.69397   1.71051   1.71134   1.72694
 Alpha virt. eigenvalues --    1.75831   1.79479   1.79976   1.82322   1.85746
 Alpha virt. eigenvalues --    1.87737   1.88366   1.90124   1.91620   1.93235
 Alpha virt. eigenvalues --    1.94262   1.95307   1.95851   1.97872   1.99575
 Alpha virt. eigenvalues --    2.00036   2.01274   2.02646   2.04314   2.05054
 Alpha virt. eigenvalues --    2.06224   2.08521   2.08683   2.11960   2.12312
 Alpha virt. eigenvalues --    2.13902   2.14965   2.15409   2.17405   2.18099
 Alpha virt. eigenvalues --    2.22025   2.23218   2.25156   2.25936   2.26626
 Alpha virt. eigenvalues --    2.27514   2.27589   2.29727   2.30931   2.33297
 Alpha virt. eigenvalues --    2.34101   2.35653   2.37180   2.38455   2.40153
 Alpha virt. eigenvalues --    2.43650   2.44775   2.47669   2.54367   2.54925
 Alpha virt. eigenvalues --    2.58449   2.60297   2.61004   2.64210   2.64797
 Alpha virt. eigenvalues --    2.67384   2.68497   2.69974   2.71490   2.72243
 Alpha virt. eigenvalues --    2.73721   2.74552   2.75115   2.75150   2.76245
 Alpha virt. eigenvalues --    2.78946   2.79755   2.82449   2.83977   2.84285
 Alpha virt. eigenvalues --    2.86146   2.86348   2.86654   2.91537   2.92938
 Alpha virt. eigenvalues --    2.93399   2.95390   2.95512   2.95794   2.97393
 Alpha virt. eigenvalues --    2.99109   3.00413   3.00895   3.03992   3.04841
 Alpha virt. eigenvalues --    3.05721   3.07185   3.07189   3.10678   3.11100
 Alpha virt. eigenvalues --    3.13202   3.13267   3.13441   3.16365   3.16603
 Alpha virt. eigenvalues --    3.17901   3.19497   3.20165   3.20487   3.23192
 Alpha virt. eigenvalues --    3.23395   3.24876   3.25814   3.27137   3.28279
 Alpha virt. eigenvalues --    3.28673   3.30078   3.30357   3.31697   3.32711
 Alpha virt. eigenvalues --    3.33083   3.33653   3.36295   3.36998   3.40414
 Alpha virt. eigenvalues --    3.42073   3.42426   3.42679   3.43156   3.44115
 Alpha virt. eigenvalues --    3.44865   3.46317   3.48276   3.48850   3.49614
 Alpha virt. eigenvalues --    3.50600   3.52095   3.52571   3.53889   3.55033
 Alpha virt. eigenvalues --    3.55117   3.56370   3.57569   3.59338   3.60153
 Alpha virt. eigenvalues --    3.60959   3.62043   3.63475   3.65213   3.66206
 Alpha virt. eigenvalues --    3.67215   3.67260   3.68957   3.69685   3.70482
 Alpha virt. eigenvalues --    3.72497   3.73016   3.74961   3.76009   3.76264
 Alpha virt. eigenvalues --    3.78136   3.79011   3.80654   3.81359   3.82623
 Alpha virt. eigenvalues --    3.84905   3.85858   3.86453   3.86588   3.88156
 Alpha virt. eigenvalues --    3.90104   3.92193   3.93708   3.95050   3.95818
 Alpha virt. eigenvalues --    3.96745   3.96878   4.00156   4.00897   4.01156
 Alpha virt. eigenvalues --    4.01635   4.04919   4.05367   4.06186   4.08493
 Alpha virt. eigenvalues --    4.08995   4.10346   4.11257   4.13211   4.13506
 Alpha virt. eigenvalues --    4.14208   4.16333   4.16635   4.18055   4.18468
 Alpha virt. eigenvalues --    4.18999   4.20900   4.21251   4.22072   4.23283
 Alpha virt. eigenvalues --    4.23755   4.25762   4.26249   4.27780   4.28524
 Alpha virt. eigenvalues --    4.28769   4.31086   4.33044   4.33565   4.34794
 Alpha virt. eigenvalues --    4.38153   4.38438   4.39121   4.39749   4.42000
 Alpha virt. eigenvalues --    4.42135   4.42909   4.44723   4.46126   4.46283
 Alpha virt. eigenvalues --    4.46980   4.48724   4.50872   4.52955   4.53494
 Alpha virt. eigenvalues --    4.54127   4.56232   4.56337   4.58520   4.60646
 Alpha virt. eigenvalues --    4.62458   4.63477   4.65573   4.66644   4.66797
 Alpha virt. eigenvalues --    4.72604   4.73820   4.75950   4.80454   4.85328
 Alpha virt. eigenvalues --    4.85761   4.86684   4.87502   4.89280   4.91729
 Alpha virt. eigenvalues --    4.91834   4.93254   4.94568   4.95545   4.95604
 Alpha virt. eigenvalues --    4.98586   4.98863   5.01373   5.02224   5.03125
 Alpha virt. eigenvalues --    5.06432   5.06447   5.08514   5.09147   5.10597
 Alpha virt. eigenvalues --    5.13163   5.13589   5.14181   5.14278   5.18909
 Alpha virt. eigenvalues --    5.19036   5.21016   5.27337   5.27872   5.28727
 Alpha virt. eigenvalues --    5.32624   5.32936   5.33169   5.34340   5.38602
 Alpha virt. eigenvalues --    5.40882   5.42587   5.53432   5.57667   5.59317
 Alpha virt. eigenvalues --    5.59780   5.61734   5.62600   5.65472   5.65654
 Alpha virt. eigenvalues --    5.69566   5.71511   5.72508   5.73475   5.74813
 Alpha virt. eigenvalues --    5.75319   5.81392   5.82174   5.84981   5.85359
 Alpha virt. eigenvalues --    5.86885   5.87754   5.91360   5.94272   5.98597
 Alpha virt. eigenvalues --    6.00586   6.02444   6.05797   6.13232   6.13637
 Alpha virt. eigenvalues --    6.15045   6.16280   6.19506   6.21921   6.51390
 Alpha virt. eigenvalues --    6.51723   6.53260   6.53838   6.53953   6.55768
 Alpha virt. eigenvalues --    6.69793   6.72905   6.73367   6.75381   6.78144
 Alpha virt. eigenvalues --    6.78949   6.79222   6.79396   6.80162   6.80487
 Alpha virt. eigenvalues --    6.82516   6.84188   6.87514   6.87520   6.89052
 Alpha virt. eigenvalues --    6.89525   6.96181   6.96202   7.01146   7.01428
 Alpha virt. eigenvalues --    7.02295   7.04714   7.05821   7.07447   7.15799
 Alpha virt. eigenvalues --    7.16166   7.20249   7.20346   7.26089   7.30073
 Alpha virt. eigenvalues --    7.40492   7.42323   7.45177   7.45695   7.46748
 Alpha virt. eigenvalues --    7.50906   7.57363   7.57682   7.61620   7.61944
 Alpha virt. eigenvalues --    7.63513   7.68197  23.12239  23.14307  23.16861
 Alpha virt. eigenvalues --   23.28464  23.43093  23.44977  44.08175  44.13094
 Alpha virt. eigenvalues --   44.22967  44.28696  44.36796  44.42530
          Condensed to atoms (all electrons):
               1          2          3          4          5          6
     1  C    5.018419   0.152323   0.201353   0.022505  -0.044327   0.459915
     2  C    0.152323   5.018454   0.022510   0.201357   0.459904  -0.044336
     3  C    0.201353   0.022510   5.050183   0.008398  -0.007797  -0.047173
     4  C    0.022505   0.201357   0.008398   5.050155  -0.047169  -0.007798
     5  H   -0.044327   0.459904  -0.007797  -0.047169   0.559998   0.005080
     6  H    0.459915  -0.044336  -0.047173  -0.007798   0.005080   0.560005
     7  C   -0.013824   0.008887   0.250219  -0.001898  -0.002628  -0.000208
     8  H   -0.056769   0.010229   0.447852  -0.000508  -0.000627  -0.006077
     9  C    0.008886  -0.013825  -0.001898   0.250245  -0.000208  -0.002627
    10  H    0.010229  -0.056769  -0.000508   0.447854  -0.006077  -0.000627
    11  H    0.005801   0.001358  -0.037003   0.000085   0.000913  -0.000595
    12  H    0.005332  -0.002658  -0.040534  -0.000378  -0.001242   0.001246
    13  H   -0.002658   0.005334  -0.000378  -0.040535   0.001246  -0.001243
    14  H    0.001358   0.005799   0.000085  -0.036999  -0.000595   0.000913
    15  O   -0.029806   0.011022  -0.019182   0.002372   0.015326  -0.000628
    16  H   -0.001637   0.000876  -0.006953   0.000080  -0.003662  -0.000216
    17  O   -0.023750  -0.020389   0.214564  -0.000446   0.000514   0.004266
    18  H    0.010845  -0.002973  -0.050606  -0.000621   0.000223   0.001563
    19  O    0.270198  -0.041484  -0.063990  -0.003303   0.003677  -0.028534
    20  H   -0.033480  -0.003200   0.006474  -0.000953   0.000109  -0.003553
    21  O   -0.041473   0.270190  -0.003306  -0.063985  -0.028526   0.003678
    22  H   -0.003198  -0.033481  -0.000954   0.006473  -0.003552   0.000109
    23  O   -0.020386  -0.023758  -0.000447   0.214564   0.004266   0.000514
    24  H   -0.002972   0.010846  -0.000621  -0.050607   0.001563   0.000223
    25  O    0.011022  -0.029808   0.002372  -0.019185  -0.000628   0.015324
    26  H    0.000876  -0.001636   0.000081  -0.006951  -0.000216  -0.003662
               7          8          9         10         11         12
     1  C   -0.013824  -0.056769   0.008886   0.010229   0.005801   0.005332
     2  C    0.008887   0.010229  -0.013825  -0.056769   0.001358  -0.002658
     3  C    0.250219   0.447852  -0.001898  -0.000508  -0.037003  -0.040534
     4  C   -0.001898  -0.000508   0.250245   0.447854   0.000085  -0.000378
     5  H   -0.002628  -0.000627  -0.000208  -0.006077   0.000913  -0.001242
     6  H   -0.000208  -0.006077  -0.002627  -0.000627  -0.000595   0.001246
     7  C    4.745070  -0.022220  -0.000030   0.000064   0.429016   0.412811
     8  H   -0.022220   0.562948   0.000064   0.000028  -0.004720   0.001882
     9  C   -0.000030   0.000064   4.745041  -0.022222   0.000007  -0.000189
    10  H    0.000064   0.000028  -0.022222   0.562948  -0.000002  -0.000001
    11  H    0.429016  -0.004720   0.000007  -0.000002   0.589598  -0.032497
    12  H    0.412811   0.001882  -0.000189  -0.000001  -0.032497   0.595773
    13  H   -0.000189  -0.000001   0.412800   0.001883  -0.000007   0.000206
    14  H    0.000007  -0.000002   0.429025  -0.004719   0.000000  -0.000007
    15  O    0.243529   0.004058   0.000146   0.000033  -0.039517  -0.031453
    16  H   -0.031861   0.000567  -0.000025   0.000010  -0.008703   0.009159
    17  O   -0.040817  -0.032193   0.000188   0.000044   0.000056   0.002781
    18  H    0.010946  -0.010785   0.000027  -0.000012  -0.000377  -0.000315
    19  O    0.003850   0.004103  -0.003168  -0.000783  -0.000144   0.000085
    20  H   -0.000639   0.000362  -0.005376   0.001324   0.000029  -0.000017
    21  O   -0.003168  -0.000783   0.003850   0.004102  -0.000047   0.000161
    22  H   -0.005375   0.001324  -0.000639   0.000362   0.000125  -0.000051
    23  O    0.000188   0.000044  -0.040815  -0.032194  -0.000001   0.000005
    24  H    0.000027  -0.000012   0.010945  -0.010785  -0.000000   0.000004
    25  O    0.000146   0.000033   0.243532   0.004058   0.000002  -0.000058
    26  H   -0.000025   0.000010  -0.031868   0.000567  -0.000000   0.000005
              13         14         15         16         17         18
     1  C   -0.002658   0.001358  -0.029806  -0.001637  -0.023750   0.010845
     2  C    0.005334   0.005799   0.011022   0.000876  -0.020389  -0.002973
     3  C   -0.000378   0.000085  -0.019182  -0.006953   0.214564  -0.050606
     4  C   -0.040535  -0.036999   0.002372   0.000080  -0.000446  -0.000621
     5  H    0.001246  -0.000595   0.015326  -0.003662   0.000514   0.000223
     6  H   -0.001243   0.000913  -0.000628  -0.000216   0.004266   0.001563
     7  C   -0.000189   0.000007   0.243529  -0.031861  -0.040817   0.010946
     8  H   -0.000001  -0.000002   0.004058   0.000567  -0.032193  -0.010785
     9  C    0.412800   0.429025   0.000146  -0.000025   0.000188   0.000027
    10  H    0.001883  -0.004719   0.000033   0.000010   0.000044  -0.000012
    11  H   -0.000007   0.000000  -0.039517  -0.008703   0.000056  -0.000377
    12  H    0.000206  -0.000007  -0.031453   0.009159   0.002781  -0.000315
    13  H    0.595793  -0.032498  -0.000058   0.000005   0.000005   0.000004
    14  H   -0.032498   0.589579   0.000002  -0.000000  -0.000001  -0.000000
    15  O   -0.000058   0.000002   7.889650   0.319599  -0.008449  -0.000141
    16  H    0.000005  -0.000000   0.319599   0.515973   0.011501  -0.001054
    17  O    0.000005  -0.000001  -0.008449   0.011501   7.950735   0.325997
    18  H    0.000004  -0.000000  -0.000141  -0.001054   0.325997   0.487493
    19  O    0.000161  -0.000047   0.000063   0.000035  -0.010049   0.022953
    20  H   -0.000051   0.000125   0.000055   0.000005  -0.000538  -0.000916
    21  O    0.000085  -0.000144  -0.001631   0.001499  -0.025325   0.003926
    22  H   -0.000017   0.000029   0.003667   0.001456   0.043069  -0.003154
    23  O    0.002781   0.000056  -0.000015  -0.000001  -0.000004   0.000096
    24  H   -0.000315  -0.000377  -0.000004  -0.000006   0.000096   0.000176
    25  O   -0.031454  -0.039514  -0.000004  -0.000000  -0.000015  -0.000004
    26  H    0.009160  -0.008703  -0.000000   0.000000  -0.000001  -0.000006
              19         20         21         22         23         24
     1  C    0.270198  -0.033480  -0.041473  -0.003198  -0.020386  -0.002972
     2  C   -0.041484  -0.003200   0.270190  -0.033481  -0.023758   0.010846
     3  C   -0.063990   0.006474  -0.003306  -0.000954  -0.000447  -0.000621
     4  C   -0.003303  -0.000953  -0.063985   0.006473   0.214564  -0.050607
     5  H    0.003677   0.000109  -0.028526  -0.003552   0.004266   0.001563
     6  H   -0.028534  -0.003553   0.003678   0.000109   0.000514   0.000223
     7  C    0.003850  -0.000639  -0.003168  -0.005375   0.000188   0.000027
     8  H    0.004103   0.000362  -0.000783   0.001324   0.000044  -0.000012
     9  C   -0.003168  -0.005376   0.003850  -0.000639  -0.040815   0.010945
    10  H   -0.000783   0.001324   0.004102   0.000362  -0.032194  -0.010785
    11  H   -0.000144   0.000029  -0.000047   0.000125  -0.000001  -0.000000
    12  H    0.000085  -0.000017   0.000161  -0.000051   0.000005   0.000004
    13  H    0.000161  -0.000051   0.000085  -0.000017   0.002781  -0.000315
    14  H   -0.000047   0.000125  -0.000144   0.000029   0.000056  -0.000377
    15  O    0.000063   0.000055  -0.001631   0.003667  -0.000015  -0.000004
    16  H    0.000035   0.000005   0.001499   0.001456  -0.000001  -0.000006
    17  O   -0.010049  -0.000538  -0.025325   0.043069  -0.000004   0.000096
    18  H    0.022953  -0.000916   0.003926  -0.003154   0.000096   0.000176
    19  O    7.934933   0.350403   0.001889   0.000297  -0.025327   0.003926
    20  H    0.350403   0.437308   0.000297  -0.000010   0.043070  -0.003154
    21  O    0.001889   0.000297   7.934867   0.350423  -0.010050   0.022953
    22  H    0.000297  -0.000010   0.350423   0.437327  -0.000538  -0.000916
    23  O   -0.025327   0.043070  -0.010050  -0.000538   7.950735   0.326000
    24  H    0.003926  -0.003154   0.022953  -0.000916   0.326000   0.487489
    25  O   -0.001631   0.003667   0.000063   0.000055  -0.008448  -0.000141
    26  H    0.001499   0.001456   0.000035   0.000005   0.011501  -0.001054
              25         26
     1  C    0.011022   0.000876
     2  C   -0.029808  -0.001636
     3  C    0.002372   0.000081
     4  C   -0.019185  -0.006951
     5  H   -0.000628  -0.000216
     6  H    0.015324  -0.003662
     7  C    0.000146  -0.000025
     8  H    0.000033   0.000010
     9  C    0.243532  -0.031868
    10  H    0.004058   0.000567
    11  H    0.000002  -0.000000
    12  H   -0.000058   0.000005
    13  H   -0.031454   0.009160
    14  H   -0.039514  -0.008703
    15  O   -0.000004  -0.000000
    16  H   -0.000000   0.000000
    17  O   -0.000015  -0.000001
    18  H   -0.000004  -0.000006
    19  O   -0.001631   0.001499
    20  H    0.003667   0.001456
    21  O    0.000063   0.000035
    22  H    0.000055   0.000005
    23  O   -0.008448   0.011501
    24  H   -0.000141  -0.001054
    25  O    7.889611   0.319607
    26  H    0.319607   0.515994
 Mulliken charges:
               1
     1  C    0.095219
     2  C    0.095229
     3  C    0.077260
     4  C    0.077249
     5  H    0.094438
     6  H    0.094442
     7  C    0.018122
     8  H    0.101192
     9  C    0.018134
    10  H    0.101193
    11  H    0.096621
    12  H    0.079950
    13  H    0.079942
    14  H    0.096625
    15  O   -0.358632
    16  H    0.193354
    17  O   -0.391838
    18  H    0.206715
    19  O   -0.419611
    20  H    0.207203
    21  O   -0.419578
    22  H    0.207165
    23  O   -0.391836
    24  H    0.206718
    25  O   -0.358603
    26  H    0.193328
 Sum of Mulliken charges =  -0.00000
 Mulliken charges with hydrogens summed into heavy atoms:
               1
     1  C    0.189660
     2  C    0.189667
     3  C    0.178452
     4  C    0.178442
     7  C    0.194693
     9  C    0.194700
    15  O   -0.165279
    17  O   -0.185123
    19  O   -0.212408
    21  O   -0.212413
    23  O   -0.185119
    25  O   -0.165274
 Electronic spatial extent (au):  <R**2>=           2210.2102
 Charge=             -0.0000 electrons
 Dipole moment (field-independent basis, Debye):
    X=              0.0004    Y=             -0.0232    Z=              0.0001  Tot=              0.0232
 Quadrupole moment (field-independent basis, Debye-Ang):
   XX=            -69.0208   YY=            -72.1575   ZZ=            -75.6551
   XY=             -0.0002   XZ=             -5.7804   YZ=             -0.0002
 Traceless Quadrupole moment (field-independent basis, Debye-Ang):
   XX=              3.2570   YY=              0.1203   ZZ=             -3.3773
   XY=             -0.0002   XZ=             -5.7804   YZ=             -0.0002
 Octapole moment (field-independent basis, Debye-Ang**2):
  XXX=              0.0041  YYY=            -20.9514  ZZZ=              0.0013  XYY=             -0.0007
  XXY=             -9.7185  XXZ=              0.0007  XZZ=              0.0021  YZZ=             -5.2638
  YYZ=              0.0005  XYZ=            -15.0733
 Hexadecapole moment (field-independent basis, Debye-Ang**3):
 XXXX=          -1665.4981 YYYY=           -491.7766 ZZZZ=           -470.0309 XXXY=              0.0054
 XXXZ=             19.3843 YYYX=             -0.0063 YYYZ=             -0.0035 ZZZX=             11.4694
 ZZZY=              0.0010 XXYY=           -392.2992 XXZZ=           -333.4923 YYZZ=           -179.5241
 XXYZ=              0.0032 YYXZ=            -28.0259 ZZXY=              0.0035
 N-N= 8.536145266210D+02 E-N=-3.324479169046D+03  KE= 6.850615317901D+02
   1 Symmetry operations used in ECPInt.
 ECPInt:  NShTT=   23436 NPrTT=   62434 LenC2=   22212 LenP2D=   46548.
 LDataN:  DoStor=T MaxTD1= 7 Len=  274
 Calling FoFJK, ICntrl=      2127 FMM=F ISym2X=0 I1Cent= 0 IOpClX= 0 NMat=1 NMatS=1 NMatT=0.
 ***** Axes restored to original set *****
 -------------------------------------------------------------------
 Center     Atomic                   Forces (Hartrees/Bohr)
 Number     Number              X              Y              Z
 -------------------------------------------------------------------
      1        6          -0.004677524   -0.012709064   -0.000425327
      2        6           0.004677910   -0.005829548   -0.011319809
      3        6           0.002946973   -0.006504931    0.001943070
      4        6          -0.002945164   -0.001013258   -0.006685008
      5        1          -0.004158515    0.001192749    0.002583904
      6        1           0.004163316    0.002849692   -0.000035384
      7        6           0.008694168   -0.003426815   -0.014838408
      8        1           0.002319542    0.001056960    0.005945257
      9        6          -0.008696934   -0.014858986    0.003184982
     10        1          -0.002318867    0.005826390   -0.001584254
     11        1          -0.005468180   -0.002657514    0.003879679
     12        1           0.002813620   -0.003421963   -0.002001502
     13        1          -0.002814911   -0.003280878   -0.002232926
     14        1           0.005479051    0.002361335   -0.004044355
     15        8          -0.003102706   -0.008234029   -0.010326491
     16        1           0.001426338    0.010224791    0.016110273
     17        8          -0.011044678   -0.010096474    0.006866554
     18        1           0.007930552    0.017728000   -0.004147451
     19        8           0.006854440    0.008585792    0.008491221
     20        1          -0.007223384    0.007783025   -0.013322344
     21        8          -0.006835206    0.011339488    0.004193103
     22        1           0.007198299   -0.008700238    0.012686663
     23        8           0.011041261    0.001884234   -0.012060450
     24        1          -0.007931057    0.003827486    0.017802034
     25        8           0.003102180   -0.012825827   -0.003025120
     26        1          -0.001430525    0.018899583    0.002362088
 -------------------------------------------------------------------
 Cartesian Forces:  Max     0.018899583 RMS     0.007820193

 GradGradGradGradGradGradGradGradGradGradGradGradGradGradGradGradGradGrad
 Berny optimization.
 FormGI is forming the generalized inverse of G from B-inverse, IUseBI=4.
 Internal  Forces:  Max     0.019605048 RMS     0.005951323
 Search for a local minimum.
 Step number   1 out of a maximum of  140
 All quantities printed in internal units (Hartrees-Bohrs-Radians)
 Mixed Optimization -- RFO/linear search
 Second derivative matrix not updated -- first step.
 ITU=  0
     Eigenvalues ---    0.00230   0.00230   0.00230   0.00386   0.00386
     Eigenvalues ---    0.01101   0.01102   0.01138   0.01138   0.01371
     Eigenvalues ---    0.01371   0.03866   0.03866   0.03907   0.03907
     Eigenvalues ---    0.04690   0.04690   0.04724   0.04724   0.04961
     Eigenvalues ---    0.04961   0.05700   0.05700   0.07674   0.07674
     Eigenvalues ---    0.07753   0.07753   0.11616   0.11617   0.13868
     Eigenvalues ---    0.13868   0.16000   0.16000   0.16000   0.16000
     Eigenvalues ---    0.16000   0.16000   0.16983   0.16983   0.17359
     Eigenvalues ---    0.17359   0.19517   0.19517   0.19869   0.19869
     Eigenvalues ---    0.22031   0.22031   0.27331   0.28112   0.28113
     Eigenvalues ---    0.29539   0.29544   0.33985   0.33985   0.34218
     Eigenvalues ---    0.34222   0.34358   0.34360   0.34410   0.34412
     Eigenvalues ---    0.38953   0.38958   0.39327   0.39330   0.41829
     Eigenvalues ---    0.41832   0.50907   0.50907   0.51445   0.51456
     Eigenvalues ---    0.51789   0.51797
 RFO step:  Lambda=-1.94475363D-02 EMin= 2.30000000D-03
 Linear search not attempted -- first point.
 Iteration  1 RMS(Cart)=  0.09508005 RMS(Int)=  0.00366117
 Iteration  2 RMS(Cart)=  0.00415607 RMS(Int)=  0.00047336
 Iteration  3 RMS(Cart)=  0.00000744 RMS(Int)=  0.00047331
 Iteration  4 RMS(Cart)=  0.00000001 RMS(Int)=  0.00047331
 Variable       Old X    -DE/DX   Delta X   Delta X   Delta X     New X
                                 (Linear)    (Quad)   (Total)
    R1        2.93626  -0.00563   0.00000  -0.01923  -0.01923   2.91702
    R2        2.91894  -0.00797   0.00000  -0.02652  -0.02652   2.89243
    R3        2.06643  -0.00035   0.00000  -0.00096  -0.00096   2.06547
    R4        2.72994  -0.01492   0.00000  -0.03648  -0.03648   2.69346
    R5        2.91892  -0.00797   0.00000  -0.02650  -0.02650   2.89242
    R6        2.06640  -0.00034   0.00000  -0.00094  -0.00094   2.06546
    R7        2.73002  -0.01494   0.00000  -0.03654  -0.03654   2.69348
    R8        2.88882  -0.00615   0.00000  -0.01952  -0.01952   2.86930
    R9        2.07355  -0.00203   0.00000  -0.00566  -0.00566   2.06790
   R10        2.72478  -0.00649   0.00000  -0.01573  -0.01573   2.70905
   R11        2.88893  -0.00617   0.00000  -0.01960  -0.01960   2.86933
   R12        2.07355  -0.00203   0.00000  -0.00565  -0.00565   2.06790
   R13        2.72474  -0.00649   0.00000  -0.01571  -0.01571   2.70903
   R14        2.06964  -0.00041   0.00000  -0.00113  -0.00113   2.06851
   R15        2.06727  -0.00364   0.00000  -0.01001  -0.01001   2.05726
   R16        2.69142  -0.00309   0.00000  -0.00705  -0.00705   2.68436
   R17        2.06730  -0.00364   0.00000  -0.01004  -0.01004   2.05726
   R18        2.06957  -0.00039   0.00000  -0.00107  -0.00107   2.06850
   R19        2.69138  -0.00308   0.00000  -0.00704  -0.00704   2.68435
   R20        1.84801  -0.01891   0.00000  -0.03520  -0.03520   1.81281
   R21        1.85661  -0.01960   0.00000  -0.03709  -0.03709   1.81952
   R22        1.85135  -0.01680   0.00000  -0.03146  -0.03146   1.81989
   R23        1.85124  -0.01674   0.00000  -0.03135  -0.03135   1.81988
   R24        1.85661  -0.01961   0.00000  -0.03709  -0.03709   1.81952
   R25        1.84794  -0.01888   0.00000  -0.03513  -0.03513   1.81281
    A1        2.00985   0.00414   0.00000   0.01550   0.01536   2.02521
    A2        1.92922  -0.00644   0.00000  -0.04967  -0.04994   1.87928
    A3        1.92039   0.00752   0.00000   0.05206   0.05228   1.97267
    A4        1.88200   0.00073   0.00000  -0.01385  -0.01401   1.86799
    A5        1.83333  -0.00878   0.00000  -0.03363  -0.03417   1.79916
    A6        1.88302   0.00277   0.00000   0.03201   0.03234   1.91536
    A7        2.00985   0.00414   0.00000   0.01549   0.01535   2.02521
    A8        1.92922  -0.00644   0.00000  -0.04966  -0.04993   1.87930
    A9        1.92038   0.00752   0.00000   0.05206   0.05229   1.97266
   A10        1.88198   0.00073   0.00000  -0.01382  -0.01399   1.86799
   A11        1.83332  -0.00878   0.00000  -0.03362  -0.03416   1.79916
   A12        1.88306   0.00276   0.00000   0.03195   0.03228   1.91535
   A13        2.00517   0.00276   0.00000   0.01083   0.01087   2.01604
   A14        1.89195  -0.00574   0.00000  -0.04342  -0.04356   1.84838
   A15        1.90659   0.00762   0.00000   0.04774   0.04799   1.95458
   A16        1.89254   0.00173   0.00000  -0.00298  -0.00308   1.88946
   A17        1.90246  -0.00864   0.00000  -0.03589  -0.03624   1.86621
   A18        1.85967   0.00228   0.00000   0.02477   0.02513   1.88480
   A19        2.00516   0.00276   0.00000   0.01083   0.01087   2.01602
   A20        1.89195  -0.00574   0.00000  -0.04343  -0.04357   1.84838
   A21        1.90660   0.00762   0.00000   0.04775   0.04799   1.95459
   A22        1.89252   0.00173   0.00000  -0.00297  -0.00307   1.88945
   A23        1.90245  -0.00864   0.00000  -0.03590  -0.03625   1.86620
   A24        1.85968   0.00228   0.00000   0.02478   0.02513   1.88482
   A25        1.91956  -0.00523   0.00000  -0.01915  -0.02087   1.89869
   A26        1.94696  -0.00401   0.00000  -0.03682  -0.03694   1.91002
   A27        1.93753   0.00939   0.00000   0.04300   0.04259   1.98013
   A28        1.88975   0.00188   0.00000  -0.00236  -0.00285   1.88691
   A29        1.86410   0.00327   0.00000   0.05531   0.05490   1.91899
   A30        1.90345  -0.00516   0.00000  -0.03720  -0.03655   1.86690
   A31        1.94687  -0.00400   0.00000  -0.03676  -0.03688   1.90999
   A32        1.91958  -0.00523   0.00000  -0.01918  -0.02090   1.89869
   A33        1.93751   0.00940   0.00000   0.04302   0.04262   1.98013
   A34        1.88978   0.00188   0.00000  -0.00237  -0.00286   1.88692
   A35        1.90346  -0.00517   0.00000  -0.03719  -0.03655   1.86692
   A36        1.86416   0.00327   0.00000   0.05526   0.05484   1.91900
   A37        1.83361   0.00527   0.00000   0.02938   0.02938   1.86300
   A38        1.80752   0.00525   0.00000   0.02925   0.02925   1.83677
   A39        1.85404   0.00134   0.00000   0.00747   0.00747   1.86151
   A40        1.85403   0.00134   0.00000   0.00748   0.00748   1.86150
   A41        1.80756   0.00524   0.00000   0.02922   0.02922   1.83678
   A42        1.83361   0.00528   0.00000   0.02941   0.02941   1.86302
    D1       -3.13693  -0.00012   0.00000  -0.10099  -0.10122   3.04503
    D2        1.00841   0.00095   0.00000  -0.05461  -0.05516   0.95325
    D3       -1.06961  -0.00319   0.00000  -0.09596  -0.09553  -1.16514
    D4        1.00838   0.00095   0.00000  -0.05456  -0.05511   0.95327
    D5       -1.12947   0.00203   0.00000  -0.00819  -0.00904  -1.13851
    D6        3.07570  -0.00211   0.00000  -0.04953  -0.04942   3.02629
    D7       -1.06959  -0.00319   0.00000  -0.09597  -0.09554  -1.16512
    D8        3.07575  -0.00212   0.00000  -0.04959  -0.04947   3.02628
    D9        0.99773  -0.00626   0.00000  -0.09094  -0.08984   0.90789
   D10       -1.08806   0.00515   0.00000   0.05355   0.05337  -1.03469
   D11        3.07548   0.00535   0.00000   0.08255   0.08215  -3.12555
   D12        1.05566   0.00169   0.00000   0.05125   0.05158   1.10724
   D13        1.07491   0.00020   0.00000  -0.01143  -0.01174   1.06317
   D14       -1.04473   0.00039   0.00000   0.01756   0.01705  -1.02769
   D15       -3.06455  -0.00326   0.00000  -0.01374  -0.01352  -3.07808
   D16        3.07978  -0.00052   0.00000   0.00280   0.00298   3.08276
   D17        0.96013  -0.00033   0.00000   0.03180   0.03177   0.99190
   D18       -1.05969  -0.00399   0.00000   0.00050   0.00119  -1.05849
   D19        0.81820  -0.00348   0.00000  -0.06626  -0.06537   0.75284
   D20        2.99122   0.00036   0.00000  -0.03857  -0.03848   2.95274
   D21       -1.28781  -0.00179   0.00000  -0.05626  -0.05724  -1.34505
   D22       -1.08808   0.00515   0.00000   0.05353   0.05335  -1.03473
   D23        3.07549   0.00535   0.00000   0.08252   0.08213  -3.12557
   D24        1.05564   0.00169   0.00000   0.05122   0.05155   1.10720
   D25        1.07489   0.00020   0.00000  -0.01142  -0.01172   1.06316
   D26       -1.04473   0.00039   0.00000   0.01757   0.01706  -1.02767
   D27       -3.06458  -0.00326   0.00000  -0.01373  -0.01352  -3.07809
   D28        3.07978  -0.00053   0.00000   0.00277   0.00295   3.08273
   D29        0.96016  -0.00033   0.00000   0.03176   0.03173   0.99189
   D30       -1.05968  -0.00399   0.00000   0.00046   0.00115  -1.05853
   D31        0.81817  -0.00348   0.00000  -0.06624  -0.06534   0.75283
   D32        2.99118   0.00036   0.00000  -0.03854  -0.03846   2.95272
   D33       -1.28786  -0.00178   0.00000  -0.05622  -0.05720  -1.34507
   D34       -2.92677   0.00674   0.00000   0.07824   0.07788  -2.84889
   D35       -0.82963   0.00301   0.00000   0.03855   0.03884  -0.79079
   D36        1.29721   0.00020   0.00000  -0.00455  -0.00467   1.29254
   D37       -0.80745   0.00248   0.00000   0.02721   0.02678  -0.78067
   D38        1.28969  -0.00126   0.00000  -0.01248  -0.01226   1.27744
   D39       -2.86666  -0.00406   0.00000  -0.05558  -0.05577  -2.92242
   D40        1.21048   0.00150   0.00000   0.03576   0.03566   1.24614
   D41       -2.97557  -0.00224   0.00000  -0.00393  -0.00338  -2.97894
   D42       -0.84873  -0.00505   0.00000  -0.04703  -0.04689  -0.89562
   D43        0.99590  -0.00234   0.00000  -0.04005  -0.03936   0.95654
   D44       -3.08343   0.00042   0.00000  -0.01838  -0.01840  -3.10183
   D45       -1.04447  -0.00071   0.00000  -0.02679  -0.02746  -1.07192
   D46       -0.82959   0.00301   0.00000   0.03856   0.03885  -0.79074
   D47       -2.92672   0.00674   0.00000   0.07824   0.07788  -2.84884
   D48        1.29718   0.00020   0.00000  -0.00449  -0.00461   1.29258
   D49        1.28972  -0.00126   0.00000  -0.01248  -0.01225   1.27747
   D50       -0.80741   0.00248   0.00000   0.02721   0.02678  -0.78063
   D51       -2.86670  -0.00406   0.00000  -0.05552  -0.05571  -2.92240
   D52       -2.97553  -0.00224   0.00000  -0.00392  -0.00337  -2.97890
   D53        1.21052   0.00149   0.00000   0.03576   0.03566   1.24618
   D54       -0.84876  -0.00504   0.00000  -0.04697  -0.04682  -0.89559
   D55        0.99593  -0.00234   0.00000  -0.04006  -0.03937   0.95656
   D56       -3.08340   0.00042   0.00000  -0.01839  -0.01842  -3.10182
   D57       -1.04445  -0.00071   0.00000  -0.02681  -0.02747  -1.07193
   D58        0.97423   0.00141   0.00000   0.03479   0.03594   1.01017
   D59       -1.11834   0.00039   0.00000  -0.00057  -0.00200  -1.12034
   D60        3.12627  -0.00094   0.00000  -0.00856  -0.00828   3.11799
   D61        0.97428   0.00140   0.00000   0.03476   0.03591   1.01018
   D62        3.12619  -0.00094   0.00000  -0.00850  -0.00822   3.11797
   D63       -1.11835   0.00039   0.00000  -0.00055  -0.00198  -1.12033
         Item               Value     Threshold  Converged?
 Maximum Force            0.019605     0.000450     NO 
 RMS     Force            0.005951     0.000300     NO 
 Maximum Displacement     0.348618     0.001800     NO 
 RMS     Displacement     0.095501     0.001200     NO 
 Predicted change in Energy=-1.156053D-02
 GradGradGradGradGradGradGradGradGradGradGradGradGradGradGradGradGradGrad

                          Input orientation:                          
 ---------------------------------------------------------------------
 Center     Atomic      Atomic             Coordinates (Angstroms)
 Number     Number       Type             X           Y           Z
 ---------------------------------------------------------------------
      1          6           0        0.005109   -0.046263   -0.036788
      2          6           0        1.548680   -0.053014   -0.026115
      3          6           0       -0.655462    0.747884   -1.166271
      4          6           0        2.209254   -0.735023    1.174408
      5          1           0        1.885123    0.986908   -0.028538
      6          1           0       -0.331324    0.395786    0.904514
      7          6           0       -0.306735    2.224759   -1.217978
      8          1           0       -1.734105    0.655696   -1.006621
      9          6           0        1.860544   -0.150857    2.531847
     10          1           0        3.287897   -0.630052    1.022853
     11          1           0       -1.040940    2.738538   -1.846582
     12          1           0       -0.365292    2.646107   -0.215878
     13          1           0        1.919085    0.935200    2.484678
     14          1           0        2.594774   -0.499707    3.264899
     15          8           0        1.005516    2.479316   -1.698628
     16          1           0        1.060326    2.088146   -2.572836
     17          8           0       -0.350482    0.201619   -2.456113
     18          1           0       -0.613870   -0.723252   -2.407980
     19          8           0       -0.557071   -1.347539   -0.185665
     20          1           0       -0.051899   -1.933727    0.387607
     21          8           0        2.110871   -0.743500   -1.139098
     22          1           0        1.605693   -0.475581   -1.913992
     23          8           0        1.904254   -2.134594    1.231519
     24          1           0        2.167632   -2.486190    0.374730
     25          8           0        0.548315   -0.476716    2.967364
     26          1           0        0.493509   -1.434244    2.987162
 ---------------------------------------------------------------------
                    Distance matrix (angstroms):
                    1          2          3          4          5
     1  C    0.000000
     2  C    1.543623   0.000000
     3  C    1.530606   2.607611   0.000000
     4  C    2.607612   1.530604   3.985522   0.000000
     5  H    2.145219   1.092995   2.793947   2.125367   0.000000
     6  H    1.092997   2.145206   2.125368   2.793941   2.476419
     7  C    2.578758   3.170386   1.518369   4.562238   2.784113
     8  H    2.111442   3.498620   1.094284   4.716043   3.763663
     9  C    3.170404   2.578760   4.562247   1.518384   2.801908
    10  H    3.498620   2.111441   4.716042   1.094284   2.384903
    11  H    3.482053   4.220544   2.138720   5.635225   3.864626
    12  H    2.723624   3.314295   2.142591   4.471378   2.802214
    13  H    3.314266   2.723572   4.471332   2.142580   2.513977
    14  H    4.220559   3.482043   5.635228   2.138727   3.682439
    15  O    3.184506   3.083021   2.457664   4.476080   2.406281
    16  H    3.478609   3.362862   2.592037   4.830337   2.892484
    17  O    2.457849   3.094599   1.433565   4.539848   3.392304
    18  H    2.542440   3.286202   1.925567   4.561103   3.851150
    19  O    1.425318   2.476983   2.315614   3.142854   3.382107
    20  H    1.935428   2.504017   3.157508   2.677454   3.529212
    21  O    2.476986   1.425328   3.142858   2.315612   2.068482
    22  H    2.504013   1.935431   2.677457   3.157501   2.402476
    23  O    3.094589   2.457855   4.539848   1.433557   3.366287
    24  H    3.286197   2.542464   4.561115   1.925565   3.507826
    25  O    3.083065   3.184521   4.476122   2.457668   3.592309
    26  H    3.362930   3.478652   4.830406   2.592058   4.110111
                    6          7          8          9         10
     6  H    0.000000
     7  C    2.801913   0.000000
     8  H    2.384907   2.131669   0.000000
     9  C    2.784119   4.939821   5.108110   0.000000
    10  H    3.763656   5.108096   5.567083   2.131672   0.000000
    11  H    3.682468   1.094609   2.350371   5.994819   6.190306
    12  H    2.514036   1.088654   2.541782   4.508586   5.060975
    13  H    2.802183   4.508536   5.060937   1.088656   2.541769
    14  H    3.864632   5.994802   6.190318   1.094603   2.350357
    15  O    3.592296   1.420503   3.363032   5.054286   4.720582
    16  H    4.110077   1.929549   3.509100   5.631276   5.027888
    17  O    3.366286   2.372338   2.054660   5.467414   5.102223
    18  H    3.507804   3.193932   2.262793   5.554480   5.196449
    19  O    2.068486   3.726882   2.464210   3.829071   4.093786
    20  H    2.402477   4.464957   3.388038   3.381394   3.641063
    21  O    3.382105   3.829047   4.093793   3.726892   2.464202
    22  H    3.529206   3.381368   3.641066   4.464962   3.388028
    23  O    3.392280   5.467400   5.102220   2.372335   2.054666
    24  H    3.851134   5.554480   5.196453   3.193937   2.262809
    25  O    2.406320   5.054321   4.720631   1.420494   3.363026
    26  H    2.892539   5.631331   5.027963   1.929553   3.509107
                   11         12         13         14         15
    11  H    0.000000
    12  H    1.767551   0.000000
    13  H    5.547395   3.929197   0.000000
    14  H    7.059171   5.547427   1.767557   0.000000
    15  O    2.068108   2.026199   4.551807   6.003076   0.000000
    16  H    2.316414   2.810508   5.257870   6.567394   0.959300
    17  O    2.698930   3.315779   5.486391   6.472741   2.756886
    18  H    3.532923   4.027366   5.753644   6.521267   3.658146
    19  O    4.437207   3.998362   4.298020   4.749668   4.401768
    20  H    5.272557   4.630042   4.063646   4.164145   4.994542
    21  O    4.749635   4.298040   3.998320   4.437205   3.452742
    22  H    4.164105   4.063657   4.629991   5.272550   3.022914
    23  O    6.472735   5.486429   3.315759   2.698946   5.539103
    24  H    6.521268   5.753693   4.027351   3.532937   5.505050
    25  O    6.003138   4.551893   2.026205   2.068104   5.542440
    26  H    6.567475   5.257972   2.810520   2.316422   6.126559
                   16         17         18         19         20
    16  H    0.000000
    17  O    2.358599   0.000000
    18  H    3.276288   0.962848   0.000000
    19  O    4.485364   2.756357   2.309035   0.000000
    20  H    5.116320   3.568697   3.097800   0.963045   0.000000
    21  O    3.343272   2.947208   3.005775   2.896862   2.902592
    22  H    2.702627   2.139886   2.287318   2.902581   3.189226
    23  O    5.746030   4.913283   4.645297   2.947200   2.139876
    24  H    5.553271   4.645307   4.311400   3.005757   2.287291
    25  O    6.126540   5.539140   5.505068   3.452796   3.022959
    26  H    6.606215   5.746095   5.553319   3.343361   2.702709
                   21         22         23         24         25
    21  O    0.000000
    22  H    0.963040   0.000000
    23  O    2.756385   3.568712   0.000000
    24  H    2.309083   3.097834   0.962847   0.000000
    25  O    4.401793   4.994566   2.756862   3.658131   0.000000
    26  H    4.485421   5.116376   2.358595   3.276290   0.959299
                   26
    26  H    0.000000
 Stoichiometry    C6H14O6
 Framework group  C1[X(C6H14O6)]
 Deg. of freedom    72
 Full point group                 C1      NOp   1
 Largest Abelian subgroup         C1      NOp   1
 Largest concise Abelian subgroup C1      NOp   1
                         Standard orientation:                         
 ---------------------------------------------------------------------
 Center     Atomic      Atomic             Coordinates (Angstroms)
 Number     Number       Type             X           Y           Z
 ---------------------------------------------------------------------
      1          6           0       -0.266768   -0.034839    0.724247
      2          6           0        0.266761   -0.034784   -0.724241
      3          6           0       -1.787993    0.031545    0.879886
      4          6           0        1.787984    0.031577   -0.879879
      5          1           0       -0.145256    0.842405   -1.229631
      6          1           0        0.145263    0.842318    1.229688
      7          6           0       -2.455125    1.251477    0.269850
      8          1           0       -1.979153    0.039077    1.957318
      9          6           0        2.455133    1.251486   -0.269779
     10          1           0        1.979142    0.039177   -1.957311
     11          1           0       -3.461797    1.349069    0.688488
     12          1           0       -1.890424    2.143692    0.534864
     13          1           0        1.890388    2.143693   -0.534735
     14          1           0        3.461782    1.349116   -0.688446
     15          8           0       -2.522011    1.209330   -1.148451
     16          1           0       -3.001499    0.411050   -1.378882
     17          8           0       -2.435266   -1.120173    0.323388
     18          1           0       -2.020169   -1.875708    0.752267
     19          8           0        0.080311   -1.213784    1.446159
     20          1           0        1.002060   -1.402160    1.240375
     21          8           0       -0.080338   -1.213679   -1.446245
     22          1           0       -1.002083   -1.402060   -1.240466
     23          8           0        2.435255   -1.120159   -0.323434
     24          1           0        2.020168   -1.875680   -0.752345
     25          8           0        2.522056    1.209248    1.148509
     26          1           0        3.001564    0.410968    1.378893
 ---------------------------------------------------------------------
 Rotational constants (GHZ):           1.3919939           0.5946041           0.5732004
 Standard basis: def2TZVPP (5D, 7F)
 There are   642 symmetry adapted cartesian basis functions of A   symmetry.
 There are   568 symmetry adapted basis functions of A   symmetry.
   568 basis functions,   850 primitive gaussians,   642 cartesian basis functions
    49 alpha electrons       49 beta electrons
       nuclear repulsion energy       851.0039602953 Hartrees.
 NAtoms=   26 NActive=   26 NUniq=   26 SFac= 1.00D+00 NAtFMM=   60 NAOKFM=F Big=F
 Integral buffers will be    131072 words long.
 Raffenetti 2 integral format.
 Two-electron integral symmetry is turned on.
 Nuclear repulsion after empirical dispersion term =      850.9840783165 Hartrees.
 One-electron integrals computed using PRISM.
   1 Symmetry operations used in ECPInt.
 ECPInt:  NShTT=   23436 NPrTT=   62434 LenC2=   22207 LenP2D=   46472.
 LDataN:  DoStor=T MaxTD1= 6 Len=  172
[...]
 94,0.00051989,-0.00062747,-0.00206833,-0.00032178,0.00166203,0.3206922
 2,-0.06492380,-0.20472015,-0.01765724,-0.00942569,-0.02031179,-0.00254
 792,-0.01171097,-0.04698161,0.00564815,0.00048810,-0.00748210,0.001065
 73,-0.00283339,0.00198720,-0.00027491,-0.01252149,-0.03408637,-0.00392
 194,0.00584208,0.00124046,0.00467966,-0.00081864,0.00136460,-0.0014322
 3,-0.00064142,-0.00034301,0.00025470,-0.00015309,0.00124744,-0.0005593
 6,-0.00048398,-0.00242199,0.00061434,-0.00005372,0.00109149,-0.0002121
 4,0.00022287,0.00052275,0.00050252,0.00013952,0.00020888,-0.00037298,-
 0.00218031,-0.00048027,0.00131049,0.00020592,-0.00013468,-0.00047097,-
 0.00061369,0.00207177,-0.00006157,0.00067999,-0.00172873,0.00015765,-0
 .08845789,0.49994129,-0.01666105,0.00272421,-0.07592996,0.00265749,-0.
 00302625,-0.00058076,0.00940611,0.03176146,-0.00567242,0.00164477,0.00
 252803,-0.00046080,-0.00025235,0.00071033,0.00108589,-0.01277545,-0.02
 700658,0.00536592,-0.00400572,0.00026555,-0.00429313,0.00095514,-0.000
 68316,0.00115590,0.00208259,0.00037751,-0.00053818,-0.00001389,-0.0004
 4815,0.00037932,0.00029459,0.00164855,-0.00011342,0.00006227,0.0003026
 1,0.00034220,-0.00003112,-0.00014831,0.00004951,-0.00042420,0.00009642
 ,0.00016346,0.00114237,0.00028854,0.00020648,-0.00036469,-0.00037245,0
 .00024438,0.00028836,0.00771676,0.00049184,0.00169960,-0.00013386,0.00
 304120,0.20075324,-0.15777291,0.23080450,0.01051644,-0.01186233,0.0110
 5250,0.00131854,-0.00332257,0.00139258,-0.00206979,-0.00480385,-0.0002
 3258,-0.00373478,-0.00920821,-0.00140411,-0.00040355,0.00055308,-0.000
 36459,-0.00034956,-0.00083011,-0.00071221,0.00184313,-0.00021556,0.000
 91795,0.00011897,0.00008392,-0.00021831,0.00146445,0.00046615,-0.00145
 718,0.00046711,0.00132936,-0.00004487,-0.00017988,-0.00057817,0.000130
 38,0.00000602,0.00009707,-0.00004597,-0.00022961,0.00022928,0.00040946
 ,-0.00027631,-0.00005316,-0.00002027,-0.00079406,0.00020425,0.00001694
 ,0.00017495,-0.00003322,-0.00000880,-0.00059186,-0.00040862,0.00068406
 ,-0.00010970,0.00028764,-0.00081188,-0.20177088,0.18017448,-0.17703486
 ,0.19443764,0.02189779,-0.03140665,0.02284044,-0.00173505,0.00177902,0
 .00102785,-0.00285705,-0.00622776,-0.00151078,-0.00407969,0.00270899,-
 0.00092753,0.00135342,-0.00001654,-0.00014704,0.00046521,-0.00015526,0
 .00028124,0.00110531,-0.00013705,0.00114144,-0.00008369,0.00012202,-0.
 00024687,-0.00116495,-0.00075771,-0.00007269,0.00005613,-0.00102768,0.
 00007656,-0.00009963,-0.00038831,0.00005420,0.00002674,0.00007045,0.00
 000746,0.00006671,-0.00004283,-0.00015206,0.00019116,0.00003407,0.0001
 8457,-0.00018017,0.00025256,-0.00009819,-0.00006032,-0.00011801,0.0000
 5865,0.00027765,0.00145314,-0.00131116,-0.00026198,-0.00023209,0.00159
 509,0.13993020,-0.20372996,0.14042587,-0.15880206,0.24272401,0.0024617
 2,-0.00095931,0.00023220,0.00006730,0.00000322,0.00235350,0.00001580,0
 .00052670,-0.00123429,-0.00105935,-0.00297379,0.00053742,-0.00082790,-
 0.00021227,-0.00031225,-0.00002697,-0.00229050,0.00023414,-0.00021704,
 -0.00002926,0.00005301,-0.00001021,-0.00002947,-0.00006205,-0.00227030
 ,-0.00070859,0.00013375,0.00018822,0.00055750,-0.00028204,0.00004054,0
 .00001040,0.00013400,0.00000212,0.00005746,0.00004884,0.00021974,0.000
 26507,0.00009157,0.00035953,0.00001509,-0.00016578,-0.00001037,-0.0001
 9329,0.00007924,-0.00000601,0.00009007,-0.00005098,0.00045954,0.000802
 60,0.00032052,-0.00064100,0.00018133,0.00071756,-0.16617417,0.16629653
 ,-0.15899436,0.16351215,-0.16296622,0.16294194,-0.01561049,0.02185522,
 0.04008665,-0.10494124,0.03215223,0.01416418,0.00354400,-0.00231999,-0
 .00146661,0.00790418,-0.00732085,-0.01268515,0.00570692,0.00290999,-0.
 00099223,-0.00895348,0.00006053,-0.00081536,-0.00187476,-0.00077693,0.
 00073056,0.00020239,-0.00005327,0.00031967,-0.00279408,0.00253724,-0.0
 0171940,0.00208621,-0.00113856,0.00062258,0.00025779,0.00019306,-0.000
 16300,0.00017902,-0.00006722,-0.00002841,-0.00008106,0.00012558,0.0001
 1269,0.00023240,-0.00012270,-0.00099446,0.00216733,0.00011836,-0.00073
 333,-0.00115183,0.00016802,-0.00005032,-0.01028849,0.00434620,-0.00543
 275,0.00091023,0.00090352,0.00065929,0.00204489,0.00033206,0.00114292,
 -0.00108905,0.00041198,-0.00123249,0.32104636,0.00162347,-0.00635005,-
 0.00964122,0.04279889,-0.10522124,-0.04436689,-0.00169839,-0.00035093,
 -0.00083875,-0.00348979,0.00122480,0.00894917,0.01688780,-0.01379124,-
 0.03660328,0.00144227,0.00141887,0.00097844,-0.00160907,-0.00025571,0.
 00033522,0.00007849,0.00014824,0.00007084,0.00112233,-0.00136879,0.001
 50026,-0.00051242,0.00037696,-0.00021554,0.00032301,0.00006444,0.00016
 443,-0.00006694,0.00027221,-0.00003069,-0.00003412,0.00051364,0.000576
 32,-0.00005952,0.00033841,0.00034179,0.00172400,-0.00144385,-0.0002104
 5,-0.00049988,0.00053254,-0.00094511,0.00206491,0.00310351,0.00195191,
 0.00190275,-0.00084235,0.00027531,-0.00117489,0.00628561,0.00349846,0.
 00149107,-0.00052795,-0.00115472,-0.14351749,0.15787529,0.00965388,-0.
 00916020,-0.01456271,0.05153823,-0.06471003,-0.17541078,0.00026107,-0.
 00230395,-0.00759973,0.01459588,-0.01714147,-0.05388690,0.00585237,-0.
 01351422,-0.01492796,0.00245530,-0.00000712,0.00165415,0.00146674,0.00
 021631,-0.00061821,0.00013251,-0.00003928,0.00147929,-0.00699791,0.005
 91035,-0.00167864,0.00114538,-0.00096450,0.00214407,-0.00030661,-0.000
 30559,0.00030674,-0.00021455,0.00062049,0.00029900,0.00007518,0.000060
 49,0.00092016,0.00056447,-0.00069063,-0.00287460,-0.00192838,0.0019888
 8,0.00165269,0.00108308,-0.00173106,0.00061064,-0.01033667,0.00495990,
 0.00441169,0.00140752,0.00072893,-0.00078461,0.00018772,0.00163902,0.0
 0385670,-0.00084324,-0.00017330,-0.00085576,0.16598216,0.00421358,0.57
 245983,0.00131730,0.00016726,0.00360799,0.01052959,-0.00491280,0.01541
 639,-0.00373338,0.00521168,0.00773858,-0.00207047,0.00226377,0.0042460
 9,-0.00035017,0.00099853,0.00044716,-0.00040556,0.00009321,-0.00065710
 ,0.00146725,0.00111635,-0.00104490,0.00046709,-0.00052794,-0.00122318,
 0.00184420,-0.00073822,0.00058697,0.00011809,0.00016183,-0.00016959,-0
 .00027648,0.00004184,0.00003900,-0.00023014,-0.00046874,-0.00003234,0.
 00000601,0.00000027,-0.00010742,-0.00018008,0.00012909,0.00057897,-0.0
 0235203,0.00003603,0.00029626,0.00164970,0.00029621,0.00006463,0.00544
 207,-0.00509256,-0.00258916,-0.00438054,-0.00183019,-0.00059000,-0.001
 08905,0.00012516,-0.00171029,0.00090882,-0.00023058,0.00027644,-0.2021
 3213,0.08288927,-0.23868339,0.19477147,0.00068348,0.00265182,-0.000409
 91,-0.01160070,0.00288408,-0.01715954,0.00271921,-0.00058242,-0.001429
 83,0.00120526,-0.00252671,-0.00121939,-0.00017310,-0.00061886,-0.00207
 475,0.00016923,-0.00039783,-0.00003172,0.00255594,-0.00032912,-0.00091
 143,-0.00019554,-0.00017214,0.00015595,-0.00027596,0.00044709,-0.00030
 477,0.00004534,-0.00013535,0.00009264,-0.00040694,-0.00005253,0.000055
 76,-0.00022750,0.00011083,0.00019264,-0.00001336,0.00007796,0.00005398
 ,0.00000587,0.00006361,-0.00020280,-0.00187345,0.00126699,0.00070817,0
 .00089236,-0.00262759,0.00168397,-0.00118118,-0.00424792,-0.00003172,-
 0.00386240,0.00126062,-0.00024390,0.00094123,-0.00131057,-0.00078632,-
 0.00015243,-0.00009641,0.00071664,0.09028705,-0.04847380,0.09265826,-0
 .07981957,0.05125615,0.00159744,0.00061541,0.00148470,-0.01876013,0.00
 659132,-0.03409841,0.00324211,0.00062133,0.00382788,0.00258698,-0.0032
 5937,-0.00493625,-0.00043088,0.00049863,0.00068792,-0.00157881,0.00003
 425,0.00006826,0.00007704,-0.00027442,-0.00029171,0.00003007,-0.000328
 12,-0.00113836,-0.00109182,0.00086362,-0.00053258,0.00007069,-0.000125
 05,0.00019482,-0.00001883,0.00022622,-0.00007971,0.00003329,-0.0002249
 0,-0.00006207,-0.00002327,0.00000413,0.00004151,0.00010750,-0.00015920
 ,-0.00031761,-0.00025175,0.00066320,-0.00062059,-0.00011849,0.00111229
 ,0.00047593,-0.00061303,-0.00134036,-0.00636022,-0.00034325,-0.0005857
 0,0.00134899,-0.00090116,0.00019888,-0.00007353,0.00032731,0.00019382,
 -0.00052738,-0.19766265,0.06682321,-0.31382601,0.21360345,-0.07230220,
 0.35386727,-0.00212094,-0.00748487,0.00224413,0.00821124,0.01250989,0.
 00232559,0.00120817,0.00095685,0.00002138,-0.08003751,-0.02507354,0.01
 009722,-0.00009065,0.00197312,-0.00269959,0.00000105,0.00078525,0.0001
 9718,-0.00049147,-0.00033642,-0.00022052,0.00032468,-0.00027498,0.0002
 8199,0.00011436,0.00804506,0.00361035,-0.00093638,-0.04083036,-0.00288
 191,0.00003430,0.00019575,-0.00007626,0.00002025,-0.00005653,0.0000274
 2,0.00008519,0.00105330,0.00184861,0.00007818,-0.00018864,0.00034380,0
 .00048329,0.00038870,-0.00040183,-0.00017418,-0.00008310,0.00010248,0.
 00032435,0.00053738,-0.00048679,-0.00005625,-0.00035039,0.00104315,-0.
 01026503,0.00844920,-0.00626020,0.00540788,0.00106972,0.00081435,0.002
 91930,0.00000372,0.00067786,-0.00059232,-0.00053448,-0.00005414,0.1224
 9713,-0.00464194,-0.00238765,-0.00022547,-0.00606851,-0.04590970,-0.00
 131729,0.00027461,0.00049948,-0.00097363,-0.04095290,-0.20486226,0.019
 14761,0.00336269,-0.00109886,0.00593144,0.00014200,0.00027646,0.000255
 13,-0.00103939,0.00021482,-0.00014781,0.00043144,-0.00005615,0.0003395
 3,-0.00338762,-0.03004793,-0.00623179,-0.01064860,-0.02634646,-0.00297
 146,0.00017551,-0.00002180,0.00009852,-0.00009026,0.00015239,-0.000019
 78,0.00096401,0.00032636,-0.00311857,-0.00038434,0.00145080,0.00015952
 ,0.00090916,-0.00086241,0.00104769,0.00004270,0.00002047,-0.00024725,0
 .00020958,0.00055593,0.00084742,-0.00007489,-0.00043525,-0.00005632,0.
 00305255,0.00683681,0.00018136,0.00450559,-0.00650147,0.00101396,0.000
 34640,0.00373580,-0.00085015,-0.00044388,0.00032819,-0.00078048,0.0163
 7261,0.37894237,0.00077562,-0.00344704,0.00089622,0.00731169,0.0243668
 4,-0.00103333,0.00071673,-0.00006824,-0.00026750,0.00560680,-0.0236135
 9,-0.09277778,-0.00256113,0.00252708,-0.00337347,-0.00055607,0.0007105
 3,-0.00004260,0.00045079,-0.00027804,-0.00024681,-0.00001795,-0.000081
 30,0.00008896,-0.00561715,-0.04489707,-0.00408021,-0.00052673,0.002623
 76,0.00349039,-0.00009332,0.00007712,-0.00003771,0.00001078,0.00000218
 ,0.00005824,0.00258059,-0.00242103,-0.00714301,-0.00026301,0.00078087,
 0.00258094,-0.00043129,0.00078561,-0.00038599,0.00002343,-0.00025573,0
 .00022311,-0.00069606,0.00046747,-0.00006473,0.00025548,-0.00009153,0.
 00037639,-0.00623379,0.00318379,0.00067850,0.00347721,-0.00027884,-0.0
 0411693,-0.00074358,0.00694867,-0.00119051,0.00066625,0.00133549,0.001
 44447,-0.13699162,0.13116325,0.54796189,0.00027156,0.00208771,0.000162
 56,0.00040893,0.00086431,0.00074241,-0.00017269,-0.00015520,-0.0001512
 4,0.00296848,-0.00535168,-0.00860056,-0.00003803,-0.00030039,0.0002397
 1,0.00000034,-0.00039867,-0.00003852,0.00016582,0.00015537,0.00002665,
 -0.00000346,0.00003087,-0.00001181,-0.00119504,-0.00238779,0.00066158,
 0.00013558,-0.00070941,-0.00105422,-0.00000976,-0.00007189,0.00004116,
 -0.00001662,0.00001460,-0.00001061,0.00047829,-0.00022253,-0.00041846,
 0.00000147,0.00011700,0.00012313,-0.00016300,-0.00020374,0.00016077,0.
 00006931,0.00007298,-0.00007365,-0.00005661,-0.00019863,0.00017694,-0.
 00014555,0.00019807,-0.00034727,0.00091033,-0.00208611,-0.00111859,-0.
 00436934,0.00195812,0.00335110,-0.00207350,-0.00183162,0.00011259,-0.0
 0010910,0.00069375,-0.00003759,-0.05038698,0.03613505,0.13522881,0.052
 66390,0.00080327,-0.00009404,0.00007996,0.00235691,-0.00311804,-0.0026
 6682,0.00019721,-0.00026396,0.00008189,0.01118604,-0.02013995,-0.04272
 170,-0.00038685,0.00059171,-0.00012706,-0.00032561,0.00002621,0.000009
 83,0.00025970,-0.00014746,-0.00005830,-0.00011836,0.00004535,-0.000045
 67,-0.00216757,-0.00844210,0.00096784,-0.00082929,0.00091492,-0.000215
 33,-0.00005998,0.00004121,-0.00004264,0.00000809,-0.00001639,0.0000286
 3,0.00046676,-0.00040659,-0.00193136,-0.00010612,0.00014100,0.00025826
 ,-0.00025892,0.00043189,-0.00015018,0.00006150,-0.00021799,0.00019037,
 -0.00079524,0.00017221,-0.00034307,0.00022946,0.00018701,0.00019874,-0
 .00098142,-0.00040863,0.00007093,0.00131153,0.00101082,-0.00012888,-0.
 00136769,0.00218589,-0.00169650,0.00061468,0.00123116,0.00090573,0.019
 37484,-0.07651187,-0.09806888,-0.02953014,0.10193264,-0.00010883,-0.00
 041517,-0.00054097,-0.00062490,0.00370526,0.00380833,-0.00028444,0.000
 31807,0.00053080,0.00107247,-0.00350452,-0.00294272,0.00018487,-0.0004
 8294,-0.00111298,0.00029372,-0.00006761,-0.00000004,-0.00015702,0.0000
 2052,0.00001437,0.00003724,-0.00002445,-0.00008538,-0.00049986,-0.0005
 6053,0.00011866,0.00055012,0.00155555,0.00040087,0.00003211,0.00002146
 ,0.00000230,0.00000376,-0.00003597,-0.00002334,0.00014080,0.00034182,0
 .00000680,0.00004485,0.00010580,0.00000959,0.00014983,-0.00014904,-0.0
 0012677,-0.00007883,0.00019582,-0.00008554,0.00076468,-0.00037944,-0.0
 0022987,-0.00032773,0.00004691,0.00007081,-0.00053435,0.00052415,-0.00
 121879,0.00140608,-0.00046875,0.00159460,0.00100287,-0.00198649,-0.000
 86470,-0.00061096,-0.00050893,-0.00074751,0.12735192,-0.14318672,-0.44
 542530,-0.12885964,0.14467545,0.44628156,-0.00229769,0.00001592,0.0013
 7586,-0.00178750,0.00196948,-0.00202989,0.00095807,-0.00030822,0.00006
 856,-0.02706736,-0.00912512,0.01344870,0.00013802,0.00037991,-0.000188
 31,0.00033773,-0.00133522,-0.00096835,-0.00068957,-0.00014084,0.000122
 15,0.00031014,-0.00014551,0.00024739,-0.22713824,-0.01162034,0.0427023
 6,0.00103668,0.00145390,0.00374379,0.00009495,0.00006984,-0.00001433,-
 0.00005706,-0.00006092,-0.00003339,-0.01053736,-0.00726101,0.00452575,
 -0.04255403,-0.01150186,0.01064446,0.00070351,-0.00007467,-0.00005546,
 -0.00012427,0.00004434,-0.00003471,0.00048418,0.00000147,-0.00100422,-
 0.00016300,-0.00002514,0.00029831,0.00217390,0.00101049,-0.00239184,-0
 .00234606,0.00102187,0.00157420,0.00207664,-0.00009992,0.00246080,-0.0
 0079539,0.00008664,0.00015775,0.00393148,0.00039518,-0.00133319,0.0001
 5099,-0.00056201,-0.00081986,0.34465932,0.00047675,-0.00370923,0.00105
 092,-0.00022448,-0.00027868,-0.00071224,-0.00042787,0.00048690,-0.0000
 3267,0.00490024,0.00027054,-0.00085616,0.00011996,0.00043776,-0.000196
 98,-0.00060499,0.00033443,0.00186339,-0.00008433,-0.00003359,-0.000152
 59,0.00007085,-0.00003437,0.00003998,-0.05865585,-0.10673697,0.0170470
 8,0.00055846,0.00039540,-0.00198857,0.00002010,0.00000981,0.00004744,-
 0.00003358,0.00005668,0.00001089,-0.04204623,-0.00806839,0.01238292,0.
 00479852,0.00798913,-0.00504768,0.00008241,0.00000661,0.00008645,-0.00
 000068,-0.00000229,-0.00002447,0.00019721,0.00023432,0.00052920,-0.000
 05835,-0.00014008,0.00011938,0.00061015,0.00178287,-0.00173123,-0.0002
 7437,0.00021474,0.00114395,-0.00006960,0.00070038,0.00075497,-0.000102
 69,-0.00000144,0.00002206,0.00302310,0.00228038,-0.00143952,0.00108435
 ,0.00092274,0.00014185,0.08391915,0.63751578,-0.00201710,0.00213754,-0
 .00164979,-0.00056343,0.00046179,0.00376478,0.00089412,-0.00110626,0.0
 0024591,0.04058660,0.00958488,-0.00641728,0.00020711,0.00002413,-0.000
 23012,0.00028258,-0.00043195,-0.00394057,-0.00006892,-0.00042064,-0.00
 004471,-0.00016214,0.00004588,-0.00005691,0.04046674,0.00065697,-0.075
 85273,0.00209949,-0.00296495,-0.00693014,-0.00002002,0.00014892,-0.000
 11348,0.00003860,-0.00006025,0.00004476,0.00181728,0.00175709,0.001086
 50,-0.01280303,-0.00631702,0.01168753,0.00004334,0.00049535,-0.0002679
 2,-0.00004103,-0.00020000,0.00016974,-0.00052268,0.00026740,-0.0014814
 1,0.00025293,0.00012108,0.00044530,-0.00041217,0.00047360,-0.00157361,
 0.00011244,0.00108323,0.00029369,0.00003072,-0.00026827,-0.00097368,-0
 .00017610,-0.00007348,0.00033383,0.00027929,0.00037096,0.00151302,0.00
 043150,0.00118743,0.00074779,-0.08173440,0.00152801,0.08724732,0.00045
 169,0.00121173,-0.00023344,0.00020101,-0.00022246,0.00017862,0.0000291
 3,-0.00017540,-0.00000697,0.00017783,-0.00210469,0.00109841,-0.0001143
 6,0.00010076,-0.00008793,0.00020803,-0.00001801,0.00011812,0.00011643,
 0.00002053,0.00003090,-0.00007912,0.00004662,-0.00005473,-0.01005907,-
 0.04705831,0.00139001,0.00015660,0.00015706,-0.00035907,-0.00001711,-0
 .00001043,-0.00001174,0.00000732,-0.00001095,0.00000422,-0.00639462,-0
 .00106960,0.00197171,0.00023524,-0.00042213,-0.00092175,-0.00012418,0.
 00003745,-0.00001693,0.00002669,-0.00001873,0.00001551,-0.00017424,-0.
 00003935,-0.00002912,0.00006931,0.00004504,-0.00008928,-0.00115225,-0.
 00076570,0.00091481,0.00165047,-0.00027682,-0.00086695,-0.00028756,0.0
 0024205,-0.00034195,0.00017522,0.00003124,0.00005216,-0.00048914,0.000
 41325,-0.00103927,0.00051470,0.00061920,-0.00012892,-0.04149812,0.0027
 2176,0.01097827,0.05637012,0.00002588,0.00009505,0.00025937,-0.0001105
 4,-0.00042438,0.00049463,0.00003557,-0.00011841,0.00010521,0.00144474,
 0.00139236,-0.00019199,0.00006041,-0.00002719,0.00006617,0.00004808,-0
 .00026666,0.00006476,-0.00000782,-0.00004407,0.00002262,-0.00001994,0.
 00001232,-0.00001689,0.00044097,-0.01212475,-0.00008382,0.00007968,-0.
 00058478,-0.00056777,-0.00000338,0.00001654,-0.00001892,0.00000535,-0.
 00001619,-0.00000008,-0.00229843,0.00188153,0.00007164,0.00154424,0.00
 107953,-0.00057350,0.00001249,0.00005175,-0.00004992,-0.00000606,-0.00
 002150,0.00002639,-0.00005696,-0.00000739,-0.00023348,0.00003538,0.000
 03918,0.00006939,-0.00001868,-0.00044131,-0.00048735,-0.00018877,0.000
 99587,-0.00003419,0.00000685,-0.00015067,-0.00046318,0.00002200,-0.000
 00581,0.00000571,0.00047482,-0.00057842,-0.00003185,0.00003561,-0.0000
 6777,0.00011790,-0.04810738,-0.53463343,-0.00850147,0.04654588,0.54394
 861,0.00027520,0.00217973,-0.00046384,-0.00002877,-0.00000416,-0.00043
 917,-0.00016261,-0.00007568,-0.00016667,0.00189159,0.00434708,0.000181
 06,-0.00008176,-0.00024187,0.00011775,0.00017271,-0.00006878,-0.000131
 84,0.00008120,0.00016913,0.00008665,0.00002374,0.00001405,-0.00000082,
 0.00221162,0.01313810,-0.00045668,-0.00050171,-0.00053567,0.00023225,0
 .00000458,-0.00007953,0.00004381,-0.00001320,0.00001249,-0.00002310,0.
 00182916,0.00034851,-0.00037628,0.00009365,-0.00117037,0.00054671,-0.0
 0005493,-0.00022571,0.00011568,0.00002359,0.00009641,-0.00007946,0.000
 11872,-0.00024300,0.00025086,-0.00009734,0.00007440,-0.00034342,-0.000
 17958,-0.00126505,0.00158316,-0.00024016,-0.00061700,-0.00316418,-0.00
 013453,-0.00036617,0.00025984,0.00002625,0.00003718,-0.00016363,-0.001
 19386,-0.00042966,0.00087372,-0.00073673,-0.00045868,-0.00018258,0.009
 23785,-0.02458638,-0.00804784,-0.01256469,0.00995064,0.00974803\\0.000
 01568,0.00000118,-0.00001259,-0.00001868,-0.00000535,0.00000061,0.0000
 0637,0.00000223,-0.00000254,-0.00000181,0.00000230,0.00000524,0.000003
 66,0.00000771,0.00000111,-0.00000079,0.00000359,0.00000107,-0.00000529
 ,-0.00000321,-0.00001321,-0.00000076,0.00000091,-0.00000038,0.00000404
 ,-0.00000517,-0.00000059,-0.00000111,-0.00000307,-0.00000037,0.0000028
 9,0.00000354,0.00000178,0.00000456,0.00000167,0.00000209,-0.00000302,0
 .00000310,0.00000146,-0.00000422,0.00000338,0.00000246,-0.00000482,-0.
 00000289,0.00001055,-0.00000040,-0.00000378,0.00000176,-0.00000122,0.0
 0000244,0.00000765,0.00000511,-0.00000003,-0.00000006,-0.00000361,-0.0
 0000931,0.00000487,-0.00001015,0.00000734,0.00000698,-0.00000092,-0.00
 000017,-0.00000636,0.00000229,-0.00000372,0.00000437,0.00001123,0.0000
 0201,-0.00000325,-0.00000156,-0.00000026,-0.00000181,0.00000430,-0.000
 00216,-0.00000752,-0.00000178,-0.00000230,-0.00000331\\\@
 The archive entry for this job was punched.


 NO HUMAN INVESTIGATION CAN BECOME REAL SCIENCE
 WITHOUT GOING THROUGH MATHEMATICAL PEOPLE.
 -- LEONARDO DA VINCI, IN "PENSIERI" CA. 1492
 Job cpu time:       0 days 10 hours 44 minutes 36.1 seconds.
 Elapsed time:       0 days  0 hours 40 minutes 29.2 seconds.
 File lengths (MBytes):  RWF=    704 Int=      0 D2E=      0 Chk=     27 Scr=      1
 Normal termination of Gaussian 16 at Wed Sep 27 12:32:12 2023.
