 Entering Gaussian System, Link 0=/opt/software/gaussian/g16.c01/g16
 Initial command:
 /opt/software/gaussian/g16.c01/l1.exe "/scratch/arhender/14836886/Gau-20992.inp" -scrdir="/scratch/arhender/14836886/"
 Entering Link 1 = /opt/software/gaussian/g16.c01/l1.exe PID=     20996.
  
 Copyright (c) 1988-2019, Gaussian, Inc.  All Rights Reserved.
  
 This is part of the Gaussian(R) 16 program.  It is based on
 the Gaussian(R) 09 system (copyright 2009, Gaussian, Inc.),
 the Gaussian(R) 03 system (copyright 2003, Gaussian, Inc.),
 the Gaussian(R) 98 system (copyright 1998, Gaussian, Inc.),
 the Gaussian(R) 94 system (copyright 1995, Gaussian, Inc.),
 the Gaussian 92(TM) system (copyright 1992, Gaussian, Inc.),
 the Gaussian 90(TM) system (copyright 1990, Gaussian, Inc.),
 the Gaussian 88(TM) system (copyright 1988, Gaussian, Inc.),
 the Gaussian 86(TM) system (copyright 1986, Carnegie Mellon
 University), and the Gaussian 82(TM) system (copyright 1983,
 Carnegie Mellon University). Gaussian is a federally registered
 trademark of Gaussian, Inc.
  
 This software contains proprietary and confidential information,
 including trade secrets, belonging to Gaussian, Inc.
  
 This software is provided under written license and may be
 used, copied, transmitted, or stored only in accord with that
 written license.
  
 The following legend is applicable only to US Government
 contracts under FAR:
  
                    RESTRICTED RIGHTS LEGEND
  
 Use, reproduction and disclosure by the US Government is
 subject to restrictions as set forth in subparagraphs (a)
 and (c) of the Commercial Computer Software - Restricted
 Rights clause in FAR 52.227-19.
  
 Gaussian, Inc.
 340 Quinnipiac St., Bldg. 40, Wallingford CT 06492
  
  
 ---------------------------------------------------------------
 Warning -- This program may not be used in any manner that
 competes with the business of Gaussian, Inc. or will provide
 assistance to any competitor of Gaussian, Inc.  The licensee
 of this program is prohibited from giving any competitor of
 Gaussian, Inc. access to this program.  By using this program,
 the user acknowledges that Gaussian, Inc. is engaged in the
 business of creating and licensing software in the field of
 computational chemistry and represents and warrants to the
 licensee that it is not a competitor of Gaussian, Inc. and that
 it will not use this program in any manner prohibited above.
 ---------------------------------------------------------------
  

 Cite this work as:
 Gaussian 16, Revision C.01,
 M. J. Frisch, G. W. Trucks, H. B. Schlegel, G. E. Scuseria, 
 M. A. Robb, J. R. Cheeseman, G. Scalmani, V. Barone, 
 G. A. Petersson, H. Nakatsuji, X. Li, M. Caricato, A. V. Marenich, 
 J. Bloino, B. G. Janesko, R. Gomperts, B. Mennucci, H. P. Hratchian, 
 J. V. Ortiz, A. F. Izmaylov, J. L. Sonnenberg, D. Williams-Young, 
 F. Ding, F. Lipparini, F. Egidi, J. Goings, B. Peng, A. Petrone, 
 T. Henderson, D. Ranasinghe, V. G. Zakrzewski, J. Gao, N. Rega, 
 G. Zheng, W. Liang, M. Hada, M. Ehara, K. Toyota, R. Fukuda, 
 J. Hasegawa, M. Ishida, T. Nakajima, Y. Honda, O. Kitao, H. Nakai, 
 T. Vreven, K. Throssell, J. A. Montgomery, Jr., J. E. Peralta, 
 F. Ogliaro, M. J. Bearpark, J. J. Heyd, E. N. Brothers, K. N. Kudin, 
 V. N. Staroverov, T. A. Keith, R. Kobayashi, J. Normand, 
 K. Raghavachari, A. P. Rendell, J. C. Burant, S. S. Iyengar, 
 J. Tomasi, M. Cossi, J. M. Millam, M. Klene, C. Adamo, R. Cammi, 
 J. W. Ochterski, R. L. Martin, K. Morokuma, O. Farkas, 
 J. B. Foresman, and D. J. Fox, Gaussian, Inc., Wallingford CT, 2019.
 
 ******************************************
 Gaussian 16:  ES64L-G16RevC.01  3-Jul-2019
                11-Oct-2023 
 ******************************************
 %chk=MannitolConformerOpt_34.chk
 %mem=8GB
 %nprocs=16
 Will use up to   16 processors via shared memory.
 ---------------------------------------------
 # opt freq wb97xd/Def2TZVPP geom=connectivity
 ---------------------------------------------
 1/18=20,19=15,26=3,38=1,57=2/1,3;
 2/9=110,12=2,17=6,18=5,40=1/2;
 3/5=44,7=202,11=2,25=1,30=1,71=1,74=-58/1,2,3;
 4//1;
 5/5=2,38=5/2;
 6/7=2,8=2,9=2,10=2,28=1/1;
 7//1,2,3,16;
 1/18=20,19=15,26=3/3(2);
 2/9=110/2;
 99//99;
 2/9=110/2;
 3/5=44,7=202,11=2,25=1,30=1,71=1,74=-58/1,2,3;
 4/5=5,16=3,69=1/1;
 5/5=2,38=5/2;
 7//1,2,3,16;
 1/18=20,19=15,26=3/3(-5);
 2/9=110/2;
 6/7=2,8=2,9=2,10=2,19=2,28=1/1;
 99/9=1/99;
 -------------------
 Title Card Required
 -------------------
 Symbolic Z-matrix:
 Charge =  0 Multiplicity = 1
 C                     0.        0.        0. 
 C                     1.5431    0.        0. 
 C                    -0.721     0.9809    0.9416 
 C                     2.2544   -0.8303    1.0829 
 H                     1.926     1.0271    0. 
 H                    -0.3849   -1.0127    0.1516 
 C                    -0.4163    0.8409    2.4276 
 H                    -1.801     0.8561    0.7934 
 C                     1.8131   -2.2973    1.1533 
 H                     2.1766   -0.3792    2.072 
 H                    -0.414    -0.204     2.7505 
 H                    -1.1657    1.381     3.0158 
 H                     1.9443   -2.8002    0.1902 
 H                     0.7758   -2.3928    1.4841 
 O                     0.8421    1.4364    2.725 
 H                     0.8197    2.3051    2.2694 
 O                    -0.4121    2.3316    0.5472 
 H                    -0.5365    2.3314   -0.4261 
 O                    -0.425     0.3808   -1.3376 
 H                     0.2687    0.003    -1.9246 
 O                     1.9529   -0.5472   -1.2869 
 H                     2.9291   -0.6273   -1.2017 
 O                     3.6645   -0.829     0.7515 
 H                     4.0596   -1.4583    1.3912 
 O                     2.6481   -2.9693    2.1026 
 H                     2.369    -3.9023    2.1144 
 

 GradGradGradGradGradGradGradGradGradGradGradGradGradGradGradGradGradGrad
 Berny optimization.
 Initialization pass.
                           ----------------------------
                           !    Initial Parameters    !
                           ! (Angstroms and Degrees)  !
 --------------------------                            --------------------------
 ! Name  Definition              Value          Derivative Info.                !
 --------------------------------------------------------------------------------
 ! R1    R(1,2)                  1.5431         estimate D2E/DX2                !
 ! R2    R(1,3)                  1.539          estimate D2E/DX2                !
 ! R3    R(1,6)                  1.0939         estimate D2E/DX2                !
 ! R4    R(1,19)                 1.4542         estimate D2E/DX2                !
 ! R5    R(2,4)                  1.5388         estimate D2E/DX2                !
 ! R6    R(2,5)                  1.0962         estimate D2E/DX2                !
 ! R7    R(2,21)                 1.4572         estimate D2E/DX2                !
 ! R8    R(3,7)                  1.5234         estimate D2E/DX2                !
 ! R9    R(3,8)                  1.0972         estimate D2E/DX2                !
 ! R10   R(3,17)                 1.4406         estimate D2E/DX2                !
 ! R11   R(4,9)                  1.5336         estimate D2E/DX2                !
 ! R12   R(4,10)                 1.0899         estimate D2E/DX2                !
 ! R13   R(4,23)                 1.4485         estimate D2E/DX2                !
 ! R14   R(7,11)                 1.0937         estimate D2E/DX2                !
 ! R15   R(7,12)                 1.0951         estimate D2E/DX2                !
 ! R16   R(7,15)                 1.4236         estimate D2E/DX2                !
 ! R17   R(9,13)                 1.0944         estimate D2E/DX2                !
 ! R18   R(9,14)                 1.093          estimate D2E/DX2                !
 ! R19   R(9,25)                 1.4318         estimate D2E/DX2                !
 ! R20   R(15,16)                0.9812         estimate D2E/DX2                !
 ! R21   R(17,18)                0.9812         estimate D2E/DX2                !
 ! R22   R(19,20)                0.9841         estimate D2E/DX2                !
 ! R23   R(21,22)                0.9832         estimate D2E/DX2                !
 ! R24   R(23,24)                0.9805         estimate D2E/DX2                !
 ! R25   R(25,26)                0.9739         estimate D2E/DX2                !
 ! A1    A(2,1,3)              117.9355         estimate D2E/DX2                !
 ! A2    A(2,1,6)              110.6005         estimate D2E/DX2                !
 ! A3    A(2,1,19)             106.9927         estimate D2E/DX2                !
 ! A4    A(3,1,6)              109.9013         estimate D2E/DX2                !
 ! A5    A(3,1,19)             105.007          estimate D2E/DX2                !
 ! A6    A(6,1,19)             105.4888         estimate D2E/DX2                !
 ! A7    A(1,2,4)              117.5312         estimate D2E/DX2                !
 ! A8    A(1,2,5)              110.4453         estimate D2E/DX2                !
 ! A9    A(1,2,21)             106.3331         estimate D2E/DX2                !
 ! A10   A(4,2,5)              110.1275         estimate D2E/DX2                !
 ! A11   A(4,2,21)             106.79           estimate D2E/DX2                !
 ! A12   A(5,2,21)             104.6919         estimate D2E/DX2                !
 ! A13   A(1,3,7)              116.3933         estimate D2E/DX2                !
 ! A14   A(1,3,8)              107.8176         estimate D2E/DX2                !
 ! A15   A(1,3,17)             109.2458         estimate D2E/DX2                !
 ! A16   A(7,3,8)              108.5526         estimate D2E/DX2                !
 ! A17   A(7,3,17)             108.0794         estimate D2E/DX2                !
 ! A18   A(8,3,17)             106.303          estimate D2E/DX2                !
 ! A19   A(2,4,9)              114.5469         estimate D2E/DX2                !
 ! A20   A(2,4,10)             112.4773         estimate D2E/DX2                !
 ! A21   A(2,4,23)             106.7675         estimate D2E/DX2                !
 ! A22   A(9,4,10)             109.4953         estimate D2E/DX2                !
 ! A23   A(9,4,23)             106.9473         estimate D2E/DX2                !
 ! A24   A(10,4,23)            106.0661         estimate D2E/DX2                !
 ! A25   A(3,7,11)             112.1005         estimate D2E/DX2                !
 ! A26   A(3,7,12)             109.9828         estimate D2E/DX2                !
 ! A27   A(3,7,15)             110.0077         estimate D2E/DX2                !
 ! A28   A(11,7,12)            108.304          estimate D2E/DX2                !
 ! A29   A(11,7,15)            109.6406         estimate D2E/DX2                !
 ! A30   A(12,7,15)            106.6419         estimate D2E/DX2                !
 ! A31   A(4,9,13)             111.3883         estimate D2E/DX2                !
 ! A32   A(4,9,14)             111.7521         estimate D2E/DX2                !
 ! A33   A(4,9,25)             108.1553         estimate D2E/DX2                !
 ! A34   A(13,9,14)            109.876          estimate D2E/DX2                !
 ! A35   A(13,9,25)            107.331          estimate D2E/DX2                !
 ! A36   A(14,9,25)            108.1684         estimate D2E/DX2                !
 ! A37   A(7,15,16)            104.6651         estimate D2E/DX2                !
 ! A38   A(3,17,18)            104.1338         estimate D2E/DX2                !
 ! A39   A(1,19,20)            104.0104         estimate D2E/DX2                !
 ! A40   A(2,21,22)            103.4908         estimate D2E/DX2                !
 ! A41   A(4,23,24)            104.0303         estimate D2E/DX2                !
 ! A42   A(9,25,26)            106.8898         estimate D2E/DX2                !
 ! D1    D(3,1,2,4)             83.6498         estimate D2E/DX2                !
 ! D2    D(3,1,2,5)            -43.8289         estimate D2E/DX2                !
 ! D3    D(3,1,2,21)          -156.8645         estimate D2E/DX2                !
 ! D4    D(6,1,2,4)            -44.0074         estimate D2E/DX2                !
 ! D5    D(6,1,2,5)           -171.4861         estimate D2E/DX2                !
 ! D6    D(6,1,2,21)            75.4783         estimate D2E/DX2                !
 ! D7    D(19,1,2,4)          -158.4123         estimate D2E/DX2                !
 ! D8    D(19,1,2,5)            74.1089         estimate D2E/DX2                !
 ! D9    D(19,1,2,21)          -38.9266         estimate D2E/DX2                !
 ! D10   D(2,1,3,7)            -58.9429         estimate D2E/DX2                !
 ! D11   D(2,1,3,8)            178.8762         estimate D2E/DX2                !
 ! D12   D(2,1,3,17)            63.7554         estimate D2E/DX2                !
 ! D13   D(6,1,3,7)             69.0466         estimate D2E/DX2                !
 ! D14   D(6,1,3,8)            -53.1343         estimate D2E/DX2                !
 ! D15   D(6,1,3,17)          -168.2551         estimate D2E/DX2                !
 ! D16   D(19,1,3,7)          -177.9311         estimate D2E/DX2                !
 ! D17   D(19,1,3,8)            59.888          estimate D2E/DX2                !
 ! D18   D(19,1,3,17)          -55.2327         estimate D2E/DX2                !
 ! D19   D(2,1,19,20)           33.2892         estimate D2E/DX2                !
 ! D20   D(3,1,19,20)          159.3811         estimate D2E/DX2                !
 ! D21   D(6,1,19,20)          -84.5156         estimate D2E/DX2                !
 ! D22   D(1,2,4,9)             53.5001         estimate D2E/DX2                !
 ! D23   D(1,2,4,10)           -72.3748         estimate D2E/DX2                !
 ! D24   D(1,2,4,23)           171.6832         estimate D2E/DX2                !
 ! D25   D(5,2,4,9)           -178.8684         estimate D2E/DX2                !
 ! D26   D(5,2,4,10)            55.2567         estimate D2E/DX2                !
 ! D27   D(5,2,4,23)           -60.6852         estimate D2E/DX2                !
 ! D28   D(21,2,4,9)           -65.7442         estimate D2E/DX2                !
 ! D29   D(21,2,4,10)          168.3809         estimate D2E/DX2                !
 ! D30   D(21,2,4,23)           52.439          estimate D2E/DX2                !
 ! D31   D(1,2,21,22)         -173.5709         estimate D2E/DX2                !
 ! D32   D(4,2,21,22)          -47.3046         estimate D2E/DX2                !
 ! D33   D(5,2,21,22)           69.4836         estimate D2E/DX2                !
 ! D34   D(1,3,7,11)           -44.0482         estimate D2E/DX2                !
 ! D35   D(1,3,7,12)          -164.6013         estimate D2E/DX2                !
 ! D36   D(1,3,7,15)            78.2234         estimate D2E/DX2                !
 ! D37   D(8,3,7,11)            77.7462         estimate D2E/DX2                !
 ! D38   D(8,3,7,12)           -42.8069         estimate D2E/DX2                !
 ! D39   D(8,3,7,15)          -159.9823         estimate D2E/DX2                !
 ! D40   D(17,3,7,11)         -167.3531         estimate D2E/DX2                !
 ! D41   D(17,3,7,12)           72.0938         estimate D2E/DX2                !
 ! D42   D(17,3,7,15)          -45.0815         estimate D2E/DX2                !
 ! D43   D(1,3,17,18)           46.6817         estimate D2E/DX2                !
 ! D44   D(7,3,17,18)          174.2188         estimate D2E/DX2                !
 ! D45   D(8,3,17,18)          -69.4089         estimate D2E/DX2                !
 ! D46   D(2,4,9,13)            56.5031         estimate D2E/DX2                !
 ! D47   D(2,4,9,14)           -66.8225         estimate D2E/DX2                !
 ! D48   D(2,4,9,25)           174.221          estimate D2E/DX2                !
 ! D49   D(10,4,9,13)         -176.084          estimate D2E/DX2                !
 ! D50   D(10,4,9,14)           60.5904         estimate D2E/DX2                !
 ! D51   D(10,4,9,25)          -58.3661         estimate D2E/DX2                !
 ! D52   D(23,4,9,13)          -61.5782         estimate D2E/DX2                !
 ! D53   D(23,4,9,14)          175.0962         estimate D2E/DX2                !
 ! D54   D(23,4,9,25)           56.1397         estimate D2E/DX2                !
 ! D55   D(2,4,23,24)         -172.882          estimate D2E/DX2                !
 ! D56   D(9,4,23,24)          -49.8302         estimate D2E/DX2                !
 ! D57   D(10,4,23,24)          66.966          estimate D2E/DX2                !
 ! D58   D(3,7,15,16)           46.5204         estimate D2E/DX2                !
 ! D59   D(11,7,15,16)         170.2366         estimate D2E/DX2                !
 ! D60   D(12,7,15,16)         -72.7169         estimate D2E/DX2                !
 ! D61   D(4,9,25,26)         -178.4594         estimate D2E/DX2                !
 ! D62   D(13,9,25,26)         -58.1695         estimate D2E/DX2                !
 ! D63   D(14,9,25,26)          60.3366         estimate D2E/DX2                !
 --------------------------------------------------------------------------------
 Trust Radius=3.00D-01 FncErr=1.00D-07 GrdErr=1.00D-06 EigMax=2.50D+02 EigMin=1.00D-04
 Number of steps in this run=    140 maximum allowed number of steps=    156.
 GradGradGradGradGradGradGradGradGradGradGradGradGradGradGradGradGradGrad

                          Input orientation:                          
 ---------------------------------------------------------------------
 Center     Atomic      Atomic             Coordinates (Angstroms)
 Number     Number       Type             X           Y           Z
 ---------------------------------------------------------------------
      1          6           0        0.000000    0.000000    0.000000
      2          6           0        1.543100    0.000000    0.000000
      3          6           0       -0.721000    0.980900    0.941600
      4          6           0        2.254400   -0.830300    1.082900
      5          1           0        1.926000    1.027100    0.000000
      6          1           0       -0.384900   -1.012700    0.151600
      7          6           0       -0.416300    0.840900    2.427600
      8          1           0       -1.801000    0.856100    0.793400
      9          6           0        1.813100   -2.297300    1.153300
     10          1           0        2.176600   -0.379200    2.072000
     11          1           0       -0.414000   -0.204000    2.750500
     12          1           0       -1.165700    1.381000    3.015800
     13          1           0        1.944300   -2.800200    0.190200
     14          1           0        0.775800   -2.392800    1.484100
     15          8           0        0.842100    1.436400    2.725000
     16          1           0        0.819700    2.305100    2.269400
     17          8           0       -0.412100    2.331600    0.547200
     18          1           0       -0.536500    2.331400   -0.426100
     19          8           0       -0.425000    0.380800   -1.337600
     20          1           0        0.268700    0.003000   -1.924600
     21          8           0        1.952900   -0.547200   -1.286900
     22          1           0        2.929100   -0.627300   -1.201700
     23          8           0        3.664500   -0.829000    0.751500
     24          1           0        4.059600   -1.458300    1.391200
     25          8           0        2.648100   -2.969300    2.102600
     26          1           0        2.369000   -3.902300    2.114400
 ---------------------------------------------------------------------
                    Distance matrix (angstroms):
                    1          2          3          4          5
     1  C    0.000000
     2  C    1.543100   0.000000
     3  C    1.539031   2.641008   0.000000
     4  C    2.635221   1.538837   3.486175   0.000000
     5  H    2.182753   1.096151   2.809867   2.174961   0.000000
     6  H    1.093934   2.183055   2.170600   2.804727   3.086102
     7  C    2.602626   3.231037   1.523364   3.425459   3.378503
     8  H    2.146157   3.541948   1.097241   4.401593   3.814348
     9  C    3.145635   2.584683   4.148864   1.533555   3.520580
    10  H    3.028954   2.199613   3.394667   1.089891   2.516677
    11  H    2.788954   3.381879   2.184115   3.208348   3.815293
    12  H    3.515831   4.282500   2.158737   4.508108   4.333463
    13  H    3.414323   2.835182   4.686699   2.184853   3.832067
    14  H    2.920601   2.918355   3.730492   2.188293   3.901439
    15  O    3.193431   3.159157   2.414804   3.135126   2.961079
    16  H    3.337000   3.314660   2.426997   3.646489   2.829728
    17  O    2.430147   3.091698   1.440611   4.170708   2.732738
    18  H    2.429983   3.153050   1.930931   4.479124   2.818983
    19  O    1.454238   2.409896   2.375392   3.808513   2.781021
    20  H    1.943269   2.308287   3.186047   3.698980   2.738523
    21  O    2.401949   1.457215   3.801453   2.405618   2.033533
    22  H    3.227571   1.938707   4.528054   2.390779   2.277571
    23  O    3.831521   2.398402   4.748103   1.448520   2.651837
    24  H    4.532376   3.224104   5.385719   1.936022   3.558778
    25  O    4.500011   3.802459   5.320041   2.402105   4.573135
    26  H    5.030983   4.514504   5.896542   3.242578   5.382000
                    6          7          8          9         10
     6  H    0.000000
     7  C    2.935472   0.000000
     8  H    2.430979   2.142017   0.000000
     9  C    2.735837   4.054919   4.809904   0.000000
    10  H    3.263517   2.887599   4.356844   2.157603   0.000000
    11  H    2.721971   1.093657   2.622560   3.448612   2.683704
    12  H    3.813540   1.095120   2.370272   5.086457   3.893589
    13  H    2.936293   4.882213   5.268743   1.094387   3.075122
    14  H    2.242199   3.573249   4.203845   1.092950   2.522390
    15  O    3.758458   1.423600   3.324726   4.165765   2.345997
    16  H    4.116301   1.922656   3.338599   4.838864   3.014235
    17  O    3.367726   2.399606   2.041264   5.171614   4.046581
    18  H    3.397017   3.221745   2.294047   5.425863   4.576982
    19  O    2.039894   3.793217   2.580784   4.287878   4.355605
    20  H    2.401967   4.484746   3.521216   4.141258   4.445106
    21  O    2.784112   4.619247   4.515381   3.006155   3.370530
    22  H    3.600354   5.149673   5.343664   3.095219   3.368222
    23  O    4.097715   4.717076   5.719529   2.396879   2.039580
    24  H    4.635596   5.137521   6.329332   2.409830   2.274562
    25  O    4.102898   4.900387   6.011837   1.431775   2.632844
    26  H    4.448184   5.509441   6.463460   1.951605   3.528604
                   11         12         13         14         15
    11  H    0.000000
    12  H    1.774165   0.000000
    13  H    4.342461   5.927778   0.000000
    14  H    2.794680   4.511884   1.790403   0.000000
    15  O    2.066240   2.029506   5.058541   4.025792   0.000000
    16  H    2.837086   2.313631   5.626001   4.763285   0.981179
    17  O    3.359137   2.750553   5.658219   4.960730   2.667811
    18  H    4.066208   3.625718   5.733020   5.262040   3.554011
    19  O    4.129730   4.527817   4.250472   4.134824   4.384581
    20  H    4.729216   5.325781   3.890751   4.197171   4.899204
    21  O    4.692611   5.653039   2.694050   3.531323   4.611278
    22  H    5.193783   6.211921   2.762012   3.868748   4.902387
    23  O    4.584843   5.774252   2.675776   3.365525   4.122218
    24  H    4.840874   6.164796   2.778055   3.415445   4.528865
    25  O    4.176496   5.856971   2.044799   2.054362   4.802001
    26  H    4.671952   6.420271   2.257773   2.283452   5.586231
                   16         17         18         19         20
    16  H    0.000000
    17  O    2.117547   0.000000
    18  H    3.017564   0.981218   0.000000
    19  O    4.273483   2.712611   2.155946   0.000000
    20  H    4.815901   3.463475   2.883625   0.984135   0.000000
    21  O    4.697555   4.152666   3.901849   2.553069   1.883059
    22  H    5.009698   4.793470   4.622320   3.504957   2.828001
    23  O    4.496609   5.162344   5.387325   4.748891   4.402862
    24  H    5.042952   5.922143   6.228045   5.562398   5.244125
    25  O    5.584815   6.315349   6.680825   5.701060   5.542062
    26  H    6.399701   7.003723   7.331786   6.169902   5.998012
                   21         22         23         24         25
    21  O    0.000000
    22  H    0.983179   0.000000
    23  O    2.676576   2.096780   0.000000
    24  H    3.527110   2.948173   0.980479   0.000000
    25  O    4.223575   4.059843   2.727531   2.186674   0.000000
    26  H    4.795694   4.694236   3.602914   3.058477   0.973923
                   26
    26  H    0.000000
 Stoichiometry    C6H14O6
 Framework group  C1[X(C6H14O6)]
 Deg. of freedom    72
 Full point group                 C1      NOp   1
 Largest Abelian subgroup         C1      NOp   1
 Largest concise Abelian subgroup C1      NOp   1
                         Standard orientation:                         
 ---------------------------------------------------------------------
 Center     Atomic      Atomic             Coordinates (Angstroms)
 Number     Number       Type             X           Y           Z
 ---------------------------------------------------------------------
      1          6           0       -0.900200    0.702396   -0.679724
      2          6           0        0.142386    0.762367    0.456311
      3          6           0       -2.027876   -0.339114   -0.569177
      4          6           0        1.320950   -0.225053    0.392993
      5          1           0       -0.351317    0.698309    1.432887
      6          1           0       -0.405834    0.614232   -1.651588
      7          6           0       -1.596309   -1.796991   -0.474403
      8          1           0       -2.678430   -0.223846   -1.445209
      9          6           0        2.103281   -0.199594   -0.925757
     10          1           0        1.019893   -1.248171    0.617618
     11          1           0       -0.802549   -2.038296   -1.187007
     12          1           0       -2.449547   -2.453640   -0.674612
     13          1           0        2.480519    0.803677   -1.146714
     14          1           0        1.499807   -0.562139   -1.761771
     15          8           0       -1.157670   -2.090148    0.847827
     16          1           0       -1.846930   -1.703876    1.429573
     17          8           0       -2.841315   -0.037984    0.581039
     18          1           0       -3.005873    0.926881    0.512151
     19          8           0       -1.577149    1.989242   -0.703678
     20          1           0       -0.880338    2.630057   -0.434731
     21          8           0        0.713478    2.102467    0.418093
     22          1           0        1.438780    2.061679    1.080599
     23          8           0        2.245261    0.159818    1.439765
     24          1           0        3.026216   -0.413785    1.290004
     25          8           0        3.238388   -1.061269   -0.787805
     26          1           0        3.734268   -1.012165   -1.624595
 ---------------------------------------------------------------------
 Rotational constants (GHZ):           1.1880157           0.6379205           0.5158599
 Standard basis: def2TZVPP (5D, 7F)
 There are   642 symmetry adapted cartesian basis functions of A   symmetry.
 There are   568 symmetry adapted basis functions of A   symmetry.
   568 basis functions,   850 primitive gaussians,   642 cartesian basis functions
    49 alpha electrons       49 beta electrons
       nuclear repulsion energy       836.6219232710 Hartrees.
 NAtoms=   26 NActive=   26 NUniq=   26 SFac= 1.00D+00 NAtFMM=   60 NAOKFM=F Big=F
 Integral buffers will be    131072 words long.
 Raffenetti 2 integral format.
 Two-electron integral symmetry is turned on.
 Nuclear repulsion after empirical dispersion term =      836.6029291254 Hartrees.
 One-electron integrals computed using PRISM.
   1 Symmetry operations used in ECPInt.
 ECPInt:  NShTT=   23436 NPrTT=   62434 LenC2=   22106 LenP2D=   46093.
 LDataN:  DoStor=T MaxTD1= 6 Len=  172
 NBasis=   568 RedAO= T EigKep=  6.54D-05  NBF=   568
 NBsUse=   568 1.00D-06 EigRej= -1.00D+00 NBFU=   568
 ExpMin= 9.52D-02 ExpMax= 2.70D+04 ExpMxC= 9.22D+02 IAcc=3 IRadAn=         5 AccDes= 0.00D+00
 Harris functional with IExCor= 4639 and IRadAn=       5 diagonalized for initial guess.
 HarFok:  IExCor= 4639 AccDes= 0.00D+00 IRadAn=         5 IDoV= 1 UseB2=F ITyADJ=14
 ICtDFT=  3500011 ScaDFX=  1.000000  1.000000  1.000000  1.000000
 FoFCou: FMM=F IPFlag=           0 FMFlag=      100000 FMFlg1=           0
         NFxFlg=           0 DoJE=T BraDBF=F KetDBF=T FulRan=T
         wScrn=  0.000000 ICntrl=       500 IOpCl=  0 I1Cent=   200000004 NGrid=           0
         NMat0=    1 NMatS0=      1 NMatT0=    0 NMatD0=    1 NMtDS0=    0 NMtDT0=    0
 Petite list used in FoFCou.
 Requested convergence on RMS density matrix=1.00D-08 within 128 cycles.
 Requested convergence on MAX density matrix=1.00D-06.
 Requested convergence on             energy=1.00D-06.
 No special actions if energy rises.
 Integral accuracy reduced to 1.0D-05 until final iterations.
 Initial convergence to 1.0D-05 achieved.  Increase integral accuracy.
 SCF Done:  E(RwB97XD) =  -688.466827524     A.U. after   13 cycles
            NFock= 13  Conv=0.10D-07     -V/T= 2.0050

 **********************************************************************

            Population analysis using the SCF Density.

 **********************************************************************

 Orbital symmetries:
       Occupied  (A) (A) (A) (A) (A) (A) (A) (A) (A) (A) (A) (A)
                 (A) (A) (A) (A) (A) (A) (A) (A) (A) (A) (A) (A)
                 (A) (A) (A) (A) (A) (A) (A) (A) (A) (A) (A) (A)
                 (A) (A) (A) (A) (A) (A) (A) (A) (A) (A) (A) (A)
                 (A)
       Virtual   (A) (A) (A) (A) (A) (A) (A) (A) (A) (A) (A) (A)
                 (A) (A) (A) (A) (A) (A) (A) (A) (A) (A) (A) (A)
                 (A) (A) (A) (A) (A) (A) (A) (A) (A) (A) (A) (A)
                 (A) (A) (A) (A) (A) (A) (A) (A) (A) (A) (A) (A)
                 (A) (A) (A) (A) (A) (A) (A) (A) (A) (A) (A) (A)
                 (A) (A) (A) (A) (A) (A) (A) (A) (A) (A) (A) (A)
                 (A) (A) (A) (A) (A) (A) (A) (A) (A) (A) (A) (A)
                 (A) (A) (A) (A) (A) (A) (A) (A) (A) (A) (A) (A)
                 (A) (A) (A) (A) (A) (A) (A) (A) (A) (A) (A) (A)
                 (A) (A) (A) (A) (A) (A) (A) (A) (A) (A) (A) (A)
                 (A) (A) (A) (A) (A) (A) (A) (A) (A) (A) (A) (A)
                 (A) (A) (A) (A) (A) (A) (A) (A) (A) (A) (A) (A)
                 (A) (A) (A) (A) (A) (A) (A) (A) (A) (A) (A) (A)
                 (A) (A) (A) (A) (A) (A) (A) (A) (A) (A) (A) (A)
                 (A) (A) (A) (A) (A) (A) (A) (A) (A) (A) (A) (A)
                 (A) (A) (A) (A) (A) (A) (A) (A) (A) (A) (A) (A)
                 (A) (A) (A) (A) (A) (A) (A) (A) (A) (A) (A) (A)
                 (A) (A) (A) (A) (A) (A) (A) (A) (A) (A) (A) (A)
                 (A) (A) (A) (A) (A) (A) (A) (A) (A) (A) (A) (A)
                 (A) (A) (A) (A) (A) (A) (A) (A) (A) (A) (A) (A)
                 (A) (A) (A) (A) (A) (A) (A) (A) (A) (A) (A) (A)
                 (A) (A) (A) (A) (A) (A) (A) (A) (A) (A) (A) (A)
                 (A) (A) (A) (A) (A) (A) (A) (A) (A) (A) (A) (A)
                 (A) (A) (A) (A) (A) (A) (A) (A) (A) (A) (A) (A)
                 (A) (A) (A) (A) (A) (A) (A) (A) (A) (A) (A) (A)
                 (A) (A) (A) (A) (A) (A) (A) (A) (A) (A) (A) (A)
                 (A) (A) (A) (A) (A) (A) (A) (A) (A) (A) (A) (A)
                 (A) (A) (A) (A) (A) (A) (A) (A) (A) (A) (A) (A)
                 (A) (A) (A) (A) (A) (A) (A) (A) (A) (A) (A) (A)
                 (A) (A) (A) (A) (A) (A) (A) (A) (A) (A) (A) (A)
                 (A) (A) (A) (A) (A) (A) (A) (A) (A) (A) (A) (A)
                 (A) (A) (A) (A) (A) (A) (A) (A) (A) (A) (A) (A)
                 (A) (A) (A) (A) (A) (A) (A) (A) (A) (A) (A) (A)
                 (A) (A) (A) (A) (A) (A) (A) (A) (A) (A) (A) (A)
                 (A) (A) (A) (A) (A) (A) (A) (A) (A) (A) (A) (A)
                 (A) (A) (A) (A) (A) (A) (A) (A) (A) (A) (A) (A)
                 (A) (A) (A) (A) (A) (A) (A) (A) (A) (A) (A) (A)
                 (A) (A) (A) (A) (A) (A) (A) (A) (A) (A) (A) (A)
                 (A) (A) (A) (A) (A) (A) (A) (A) (A) (A) (A) (A)
                 (A) (A) (A) (A) (A) (A) (A) (A) (A) (A) (A) (A)
                 (A) (A) (A) (A) (A) (A) (A) (A) (A) (A) (A) (A)
                 (A) (A) (A) (A) (A) (A) (A) (A) (A) (A) (A) (A)
                 (A) (A) (A) (A) (A) (A) (A) (A) (A) (A) (A) (A)
                 (A) (A) (A)
 The electronic state is 1-A.
 Alpha  occ. eigenvalues --  -19.26896 -19.26059 -19.25837 -19.25737 -19.25339
 Alpha  occ. eigenvalues --  -19.24901 -10.35253 -10.35133 -10.34898 -10.34481
 Alpha  occ. eigenvalues --  -10.34223 -10.33980  -1.15557  -1.14637  -1.13564
 Alpha  occ. eigenvalues --   -1.12003  -1.10974  -1.09826  -0.88884  -0.85258
 Alpha  occ. eigenvalues --   -0.80419  -0.75625  -0.70997  -0.67897  -0.63960
 Alpha  occ. eigenvalues --   -0.62728  -0.60674  -0.59725  -0.58357  -0.57902
 Alpha  occ. eigenvalues --   -0.56733  -0.55765  -0.53507  -0.52802  -0.51210
 Alpha  occ. eigenvalues --   -0.50022  -0.48815  -0.46452  -0.45305  -0.44585
 Alpha  occ. eigenvalues --   -0.44106  -0.43350  -0.42370  -0.38904  -0.37884
 Alpha  occ. eigenvalues --   -0.37476  -0.37087  -0.36113  -0.35753
 Alpha virt. eigenvalues --    0.08840   0.10587   0.10759   0.12249   0.14206
 Alpha virt. eigenvalues --    0.14957   0.15716   0.16687   0.18047   0.18474
 Alpha virt. eigenvalues --    0.19947   0.20269   0.20657   0.21312   0.22419
 Alpha virt. eigenvalues --    0.22735   0.23747   0.24125   0.25097   0.26621
 Alpha virt. eigenvalues --    0.27343   0.28274   0.29620   0.31718   0.34245
 Alpha virt. eigenvalues --    0.34816   0.36590   0.36868   0.38583   0.38860
 Alpha virt. eigenvalues --    0.39178   0.39572   0.40139   0.40820   0.41146
 Alpha virt. eigenvalues --    0.41929   0.42482   0.42776   0.43410   0.45056
 Alpha virt. eigenvalues --    0.46159   0.46706   0.47042   0.47916   0.48581
 Alpha virt. eigenvalues --    0.49140   0.50200   0.50753   0.50881   0.51382
 Alpha virt. eigenvalues --    0.51921   0.52956   0.53272   0.53793   0.54518
 Alpha virt. eigenvalues --    0.55525   0.56184   0.57256   0.58737   0.59668
 Alpha virt. eigenvalues --    0.60648   0.61878   0.62261   0.63719   0.64064
 Alpha virt. eigenvalues --    0.64649   0.66486   0.67712   0.68579   0.68927
 Alpha virt. eigenvalues --    0.70535   0.70719   0.71897   0.72786   0.72847
 Alpha virt. eigenvalues --    0.74845   0.75480   0.76305   0.78201   0.79874
 Alpha virt. eigenvalues --    0.80579   0.83128   0.83886   0.85059   0.86939
 Alpha virt. eigenvalues --    0.87729   0.89266   0.89358   0.91132   0.91925
 Alpha virt. eigenvalues --    0.92624   0.93930   0.94805   0.95628   0.97486
 Alpha virt. eigenvalues --    0.98402   0.98839   0.99631   1.00573   1.01090
 Alpha virt. eigenvalues --    1.02586   1.02973   1.04606   1.05466   1.06148
 Alpha virt. eigenvalues --    1.07181   1.08400   1.09607   1.10792   1.11688
 Alpha virt. eigenvalues --    1.12092   1.13372   1.14483   1.15625   1.17477
 Alpha virt. eigenvalues --    1.19890   1.20556   1.22192   1.23375   1.25003
 Alpha virt. eigenvalues --    1.25530   1.26832   1.27652   1.28896   1.29647
 Alpha virt. eigenvalues --    1.30218   1.31091   1.32925   1.33551   1.35772
 Alpha virt. eigenvalues --    1.36576   1.37861   1.38078   1.39562   1.40390
 Alpha virt. eigenvalues --    1.40802   1.43326   1.44309   1.46159   1.47095
 Alpha virt. eigenvalues --    1.47507   1.48795   1.49760   1.51182   1.51397
 Alpha virt. eigenvalues --    1.52927   1.53482   1.55044   1.57225   1.58161
 Alpha virt. eigenvalues --    1.58904   1.60298   1.61605   1.63385   1.64430
 Alpha virt. eigenvalues --    1.67660   1.67979   1.69297   1.71149   1.72197
 Alpha virt. eigenvalues --    1.75577   1.76675   1.80132   1.83510   1.85044
 Alpha virt. eigenvalues --    1.87193   1.88885   1.90383   1.90881   1.92946
 Alpha virt. eigenvalues --    1.94683   1.95799   1.96895   1.97727   1.98549
 Alpha virt. eigenvalues --    2.00636   2.02773   2.03672   2.04997   2.05521
 Alpha virt. eigenvalues --    2.06381   2.07511   2.07949   2.08553   2.11314
 Alpha virt. eigenvalues --    2.12081   2.13195   2.15132   2.15599   2.16187
 Alpha virt. eigenvalues --    2.16841   2.20422   2.20939   2.21932   2.24051
 Alpha virt. eigenvalues --    2.25474   2.28072   2.28793   2.31436   2.32620
 Alpha virt. eigenvalues --    2.34588   2.36741   2.37213   2.38083   2.39481
 Alpha virt. eigenvalues --    2.43444   2.45948   2.47061   2.49612   2.50437
 Alpha virt. eigenvalues --    2.54684   2.58054   2.59427   2.60678   2.62610
 Alpha virt. eigenvalues --    2.64890   2.67185   2.68049   2.69866   2.70927
 Alpha virt. eigenvalues --    2.72448   2.73642   2.76132   2.76918   2.77634
 Alpha virt. eigenvalues --    2.78495   2.79623   2.81794   2.82667   2.83345
 Alpha virt. eigenvalues --    2.84675   2.86742   2.88603   2.88888   2.89956
 Alpha virt. eigenvalues --    2.91916   2.92562   2.93130   2.96360   2.96813
 Alpha virt. eigenvalues --    2.98850   3.01470   3.02298   3.02963   3.03701
 Alpha virt. eigenvalues --    3.05460   3.07162   3.08461   3.08591   3.09765
 Alpha virt. eigenvalues --    3.10931   3.12540   3.14740   3.14882   3.15378
 Alpha virt. eigenvalues --    3.17473   3.17893   3.18602   3.20215   3.21413
 Alpha virt. eigenvalues --    3.23151   3.24264   3.24763   3.25704   3.27047
 Alpha virt. eigenvalues --    3.28114   3.29369   3.30930   3.31300   3.32513
 Alpha virt. eigenvalues --    3.33250   3.34034   3.35178   3.36985   3.37447
 Alpha virt. eigenvalues --    3.39792   3.40812   3.41625   3.42270   3.43283
 Alpha virt. eigenvalues --    3.44022   3.44984   3.46172   3.47838   3.48747
 Alpha virt. eigenvalues --    3.49981   3.50139   3.52252   3.52838   3.53349
 Alpha virt. eigenvalues --    3.54941   3.55712   3.55792   3.57386   3.58440
 Alpha virt. eigenvalues --    3.60998   3.61704   3.63354   3.64321   3.66327
 Alpha virt. eigenvalues --    3.66865   3.69492   3.70612   3.71268   3.72554
 Alpha virt. eigenvalues --    3.73296   3.74397   3.74968   3.76703   3.77828
 Alpha virt. eigenvalues --    3.78890   3.79675   3.80791   3.82058   3.83011
 Alpha virt. eigenvalues --    3.85734   3.86145   3.88270   3.89030   3.90814
 Alpha virt. eigenvalues --    3.91384   3.92589   3.94589   3.94736   3.96156
 Alpha virt. eigenvalues --    3.98077   3.99092   3.99557   4.01183   4.01864
 Alpha virt. eigenvalues --    4.02455   4.02647   4.03778   4.05893   4.06161
 Alpha virt. eigenvalues --    4.06556   4.08750   4.09698   4.10824   4.11433
 Alpha virt. eigenvalues --    4.12453   4.13262   4.14519   4.15539   4.16031
 Alpha virt. eigenvalues --    4.17387   4.18786   4.19839   4.21091   4.22652
 Alpha virt. eigenvalues --    4.24281   4.25463   4.26126   4.26756   4.28758
 Alpha virt. eigenvalues --    4.29602   4.30822   4.31734   4.33681   4.34506
 Alpha virt. eigenvalues --    4.34609   4.36574   4.38187   4.38918   4.41126
 Alpha virt. eigenvalues --    4.41860   4.43286   4.45741   4.46802   4.47770
 Alpha virt. eigenvalues --    4.48839   4.51518   4.51712   4.54492   4.54654
 Alpha virt. eigenvalues --    4.55913   4.56592   4.58526   4.60009   4.61980
 Alpha virt. eigenvalues --    4.63037   4.63650   4.65421   4.67142   4.72529
 Alpha virt. eigenvalues --    4.73769   4.78121   4.79138   4.80327   4.80831
 Alpha virt. eigenvalues --    4.82587   4.83918   4.84821   4.87173   4.90070
 Alpha virt. eigenvalues --    4.90743   4.92522   4.94670   4.95020   4.95761
 Alpha virt. eigenvalues --    4.96738   4.99355   5.01578   5.01780   5.04289
 Alpha virt. eigenvalues --    5.05266   5.06019   5.07589   5.08797   5.09978
 Alpha virt. eigenvalues --    5.11837   5.12613   5.13776   5.17670   5.20885
 Alpha virt. eigenvalues --    5.21837   5.23117   5.25889   5.26216   5.28981
 Alpha virt. eigenvalues --    5.31934   5.36353   5.38170   5.40192   5.43619
 Alpha virt. eigenvalues --    5.44846   5.49816   5.54943   5.55668   5.57538
 Alpha virt. eigenvalues --    5.60412   5.61934   5.63122   5.64822   5.65453
 Alpha virt. eigenvalues --    5.69569   5.70350   5.71513   5.71903   5.72569
 Alpha virt. eigenvalues --    5.75460   5.77835   5.83056   5.84543   5.84837
 Alpha virt. eigenvalues --    5.87009   5.88798   5.91335   5.92878   5.96080
 Alpha virt. eigenvalues --    5.99335   6.02645   6.03816   6.11275   6.13595
 Alpha virt. eigenvalues --    6.14623   6.17286   6.17844   6.24728   6.51466
 Alpha virt. eigenvalues --    6.53951   6.54493   6.55159   6.55508   6.57492
 Alpha virt. eigenvalues --    6.70180   6.72281   6.73795   6.74229   6.75516
 Alpha virt. eigenvalues --    6.76309   6.77446   6.78543   6.79292   6.80037
 Alpha virt. eigenvalues --    6.81066   6.81435   6.82868   6.86946   6.88292
 Alpha virt. eigenvalues --    6.89472   6.92547   6.94091   6.96210   7.00840
 Alpha virt. eigenvalues --    7.02734   7.03662   7.04750   7.07827   7.15745
 Alpha virt. eigenvalues --    7.17930   7.20108   7.21876   7.22621   7.25716
 Alpha virt. eigenvalues --    7.41198   7.42148   7.43099   7.44126   7.45254
 Alpha virt. eigenvalues --    7.47645   7.49582   7.54024   7.55624   7.56319
 Alpha virt. eigenvalues --    7.63368   7.71212  23.11546  23.13953  23.19184
 Alpha virt. eigenvalues --   23.23160  23.43012  23.46826  44.13284  44.16438
 Alpha virt. eigenvalues --   44.22571  44.25923  44.33376  44.34645
          Condensed to atoms (all electrons):
               1          2          3          4          5          6
     1  C    5.048950   0.143581   0.204878   0.000323  -0.042880   0.439444
     2  C    0.143581   5.106087  -0.002985   0.152706   0.413308  -0.026119
     3  C    0.204878  -0.002985   5.006391   0.015695   0.001290  -0.053755
     4  C    0.000323   0.152706   0.015695   5.104066  -0.021028  -0.012794
     5  H   -0.042880   0.413308   0.001290  -0.021028   0.551139   0.005475
     6  H    0.439444  -0.026119  -0.053755  -0.012794   0.005475   0.586073
     7  C    0.032662  -0.002414   0.223940  -0.002961  -0.008927  -0.002352
     8  H   -0.046888   0.007755   0.458894   0.001298   0.001065  -0.005557
     9  C    0.010393   0.015795  -0.008517   0.218855   0.006370   0.004144
    10  H   -0.005069  -0.019274   0.000158   0.416981  -0.001155   0.001708
    11  H    0.005700  -0.011832  -0.044167   0.013996   0.000091   0.000386
    12  H    0.003165   0.002533  -0.020304  -0.001511   0.000010  -0.000596
    13  H   -0.008227   0.016096   0.000428  -0.039998   0.000628   0.002181
    14  H    0.012438  -0.021278  -0.001302  -0.027826  -0.000740  -0.004612
    15  O   -0.038981   0.036868  -0.005065  -0.033523   0.004759  -0.000116
    16  H   -0.002601  -0.001872  -0.013432   0.004222   0.000450  -0.000065
    17  O   -0.035111  -0.014119   0.249109   0.001658   0.021289   0.004711
    18  H   -0.005756   0.002137  -0.049676  -0.000288  -0.000017   0.001823
    19  O    0.253815  -0.010713  -0.074760   0.005779   0.003172  -0.030660
    20  H   -0.035533  -0.015187   0.008372   0.002985   0.000159  -0.000339
    21  O   -0.032648   0.215816   0.004708  -0.026782  -0.033367   0.000948
    22  H    0.011534  -0.050014  -0.000696   0.000488  -0.004111  -0.000143
    23  O    0.005342  -0.054563  -0.000683   0.231472   0.003291  -0.000018
    24  H   -0.000933   0.005095   0.000068  -0.038370  -0.000300  -0.000006
    25  O   -0.000599   0.005416   0.000025  -0.077705  -0.000032   0.000055
    26  H    0.000196  -0.001749   0.000013   0.011014   0.000032  -0.000014
               7          8          9         10         11         12
     1  C    0.032662  -0.046888   0.010393  -0.005069   0.005700   0.003165
     2  C   -0.002414   0.007755   0.015795  -0.019274  -0.011832   0.002533
     3  C    0.223940   0.458894  -0.008517   0.000158  -0.044167  -0.020304
     4  C   -0.002961   0.001298   0.218855   0.416981   0.013996  -0.001511
     5  H   -0.008927   0.001065   0.006370  -0.001155   0.000091   0.000010
     6  H   -0.002352  -0.005557   0.004144   0.001708   0.000386  -0.000596
     7  C    4.791365  -0.048537  -0.000350  -0.002166   0.415207   0.416460
     8  H   -0.048537   0.577915  -0.000228  -0.000370   0.002868  -0.005467
     9  C   -0.000350  -0.000228   4.805916  -0.029492  -0.004862   0.000329
    10  H   -0.002166  -0.000370  -0.029492   0.528568  -0.007792   0.001194
    11  H    0.415207   0.002868  -0.004862  -0.007792   0.621726  -0.036654
    12  H    0.416460  -0.005467   0.000329   0.001194  -0.036654   0.588867
    13  H    0.000400  -0.000043   0.414628   0.008194   0.000076   0.000005
    14  H   -0.001449   0.000102   0.418909  -0.007331   0.001037  -0.000141
    15  O    0.232382   0.004420   0.004070   0.023467  -0.038770  -0.037586
    16  H   -0.028617   0.001331  -0.000218  -0.003248   0.009698  -0.006621
    17  O   -0.049211  -0.036581  -0.000040   0.000263   0.003062  -0.000564
    18  H    0.010988  -0.006548   0.000038   0.000038  -0.000423  -0.000481
    19  O    0.004290   0.000211  -0.000589   0.000005   0.000069  -0.000156
    20  H   -0.001095  -0.000244  -0.000051  -0.000042  -0.000007   0.000028
    21  O    0.000014  -0.000104  -0.021931   0.003004   0.000013   0.000010
    22  H   -0.000002   0.000030  -0.001904   0.001001   0.000002  -0.000001
    23  O   -0.000180   0.000008  -0.029725  -0.033231  -0.000017  -0.000003
    24  H   -0.000131  -0.000000  -0.005981  -0.003698  -0.000002  -0.000001
    25  O    0.000449  -0.000002   0.282692   0.006207  -0.000042   0.000005
    26  H   -0.000009   0.000000  -0.030725  -0.000098  -0.000007   0.000000
              13         14         15         16         17         18
     1  C   -0.008227   0.012438  -0.038981  -0.002601  -0.035111  -0.005756
     2  C    0.016096  -0.021278   0.036868  -0.001872  -0.014119   0.002137
     3  C    0.000428  -0.001302  -0.005065  -0.013432   0.249109  -0.049676
     4  C   -0.039998  -0.027826  -0.033523   0.004222   0.001658  -0.000288
     5  H    0.000628  -0.000740   0.004759   0.000450   0.021289  -0.000017
     6  H    0.002181  -0.004612  -0.000116  -0.000065   0.004711   0.001823
     7  C    0.000400  -0.001449   0.232382  -0.028617  -0.049211   0.010988
     8  H   -0.000043   0.000102   0.004420   0.001331  -0.036581  -0.006548
     9  C    0.414628   0.418909   0.004070  -0.000218  -0.000040   0.000038
    10  H    0.008194  -0.007331   0.023467  -0.003248   0.000263   0.000038
    11  H    0.000076   0.001037  -0.038770   0.009698   0.003062  -0.000423
    12  H    0.000005  -0.000141  -0.037586  -0.006621  -0.000564  -0.000481
    13  H    0.580844  -0.040360  -0.000055   0.000001  -0.000003   0.000000
    14  H   -0.040360   0.646495   0.000057   0.000039   0.000037   0.000005
    15  O   -0.000055   0.000057   7.922528   0.315638  -0.015639   0.000112
    16  H    0.000001   0.000039   0.315638   0.493940   0.023962  -0.001533
    17  O   -0.000003   0.000037  -0.015639   0.023962   7.935224   0.331131
    18  H    0.000000   0.000005   0.000112  -0.001533   0.331131   0.475537
    19  O   -0.000029   0.000059   0.000075   0.000030  -0.013458   0.033896
    20  H    0.000030  -0.000016   0.000075   0.000006  -0.000092  -0.001365
    21  O    0.018413   0.001693   0.000122   0.000006  -0.000118  -0.000046
    22  H   -0.000006   0.000277   0.000014   0.000005   0.000076  -0.000008
    23  O   -0.000349   0.006381   0.000403  -0.000021   0.000027   0.000002
    24  H   -0.002255   0.001868  -0.000018   0.000002   0.000003  -0.000000
    25  O   -0.049198  -0.044659  -0.000027  -0.000003   0.000000   0.000000
    26  H   -0.005646  -0.005078   0.000002  -0.000000  -0.000000  -0.000000
              19         20         21         22         23         24
     1  C    0.253815  -0.035533  -0.032648   0.011534   0.005342  -0.000933
     2  C   -0.010713  -0.015187   0.215816  -0.050014  -0.054563   0.005095
     3  C   -0.074760   0.008372   0.004708  -0.000696  -0.000683   0.000068
     4  C    0.005779   0.002985  -0.026782   0.000488   0.231472  -0.038370
     5  H    0.003172   0.000159  -0.033367  -0.004111   0.003291  -0.000300
     6  H   -0.030660  -0.000339   0.000948  -0.000143  -0.000018  -0.000006
     7  C    0.004290  -0.001095   0.000014  -0.000002  -0.000180  -0.000131
     8  H    0.000211  -0.000244  -0.000104   0.000030   0.000008  -0.000000
     9  C   -0.000589  -0.000051  -0.021931  -0.001904  -0.029725  -0.005981
    10  H    0.000005  -0.000042   0.003004   0.001001  -0.033231  -0.003698
    11  H    0.000069  -0.000007   0.000013   0.000002  -0.000017  -0.000002
    12  H   -0.000156   0.000028   0.000010  -0.000001  -0.000003  -0.000001
    13  H   -0.000029   0.000030   0.018413  -0.000006  -0.000349  -0.002255
    14  H    0.000059  -0.000016   0.001693   0.000277   0.006381   0.001868
    15  O    0.000075   0.000075   0.000122   0.000014   0.000403  -0.000018
    16  H    0.000030   0.000006   0.000006   0.000005  -0.000021   0.000002
    17  O   -0.013458  -0.000092  -0.000118   0.000076   0.000027   0.000003
    18  H    0.033896  -0.001365  -0.000046  -0.000008   0.000002  -0.000000
    19  O    7.934530   0.333584  -0.027741   0.000396  -0.000101   0.000018
    20  H    0.333584   0.452918   0.034577  -0.002163  -0.000023   0.000009
    21  O   -0.027741   0.034577   7.958146   0.325102  -0.015577   0.000220
    22  H    0.000396  -0.002163   0.325102   0.480297   0.031933  -0.001437
    23  O   -0.000101  -0.000023  -0.015577   0.031933   7.933534   0.330162
    24  H    0.000018   0.000009   0.000220  -0.001437   0.330162   0.486448
    25  O   -0.000000   0.000001   0.000193  -0.000027  -0.009314   0.024382
    26  H   -0.000001  -0.000001   0.000085  -0.000006  -0.000042  -0.001347
              25         26
     1  C   -0.000599   0.000196
     2  C    0.005416  -0.001749
     3  C    0.000025   0.000013
     4  C   -0.077705   0.011014
     5  H   -0.000032   0.000032
     6  H    0.000055  -0.000014
     7  C    0.000449  -0.000009
     8  H   -0.000002   0.000000
     9  C    0.282692  -0.030725
    10  H    0.006207  -0.000098
    11  H   -0.000042  -0.000007
    12  H    0.000005   0.000000
    13  H   -0.049198  -0.005646
    14  H   -0.044659  -0.005078
    15  O   -0.000027   0.000002
    16  H   -0.000003  -0.000000
    17  O    0.000000  -0.000000
    18  H    0.000000  -0.000000
    19  O   -0.000000  -0.000001
    20  H    0.000001  -0.000001
    21  O    0.000193   0.000085
    22  H   -0.000027  -0.000006
    23  O   -0.009314  -0.000042
    24  H    0.024382  -0.001347
    25  O    7.891619   0.327129
    26  H    0.327129   0.523904
 Mulliken charges:
               1
     1  C    0.082806
     2  C    0.108925
     3  C    0.101373
     4  C    0.101248
     5  H    0.100031
     6  H    0.090197
     7  C    0.020244
     8  H    0.094675
     9  C   -0.047525
    10  H    0.122176
    11  H    0.070647
    12  H    0.097480
    13  H    0.104246
    14  H    0.065395
    15  O   -0.375211
    16  H    0.208899
    17  O   -0.405617
    18  H    0.210436
    19  O   -0.411720
    20  H    0.223414
    21  O   -0.404759
    22  H    0.209363
    23  O   -0.398709
    24  H    0.206205
    25  O   -0.356566
    26  H    0.182348
 Sum of Mulliken charges =  -0.00000
 Mulliken charges with hydrogens summed into heavy atoms:
               1
     1  C    0.173002
     2  C    0.208956
     3  C    0.196047
     4  C    0.223424
     7  C    0.188371
     9  C    0.122116
    15  O   -0.166312
    17  O   -0.195181
    19  O   -0.188306
    21  O   -0.195395
    23  O   -0.192504
    25  O   -0.174218
 Electronic spatial extent (au):  <R**2>=           2322.1037
 Charge=              0.0000 electrons
 Dipole moment (field-independent basis, Debye):
    X=              1.4576    Y=             -0.1423    Z=             -2.5432  Tot=              2.9348
 Quadrupole moment (field-independent basis, Debye-Ang):
   XX=            -68.2413   YY=            -77.5654   ZZ=            -68.5030
   XY=              1.5730   XZ=             -5.1323   YZ=              5.2055
 Traceless Quadrupole moment (field-independent basis, Debye-Ang):
   XX=              3.1953   YY=             -6.1288   ZZ=              2.9336
   XY=              1.5730   XZ=             -5.1323   YZ=              5.2055
 Octapole moment (field-independent basis, Debye-Ang**2):
  XXX=             38.2880  YYY=             15.6481  ZZZ=             -1.7362  XYY=              0.2225
  XXY=             -2.5683  XXZ=            -16.1572  XZZ=             12.0092  YZZ=             -4.5795
  YYZ=              2.9099  XYZ=             -2.9674
 Hexadecapole moment (field-independent basis, Debye-Ang**3):
 XXXX=          -1520.9154 YYYY=           -800.1409 ZZZZ=           -355.1469 XXXY=            -27.3022
 XXXZ=            -66.5327 YYYX=              5.1796 YYYZ=             22.3189 ZZZX=            -48.3613
 ZZZY=              4.7182 XXYY=           -394.2971 XXZZ=           -271.5223 YYZZ=           -185.8682
 XXYZ=             23.4600 YYXZ=             -3.9572 ZZXY=             -7.2936
 N-N= 8.366029291254D+02 E-N=-3.290475848208D+03  KE= 6.850087311627D+02
   1 Symmetry operations used in ECPInt.
 ECPInt:  NShTT=   23436 NPrTT=   62434 LenC2=   22106 LenP2D=   46093.
 LDataN:  DoStor=T MaxTD1= 7 Len=  274
 Calling FoFJK, ICntrl=      2127 FMM=F ISym2X=0 I1Cent= 0 IOpClX= 0 NMat=1 NMatS=1 NMatT=0.
 ***** Axes restored to original set *****
 -------------------------------------------------------------------
 Center     Atomic                   Forces (Hartrees/Bohr)
 Number     Number              X              Y              Z
 -------------------------------------------------------------------
      1        6          -0.004240784    0.002500136   -0.022034923
      2        6           0.012745780   -0.006958024   -0.010994882
      3        6           0.000337119    0.009357747   -0.009691604
      4        6           0.013181046   -0.010051914    0.001886017
      5        1          -0.004465068   -0.001580371    0.008948863
      6        1           0.001879893   -0.000204897    0.006192964
      7        6           0.009680975    0.017317675    0.000990511
      8        1           0.002197180   -0.006929947   -0.000095503
      9        6           0.001292314   -0.004956168    0.003111358
     10        1          -0.008350086    0.002546361   -0.001683761
     11        1           0.002812342    0.002020003   -0.002208603
     12        1          -0.005206961   -0.004354252   -0.003347709
     13        1          -0.004118018    0.006611961   -0.002754865
     14        1          -0.001987745    0.003662333   -0.002672551
     15        8          -0.004035556    0.009194785   -0.007842455
     16        1           0.002558861   -0.017699759    0.008413034
     17        8          -0.004726865   -0.013843172   -0.010363975
     18        1           0.004540190    0.000989079    0.018060977
     19        8           0.017759669   -0.008462059    0.007411081
     20        1          -0.014511026    0.009602871    0.009496668
     21        8           0.013128798    0.001012704    0.016020093
     22        1          -0.020223151   -0.000602113   -0.004322626
     23        8          -0.006338417   -0.008840152    0.012197047
     24        1          -0.005033261    0.012100202   -0.015239265
     25        8          -0.006861857   -0.009758124   -0.000473719
     26        1           0.007984626    0.017325094    0.000997829
 -------------------------------------------------------------------
 Cartesian Forces:  Max     0.022034923 RMS     0.008964934

 GradGradGradGradGradGradGradGradGradGradGradGradGradGradGradGradGradGrad
 Berny optimization.
 FormGI is forming the generalized inverse of G from B-inverse, IUseBI=4.
 Internal  Forces:  Max     0.020403211 RMS     0.006186599
 Search for a local minimum.
 Step number   1 out of a maximum of  140
 All quantities printed in internal units (Hartrees-Bohrs-Radians)
 Mixed Optimization -- RFO/linear search
 Second derivative matrix not updated -- first step.
 ITU=  0
     Eigenvalues ---    0.00230   0.00250   0.00252   0.00322   0.00457
     Eigenvalues ---    0.00935   0.00974   0.01050   0.01155   0.01271
     Eigenvalues ---    0.01380   0.03443   0.03464   0.03774   0.03789
     Eigenvalues ---    0.04694   0.04739   0.04790   0.04952   0.05073
     Eigenvalues ---    0.05282   0.05517   0.05749   0.07879   0.07890
     Eigenvalues ---    0.08254   0.08297   0.11383   0.11535   0.13623
     Eigenvalues ---    0.13804   0.16000   0.16000   0.16000   0.16000
     Eigenvalues ---    0.16000   0.16000   0.16799   0.17389   0.17417
     Eigenvalues ---    0.17640   0.19145   0.19189   0.19243   0.19844
     Eigenvalues ---    0.22012   0.22030   0.28246   0.28605   0.28622
     Eigenvalues ---    0.29098   0.30045   0.33989   0.34111   0.34228
     Eigenvalues ---    0.34311   0.34362   0.34393   0.34474   0.34825
     Eigenvalues ---    0.37315   0.37695   0.38440   0.39502   0.40735
     Eigenvalues ---    0.41923   0.50590   0.50772   0.51149   0.51156
     Eigenvalues ---    0.51292   0.52583
 RFO step:  Lambda=-1.94054275D-02 EMin= 2.30000000D-03
 Linear search not attempted -- first point.
 Iteration  1 RMS(Cart)=  0.08580014 RMS(Int)=  0.00169813
 Iteration  2 RMS(Cart)=  0.00241388 RMS(Int)=  0.00052171
 Iteration  3 RMS(Cart)=  0.00000291 RMS(Int)=  0.00052170
 Iteration  4 RMS(Cart)=  0.00000000 RMS(Int)=  0.00052170
 Variable       Old X    -DE/DX   Delta X   Delta X   Delta X     New X
                                 (Linear)    (Quad)   (Total)
    R1        2.91604  -0.00905   0.00000  -0.02998  -0.02998   2.88606
    R2        2.90835  -0.01006   0.00000  -0.03294  -0.03294   2.87541
    R3        2.06724   0.00039   0.00000   0.00106   0.00106   2.06830
    R4        2.74811  -0.01620   0.00000  -0.04088  -0.04088   2.70724
    R5        2.90798  -0.01265   0.00000  -0.04139  -0.04139   2.86659
    R6        2.07143  -0.00304   0.00000  -0.00843  -0.00843   2.06299
    R7        2.75374  -0.01248   0.00000  -0.03179  -0.03179   2.72194
    R8        2.87874  -0.00333   0.00000  -0.01042  -0.01042   2.86833
    R9        2.07349  -0.00136   0.00000  -0.00379  -0.00379   2.06970
   R10        2.72236  -0.01420   0.00000  -0.03426  -0.03426   2.68810
   R11        2.89800  -0.01134   0.00000  -0.03654  -0.03654   2.86146
   R12        2.05960   0.00012   0.00000   0.00033   0.00033   2.05993
   R13        2.73731  -0.01037   0.00000  -0.02569  -0.02569   2.71162
   R14        2.06671  -0.00258   0.00000  -0.00709  -0.00709   2.05962
   R15        2.06948  -0.00038   0.00000  -0.00106  -0.00106   2.06842
   R16        2.69021  -0.00475   0.00000  -0.01082  -0.01082   2.67940
   R17        2.06809  -0.00111   0.00000  -0.00305  -0.00305   2.06504
   R18        2.06538   0.00076   0.00000   0.00208   0.00208   2.06746
   R19        2.70566  -0.00255   0.00000  -0.00598  -0.00598   2.69968
   R20        1.85416  -0.01964   0.00000  -0.03698  -0.03698   1.81718
   R21        1.85423  -0.01849   0.00000  -0.03483  -0.03483   1.81940
   R22        1.85975  -0.01958   0.00000  -0.03727  -0.03727   1.82248
   R23        1.85794  -0.02040   0.00000  -0.03871  -0.03871   1.81923
   R24        1.85284  -0.01974   0.00000  -0.03707  -0.03707   1.81576
   R25        1.84045  -0.01887   0.00000  -0.03461  -0.03461   1.80584
    A1        2.05836  -0.00278   0.00000  -0.02500  -0.02516   2.03320
    A2        1.93034  -0.00123   0.00000  -0.01023  -0.01152   1.91882
    A3        1.86737   0.00611   0.00000   0.03427   0.03376   1.90113
    A4        1.91814   0.00098   0.00000  -0.01147  -0.01176   1.90638
    A5        1.83272  -0.00522   0.00000  -0.02826  -0.02779   1.80492
    A6        1.84113   0.00283   0.00000   0.05142   0.05121   1.89234
    A7        2.05131  -0.00079   0.00000  -0.01821  -0.01868   2.03263
    A8        1.92763   0.00024   0.00000  -0.01370  -0.01451   1.91313
    A9        1.85586  -0.00411   0.00000  -0.01902  -0.01874   1.83712
   A10        1.92209  -0.00264   0.00000  -0.02681  -0.02805   1.89404
   A11        1.86384   0.00349   0.00000   0.02069   0.02052   1.88436
   A12        1.82722   0.00463   0.00000   0.07086   0.07112   1.89834
   A13        2.03145   0.00257   0.00000   0.00287   0.00283   2.03428
   A14        1.88177  -0.00441   0.00000  -0.03107  -0.03121   1.85056
   A15        1.90670   0.00314   0.00000   0.01378   0.01370   1.92040
   A16        1.89460   0.00147   0.00000   0.00716   0.00722   1.90182
   A17        1.88634  -0.00621   0.00000  -0.03175  -0.03166   1.85468
   A18        1.85534   0.00368   0.00000   0.04386   0.04409   1.89942
   A19        1.99922   0.00086   0.00000  -0.00643  -0.00624   1.99298
   A20        1.96310  -0.00158   0.00000  -0.03123  -0.03103   1.93207
   A21        1.86344  -0.00768   0.00000  -0.04450  -0.04420   1.81924
   A22        1.91105  -0.00100   0.00000   0.00091  -0.00037   1.91069
   A23        1.86658   0.00592   0.00000   0.03628   0.03574   1.90232
   A24        1.85120   0.00402   0.00000   0.05269   0.05171   1.90292
   A25        1.95652  -0.00251   0.00000  -0.02773  -0.02790   1.92862
   A26        1.91956  -0.00582   0.00000  -0.02353  -0.02514   1.89442
   A27        1.92000   0.00846   0.00000   0.03895   0.03857   1.95857
   A28        1.89026   0.00161   0.00000  -0.00315  -0.00348   1.88679
   A29        1.91359  -0.00592   0.00000  -0.04310  -0.04255   1.87103
   A30        1.86125   0.00438   0.00000   0.06219   0.06201   1.92326
   A31        1.94409  -0.00274   0.00000  -0.03005  -0.02964   1.91445
   A32        1.95044   0.00003   0.00000  -0.01590  -0.01573   1.93471
   A33        1.88767  -0.01328   0.00000  -0.05225  -0.05205   1.83562
   A34        1.91770  -0.00049   0.00000  -0.00374  -0.00562   1.91208
   A35        1.87328   0.00983   0.00000   0.06490   0.06389   1.93717
   A36        1.88790   0.00718   0.00000   0.04200   0.04101   1.92890
   A37        1.82675   0.00304   0.00000   0.01695   0.01695   1.84370
   A38        1.81748   0.00282   0.00000   0.01570   0.01570   1.83318
   A39        1.81532   0.00529   0.00000   0.02949   0.02949   1.84482
   A40        1.80625   0.00595   0.00000   0.03317   0.03317   1.83943
   A41        1.81567   0.00646   0.00000   0.03599   0.03599   1.85166
   A42        1.86558   0.00513   0.00000   0.02860   0.02860   1.89418
    D1        1.45996  -0.00164   0.00000  -0.05194  -0.05171   1.40825
    D2       -0.76496   0.00258   0.00000   0.01498   0.01520  -0.74976
    D3       -2.73780  -0.00077   0.00000  -0.05124  -0.05090  -2.78870
    D4       -0.76807   0.00060   0.00000  -0.00355  -0.00373  -0.77180
    D5       -2.99300   0.00482   0.00000   0.06337   0.06319  -2.92981
    D6        1.31735   0.00148   0.00000  -0.00284  -0.00291   1.31443
    D7       -2.76482  -0.00549   0.00000  -0.07805  -0.07820  -2.84302
    D8        1.29344  -0.00127   0.00000  -0.01113  -0.01129   1.28215
    D9       -0.67940  -0.00461   0.00000  -0.07735  -0.07739  -0.75679
   D10       -1.02875   0.00339   0.00000   0.03275   0.03293  -0.99581
   D11        3.12198   0.00314   0.00000   0.04587   0.04583  -3.11538
   D12        1.11274  -0.00046   0.00000   0.00366   0.00383   1.11657
   D13        1.20509   0.00012   0.00000  -0.01467  -0.01455   1.19054
   D14       -0.92737  -0.00012   0.00000  -0.00156  -0.00166  -0.92903
   D15       -2.93661  -0.00372   0.00000  -0.04376  -0.04365  -2.98026
   D16       -3.10548   0.00118   0.00000   0.02517   0.02510  -3.08038
   D17        1.04524   0.00093   0.00000   0.03829   0.03800   1.08324
   D18       -0.96399  -0.00267   0.00000  -0.00392  -0.00400  -0.96799
   D19        0.58101   0.00118   0.00000  -0.00667  -0.00579   0.57521
   D20        2.78173  -0.00172   0.00000  -0.03346  -0.03334   2.74839
   D21       -1.47508  -0.00169   0.00000  -0.03646  -0.03745  -1.51253
   D22        0.93375  -0.00162   0.00000   0.00138   0.00106   0.93481
   D23       -1.26318   0.00039   0.00000   0.03247   0.03229  -1.23089
   D24        2.99644   0.00104   0.00000   0.01257   0.01219   3.00862
   D25       -3.12184  -0.00445   0.00000  -0.05906  -0.05871   3.10263
   D26        0.96441  -0.00243   0.00000  -0.02797  -0.02748   0.93693
   D27       -1.05916  -0.00178   0.00000  -0.04787  -0.04758  -1.10674
   D28       -1.14745   0.00153   0.00000   0.02177   0.02167  -1.12578
   D29        2.93880   0.00355   0.00000   0.05286   0.05290   2.99171
   D30        0.91523   0.00419   0.00000   0.03296   0.03280   0.94803
   D31       -3.02938   0.00135   0.00000   0.03451   0.03444  -2.99494
   D32       -0.82562   0.00002   0.00000   0.01360   0.01286  -0.81276
   D33        1.21272   0.00075   0.00000   0.02572   0.02653   1.23925
   D34       -0.76879   0.00095   0.00000   0.00291   0.00327  -0.76551
   D35       -2.87283   0.00457   0.00000   0.04141   0.04116  -2.83168
   D36        1.36526  -0.00234   0.00000  -0.04362  -0.04352   1.32174
   D37        1.35693  -0.00188   0.00000  -0.03039  -0.03014   1.32679
   D38       -0.74712   0.00173   0.00000   0.00811   0.00774  -0.73938
   D39       -2.79222  -0.00518   0.00000  -0.07692  -0.07693  -2.86915
   D40       -2.92086  -0.00005   0.00000   0.00824   0.00850  -2.91236
   D41        1.25827   0.00357   0.00000   0.04673   0.04639   1.30466
   D42       -0.78682  -0.00334   0.00000  -0.03829  -0.03829  -0.82511
   D43        0.81475  -0.00204   0.00000  -0.03569  -0.03543   0.77932
   D44        3.04069  -0.00096   0.00000  -0.04465  -0.04449   2.99620
   D45       -1.21141  -0.00040   0.00000  -0.02951  -0.02993  -1.24134
   D46        0.98616  -0.00276   0.00000  -0.02862  -0.02878   0.95739
   D47       -1.16627  -0.00013   0.00000   0.00995   0.00988  -1.15639
   D48        3.04073  -0.00052   0.00000   0.00105   0.00100   3.04173
   D49       -3.07325  -0.00506   0.00000  -0.07533  -0.07544   3.13450
   D50        1.05750  -0.00243   0.00000  -0.03676  -0.03678   1.02073
   D51       -1.01868  -0.00282   0.00000  -0.04567  -0.04566  -1.06434
   D52       -1.07474   0.00228   0.00000   0.00598   0.00605  -1.06869
   D53        3.05601   0.00491   0.00000   0.04456   0.04471   3.10072
   D54        0.97982   0.00452   0.00000   0.03565   0.03583   1.01565
   D55       -3.01736  -0.00033   0.00000   0.02373   0.02346  -2.99390
   D56       -0.86970  -0.00030   0.00000   0.01145   0.01040  -0.85930
   D57        1.16878   0.00333   0.00000   0.05543   0.05674   1.22552
   D58        0.81193  -0.00036   0.00000  -0.00520  -0.00403   0.80791
   D59        2.97119  -0.00183   0.00000  -0.04305  -0.04271   2.92848
   D60       -1.26915  -0.00057   0.00000  -0.03469  -0.03620  -1.30535
   D61       -3.11470   0.00108   0.00000   0.01858   0.01885  -3.09586
   D62       -1.01525  -0.00399   0.00000  -0.00955  -0.01147  -1.02672
   D63        1.05307   0.00460   0.00000   0.04368   0.04533   1.09840
         Item               Value     Threshold  Converged?
 Maximum Force            0.020403     0.000450     NO 
 RMS     Force            0.006187     0.000300     NO 
 Maximum Displacement     0.258906     0.001800     NO 
 RMS     Displacement     0.085817     0.001200     NO 
 Predicted change in Energy=-1.119680D-02
 GradGradGradGradGradGradGradGradGradGradGradGradGradGradGradGradGradGrad

                          Input orientation:                          
 ---------------------------------------------------------------------
 Center     Atomic      Atomic             Coordinates (Angstroms)
 Number     Number       Type             X           Y           Z
 ---------------------------------------------------------------------
      1          6           0        0.013799   -0.017775   -0.039893
      2          6           0        1.540828   -0.008013   -0.016716
      3          6           0       -0.685727    0.933184    0.920111
      4          6           0        2.205142   -0.804559    1.090212
      5          1           0        1.899995    1.021678    0.033490
      6          1           0       -0.355547   -1.034492    0.126817
      7          6           0       -0.348944    0.780568    2.392240
      8          1           0       -1.759405    0.767212    0.781511
      9          6           0        1.755056   -2.248032    1.171874
     10          1           0        2.054716   -0.321799    2.055905
     11          1           0       -0.333816   -0.272392    2.673204
     12          1           0       -1.126158    1.278458    2.980548
     13          1           0        1.897632   -2.733517    0.203304
     14          1           0        0.702093   -2.311794    1.461964
     15          8           0        0.924422    1.317532    2.709382
     16          1           0        0.956707    2.178079    2.281472
     17          8           0       -0.381684    2.280384    0.579422
     18          1           0       -0.472811    2.322489   -0.378116
     19          8           0       -0.434199    0.421155   -1.327915
     20          1           0        0.229647    0.110763   -1.954858
     21          8           0        1.942740   -0.578058   -1.276969
     22          1           0        2.895715   -0.697544   -1.211040
     23          8           0        3.601478   -0.768600    0.761631
     24          1           0        4.033501   -1.376005    1.367987
     25          8           0        2.586295   -2.843009    2.169858
     26          1           0        2.369024   -3.771513    2.231974
 ---------------------------------------------------------------------
                    Distance matrix (angstroms):
                    1          2          3          4          5
     1  C    0.000000
     2  C    1.527237   0.000000
     3  C    1.521600   2.592498   0.000000
     4  C    2.588079   1.516933   3.377248   0.000000
     5  H    2.154898   1.091689   2.734938   2.131881   0.000000
     6  H    1.094496   2.161134   2.147110   2.745565   3.053525
     7  C    2.585383   3.161671   1.517853   3.275860   3.267960
     8  H    2.105982   3.482769   1.095236   4.275908   3.743727
     9  C    3.078052   2.544863   4.017579   1.514220   3.465246
    10  H    2.941112   2.158309   3.221030   1.090067   2.432906
    11  H    2.747101   3.289355   2.156522   3.038975   3.692238
    12  H    3.478906   4.213243   2.135086   4.360033   4.231866
    13  H    3.314095   2.757551   4.542273   2.145238   3.759033
    14  H    2.826986   2.863107   3.570649   2.160814   3.819365
    15  O    3.189168   3.093321   2.437579   2.960612   2.863507
    16  H    3.331605   3.225192   2.469951   3.445841   2.698237
    17  O    2.412777   3.047654   1.422484   4.058257   2.662413
    18  H    2.414130   3.101063   1.913347   4.371024   2.737104
    19  O    1.432607   2.409183   2.319281   3.783627   2.768125
    20  H    1.931373   2.343010   3.127256   3.743373   2.751973
    21  O    2.359044   1.440390   3.744310   2.392426   2.068402
    22  H    3.184198   1.933283   4.475244   2.405017   2.344363
    23  O    3.752016   2.330364   4.615334   1.434926   2.574943
    24  H    4.470450   3.162629   5.272956   1.935616   3.475862
    25  O    4.413919   3.729787   5.150498   2.337989   4.468879
    26  H    4.979861   4.461664   5.760786   3.183284   5.294148
                    6          7          8          9         10
     6  H    0.000000
     7  C    2.902865   0.000000
     8  H    2.376042   2.141034   0.000000
     9  C    2.649429   3.884396   4.647098   0.000000
    10  H    3.168388   2.665692   4.166238   2.140486   0.000000
    11  H    2.658074   1.089906   2.586810   3.243537   2.467506
    12  H    3.753313   1.094561   2.344811   4.899881   3.678824
    13  H    2.823004   4.710343   5.095424   1.092771   3.045191
    14  H    2.129020   3.395997   4.000284   1.094052   2.478394
    15  O    3.720212   1.417875   3.349994   3.970785   2.095711
    16  H    4.084748   1.915733   3.408474   4.632390   2.739689
    17  O    3.345734   2.353047   2.056366   5.042144   3.858420
    18  H    3.396767   3.172970   2.327863   5.315593   4.393758
    19  O    2.059451   3.738449   2.515075   4.262200   4.265785
    20  H    2.446922   4.436289   3.446007   4.203242   4.427663
    21  O    2.731496   4.534399   4.444431   2.969995   3.344586
    22  H    3.531870   5.069147   5.271234   3.063233   3.394318
    23  O    4.016433   4.545837   5.576574   2.401310   2.065731
    24  H    4.573935   4.990564   6.204442   2.447489   2.345245
    25  O    4.012380   4.668553   5.817758   1.428611   2.579159
    26  H    4.398439   5.304194   6.304585   1.954933   3.468475
                   11         12         13         14         15
    11  H    0.000000
    12  H    1.768447   0.000000
    13  H    4.139673   5.740412   0.000000
    14  H    2.588314   4.305637   1.786446   0.000000
    15  O    2.027888   2.068800   4.861950   3.844150   0.000000
    16  H    2.797090   2.374100   5.415524   4.571147   0.961608
    17  O    3.301951   2.706197   5.520503   4.800162   2.677634
    18  H    4.007903   3.577358   5.614289   5.122780   3.534804
    19  O    4.062024   4.447092   4.211178   4.067383   4.353058
    20  H    4.677954   5.249757   3.940782   4.215052   4.867662
    21  O    4.569465   5.566978   2.615195   3.470850   4.530037
    22  H    5.069317   6.135916   2.672401   3.816115   4.828689
    23  O    4.403052   5.609330   2.660022   3.358325   3.913095
    24  H    4.689884   6.022343   2.785905   3.461621   4.326761
    25  O    3.922815   5.605891   2.086524   2.081711   4.512539
    26  H    4.443408   6.186992   2.327047   2.345710   5.311608
                   16         17         18         19         20
    16  H    0.000000
    17  O    2.167656   0.000000
    18  H    3.022877   0.962786   0.000000
    19  O    4.248421   2.664100   2.125719   0.000000
    20  H    4.769581   3.391689   2.805582   0.964413   0.000000
    21  O    4.607717   4.125510   3.880206   2.578927   1.966901
    22  H    4.922053   4.776522   4.600145   3.514752   2.883496
    23  O    4.241185   5.019471   5.239627   4.697703   4.418352
    24  H    4.788803   5.786612   6.085605   5.518879   5.265082
    25  O    5.280089   6.130868   6.521708   5.657966   5.593911
    26  H    6.115124   6.850021   7.212868   6.173277   6.097423
                   21         22         23         24         25
    21  O    0.000000
    22  H    0.962697   0.000000
    23  O    2.635073   2.096326   0.000000
    24  H    3.464649   2.899353   0.960860   0.000000
    25  O    4.174300   4.016122   2.704971   2.211222   0.000000
    26  H    4.763670   4.645540   3.563472   3.042272   0.955607
                   26
    26  H    0.000000
 Stoichiometry    C6H14O6
 Framework group  C1[X(C6H14O6)]
 Deg. of freedom    72
 Full point group                 C1      NOp   1
 Largest Abelian subgroup         C1      NOp   1
 Largest concise Abelian subgroup C1      NOp   1
                         Standard orientation:                         
 ---------------------------------------------------------------------
 Center     Atomic      Atomic             Coordinates (Angstroms)
 Number     Number       Type             X           Y           Z
 ---------------------------------------------------------------------
      1          6           0       -0.914109    0.713959   -0.670882
      2          6           0        0.119233    0.787942    0.451250
      3          6           0       -1.962054   -0.383396   -0.557340
      4          6           0        1.280422   -0.184406    0.366000
      5          1           0       -0.375879    0.653174    1.414830
      6          1           0       -0.409181    0.631443   -1.638436
      7          6           0       -1.445469   -1.806731   -0.451826
      8          1           0       -2.588192   -0.297351   -1.451816
      9          6           0        2.029100   -0.142942   -0.949531
     10          1           0        0.945122   -1.203058    0.561372
     11          1           0       -0.639300   -1.974156   -1.165937
     12          1           0       -2.263070   -2.492677   -0.694865
     13          1           0        2.360691    0.878346   -1.152428
     14          1           0        1.394693   -0.491726   -1.769793
     15          8           0       -0.930638   -2.096056    0.837208
     16          1           0       -1.583032   -1.759576    1.458380
     17          8           0       -2.771488   -0.167073    0.592217
     18          1           0       -2.979198    0.772934    0.578097
     19          8           0       -1.691306    1.917418   -0.666961
     20          1           0       -1.091087    2.614764   -0.377932
     21          8           0        0.653115    2.124214    0.387455
     22          1           0        1.395076    2.132482    1.000816
     23          8           0        2.163637    0.227530    1.419211
     24          1           0        2.969814   -0.282791    1.305619
     25          8           0        3.144713   -1.017601   -0.772593
     26          1           0        3.676539   -0.995809   -1.566238
 ---------------------------------------------------------------------
 Rotational constants (GHZ):           1.2036618           0.6766079           0.5403255
 Standard basis: def2TZVPP (5D, 7F)
 There are   642 symmetry adapted cartesian basis functions of A   symmetry.
 There are   568 symmetry adapted basis functions of A   symmetry.
   568 basis functions,   850 primitive gaussians,   642 cartesian basis functions
    49 alpha electrons       49 beta electrons
       nuclear repulsion energy       849.5039966878 Hartrees.
 NAtoms=   26 NActive=   26 NUniq=   26 SFac= 1.00D+00 NAtFMM=   60 NAOKFM=F Big=F
 Integral buffers will be    131072 words long.
 Raffenetti 2 integral format.
 Two-electron integral symmetry is turned on.
 Nuclear repulsion after empirical dispersion term =      849.4842535726 Hartrees.
 One-electron integrals computed using PRISM.
   1 Symmetry operations used in ECPInt.
 ECPInt:  NShTT=   23436 NPrTT=   62434 LenC2=   22209 LenP2D=   46434.
 LDataN:  DoStor=T MaxTD1= 6 Len=  172
 NBasis=   568 RedAO= T EigKep=  5.49D-05  NBF=   568
[...]
 3712,0.00328032,0.00057136,0.00127918,-0.00321078,-0.00114086,-0.00026
 554,0.37184641,0.02555928,-0.09032357,0.03378987,0.00534860,-0.0006431
 5,0.00321915,-0.00401065,-0.00020952,-0.01813466,-0.00012505,0.0012464
 8,-0.00048571,0.00198239,0.00101061,-0.00010734,0.01182607,-0.00571204
 ,0.03743278,0.00224124,-0.00240494,-0.00125981,-0.00042167,0.00069943,
 0.00032959,-0.00133862,0.00007558,0.00006345,0.00019067,-0.00020846,0.
 00020937,-0.00010924,0.00034729,-0.00045365,-0.00014988,0.00010736,-0.
 00077838,-0.00012833,0.00016008,0.00000905,0.00072643,0.00005999,-0.00
 052379,-0.00048390,0.00078001,-0.00036285,0.00055638,-0.00007212,0.000
 69659,0.00076476,0.00169071,-0.01020289,-0.00183067,0.00081414,-0.0007
 6323,-0.17387606,0.16588387,-0.05175929,0.05205485,-0.19451949,-0.0116
 5680,0.00790647,-0.02531690,-0.00915871,0.00373044,-0.05215292,0.00010
 168,-0.00218559,0.00423100,0.00011105,-0.00075750,0.00078301,-0.005142
 76,0.01419122,-0.02360081,0.00639068,-0.00465706,0.00062948,-0.0008220
 7,0.00118448,0.00175254,0.00118729,-0.00066918,-0.00057999,0.00032867,
 -0.00023547,0.00032105,-0.00003495,0.00013180,0.00092257,-0.00043950,-
 0.00002076,-0.00256893,-0.00003962,0.00027723,0.00004242,-0.00065926,-
 0.00025481,0.00056280,-0.00199672,-0.00124858,-0.00091539,0.00019536,0
 .00070953,0.00003146,-0.00017050,0.00062727,-0.00162388,0.00050098,-0.
 00039239,-0.00310513,-0.16066659,0.04111658,0.52702970,0.01048641,-0.0
 0553984,-0.00780725,0.00158282,-0.00121524,-0.00937805,-0.00187413,0.0
 0033464,-0.00374724,0.00021509,0.00032631,0.00104105,-0.00027282,0.000
 30888,0.00060321,-0.00028209,0.00086344,-0.00048769,0.00156009,-0.0006
 5515,-0.00030804,-0.00002950,0.00025189,0.00007014,0.00043599,0.000255
 26,-0.00034494,0.00031212,-0.00038646,0.00045464,0.00003460,0.00004011
 ,0.00005905,-0.00013584,-0.00000653,-0.00048959,0.00010880,0.00023919,
 -0.00002565,-0.00026709,-0.00009698,0.00029036,-0.00076437,-0.00002259
 ,0.00004915,0.00024007,-0.00002087,0.00004809,-0.00022245,-0.00055159,
 -0.00129661,-0.00002099,0.00106596,0.00071898,-0.25421553,0.12662404,0
 .23015625,0.24516016,-0.00928264,0.00414866,0.00937126,0.00040117,0.00
 244879,0.00217095,0.00077753,-0.00184421,0.00042375,-0.00002840,-0.000
 10715,-0.00084286,-0.00023249,-0.00048257,-0.00072351,-0.00014616,-0.0
 0085472,0.00224397,-0.00002865,0.00019385,0.00006948,0.00008463,-0.000
 14567,-0.00000757,0.00005373,0.00012195,0.00045823,-0.00012620,0.00009
 697,-0.00014221,-0.00001896,0.00004401,-0.00004322,-0.00002871,0.00008
 716,0.00006287,0.00007767,-0.00017068,-0.00004393,0.00003433,0.0000140
 3,-0.00004814,0.00006844,0.00003425,0.00009657,0.00004109,0.00001801,-
 0.00004037,-0.00047962,-0.00002861,-0.00161915,0.00115050,0.00120594,-
 0.00010351,0.12900355,-0.07485308,-0.11079754,-0.12133199,0.07329189,0
 .02414328,-0.01210776,-0.03472975,-0.00093964,-0.00138131,-0.00198511,
 -0.00239675,0.00277641,-0.00659383,0.00029064,0.00022179,-0.00147835,-
 0.00017575,-0.00001451,-0.00008167,0.00021325,-0.00014879,0.00002430,0
 .00145467,-0.00104557,-0.00029684,-0.00011957,0.00023467,0.00026834,-0
 .00000005,0.00025946,-0.00006155,-0.00000579,-0.00001889,0.00004033,0.
 00002820,-0.00000315,0.00008395,-0.00013722,0.00003680,-0.00044986,0.0
 0000182,0.00005808,0.00000379,0.00002865,-0.00000811,-0.00002074,-0.00
 033553,-0.00000716,0.00026381,-0.00003642,-0.00004661,-0.00018309,-0.0
 0012386,0.00114316,0.00138758,-0.00001107,-0.00115374,-0.00056253,0.18
 758632,-0.08722790,-0.23629997,-0.21332465,0.09992171,0.27987926,-0.02
 374273,0.02499795,0.03664498,-0.10062307,0.02285383,0.04269933,-0.0070
 9044,-0.00466037,-0.00340564,-0.00229923,-0.00347212,-0.00546077,0.006
 89395,0.00178027,-0.00428429,0.00209986,-0.00059116,-0.00027569,-0.000
 83606,-0.00009245,-0.00142849,-0.00131973,0.00177870,0.00176169,0.0001
 4814,0.00055661,0.00061533,0.00009598,0.00165352,-0.00175303,0.0000080
 6,-0.00012487,0.00006354,0.00019110,0.00005756,0.00037185,-0.00031825,
 -0.00013178,0.00002247,0.00052279,0.00029032,-0.00049334,0.00141019,0.
 00015016,0.00076560,-0.00033056,-0.00020164,-0.00038305,0.00050415,0.0
 0203949,0.00028476,0.00003605,-0.00099440,0.00005871,-0.01019065,0.005
 34896,0.00781150,-0.00006912,-0.00034451,0.00239263,0.63625470,0.00679
 426,-0.00172546,-0.00339121,0.00770672,-0.09518961,-0.05776104,0.00033
 739,0.00025955,0.00067029,-0.00123362,0.00810793,0.00964167,0.01328212
 ,-0.00992314,-0.03863602,0.00153123,0.00122598,0.00018056,-0.00052559,
 -0.00062635,0.00043303,0.00029565,-0.00025450,-0.00034827,-0.00216995,
 -0.00161762,-0.00251866,0.00198644,-0.00121944,0.00261770,0.00008502,0
 .00018789,-0.00013775,0.00011245,0.00006142,-0.00013976,0.00024759,0.0
 0191246,0.00203882,-0.00035592,0.00011356,0.00106132,0.00046452,0.0003
 8208,-0.00145120,-0.00043721,0.00053738,0.00083071,0.00113033,0.000501
 14,-0.00047852,-0.00059802,0.00026095,-0.00007353,0.00488981,0.0011385
 0,-0.00259541,-0.00003890,-0.00176059,-0.00051397,-0.12199379,0.116505
 04,0.00823999,-0.00562683,-0.01265536,0.00084182,-0.05028759,-0.183400
 32,-0.00029634,0.00188814,0.00165559,0.01174611,-0.01510655,-0.0525952
 1,0.00589328,-0.01405546,-0.01854274,-0.00021478,0.00070252,0.00062369
 ,-0.00136468,0.00001373,0.00010645,0.00050894,-0.00048911,-0.00051313,
 0.00003400,-0.00366575,0.00054826,-0.00499675,0.00592071,-0.00424703,-
 0.00016801,-0.00002800,0.00012494,0.00028239,-0.00013368,0.00000807,0.
 00008971,0.00123449,-0.00059815,-0.00000581,0.00002834,-0.00037427,0.0
 0136554,-0.00052503,-0.00085823,-0.00029729,0.00059525,0.00032263,0.00
 115841,-0.00111908,0.00079658,-0.00026332,-0.00015146,-0.00085765,-0.0
 0381947,0.00125845,0.00443324,0.00035816,0.00093104,-0.00113628,-0.000
 45402,0.08734251,0.31033195,-0.00050116,0.00191817,0.00102907,-0.01436
 555,0.00270003,0.00469676,-0.00046691,-0.00020402,-0.00009463,0.003303
 84,-0.00021162,-0.00121367,0.00059138,-0.00072221,-0.00143691,0.000280
 17,0.00001018,-0.00001790,0.00000170,-0.00000816,0.00010505,0.00005211
 ,0.00005441,0.00007973,-0.00020186,-0.00058177,0.00077962,-0.00141736,
 0.00024889,-0.00019715,0.00000381,0.00000364,0.00001668,0.00001824,-0.
 00002112,-0.00004252,-0.00008354,-0.00057763,0.00011490,-0.00009102,-0
 .00023414,-0.00012031,-0.00000219,-0.00003598,-0.00027151,-0.00000543,
 0.00011111,0.00015689,0.00026872,-0.00011404,-0.00018720,-0.00012466,0
 .00015755,0.00005140,0.00154302,-0.00035493,0.00010895,-0.00127247,-0.
 00006088,0.00024622,-0.50263851,0.08725408,-0.01877333,0.51828183,0.00
 021657,-0.00089483,-0.00066642,0.01754226,-0.00309818,-0.00303403,0.00
 047161,0.00037992,-0.00018510,-0.00107231,0.00225411,0.00087085,0.0007
 5495,-0.00058187,-0.00012019,-0.00003401,-0.00010302,-0.00011037,0.000
 00943,0.00013845,-0.00008388,-0.00005082,-0.00012150,-0.00004130,0.000
 18019,0.00015645,0.00128597,0.00015764,-0.00005484,-0.00017548,-0.0000
 3189,-0.00004569,0.00002650,-0.00001216,-0.00001868,0.00002896,-0.0005
 0659,-0.00070442,-0.00005291,0.00015543,-0.00008137,-0.00044844,-0.000
 03555,-0.00018431,0.00013182,0.00009538,-0.00003157,-0.00014293,-0.000
 27859,0.00005252,0.00019108,0.00015896,-0.00001658,-0.00000928,0.00050
 460,0.00054025,-0.00027176,-0.00031670,-0.00106651,-0.00020905,0.07165
 568,-0.02324527,-0.00983401,-0.08971768,0.03009537,0.00105710,-0.00323
 726,-0.00779116,0.04183582,-0.00821744,-0.00232851,0.00184001,0.000802
 78,0.00084568,0.00640752,-0.00015254,-0.00396137,-0.00010267,-0.000885
 61,-0.00013350,-0.00004240,0.00012796,0.00012716,0.00028220,0.00002933
 ,0.00034407,0.00034985,-0.00041669,-0.00041311,-0.00007532,0.00073270,
 -0.00027557,-0.00050691,-0.00042588,0.00065806,0.00005253,0.00005728,-
 0.00006891,-0.00008919,0.00003723,-0.00004991,0.00021879,0.00018439,-0
 .00006690,-0.00033638,-0.00038920,0.00029572,-0.00048488,0.00023064,-0
 .00007384,0.00003672,-0.00003728,0.00010065,-0.00012598,-0.00014599,0.
 00000628,-0.00006691,-0.00011934,-0.00008781,-0.00295449,0.00120579,0.
 00053910,0.00216019,-0.00103355,0.00091630,-0.06336126,-0.00193565,-0.
 04224961,0.01470837,0.01388797,0.04831227,0.00413175,0.00183455,-0.002
 45962,-0.04144009,0.00445976,-0.00212235,0.00047577,-0.00110468,-0.000
 03081,-0.20781718,-0.01460272,0.05433812,0.00140313,-0.00027365,0.0007
 9469,0.00019750,-0.00005662,0.00028885,0.00051937,-0.00051123,-0.00014
 876,-0.00023199,0.00019338,0.00008610,-0.04172605,-0.00595468,0.008312
 51,-0.02512325,0.00065836,0.00834480,0.00036065,0.00018660,-0.00033950
 ,-0.00010260,0.00028828,0.00010336,0.00153833,0.00066064,-0.00092776,-
 0.00022328,-0.00617803,0.00086106,-0.00058398,0.00212193,0.00082669,-0
 .00047816,-0.00030088,-0.00006348,-0.00020773,0.00114286,-0.00017074,0
 .00012440,-0.00048345,0.00003137,-0.00313899,0.00075470,-0.00288687,-0
 .00031792,0.00029482,0.00097995,-0.00089560,0.00100963,-0.00041295,-0.
 00196578,0.00039795,0.00075282,0.43396085,-0.00236264,-0.00229595,0.00
 395030,0.02982393,0.00033100,-0.00361038,-0.00031045,0.00032627,0.0001
 4291,0.02244768,-0.08350563,0.01044111,-0.00025570,0.00181971,-0.00170
 086,0.00074296,0.00037750,0.00002243,-0.00078352,-0.00055895,0.0001515
 4,0.00020971,-0.00009846,-0.00002264,-0.03530954,-0.00207792,0.0123822
 2,0.01572569,0.00526993,-0.00155806,-0.00007281,0.00002143,-0.00002481
 ,0.00011430,-0.00000520,-0.00008625,0.00084341,0.00335486,0.00021136,-
 0.00283351,-0.00705914,0.00146144,0.00081660,-0.00021076,-0.00045435,-
 0.00015588,0.00017282,0.00010016,0.00027312,-0.00007747,-0.00007970,-0
 .00013239,0.00019160,-0.00000318,0.00264543,0.00002238,0.00158093,0.00
 000602,-0.00029650,-0.00054819,0.00143388,0.00300643,0.00025227,-0.000
 70412,-0.00304540,-0.00131558,-0.15238392,0.35472415,0.00094496,0.0026
 5048,-0.00409938,-0.02805100,0.00104163,-0.00121277,-0.00013441,-0.000
 33824,-0.00082986,0.02504091,0.01409588,-0.09209150,0.00042180,-0.0008
 4465,0.00128456,-0.00012926,-0.00032548,0.00004386,-0.00117180,0.00011
 264,-0.00056625,-0.00010876,0.00012554,0.00021465,0.00583157,0.0037497
 7,-0.00053299,0.03654949,0.00300329,-0.00026011,-0.00027653,-0.0001870
 0,0.00016763,0.00018564,-0.00011309,0.00017187,-0.00028726,0.00197696,
 0.00096792,-0.00024731,0.00088651,0.00160620,0.00139847,-0.00119608,0.
 00017114,0.00007953,0.00000578,-0.00044066,-0.00009582,0.00021654,0.00
 075684,0.00017889,-0.00034487,-0.00019872,-0.00291759,0.00055607,-0.00
 026777,0.00097687,-0.00017902,0.00071252,-0.01062571,0.00359378,-0.000
 71634,0.00045969,-0.00167157,0.00364516,0.05818782,-0.23887401,0.27102
 534,0.00078698,0.00119095,-0.00149844,-0.00834670,-0.00041293,0.002413
 24,-0.00005150,-0.00000108,-0.00007351,-0.02630177,0.03095301,-0.02413
 584,0.00019602,-0.00014944,0.00034502,-0.00009848,-0.00014129,0.000009
 28,-0.00004878,0.00016767,-0.00006709,-0.00002086,0.00001503,0.0000174
 3,-0.00322530,0.00058346,-0.00252503,0.00020177,0.00053363,0.00039505,
 -0.00004926,-0.00004088,0.00005893,0.00003927,-0.00005007,0.00001963,0
 .00002172,-0.00026467,0.00017057,0.00064157,0.00078753,-0.00022245,0.0
 0009753,-0.00022553,-0.00003861,0.00001472,0.00005184,0.00000343,0.000
 04758,-0.00013564,0.00008652,-0.00002144,0.00000848,-0.00002911,-0.000
 69278,-0.00007321,-0.00033589,-0.00019068,0.00014358,0.00007276,0.0011
 0361,-0.00033096,0.00135773,-0.00043717,-0.00017328,-0.00101645,-0.123
 41028,0.12792396,-0.09052493,0.15672177,0.00028627,0.00071012,-0.00028
 630,-0.00114992,-0.00043670,-0.00100759,-0.00002571,-0.00003495,-0.000
 01288,0.00183391,0.00101644,-0.00007908,-0.00007663,0.00014156,0.00005
 486,-0.00012476,-0.00010036,-0.00001699,0.00033850,0.00026452,-0.00000
 060,-0.00006715,0.00002301,-0.00000596,-0.00589387,0.00277712,-0.00161
 147,-0.00027585,-0.00049007,0.00046132,0.00004185,-0.00004209,0.000007
 29,-0.00007106,-0.00001402,0.00001338,0.00024384,-0.00031269,0.0001224
 1,0.00097808,-0.00064490,0.00049955,-0.00044630,0.00001987,0.00002563,
 0.00005561,-0.00004246,0.00000973,-0.00009232,-0.00003886,-0.00001517,
 0.00003682,-0.00002973,0.00000819,-0.00048991,-0.00007369,-0.00014049,
 0.00016936,0.00002045,0.00011602,-0.00172164,0.00020034,-0.00105749,0.
 00066253,-0.00012015,0.00148536,0.16464693,-0.26907168,0.20941794,-0.1
 6292846,0.26627137,0.00000240,-0.00003908,0.00020520,0.00123898,0.0002
 0826,-0.00180004,-0.00010038,0.00009749,0.00007796,0.00542839,-0.00781
 005,0.00574831,0.00002554,0.00003297,-0.00008867,0.00001670,0.00002061
 ,-0.00001310,0.00002771,0.00004033,0.00005221,0.00001901,-0.00001560,-
 0.00002336,0.00188254,0.00022102,0.00220392,0.00162564,-0.00060436,-0.
 00017012,0.00000071,-0.00001031,0.00004520,-0.00000739,-0.00002962,-0.
 00001636,-0.00060528,-0.00010378,-0.00051077,-0.00016055,0.00065193,-0
 .00071854,-0.00001905,-0.00014496,-0.00021359,0.00000453,0.00002856,0.
 00005902,0.00003691,-0.00008329,-0.00006032,-0.00003126,0.00003896,0.0
 0000449,0.00010439,0.00001940,0.00010599,-0.00002503,-0.00000398,0.000
 03780,-0.00169517,0.00007614,-0.00005674,0.00028904,0.00096918,0.00146
 170,-0.12338466,0.21502963,-0.18046101,0.11621232,-0.20715963,0.176232
 97,-0.00128262,-0.00209625,0.00110037,-0.00016651,-0.00197072,0.001089
 35,0.00045801,-0.00051597,-0.00005681,-0.00098470,-0.00030203,0.001998
 31,0.00010400,0.00018179,-0.00009176,0.00097005,0.00112685,0.00008922,
 -0.00049394,-0.00084731,0.00011157,0.00005104,0.00000370,0.00002078,-0
 .13743863,0.02358587,-0.07457537,0.00048502,0.00035394,0.00023321,0.00
 003136,0.00018453,-0.00035773,-0.00000688,0.00025164,0.00001426,-0.004
 01771,0.00553500,-0.00991755,-0.02520281,0.02309598,-0.03120876,0.0004
 8801,0.00049460,0.00014250,-0.00009020,-0.00009110,-0.00004422,-0.0000
 3027,0.00082681,-0.00006250,0.00003678,-0.00019765,0.00002265,0.000204
 47,0.00106172,-0.00120991,-0.00025138,-0.00003006,0.00017784,0.0010602
 5,0.00055349,-0.00082811,-0.00073839,0.00001213,-0.00039952,0.00454890
 ,-0.00591025,0.00274059,0.00126863,0.00326588,0.00054458,0.19583540,-0
 .00180678,0.00041162,-0.00066202,-0.00464867,-0.00719618,-0.00410864,-
 0.00031278,0.00045826,0.00030306,0.02752139,-0.02999129,0.03675816,0.0
 0122701,-0.00144592,0.00233437,-0.00003272,0.00007953,-0.00019757,-0.0
 0019746,0.00011770,0.00013109,0.00017742,-0.00010218,-0.00008054,0.052
 44653,-0.11851440,0.05505210,0.00061193,0.00283819,-0.00084599,-0.0001
 2265,-0.00001701,0.00020946,0.00010513,-0.00015701,-0.00007751,-0.0050
 4900,0.00708669,0.00056687,0.00909639,-0.00153443,0.00421688,0.0002328
 7,-0.00028385,-0.00046007,-0.00004124,0.00021693,0.00023048,0.00047235
 ,-0.00054310,-0.00015717,-0.00026510,0.00028123,-0.00003980,0.00098423
 ,-0.00024136,0.00091281,-0.00032015,-0.00009112,-0.00038901,-0.0002384
 4,0.00074977,0.00190029,0.00043235,-0.00010766,-0.00059380,0.00209045,
 -0.00238202,0.00304018,0.00265078,0.00050746,-0.00117982,0.01007479,0.
 68525367,0.00020089,-0.00098819,0.00056274,0.00074661,-0.00065308,0.00
 040317,0.00028576,-0.00037230,-0.00044662,-0.00311161,0.00975197,-0.00
 474467,-0.00019312,0.00029235,-0.00035167,0.00032831,0.00018423,-0.000
 09733,-0.00003307,0.00005752,-0.00018686,-0.00008998,0.00006621,0.0000
 6687,-0.07384756,0.01959252,-0.13720838,0.00084631,0.00053476,0.000738
 01,-0.00000312,-0.00002000,-0.00025611,-0.00005826,0.00011692,0.000085
 09,-0.02997433,0.02298844,-0.02377082,-0.00640540,0.00202372,0.0061080
 2,-0.00008661,0.00028582,0.00054201,0.00001298,-0.00012590,-0.00020790
 ,-0.00025304,0.00053618,0.00030807,0.00016749,-0.00027053,-0.00003454,
 -0.00053031,0.00048398,-0.00034825,0.00030749,-0.00020214,0.00025879,-
 0.00002021,0.00212996,-0.00016890,-0.00048783,-0.00055522,0.00028207,-
 0.00061646,0.00266541,0.00097267,-0.00064407,-0.00076711,-0.00204172,0
 .13838665,-0.03674330,0.18295505,0.00029080,0.00022110,-0.00007967,0.0
 0052973,0.00080049,0.00021823,-0.00000758,0.00003738,-0.00006483,-0.00
 448726,0.00084630,-0.00269214,-0.00009568,0.00017167,-0.00019739,-0.00
 000095,-0.00011984,0.00003969,0.00004472,0.00013814,-0.00002416,-0.000
 02635,0.00000968,0.00000493,0.00045102,0.03032537,-0.00035168,-0.00008
 563,-0.00013139,0.00012124,0.00000877,-0.00002025,0.00000331,0.0000000
 2,-0.00000897,0.00000931,0.00079359,-0.00061281,-0.00065595,-0.0008207
 3,0.00131373,-0.00000494,-0.00005443,-0.00008997,0.00003170,0.00001214
 ,0.00000926,-0.00002008,-0.00003817,-0.00007959,0.00006825,0.00001654,
 0.00000408,-0.00001100,-0.00008635,-0.00008305,0.00008702,0.00005024,0
 .00000823,-0.00000991,0.00002510,0.00000323,0.00001877,-0.00003280,-0.
 00008321,-0.00013956,0.00040224,-0.00179196,0.00157415,0.00175381,0.00
 080399,-0.00143063,-0.03483788,-0.09508863,-0.02492749,0.03619509,-0.0
 0021268,-0.00025731,0.00014541,-0.00066617,-0.00083874,-0.00051521,0.0
 0008733,-0.00008817,0.00000302,0.00243899,-0.00139595,0.00343460,0.000
 17966,-0.00004592,0.00019324,0.00015205,0.00014366,0.00000174,-0.00001
 366,-0.00013231,0.00001887,-0.00000723,0.00000516,0.00000057,-0.005698
 72,-0.01657629,-0.00529349,0.00011578,0.00058015,-0.00005654,0.0000271
 4,0.00002778,-0.00005159,-0.00002007,0.00004860,0.00000346,-0.00150914
 ,0.00221842,-0.00049314,-0.00058772,0.00034671,-0.00073753,-0.00001120
 ,0.00012207,0.00003509,-0.00000617,-0.00003071,-0.00000306,-0.00002549
 ,0.00015586,-0.00003420,0.00001643,-0.00004279,0.00000782,-0.00003879,
 0.00016528,-0.00019706,0.00001787,-0.00002456,0.00005560,-0.00002976,0
 .00041155,0.00001231,-0.00000465,-0.00009521,0.00012436,0.00110902,0.0
 0106699,-0.00039899,-0.00008247,-0.00049991,-0.00024997,-0.05864739,-0
 .53539350,-0.02101220,0.06341703,0.55012914,0.00018724,0.00005236,0.00
 004941,0.00045303,0.00176892,0.00078615,-0.00002300,0.00002510,0.00005
 103,-0.00358705,0.00240081,-0.00425349,-0.00019872,0.00018335,-0.00044
 812,-0.00006005,-0.00003024,0.00002440,-0.00004921,-0.00005655,0.00001
 774,0.00000534,-0.00000268,0.00000354,0.00252069,0.03138119,-0.0015031
 6,-0.00013217,0.00005518,0.00018876,-0.00002413,0.00000362,0.00002766,
 0.00001783,-0.00001617,-0.00000916,0.00079514,0.00059251,0.00010660,-0
 .00020684,-0.00060930,0.00043121,0.00007164,-0.00003325,-0.00006644,0.
 00000618,0.00001114,0.00001606,0.00000306,-0.00004363,-0.00004530,-0.0
 0000376,0.00003082,0.00001845,0.00001630,-0.00008990,-0.00008492,-0.00
 005887,0.00008090,0.00000281,0.00014825,-0.00063552,0.00001856,0.00000
 058,0.00021959,-0.00003406,-0.00034418,-0.00011371,-0.00006302,-0.0000
 5049,-0.00006094,-0.00006046,-0.02791961,-0.06012048,-0.02341881,0.028
 43283,0.02500687,0.02824455\\0.00001079,0.00000325,-0.00001027,-0.0000
 0736,-0.00000088,0.00000516,0.00001363,-0.00000641,-0.00000953,0.00000
 696,0.00001655,-0.00004286,0.00000753,0.00000367,0.00001166,0.00000187
 ,-0.00001739,0.00000659,0.00001408,0.00001488,0.00001005,0.00000257,0.
 00000010,-0.00001119,-0.00000630,-0.00000792,0.00000065,-0.00001876,0.
 00001121,0.00000923,0.00000771,0.00000125,0.00000160,-0.00000456,-0.00
 000389,0.00000126,-0.00000323,0.00000198,-0.00000538,-0.00000497,0.000
 00299,-0.00000036,-0.00001065,-0.00001896,0.00000341,-0.00000272,-0.00
 000939,-0.00000840,0.00000262,-0.00000557,-0.00002297,-0.00000609,0.00
 001293,0.00000881,0.00000447,0.00001250,0.00000532,-0.00001053,0.00000
 143,0.00000432,-0.00000156,-0.00001102,0.00002718,-0.00001133,0.000002
 54,0.00000284,0.00000012,-0.00001356,0.00000963,0.00001066,-0.00000336
 ,0.00000462,0.00000803,0.00001198,0.00000043,-0.00000298,0.00000108,-0
 .00000180\\\@
 The archive entry for this job was punched.


 GOOD SENSE ABOUT TRIVIALITIES IS BETTER THAN NONSENSE
 ABOUT THINGS THAT MATTER

                                       -- MAX BEERBOHM
 Job cpu time:       0 days 12 hours  7 minutes 16.4 seconds.
 Elapsed time:       0 days  0 hours 45 minutes 29.9 seconds.
 File lengths (MBytes):  RWF=    704 Int=      0 D2E=      0 Chk=     27 Scr=      1
 Normal termination of Gaussian 16 at Wed Oct 11 15:51:06 2023.
