 Entering Gaussian System, Link 0=/opt/software/gaussian/g16.c01/g16
 Initial command:
 /opt/software/gaussian/g16.c01/l1.exe "/scratch/arhender/14836897/Gau-64242.inp" -scrdir="/scratch/arhender/14836897/"
 Entering Link 1 = /opt/software/gaussian/g16.c01/l1.exe PID=     64243.
  
 Copyright (c) 1988-2019, Gaussian, Inc.  All Rights Reserved.
  
 This is part of the Gaussian(R) 16 program.  It is based on
 the Gaussian(R) 09 system (copyright 2009, Gaussian, Inc.),
 the Gaussian(R) 03 system (copyright 2003, Gaussian, Inc.),
 the Gaussian(R) 98 system (copyright 1998, Gaussian, Inc.),
 the Gaussian(R) 94 system (copyright 1995, Gaussian, Inc.),
 the Gaussian 92(TM) system (copyright 1992, Gaussian, Inc.),
 the Gaussian 90(TM) system (copyright 1990, Gaussian, Inc.),
 the Gaussian 88(TM) system (copyright 1988, Gaussian, Inc.),
 the Gaussian 86(TM) system (copyright 1986, Carnegie Mellon
 University), and the Gaussian 82(TM) system (copyright 1983,
 Carnegie Mellon University). Gaussian is a federally registered
 trademark of Gaussian, Inc.
  
 This software contains proprietary and confidential information,
 including trade secrets, belonging to Gaussian, Inc.
  
 This software is provided under written license and may be
 used, copied, transmitted, or stored only in accord with that
 written license.
  
 The following legend is applicable only to US Government
 contracts under FAR:
  
                    RESTRICTED RIGHTS LEGEND
  
 Use, reproduction and disclosure by the US Government is
 subject to restrictions as set forth in subparagraphs (a)
 and (c) of the Commercial Computer Software - Restricted
 Rights clause in FAR 52.227-19.
  
 Gaussian, Inc.
 340 Quinnipiac St., Bldg. 40, Wallingford CT 06492
  
  
 ---------------------------------------------------------------
 Warning -- This program may not be used in any manner that
 competes with the business of Gaussian, Inc. or will provide
 assistance to any competitor of Gaussian, Inc.  The licensee
 of this program is prohibited from giving any competitor of
 Gaussian, Inc. access to this program.  By using this program,
 the user acknowledges that Gaussian, Inc. is engaged in the
 business of creating and licensing software in the field of
 computational chemistry and represents and warrants to the
 licensee that it is not a competitor of Gaussian, Inc. and that
 it will not use this program in any manner prohibited above.
 ---------------------------------------------------------------
  

 Cite this work as:
 Gaussian 16, Revision C.01,
 M. J. Frisch, G. W. Trucks, H. B. Schlegel, G. E. Scuseria, 
 M. A. Robb, J. R. Cheeseman, G. Scalmani, V. Barone, 
 G. A. Petersson, H. Nakatsuji, X. Li, M. Caricato, A. V. Marenich, 
 J. Bloino, B. G. Janesko, R. Gomperts, B. Mennucci, H. P. Hratchian, 
 J. V. Ortiz, A. F. Izmaylov, J. L. Sonnenberg, D. Williams-Young, 
 F. Ding, F. Lipparini, F. Egidi, J. Goings, B. Peng, A. Petrone, 
 T. Henderson, D. Ranasinghe, V. G. Zakrzewski, J. Gao, N. Rega, 
 G. Zheng, W. Liang, M. Hada, M. Ehara, K. Toyota, R. Fukuda, 
 J. Hasegawa, M. Ishida, T. Nakajima, Y. Honda, O. Kitao, H. Nakai, 
 T. Vreven, K. Throssell, J. A. Montgomery, Jr., J. E. Peralta, 
 F. Ogliaro, M. J. Bearpark, J. J. Heyd, E. N. Brothers, K. N. Kudin, 
 V. N. Staroverov, T. A. Keith, R. Kobayashi, J. Normand, 
 K. Raghavachari, A. P. Rendell, J. C. Burant, S. S. Iyengar, 
 J. Tomasi, M. Cossi, J. M. Millam, M. Klene, C. Adamo, R. Cammi, 
 J. W. Ochterski, R. L. Martin, K. Morokuma, O. Farkas, 
 J. B. Foresman, and D. J. Fox, Gaussian, Inc., Wallingford CT, 2019.
 
 ******************************************
 Gaussian 16:  ES64L-G16RevC.01  3-Jul-2019
                11-Oct-2023 
 ******************************************
 %chk=MannitolConformerOpt_50.chk
 %mem=8GB
 %nprocs=16
 Will use up to   16 processors via shared memory.
 ---------------------------------------------
 # opt freq wb97xd/Def2TZVPP geom=connectivity
 ---------------------------------------------
 1/18=20,19=15,26=3,38=1,57=2/1,3;
 2/9=110,12=2,17=6,18=5,40=1/2;
 3/5=44,7=202,11=2,25=1,30=1,71=1,74=-58/1,2,3;
 4//1;
 5/5=2,38=5/2;
 6/7=2,8=2,9=2,10=2,28=1/1;
 7//1,2,3,16;
 1/18=20,19=15,26=3/3(2);
 2/9=110/2;
 99//99;
 2/9=110/2;
 3/5=44,7=202,11=2,25=1,30=1,71=1,74=-58/1,2,3;
 4/5=5,16=3,69=1/1;
 5/5=2,38=5/2;
 7//1,2,3,16;
 1/18=20,19=15,26=3/3(-5);
 2/9=110/2;
 6/7=2,8=2,9=2,10=2,19=2,28=1/1;
 99/9=1/99;
 -------------------
 Title Card Required
 -------------------
 Symbolic Z-matrix:
 Charge =  0 Multiplicity = 1
 C                     0.        0.        0. 
 C                     1.5386    0.        0. 
 C                    -0.6437    0.602     1.2658 
 C                     2.2025   -0.7951    1.1404 
 H                     1.9112    1.0314    0. 
 H                    -0.3817   -1.0149   -0.1601 
 C                    -0.4726    2.124     1.3931 
 H                    -0.2524    0.1102    2.1607 
 C                     1.8394   -2.2876    1.1685 
 H                     1.9642   -0.3385    2.1056 
 H                     0.5813    2.4152    1.3999 
 H                    -0.9334    2.4743    2.3221 
 H                     0.7615   -2.4608    1.2195 
 H                     2.3035   -2.7633    2.0385 
 O                    -1.1328    2.8072    0.3267 
 H                    -0.908     2.3283   -0.5015 
 O                    -2.0503    0.3136    1.2296 
 H                    -2.4296    0.939     0.5786 
 O                    -0.4351    0.7453   -1.1616 
 H                     0.0708    0.357    -1.9075 
 O                     1.965    -0.5502   -1.2697 
 H                     2.935    -0.4085   -1.2871 
 O                     3.6273   -0.6797    0.9554 
 H                     3.9366   -1.5542    0.6384 
 O                     2.3739   -2.9408    0.0167 
 H                     2.004    -2.4884   -0.7699 
 

 GradGradGradGradGradGradGradGradGradGradGradGradGradGradGradGradGradGrad
 Berny optimization.
 Initialization pass.
                           ----------------------------
                           !    Initial Parameters    !
                           ! (Angstroms and Degrees)  !
 --------------------------                            --------------------------
 ! Name  Definition              Value          Derivative Info.                !
 --------------------------------------------------------------------------------
 ! R1    R(1,2)                  1.5386         estimate D2E/DX2                !
 ! R2    R(1,3)                  1.5424         estimate D2E/DX2                !
 ! R3    R(1,6)                  1.0961         estimate D2E/DX2                !
 ! R4    R(1,19)                 1.4471         estimate D2E/DX2                !
 ! R5    R(2,4)                  1.5406         estimate D2E/DX2                !
 ! R6    R(2,5)                  1.0966         estimate D2E/DX2                !
 ! R7    R(2,21)                 1.448          estimate D2E/DX2                !
 ! R8    R(3,7)                  1.5369         estimate D2E/DX2                !
 ! R9    R(3,8)                  1.0935         estimate D2E/DX2                !
 ! R10   R(3,17)                 1.4363         estimate D2E/DX2                !
 ! R11   R(4,9)                  1.5363         estimate D2E/DX2                !
 ! R12   R(4,10)                 1.094          estimate D2E/DX2                !
 ! R13   R(4,23)                 1.4414         estimate D2E/DX2                !
 ! R14   R(7,11)                 1.0934         estimate D2E/DX2                !
 ! R15   R(7,12)                 1.0946         estimate D2E/DX2                !
 ! R16   R(7,15)                 1.4282         estimate D2E/DX2                !
 ! R17   R(9,13)                 1.0929         estimate D2E/DX2                !
 ! R18   R(9,14)                 1.0948         estimate D2E/DX2                !
 ! R19   R(9,25)                 1.4279         estimate D2E/DX2                !
 ! R20   R(15,16)                0.9827         estimate D2E/DX2                !
 ! R21   R(17,18)                0.9792         estimate D2E/DX2                !
 ! R22   R(19,20)                0.9814         estimate D2E/DX2                !
 ! R23   R(21,22)                0.9804         estimate D2E/DX2                !
 ! R24   R(23,24)                0.9803         estimate D2E/DX2                !
 ! R25   R(25,26)                0.9799         estimate D2E/DX2                !
 ! A1    A(2,1,3)              114.6665         estimate D2E/DX2                !
 ! A2    A(2,1,6)              110.3801         estimate D2E/DX2                !
 ! A3    A(2,1,19)             107.4979         estimate D2E/DX2                !
 ! A4    A(3,1,6)              109.6295         estimate D2E/DX2                !
 ! A5    A(3,1,19)             109.406          estimate D2E/DX2                !
 ! A6    A(6,1,19)             104.7697         estimate D2E/DX2                !
 ! A7    A(1,2,4)              115.5269         estimate D2E/DX2                !
 ! A8    A(1,2,5)              109.8626         estimate D2E/DX2                !
 ! A9    A(1,2,21)             107.1262         estimate D2E/DX2                !
 ! A10   A(4,2,5)              109.8146         estimate D2E/DX2                !
 ! A11   A(4,2,21)             109.0311         estimate D2E/DX2                !
 ! A12   A(5,2,21)             104.9109         estimate D2E/DX2                !
 ! A13   A(1,3,7)              114.0817         estimate D2E/DX2                !
 ! A14   A(1,3,8)              110.2874         estimate D2E/DX2                !
 ! A15   A(1,3,17)             108.0381         estimate D2E/DX2                !
 ! A16   A(7,3,8)              109.7404         estimate D2E/DX2                !
 ! A17   A(7,3,17)             108.057          estimate D2E/DX2                !
 ! A18   A(8,3,17)             106.3049         estimate D2E/DX2                !
 ! A19   A(2,4,9)              114.3981         estimate D2E/DX2                !
 ! A20   A(2,4,10)             110.1088         estimate D2E/DX2                !
 ! A21   A(2,4,23)             106.8369         estimate D2E/DX2                !
 ! A22   A(9,4,10)             109.7456         estimate D2E/DX2                !
 ! A23   A(9,4,23)             108.2857         estimate D2E/DX2                !
 ! A24   A(10,4,23)            107.1656         estimate D2E/DX2                !
 ! A25   A(3,7,11)             111.8124         estimate D2E/DX2                !
 ! A26   A(3,7,12)             109.8994         estimate D2E/DX2                !
 ! A27   A(3,7,15)             111.1259         estimate D2E/DX2                !
 ! A28   A(11,7,12)            108.3767         estimate D2E/DX2                !
 ! A29   A(11,7,15)            108.832          estimate D2E/DX2                !
 ! A30   A(12,7,15)            106.6201         estimate D2E/DX2                !
 ! A31   A(4,9,13)             112.8247         estimate D2E/DX2                !
 ! A32   A(4,9,14)             109.6619         estimate D2E/DX2                !
 ! A33   A(4,9,25)             109.9489         estimate D2E/DX2                !
 ! A34   A(13,9,14)            108.1887         estimate D2E/DX2                !
 ! A35   A(13,9,25)            109.5312         estimate D2E/DX2                !
 ! A36   A(14,9,25)            106.4723         estimate D2E/DX2                !
 ! A37   A(7,15,16)            106.8816         estimate D2E/DX2                !
 ! A38   A(3,17,18)            105.5371         estimate D2E/DX2                !
 ! A39   A(1,19,20)            104.5561         estimate D2E/DX2                !
 ! A40   A(2,21,22)            104.595          estimate D2E/DX2                !
 ! A41   A(4,23,24)            106.3784         estimate D2E/DX2                !
 ! A42   A(9,25,26)            107.1578         estimate D2E/DX2                !
 ! D1    D(3,1,2,4)             60.3199         estimate D2E/DX2                !
 ! D2    D(3,1,2,5)            -64.5648         estimate D2E/DX2                !
 ! D3    D(3,1,2,21)          -177.9933         estimate D2E/DX2                !
 ! D4    D(6,1,2,4)            -64.0799         estimate D2E/DX2                !
 ! D5    D(6,1,2,5)            171.0355         estimate D2E/DX2                !
 ! D6    D(6,1,2,21)            57.6069         estimate D2E/DX2                !
 ! D7    D(19,1,2,4)          -177.8002         estimate D2E/DX2                !
 ! D8    D(19,1,2,5)            57.3152         estimate D2E/DX2                !
 ! D9    D(19,1,2,21)          -56.1134         estimate D2E/DX2                !
 ! D10   D(2,1,3,7)             70.1572         estimate D2E/DX2                !
 ! D11   D(2,1,3,8)            -53.8739         estimate D2E/DX2                !
 ! D12   D(2,1,3,17)          -169.67           estimate D2E/DX2                !
 ! D13   D(6,1,3,7)           -165.0469         estimate D2E/DX2                !
 ! D14   D(6,1,3,8)             70.922          estimate D2E/DX2                !
 ! D15   D(6,1,3,17)           -44.8741         estimate D2E/DX2                !
 ! D16   D(19,1,3,7)           -50.6778         estimate D2E/DX2                !
 ! D17   D(19,1,3,8)          -174.709          estimate D2E/DX2                !
 ! D18   D(19,1,3,17)           69.4949         estimate D2E/DX2                !
 ! D19   D(2,1,19,20)           50.1856         estimate D2E/DX2                !
 ! D20   D(3,1,19,20)          175.2851         estimate D2E/DX2                !
 ! D21   D(6,1,19,20)          -67.2491         estimate D2E/DX2                !
 ! D22   D(1,2,4,9)             59.7212         estimate D2E/DX2                !
 ! D23   D(1,2,4,10)           -64.4121         estimate D2E/DX2                !
 ! D24   D(1,2,4,23)           179.5372         estimate D2E/DX2                !
 ! D25   D(5,2,4,9)           -175.3693         estimate D2E/DX2                !
 ! D26   D(5,2,4,10)            60.4974         estimate D2E/DX2                !
 ! D27   D(5,2,4,23)           -55.5533         estimate D2E/DX2                !
 ! D28   D(21,2,4,9)           -60.9376         estimate D2E/DX2                !
 ! D29   D(21,2,4,10)          174.929          estimate D2E/DX2                !
 ! D30   D(21,2,4,23)           58.8784         estimate D2E/DX2                !
 ! D31   D(1,2,21,22)          171.7019         estimate D2E/DX2                !
 ! D32   D(4,2,21,22)          -62.6158         estimate D2E/DX2                !
 ! D33   D(5,2,21,22)           54.96           estimate D2E/DX2                !
 ! D34   D(1,3,7,11)           -58.3453         estimate D2E/DX2                !
 ! D35   D(1,3,7,12)          -178.7439         estimate D2E/DX2                !
 ! D36   D(1,3,7,15)            63.4832         estimate D2E/DX2                !
 ! D37   D(8,3,7,11)            65.9792         estimate D2E/DX2                !
 ! D38   D(8,3,7,12)           -54.4193         estimate D2E/DX2                !
 ! D39   D(8,3,7,15)          -172.1923         estimate D2E/DX2                !
 ! D40   D(17,3,7,11)         -178.5075         estimate D2E/DX2                !
 ! D41   D(17,3,7,12)           61.094          estimate D2E/DX2                !
 ! D42   D(17,3,7,15)          -56.679          estimate D2E/DX2                !
 ! D43   D(1,3,17,18)          -76.2586         estimate D2E/DX2                !
 ! D44   D(7,3,17,18)           47.6266         estimate D2E/DX2                !
 ! D45   D(8,3,17,18)          165.3697         estimate D2E/DX2                !
 ! D46   D(2,4,9,13)           -56.0378         estimate D2E/DX2                !
 ! D47   D(2,4,9,14)          -176.7024         estimate D2E/DX2                !
 ! D48   D(2,4,9,25)            66.5529         estimate D2E/DX2                !
 ! D49   D(10,4,9,13)           68.2891         estimate D2E/DX2                !
 ! D50   D(10,4,9,14)          -52.3756         estimate D2E/DX2                !
 ! D51   D(10,4,9,25)         -169.1202         estimate D2E/DX2                !
 ! D52   D(23,4,9,13)         -175.0403         estimate D2E/DX2                !
 ! D53   D(23,4,9,14)           64.295          estimate D2E/DX2                !
 ! D54   D(23,4,9,25)          -52.4496         estimate D2E/DX2                !
 ! D55   D(2,4,23,24)         -107.4476         estimate D2E/DX2                !
 ! D56   D(9,4,23,24)           16.2304         estimate D2E/DX2                !
 ! D57   D(10,4,23,24)         134.5554         estimate D2E/DX2                !
 ! D58   D(3,7,15,16)          -44.9605         estimate D2E/DX2                !
 ! D59   D(11,7,15,16)          78.5883         estimate D2E/DX2                !
 ! D60   D(12,7,15,16)        -164.7053         estimate D2E/DX2                !
 ! D61   D(4,9,25,26)          -58.0996         estimate D2E/DX2                !
 ! D62   D(13,9,25,26)          66.4154         estimate D2E/DX2                !
 ! D63   D(14,9,25,26)        -176.8235         estimate D2E/DX2                !
 --------------------------------------------------------------------------------
 Trust Radius=3.00D-01 FncErr=1.00D-07 GrdErr=1.00D-06 EigMax=2.50D+02 EigMin=1.00D-04
 Number of steps in this run=    140 maximum allowed number of steps=    156.
 GradGradGradGradGradGradGradGradGradGradGradGradGradGradGradGradGradGrad

                          Input orientation:                          
 ---------------------------------------------------------------------
 Center     Atomic      Atomic             Coordinates (Angstroms)
 Number     Number       Type             X           Y           Z
 ---------------------------------------------------------------------
      1          6           0        0.000000    0.000000    0.000000
      2          6           0        1.538600    0.000000    0.000000
      3          6           0       -0.643700    0.602000    1.265800
      4          6           0        2.202500   -0.795100    1.140400
      5          1           0        1.911200    1.031400    0.000000
      6          1           0       -0.381700   -1.014900   -0.160100
      7          6           0       -0.472600    2.124000    1.393100
      8          1           0       -0.252400    0.110200    2.160700
      9          6           0        1.839400   -2.287600    1.168500
     10          1           0        1.964200   -0.338500    2.105600
     11          1           0        0.581300    2.415200    1.399900
     12          1           0       -0.933400    2.474300    2.322100
     13          1           0        0.761500   -2.460800    1.219500
     14          1           0        2.303500   -2.763300    2.038500
     15          8           0       -1.132800    2.807200    0.326700
     16          1           0       -0.908000    2.328300   -0.501500
     17          8           0       -2.050300    0.313600    1.229600
     18          1           0       -2.429600    0.939000    0.578600
     19          8           0       -0.435100    0.745300   -1.161600
     20          1           0        0.070800    0.357000   -1.907500
     21          8           0        1.965000   -0.550200   -1.269700
     22          1           0        2.935000   -0.408500   -1.287100
     23          8           0        3.627300   -0.679700    0.955400
     24          1           0        3.936600   -1.554200    0.638400
     25          8           0        2.373900   -2.940800    0.016700
     26          1           0        2.004000   -2.488400   -0.769900
 ---------------------------------------------------------------------
                    Distance matrix (angstroms):
                    1          2          3          4          5
     1  C    0.000000
     2  C    1.538600   0.000000
     3  C    1.542402   2.593663   0.000000
     4  C    2.604554   1.540604   3.173085   0.000000
     5  H    2.171744   1.096639   2.883426   2.172894   0.000000
     6  H    1.096061   2.177890   2.171681   2.901328   3.077396
     7  C    2.583690   3.239912   1.536868   3.967513   2.969344
     8  H    2.178181   2.808638   1.093540   2.808401   3.193493
     9  C    3.159414   2.586308   3.811173   1.536290   3.519419
    10  H    2.899347   2.174688   2.896713   1.094021   2.512566
    11  H    2.851459   2.951158   2.192328   3.605781   2.375554
    12  H    3.519310   4.198225   2.169148   4.681801   3.945359
    13  H    2.850017   2.854225   3.370085   2.203927   3.873558
    14  H    4.134903   3.518008   4.539636   2.165778   4.325405
    15  O    3.044723   3.888892   2.446229   4.976233   3.539228
    16  H    2.548911   3.414430   2.484616   4.703900   3.143460
    17  O    2.411222   3.806634   1.436318   4.395848   4.209588
    18  H    2.668231   4.118630   1.943001   4.977858   4.380167
    19  O    1.447100   2.408377   2.440557   3.824784   2.633684
    20  H    1.941911   2.433196   3.261958   3.893735   2.735040
    21  O    2.403348   1.447990   3.815972   2.434125   2.028914
    22  H    3.230747   1.942532   4.510599   2.564912   2.185888
    23  O    3.812097   2.395297   4.469960   1.441387   2.604928
    24  H    4.280177   2.928053   5.101174   1.958402   3.345912
    25  O    3.779416   3.057173   4.818464   2.428190   3.999093
    26  H    3.286472   2.646031   4.550271   2.560452   3.604213
                    6          7          8          9         10
     6  H    0.000000
     7  C    3.503339   0.000000
     8  H    2.582379   2.166354   0.000000
     9  C    2.884134   4.985780   3.333097   0.000000
    10  H    3.330790   3.536885   2.262230   2.166269   0.000000
    11  H    3.889287   1.093412   2.566495   4.873673   3.161216
    12  H    4.317431   1.094572   2.465518   5.629823   4.044107
    13  H    2.302353   4.751161   2.919570   1.092917   2.595345
    14  H    3.886006   5.657647   3.847669   1.094796   2.449343
    15  O    3.925503   1.428228   3.378235   5.958153   4.759341
    16  H    3.401548   1.954692   3.526626   5.625268   4.707263
    17  O    2.545664   2.406952   2.034887   4.679716   4.160387
    18  H    2.925286   2.428474   2.816052   5.383613   4.823817
    19  O    2.025872   2.903224   3.387390   4.449854   4.195934
    20  H    2.267217   3.783059   4.088474   4.425340   4.491509
    21  O    2.637074   4.492632   4.137709   2.996524   3.381933
    22  H    3.555046   5.020833   4.723970   3.280446   3.529556
    23  O    4.174779   4.986130   4.138691   2.413988   2.050678
    24  H    4.424496   5.791353   4.757662   2.284104   2.742438
    25  O    3.366553   5.970698   4.561007   1.427937   3.362041
    26  H    2.869603   5.664481   4.520230   1.955712   3.590565
                   11         12         13         14         15
    11  H    0.000000
    12  H    1.774334   0.000000
    13  H    4.882662   5.333256   0.000000
    14  H    5.494601   6.163636   1.772013   0.000000
    15  O    2.059991   2.032782   5.668976   6.765271   0.000000
    16  H    2.416793   2.827486   5.355796   6.533737   0.982749
    17  O    3.372098   2.666392   3.950141   5.392329   2.806257
    18  H    3.452422   2.763250   4.706646   6.183896   2.288081
    19  O    3.222253   3.920958   4.169001   5.481865   2.636902
    20  H    3.928828   4.835379   4.265582   5.503829   3.527575
    21  O    4.223149   5.518093   3.360792   3.994569   4.839111
    22  H    4.553367   6.025063   3.901164   4.123529   5.430661
    23  O    4.365100   5.711004   3.384505   2.695726   5.933994
    24  H    5.253005   6.540685   3.352739   2.467634   6.694609
    25  O    5.814928   6.751030   2.068082   2.030797   6.740367
    26  H    5.547738   6.543483   2.345694   2.837672   6.251834
                   16         17         18         19         20
    16  H    0.000000
    17  O    2.891465   0.000000
    18  H    2.326379   0.979181   0.000000
    19  O    1.779116   2.917717   2.654024   0.000000
    20  H    2.611687   3.787129   3.573712   0.981366   0.000000
    21  O    4.138843   4.807836   4.994641   2.729558   2.194947
    22  H    4.782875   5.631023   5.837425   3.564348   3.028948
    23  O    5.633788   5.770353   6.280781   4.797438   4.681841
    24  H    6.312157   6.299299   6.837260   5.257325   5.007864
    25  O    6.229190   5.624570   6.200177   4.781862   4.458957
    26  H    5.634925   5.318510   5.763882   4.069331   3.623216
                   21         22         23         24         25
    21  O    0.000000
    22  H    0.980450   0.000000
    23  O    2.780482   2.362548   0.000000
    24  H    2.921655   2.454258   0.980258   0.000000
    25  O    2.745358   2.902976   2.750408   2.179725   0.000000
    26  H    2.001984   2.336716   2.980463   2.567291   0.979914
                   26
    26  H    0.000000
 Stoichiometry    C6H14O6
 Framework group  C1[X(C6H14O6)]
 Deg. of freedom    72
 Full point group                 C1      NOp   1
 Largest Abelian subgroup         C1      NOp   1
 Largest concise Abelian subgroup C1      NOp   1
                         Standard orientation:                         
 ---------------------------------------------------------------------
 Center     Atomic      Atomic             Coordinates (Angstroms)
 Number     Number       Type             X           Y           Z
 ---------------------------------------------------------------------
      1          6           0       -0.576528    0.134475   -0.603163
      2          6           0        0.566879    0.605172    0.312455
      3          6           0       -1.516649   -0.913016    0.027662
      4          6           0        1.536931   -0.495509    0.782519
      5          1           0        0.155369    1.133645    1.180782
      6          1           0       -0.175211   -0.251972   -1.547065
      7          6           0       -2.411383   -0.358901    1.147649
      8          1           0       -0.939988   -1.763319    0.402198
      9          6           0        2.261931   -1.230630   -0.355093
     10          1           0        1.009367   -1.217967    1.412291
     11          1           0       -1.822863    0.074668    1.960798
     12          1           0       -3.031633   -1.160902    1.560169
     13          1           0        1.574079   -1.674007   -1.079485
     14          1           0        2.883126   -2.030700    0.060339
     15          8           0       -3.307502    0.634074    0.646846
     16          1           0       -2.781576    1.225198    0.063948
     17          8           0       -2.367753   -1.427985   -1.008406
     18          1           0       -3.036219   -0.730828   -1.169404
     19          8           0       -1.342305    1.303436   -0.978949
     20          1           0       -0.671848    1.945932   -1.296383
     21          8           0        1.311124    1.610368   -0.417171
     22          1           0        1.938224    1.979078    0.240157
     23          8           0        2.527506    0.146419    1.609735
     24          1           0        3.356060    0.163206    1.086168
     25          8           0        3.149673   -0.335513   -1.025676
     26          1           0        2.610085    0.412032   -1.357720
 ---------------------------------------------------------------------
 Rotational constants (GHZ):           1.5761067           0.5100705           0.4986654
 Standard basis: def2TZVPP (5D, 7F)
 There are   642 symmetry adapted cartesian basis functions of A   symmetry.
 There are   568 symmetry adapted basis functions of A   symmetry.
   568 basis functions,   850 primitive gaussians,   642 cartesian basis functions
    49 alpha electrons       49 beta electrons
       nuclear repulsion energy       836.3841083333 Hartrees.
 NAtoms=   26 NActive=   26 NUniq=   26 SFac= 1.00D+00 NAtFMM=   60 NAOKFM=F Big=F
 Integral buffers will be    131072 words long.
 Raffenetti 2 integral format.
 Two-electron integral symmetry is turned on.
 Nuclear repulsion after empirical dispersion term =      836.3643688132 Hartrees.
 One-electron integrals computed using PRISM.
   1 Symmetry operations used in ECPInt.
 ECPInt:  NShTT=   23436 NPrTT=   62434 LenC2=   22033 LenP2D=   45992.
 LDataN:  DoStor=T MaxTD1= 6 Len=  172
 NBasis=   568 RedAO= T EigKep=  6.52D-05  NBF=   568
 NBsUse=   568 1.00D-06 EigRej= -1.00D+00 NBFU=   568
 ExpMin= 9.52D-02 ExpMax= 2.70D+04 ExpMxC= 9.22D+02 IAcc=3 IRadAn=         5 AccDes= 0.00D+00
 Harris functional with IExCor= 4639 and IRadAn=       5 diagonalized for initial guess.
 HarFok:  IExCor= 4639 AccDes= 0.00D+00 IRadAn=         5 IDoV= 1 UseB2=F ITyADJ=14
 ICtDFT=  3500011 ScaDFX=  1.000000  1.000000  1.000000  1.000000
 FoFCou: FMM=F IPFlag=           0 FMFlag=      100000 FMFlg1=           0
         NFxFlg=           0 DoJE=T BraDBF=F KetDBF=T FulRan=T
         wScrn=  0.000000 ICntrl=       500 IOpCl=  0 I1Cent=   200000004 NGrid=           0
         NMat0=    1 NMatS0=      1 NMatT0=    0 NMatD0=    1 NMtDS0=    0 NMtDT0=    0
 Petite list used in FoFCou.
 Requested convergence on RMS density matrix=1.00D-08 within 128 cycles.
 Requested convergence on MAX density matrix=1.00D-06.
 Requested convergence on             energy=1.00D-06.
 No special actions if energy rises.
 Integral accuracy reduced to 1.0D-05 until final iterations.
 Initial convergence to 1.0D-05 achieved.  Increase integral accuracy.
 SCF Done:  E(RwB97XD) =  -688.471201517     A.U. after   14 cycles
            NFock= 14  Conv=0.16D-08     -V/T= 2.0050

 **********************************************************************

            Population analysis using the SCF Density.

 **********************************************************************

 Orbital symmetries:
       Occupied  (A) (A) (A) (A) (A) (A) (A) (A) (A) (A) (A) (A)
                 (A) (A) (A) (A) (A) (A) (A) (A) (A) (A) (A) (A)
                 (A) (A) (A) (A) (A) (A) (A) (A) (A) (A) (A) (A)
                 (A) (A) (A) (A) (A) (A) (A) (A) (A) (A) (A) (A)
                 (A)
       Virtual   (A) (A) (A) (A) (A) (A) (A) (A) (A) (A) (A) (A)
                 (A) (A) (A) (A) (A) (A) (A) (A) (A) (A) (A) (A)
                 (A) (A) (A) (A) (A) (A) (A) (A) (A) (A) (A) (A)
                 (A) (A) (A) (A) (A) (A) (A) (A) (A) (A) (A) (A)
                 (A) (A) (A) (A) (A) (A) (A) (A) (A) (A) (A) (A)
                 (A) (A) (A) (A) (A) (A) (A) (A) (A) (A) (A) (A)
                 (A) (A) (A) (A) (A) (A) (A) (A) (A) (A) (A) (A)
                 (A) (A) (A) (A) (A) (A) (A) (A) (A) (A) (A) (A)
                 (A) (A) (A) (A) (A) (A) (A) (A) (A) (A) (A) (A)
                 (A) (A) (A) (A) (A) (A) (A) (A) (A) (A) (A) (A)
                 (A) (A) (A) (A) (A) (A) (A) (A) (A) (A) (A) (A)
                 (A) (A) (A) (A) (A) (A) (A) (A) (A) (A) (A) (A)
                 (A) (A) (A) (A) (A) (A) (A) (A) (A) (A) (A) (A)
                 (A) (A) (A) (A) (A) (A) (A) (A) (A) (A) (A) (A)
                 (A) (A) (A) (A) (A) (A) (A) (A) (A) (A) (A) (A)
                 (A) (A) (A) (A) (A) (A) (A) (A) (A) (A) (A) (A)
                 (A) (A) (A) (A) (A) (A) (A) (A) (A) (A) (A) (A)
                 (A) (A) (A) (A) (A) (A) (A) (A) (A) (A) (A) (A)
                 (A) (A) (A) (A) (A) (A) (A) (A) (A) (A) (A) (A)
                 (A) (A) (A) (A) (A) (A) (A) (A) (A) (A) (A) (A)
                 (A) (A) (A) (A) (A) (A) (A) (A) (A) (A) (A) (A)
                 (A) (A) (A) (A) (A) (A) (A) (A) (A) (A) (A) (A)
                 (A) (A) (A) (A) (A) (A) (A) (A) (A) (A) (A) (A)
                 (A) (A) (A) (A) (A) (A) (A) (A) (A) (A) (A) (A)
                 (A) (A) (A) (A) (A) (A) (A) (A) (A) (A) (A) (A)
                 (A) (A) (A) (A) (A) (A) (A) (A) (A) (A) (A) (A)
                 (A) (A) (A) (A) (A) (A) (A) (A) (A) (A) (A) (A)
                 (A) (A) (A) (A) (A) (A) (A) (A) (A) (A) (A) (A)
                 (A) (A) (A) (A) (A) (A) (A) (A) (A) (A) (A) (A)
                 (A) (A) (A) (A) (A) (A) (A) (A) (A) (A) (A) (A)
                 (A) (A) (A) (A) (A) (A) (A) (A) (A) (A) (A) (A)
                 (A) (A) (A) (A) (A) (A) (A) (A) (A) (A) (A) (A)
                 (A) (A) (A) (A) (A) (A) (A) (A) (A) (A) (A) (A)
                 (A) (A) (A) (A) (A) (A) (A) (A) (A) (A) (A) (A)
                 (A) (A) (A) (A) (A) (A) (A) (A) (A) (A) (A) (A)
                 (A) (A) (A) (A) (A) (A) (A) (A) (A) (A) (A) (A)
                 (A) (A) (A) (A) (A) (A) (A) (A) (A) (A) (A) (A)
                 (A) (A) (A) (A) (A) (A) (A) (A) (A) (A) (A) (A)
                 (A) (A) (A) (A) (A) (A) (A) (A) (A) (A) (A) (A)
                 (A) (A) (A) (A) (A) (A) (A) (A) (A) (A) (A) (A)
                 (A) (A) (A) (A) (A) (A) (A) (A) (A) (A) (A) (A)
                 (A) (A) (A) (A) (A) (A) (A) (A) (A) (A) (A) (A)
                 (A) (A) (A) (A) (A) (A) (A) (A) (A) (A) (A) (A)
                 (A) (A) (A)
 The electronic state is 1-A.
 Alpha  occ. eigenvalues --  -19.29064 -19.28069 -19.26986 -19.26403 -19.25171
 Alpha  occ. eigenvalues --  -19.23997 -10.36613 -10.36476 -10.36277 -10.35667
 Alpha  occ. eigenvalues --  -10.35274 -10.33664  -1.17679  -1.15637  -1.13915
 Alpha  occ. eigenvalues --   -1.12482  -1.12241  -1.10346  -0.90748  -0.85404
 Alpha  occ. eigenvalues --   -0.81014  -0.77057  -0.72958  -0.68774  -0.66568
 Alpha  occ. eigenvalues --   -0.62670  -0.61898  -0.61258  -0.59478  -0.58566
 Alpha  occ. eigenvalues --   -0.56836  -0.55126  -0.54532  -0.53844  -0.52678
 Alpha  occ. eigenvalues --   -0.51188  -0.50079  -0.48077  -0.47163  -0.46481
 Alpha  occ. eigenvalues --   -0.44348  -0.43418  -0.42181  -0.40345  -0.39770
 Alpha  occ. eigenvalues --   -0.38204  -0.37496  -0.37014  -0.35650
 Alpha virt. eigenvalues --    0.07765   0.10470   0.11376   0.11627   0.13398
 Alpha virt. eigenvalues --    0.13674   0.14471   0.15774   0.17067   0.17637
 Alpha virt. eigenvalues --    0.18697   0.18832   0.19344   0.20566   0.21280
 Alpha virt. eigenvalues --    0.22558   0.24013   0.24282   0.25431   0.26009
 Alpha virt. eigenvalues --    0.27527   0.29509   0.30457   0.31089   0.32787
 Alpha virt. eigenvalues --    0.33946   0.35021   0.36208   0.36603   0.36974
 Alpha virt. eigenvalues --    0.37819   0.38942   0.39099   0.39814   0.40042
 Alpha virt. eigenvalues --    0.40997   0.41672   0.42741   0.43120   0.43409
 Alpha virt. eigenvalues --    0.43885   0.44584   0.45340   0.46039   0.46895
 Alpha virt. eigenvalues --    0.47388   0.47990   0.48647   0.50020   0.50460
 Alpha virt. eigenvalues --    0.51148   0.51607   0.52726   0.53704   0.54759
 Alpha virt. eigenvalues --    0.55796   0.56815   0.57750   0.58164   0.58448
 Alpha virt. eigenvalues --    0.59233   0.59563   0.61062   0.62436   0.63465
 Alpha virt. eigenvalues --    0.64050   0.65686   0.66076   0.68362   0.68796
 Alpha virt. eigenvalues --    0.70205   0.71000   0.71621   0.73387   0.74052
 Alpha virt. eigenvalues --    0.74486   0.75394   0.76684   0.77062   0.78452
 Alpha virt. eigenvalues --    0.78875   0.80116   0.82501   0.82853   0.85242
 Alpha virt. eigenvalues --    0.87542   0.87820   0.88171   0.89185   0.90865
 Alpha virt. eigenvalues --    0.91628   0.92968   0.94287   0.95780   0.96503
 Alpha virt. eigenvalues --    0.97563   0.98149   0.99748   1.00970   1.01510
 Alpha virt. eigenvalues --    1.03310   1.03892   1.04878   1.06423   1.06763
 Alpha virt. eigenvalues --    1.08392   1.09329   1.10666   1.12093   1.12940
 Alpha virt. eigenvalues --    1.13468   1.14745   1.15434   1.16142   1.17079
 Alpha virt. eigenvalues --    1.17909   1.20279   1.20745   1.22112   1.23582
 Alpha virt. eigenvalues --    1.24015   1.24824   1.27563   1.27973   1.29286
 Alpha virt. eigenvalues --    1.29977   1.30718   1.31887   1.34216   1.34867
 Alpha virt. eigenvalues --    1.36497   1.37299   1.37539   1.38453   1.38943
 Alpha virt. eigenvalues --    1.41532   1.42501   1.43147   1.43784   1.45793
 Alpha virt. eigenvalues --    1.47073   1.47810   1.48545   1.51137   1.51801
 Alpha virt. eigenvalues --    1.53441   1.54238   1.55137   1.56912   1.57320
 Alpha virt. eigenvalues --    1.59858   1.60334   1.61613   1.63594   1.65106
 Alpha virt. eigenvalues --    1.66121   1.67278   1.68678   1.71069   1.72976
 Alpha virt. eigenvalues --    1.76171   1.78418   1.80049   1.81971   1.83262
 Alpha virt. eigenvalues --    1.84747   1.86753   1.88104   1.90051   1.92942
 Alpha virt. eigenvalues --    1.94168   1.96031   1.96975   1.97678   1.97951
 Alpha virt. eigenvalues --    2.00015   2.01941   2.03743   2.05145   2.05755
 Alpha virt. eigenvalues --    2.06866   2.07735   2.09532   2.10796   2.11211
 Alpha virt. eigenvalues --    2.11939   2.13690   2.15450   2.16055   2.17283
 Alpha virt. eigenvalues --    2.19773   2.20283   2.22742   2.24531   2.25651
 Alpha virt. eigenvalues --    2.27612   2.28665   2.29584   2.30321   2.31817
 Alpha virt. eigenvalues --    2.31943   2.34138   2.38508   2.39769   2.41339
 Alpha virt. eigenvalues --    2.42916   2.43482   2.50442   2.51726   2.52868
 Alpha virt. eigenvalues --    2.53394   2.55621   2.60681   2.61155   2.64233
 Alpha virt. eigenvalues --    2.64481   2.67487   2.68934   2.70243   2.71369
 Alpha virt. eigenvalues --    2.71668   2.74097   2.75092   2.75810   2.76045
 Alpha virt. eigenvalues --    2.77545   2.79159   2.80300   2.81876   2.83199
 Alpha virt. eigenvalues --    2.85002   2.86737   2.88425   2.88956   2.90687
 Alpha virt. eigenvalues --    2.91302   2.91703   2.95804   2.96953   2.98076
 Alpha virt. eigenvalues --    2.98838   3.00615   3.01396   3.01882   3.04292
 Alpha virt. eigenvalues --    3.05176   3.06407   3.07782   3.09004   3.10495
 Alpha virt. eigenvalues --    3.11155   3.11557   3.12343   3.14423   3.15351
 Alpha virt. eigenvalues --    3.15809   3.16854   3.19233   3.19736   3.20136
 Alpha virt. eigenvalues --    3.22264   3.22974   3.25190   3.26264   3.27959
 Alpha virt. eigenvalues --    3.28346   3.29334   3.30383   3.31452   3.31988
 Alpha virt. eigenvalues --    3.34479   3.34906   3.35750   3.36661   3.36829
 Alpha virt. eigenvalues --    3.37362   3.38150   3.40384   3.40555   3.41341
 Alpha virt. eigenvalues --    3.41788   3.43413   3.44375   3.45531   3.46513
 Alpha virt. eigenvalues --    3.47436   3.48295   3.49744   3.51324   3.54077
 Alpha virt. eigenvalues --    3.54250   3.57017   3.58297   3.58447   3.60032
 Alpha virt. eigenvalues --    3.61553   3.62053   3.62497   3.64703   3.65524
 Alpha virt. eigenvalues --    3.66335   3.66977   3.68954   3.70210   3.72163
 Alpha virt. eigenvalues --    3.73448   3.74543   3.75095   3.75874   3.76985
 Alpha virt. eigenvalues --    3.78001   3.78508   3.79749   3.80853   3.83519
 Alpha virt. eigenvalues --    3.83631   3.84968   3.85249   3.85873   3.87510
 Alpha virt. eigenvalues --    3.89522   3.90450   3.91308   3.91939   3.95146
 Alpha virt. eigenvalues --    3.96449   3.96892   3.97696   4.00385   4.01013
 Alpha virt. eigenvalues --    4.02104   4.02533   4.02829   4.04602   4.06031
 Alpha virt. eigenvalues --    4.07496   4.08387   4.09470   4.10927   4.11930
 Alpha virt. eigenvalues --    4.13459   4.13857   4.14747   4.15826   4.17756
 Alpha virt. eigenvalues --    4.18414   4.19278   4.20062   4.21138   4.22834
 Alpha virt. eigenvalues --    4.24480   4.25512   4.26523   4.27053   4.27955
 Alpha virt. eigenvalues --    4.28884   4.29418   4.31957   4.32637   4.32998
 Alpha virt. eigenvalues --    4.33823   4.35318   4.37055   4.38082   4.38652
 Alpha virt. eigenvalues --    4.41132   4.41860   4.45063   4.46336   4.46712
 Alpha virt. eigenvalues --    4.47325   4.49042   4.51362   4.52595   4.53151
 Alpha virt. eigenvalues --    4.55148   4.55763   4.59886   4.61092   4.62360
 Alpha virt. eigenvalues --    4.64294   4.65103   4.65938   4.67528   4.69856
 Alpha virt. eigenvalues --    4.72829   4.74075   4.76937   4.78566   4.79766
 Alpha virt. eigenvalues --    4.81459   4.83564   4.85350   4.86871   4.87932
 Alpha virt. eigenvalues --    4.90506   4.91794   4.92643   4.93282   4.95838
 Alpha virt. eigenvalues --    4.96723   4.98487   4.99909   5.01019   5.03377
 Alpha virt. eigenvalues --    5.03775   5.05175   5.09018   5.09625   5.10310
 Alpha virt. eigenvalues --    5.11263   5.14499   5.15251   5.19380   5.20907
 Alpha virt. eigenvalues --    5.21296   5.22304   5.24225   5.26423   5.27469
 Alpha virt. eigenvalues --    5.30880   5.32982   5.36679   5.37842   5.40986
 Alpha virt. eigenvalues --    5.43678   5.44093   5.51247   5.54736   5.57592
 Alpha virt. eigenvalues --    5.61448   5.61550   5.63440   5.65574   5.66753
 Alpha virt. eigenvalues --    5.67703   5.68542   5.69697   5.71365   5.71613
 Alpha virt. eigenvalues --    5.73983   5.77081   5.77302   5.79105   5.80416
 Alpha virt. eigenvalues --    5.81439   5.84858   5.89573   5.92919   5.95715
 Alpha virt. eigenvalues --    5.97276   6.01951   6.03870   6.11696   6.12483
 Alpha virt. eigenvalues --    6.14378   6.16653   6.18390   6.19680   6.51498
 Alpha virt. eigenvalues --    6.53379   6.54013   6.55069   6.56767   6.57821
 Alpha virt. eigenvalues --    6.69559   6.71440   6.73191   6.74368   6.75773
 Alpha virt. eigenvalues --    6.76420   6.77135   6.78315   6.78668   6.82021
 Alpha virt. eigenvalues --    6.83468   6.84283   6.86997   6.87153   6.88808
 Alpha virt. eigenvalues --    6.91148   6.91862   6.95427   6.98483   7.00101
 Alpha virt. eigenvalues --    7.02030   7.02790   7.05009   7.07878   7.16426
 Alpha virt. eigenvalues --    7.19338   7.21395   7.21688   7.23056   7.25735
 Alpha virt. eigenvalues --    7.36640   7.41289   7.44029   7.45013   7.47253
 Alpha virt. eigenvalues --    7.51092   7.54030   7.56128   7.60056   7.60770
 Alpha virt. eigenvalues --    7.62762   7.68277  23.12569  23.13852  23.17671
 Alpha virt. eigenvalues --   23.21696  23.40689  23.43574  44.10123  44.14017
 Alpha virt. eigenvalues --   44.21919  44.25532  44.31009  44.37813
          Condensed to atoms (all electrons):
               1          2          3          4          5          6
     1  C    5.216249  -0.015406   0.260992   0.001034  -0.015175   0.386835
     2  C   -0.015406   5.411920   0.008740   0.165370   0.419861   0.008191
     3  C    0.260992   0.008740   4.802801   0.008313  -0.011299  -0.028275
     4  C    0.001034   0.165370   0.008313   4.904194  -0.026652  -0.013980
     5  H   -0.015175   0.419861  -0.011299  -0.026652   0.532758   0.005004
     6  H    0.386835   0.008191  -0.028275  -0.013980   0.005004   0.548032
     7  C   -0.042179   0.032547   0.338141  -0.007675   0.001545   0.007161
     8  H   -0.009462  -0.025048   0.401631   0.010719   0.001657  -0.001890
     9  C    0.035649  -0.007094  -0.009906   0.294043   0.004165   0.000085
    10  H   -0.007475  -0.050498   0.002347   0.430893  -0.002911   0.001207
    11  H   -0.008368   0.005558  -0.039355  -0.004582  -0.007295  -0.000822
    12  H    0.009354  -0.002174  -0.028861   0.000779   0.000290  -0.000184
    13  H    0.004527  -0.005163  -0.003013  -0.038716  -0.000474  -0.008857
    14  H   -0.001956   0.011102   0.000568  -0.042093  -0.000189   0.000413
    15  O    0.005272  -0.009941  -0.034514   0.000755   0.001021  -0.000855
    16  H   -0.000641  -0.001007  -0.007718   0.000232   0.001413   0.001022
    17  O   -0.035029   0.010569   0.272814  -0.000844   0.000212   0.010972
    18  H    0.000109  -0.001046  -0.049077  -0.000001  -0.000085  -0.003080
    19  O    0.188971  -0.000163  -0.052190   0.007495   0.007201  -0.022753
    20  H   -0.017294  -0.017299   0.005725   0.002503  -0.001811  -0.007476
    21  O   -0.011966   0.156199   0.003524  -0.030148  -0.030339  -0.000671
    22  H    0.008919  -0.052215  -0.000463   0.013248  -0.007698   0.000021
    23  O    0.008569  -0.071544  -0.000248   0.275344   0.006454   0.000158
    24  H   -0.001726  -0.008183   0.000012  -0.035943  -0.000868  -0.000121
    25  O   -0.010106  -0.001242   0.000789  -0.029154  -0.000646   0.001702
    26  H   -0.002725   0.000681   0.000538  -0.004242   0.000842   0.002315
               7          8          9         10         11         12
     1  C   -0.042179  -0.009462   0.035649  -0.007475  -0.008368   0.009354
     2  C    0.032547  -0.025048  -0.007094  -0.050498   0.005558  -0.002174
     3  C    0.338141   0.401631  -0.009906   0.002347  -0.039355  -0.028861
     4  C   -0.007675   0.010719   0.294043   0.430893  -0.004582   0.000779
     5  H    0.001545   0.001657   0.004165  -0.002911  -0.007295   0.000290
     6  H    0.007161  -0.001890   0.000085   0.001207  -0.000822  -0.000184
     7  C    4.690849  -0.032049   0.000394   0.000214   0.406195   0.416860
     8  H   -0.032049   0.585239  -0.000198  -0.005149   0.005930  -0.005428
     9  C    0.000394  -0.000198   4.751209  -0.037696   0.000423  -0.000083
    10  H    0.000214  -0.005149  -0.037696   0.600350   0.001221  -0.000121
    11  H    0.406195   0.005930   0.000423   0.001221   0.653077  -0.035989
    12  H    0.416860  -0.005428  -0.000083  -0.000121  -0.035989   0.583395
    13  H    0.000430   0.000572   0.423189   0.003069  -0.000089   0.000002
    14  H   -0.000047   0.000020   0.425718  -0.005814   0.000005   0.000000
    15  O    0.265188   0.004816  -0.000028  -0.000067  -0.042884  -0.035942
    16  H   -0.029492  -0.000272  -0.000006  -0.000004  -0.007241   0.007146
    17  O   -0.039308  -0.021113  -0.000322   0.000071   0.005468   0.002624
    18  H   -0.020209   0.009334   0.000073  -0.000025   0.002725  -0.003105
    19  O    0.005961   0.002048  -0.000718  -0.000171   0.000342  -0.000553
    20  H    0.000541  -0.000391  -0.000363  -0.000064   0.000032   0.000081
    21  O   -0.000506   0.000098  -0.010729   0.004942   0.000230   0.000001
    22  H   -0.000091  -0.000008  -0.002862   0.001380  -0.000011  -0.000005
    23  O   -0.000136  -0.000002  -0.040816  -0.024278   0.000044  -0.000004
    24  H    0.000029  -0.000014  -0.019592   0.007101  -0.000018   0.000001
    25  O   -0.000021  -0.000050   0.235818   0.005334  -0.000003   0.000000
    26  H   -0.000021   0.000014  -0.027578  -0.000139   0.000002   0.000001
              13         14         15         16         17         18
     1  C    0.004527  -0.001956   0.005272  -0.000641  -0.035029   0.000109
     2  C   -0.005163   0.011102  -0.009941  -0.001007   0.010569  -0.001046
     3  C   -0.003013   0.000568  -0.034514  -0.007718   0.272814  -0.049077
     4  C   -0.038716  -0.042093   0.000755   0.000232  -0.000844  -0.000001
     5  H   -0.000474  -0.000189   0.001021   0.001413   0.000212  -0.000085
     6  H   -0.008857   0.000413  -0.000855   0.001022   0.010972  -0.003080
     7  C    0.000430  -0.000047   0.265188  -0.029492  -0.039308  -0.020209
     8  H    0.000572   0.000020   0.004816  -0.000272  -0.021113   0.009334
     9  C    0.423189   0.425718  -0.000028  -0.000006  -0.000322   0.000073
    10  H    0.003069  -0.005814  -0.000067  -0.000004   0.000071  -0.000025
    11  H   -0.000089   0.000005  -0.042884  -0.007241   0.005468   0.002725
    12  H    0.000002   0.000000  -0.035942   0.007146   0.002624  -0.003105
    13  H    0.597673  -0.025642  -0.000000   0.000000   0.000605  -0.000033
    14  H   -0.025642   0.564486   0.000000   0.000000  -0.000008   0.000001
    15  O   -0.000000   0.000000   7.922251   0.334517  -0.011718   0.030425
    16  H    0.000000   0.000000   0.334517   0.450532   0.000455  -0.001845
    17  O    0.000605  -0.000008  -0.011718   0.000455   7.847715   0.329542
    18  H   -0.000033   0.000001   0.030425  -0.001845   0.329542   0.503204
    19  O    0.000157   0.000008  -0.031562   0.040894  -0.002742   0.005718
    20  H    0.000020   0.000003   0.001214  -0.002030  -0.000506  -0.000127
    21  O    0.000100  -0.000807   0.000003  -0.000048  -0.000088   0.000013
    22  H   -0.000184  -0.000065   0.000002   0.000007   0.000014   0.000001
    23  O    0.004150   0.000266   0.000000   0.000003   0.000001   0.000000
    24  H    0.002741  -0.001542  -0.000000   0.000000  -0.000000  -0.000000
    25  O   -0.035935  -0.035424   0.000000   0.000000   0.000002  -0.000000
    26  H   -0.008798   0.006957   0.000000   0.000000  -0.000006  -0.000000
              19         20         21         22         23         24
     1  C    0.188971  -0.017294  -0.011966   0.008919   0.008569  -0.001726
     2  C   -0.000163  -0.017299   0.156199  -0.052215  -0.071544  -0.008183
     3  C   -0.052190   0.005725   0.003524  -0.000463  -0.000248   0.000012
     4  C    0.007495   0.002503  -0.030148   0.013248   0.275344  -0.035943
     5  H    0.007201  -0.001811  -0.030339  -0.007698   0.006454  -0.000868
     6  H   -0.022753  -0.007476  -0.000671   0.000021   0.000158  -0.000121
     7  C    0.005961   0.000541  -0.000506  -0.000091  -0.000136   0.000029
     8  H    0.002048  -0.000391   0.000098  -0.000008  -0.000002  -0.000014
     9  C   -0.000718  -0.000363  -0.010729  -0.002862  -0.040816  -0.019592
    10  H   -0.000171  -0.000064   0.004942   0.001380  -0.024278   0.007101
    11  H    0.000342   0.000032   0.000230  -0.000011   0.000044  -0.000018
    12  H   -0.000553   0.000081   0.000001  -0.000005  -0.000004   0.000001
    13  H    0.000157   0.000020   0.000100  -0.000184   0.004150   0.002741
    14  H    0.000008   0.000003  -0.000807  -0.000065   0.000266  -0.001542
    15  O   -0.031562   0.001214   0.000003   0.000002   0.000000  -0.000000
    16  H    0.040894  -0.002030  -0.000048   0.000007   0.000003   0.000000
    17  O   -0.002742  -0.000506  -0.000088   0.000014   0.000001  -0.000000
    18  H    0.005718  -0.000127   0.000013   0.000001   0.000000  -0.000000
    19  O    7.926113   0.320035  -0.014381  -0.000619  -0.000155   0.000020
    20  H    0.320035   0.493080   0.023032  -0.001331  -0.000054   0.000003
    21  O   -0.014381   0.023032   7.987902   0.322553  -0.005177   0.001731
    22  H   -0.000619  -0.001331   0.322553   0.496316   0.023537   0.000617
    23  O   -0.000155  -0.000054  -0.005177   0.023537   7.906467   0.327958
    24  H    0.000020   0.000003   0.001731   0.000617   0.327958   0.489000
    25  O    0.000022   0.000033  -0.024503   0.002882  -0.015086   0.032506
    26  H    0.000024   0.000178   0.034737  -0.002924   0.000809  -0.001888
              25         26
     1  C   -0.010106  -0.002725
     2  C   -0.001242   0.000681
     3  C    0.000789   0.000538
     4  C   -0.029154  -0.004242
     5  H   -0.000646   0.000842
     6  H    0.001702   0.002315
     7  C   -0.000021  -0.000021
     8  H   -0.000050   0.000014
     9  C    0.235818  -0.027578
    10  H    0.005334  -0.000139
    11  H   -0.000003   0.000002
    12  H    0.000000   0.000001
    13  H   -0.035935  -0.008798
    14  H   -0.035424   0.006957
    15  O    0.000000   0.000000
    16  H    0.000000   0.000000
    17  O    0.000002  -0.000006
    18  H   -0.000000  -0.000000
    19  O    0.000022   0.000024
    20  H    0.000033   0.000178
    21  O   -0.024503   0.034737
    22  H    0.002882  -0.002924
    23  O   -0.015086   0.000809
    24  H    0.032506  -0.001888
    25  O    7.941633   0.321683
    26  H    0.321683   0.467478
 Mulliken charges:
               1
     1  C    0.053028
     2  C    0.037285
     3  C    0.157984
     4  C    0.119110
     5  H    0.123020
     6  H    0.115845
     7  C    0.005678
     8  H    0.078996
     9  C   -0.012775
    10  H    0.076285
    11  H    0.065405
    12  H    0.091914
    13  H    0.089670
    14  H    0.104040
    15  O   -0.397953
    16  H    0.214080
    17  O   -0.369381
    18  H    0.197488
    19  O   -0.379002
    20  H    0.202266
    21  O   -0.405703
    22  H    0.198977
    23  O   -0.396259
    24  H    0.208178
    25  O   -0.390235
    26  H    0.212061
 Sum of Mulliken charges =  -0.00000
 Mulliken charges with hydrogens summed into heavy atoms:
               1
     1  C    0.168872
     2  C    0.160304
     3  C    0.236980
     4  C    0.195395
     7  C    0.162998
     9  C    0.180935
    15  O   -0.183873
    17  O   -0.171893
    19  O   -0.176737
    21  O   -0.206726
    23  O   -0.188081
    25  O   -0.178174
 Electronic spatial extent (au):  <R**2>=           2440.7034
 Charge=             -0.0000 electrons
 Dipole moment (field-independent basis, Debye):
    X=              2.3239    Y=              0.6155    Z=              0.3224  Tot=              2.4256
 Quadrupole moment (field-independent basis, Debye-Ang):
   XX=            -87.3396   YY=            -69.3948   ZZ=            -75.8642
   XY=              1.3196   XZ=              0.9952   YZ=             -4.7870
 Traceless Quadrupole moment (field-independent basis, Debye-Ang):
   XX=             -9.8067   YY=              8.1381   ZZ=              1.6686
   XY=              1.3196   XZ=              0.9952   YZ=             -4.7870
 Octapole moment (field-independent basis, Debye-Ang**2):
  XXX=             29.4158  YYY=             20.9995  ZZZ=            -14.4914  XYY=             18.6764
  XXY=              6.2713  XXZ=             -0.4864  XZZ=            -11.7068  YZZ=              6.3797
  YYZ=              3.8809  XYZ=              7.9610
 Hexadecapole moment (field-independent basis, Debye-Ang**3):
 XXXX=          -2196.8462 YYYY=           -457.6400 ZZZZ=           -446.1397 XXXY=             67.0299
 XXXZ=            118.4965 YYYX=            -15.3105 YYYZ=            -15.9552 ZZZX=            -19.7506
 ZZZY=            -13.3026 XXYY=           -405.9041 XXZZ=           -444.4699 YYZZ=           -149.6937
 XXYZ=            -36.1198 YYXZ=             -0.9830 ZZXY=              7.6308
 N-N= 8.363643688132D+02 E-N=-3.289109133315D+03  KE= 6.850553626455D+02
   1 Symmetry operations used in ECPInt.
 ECPInt:  NShTT=   23436 NPrTT=   62434 LenC2=   22033 LenP2D=   45992.
 LDataN:  DoStor=T MaxTD1= 7 Len=  274
 Calling FoFJK, ICntrl=      2127 FMM=F ISym2X=0 I1Cent= 0 IOpClX= 0 NMat=1 NMatS=1 NMatT=0.
 ***** Axes restored to original set *****
 -------------------------------------------------------------------
 Center     Atomic                   Forces (Hartrees/Bohr)
 Number     Number              X              Y              Z
 -------------------------------------------------------------------
      1        6           0.008693197    0.006067644   -0.011696979
      2        6           0.000774787   -0.005498265   -0.004103369
      3        6          -0.021338650    0.002530600   -0.008873997
      4        6           0.013095406   -0.001602463   -0.003552184
      5        1          -0.003941438   -0.000916340    0.007730106
      6        1           0.002621615   -0.000529942    0.008611483
      7        6          -0.001477530    0.005200912   -0.012953825
      8        1          -0.000185345   -0.000139922   -0.003173791
      9        6           0.002628737   -0.001319359   -0.011089998
     10        1          -0.000588941   -0.000085889   -0.001921776
     11        1           0.002986786   -0.002945909    0.002810439
     12        1           0.001556123   -0.003413317   -0.002580840
     13        1          -0.000849461    0.003871952    0.003012058
     14        1          -0.001232536    0.002321408   -0.002604758
     15        8           0.002167189   -0.011909974   -0.002716990
     16        1          -0.001225607    0.010558142    0.014293900
     17        8           0.008193381    0.010228969   -0.009105261
     18        1           0.005761703   -0.010180381    0.013002061
     19        8           0.014609789   -0.015887849   -0.006442386
     20        1          -0.011061807    0.011388108    0.013426540
     21        8           0.010485184    0.006632426    0.006458230
     22        1          -0.019280736   -0.003806593   -0.001465873
     23        8          -0.006450574   -0.014992200   -0.002770826
     24        1          -0.006662949    0.015918150    0.004769321
     25        8          -0.007105259    0.005135802   -0.003378165
     26        1           0.007826935   -0.006625710    0.014316880
 -------------------------------------------------------------------
 Cartesian Forces:  Max     0.021338650 RMS     0.008131553

 GradGradGradGradGradGradGradGradGradGradGradGradGradGradGradGradGradGrad
 Berny optimization.
 FormGI is forming the generalized inverse of G from B-inverse, IUseBI=4.
 Internal  Forces:  Max     0.020412171 RMS     0.005594578
 Search for a local minimum.
 Step number   1 out of a maximum of  140
 All quantities printed in internal units (Hartrees-Bohrs-Radians)
 Mixed Optimization -- RFO/linear search
 Second derivative matrix not updated -- first step.
 ITU=  0
     Eigenvalues ---    0.00230   0.00230   0.00255   0.00278   0.00286
     Eigenvalues ---    0.01057   0.01069   0.01144   0.01211   0.01318
     Eigenvalues ---    0.01322   0.03708   0.03783   0.03899   0.03903
     Eigenvalues ---    0.04668   0.04671   0.04788   0.04838   0.04875
     Eigenvalues ---    0.04927   0.05614   0.05638   0.07712   0.07720
     Eigenvalues ---    0.07822   0.07926   0.11536   0.11627   0.13797
     Eigenvalues ---    0.13867   0.16000   0.16000   0.16000   0.16000
     Eigenvalues ---    0.16000   0.16000   0.16892   0.16912   0.17114
     Eigenvalues ---    0.17245   0.19411   0.19513   0.19574   0.19620
     Eigenvalues ---    0.22002   0.22034   0.28307   0.28466   0.28643
     Eigenvalues ---    0.28798   0.28850   0.34057   0.34122   0.34264
     Eigenvalues ---    0.34290   0.34352   0.34407   0.34421   0.34478
     Eigenvalues ---    0.38509   0.38627   0.39396   0.40095   0.41245
     Eigenvalues ---    0.41287   0.50855   0.51120   0.51298   0.51335
     Eigenvalues ---    0.51402   0.51544
 RFO step:  Lambda=-1.81795996D-02 EMin= 2.30000000D-03
 Linear search not attempted -- first point.
 Iteration  1 RMS(Cart)=  0.13247996 RMS(Int)=  0.00725246
 Iteration  2 RMS(Cart)=  0.01069166 RMS(Int)=  0.00055783
 Iteration  3 RMS(Cart)=  0.00002006 RMS(Int)=  0.00055751
 Iteration  4 RMS(Cart)=  0.00000002 RMS(Int)=  0.00055751
 Variable       Old X    -DE/DX   Delta X   Delta X   Delta X     New X
                                 (Linear)    (Quad)   (Total)
    R1        2.90753  -0.01130   0.00000  -0.03710  -0.03710   2.87043
    R2        2.91472  -0.00618   0.00000  -0.02051  -0.02051   2.89420
    R3        2.07125  -0.00168   0.00000  -0.00467  -0.00467   2.06658
    R4        2.73462  -0.00899   0.00000  -0.02223  -0.02223   2.71239
    R5        2.91132  -0.00344   0.00000  -0.01137  -0.01137   2.89995
    R6        2.07235  -0.00220   0.00000  -0.00614  -0.00614   2.06621
    R7        2.73630  -0.00804   0.00000  -0.01994  -0.01994   2.71636
    R8        2.90426  -0.00213   0.00000  -0.00697  -0.00697   2.89729
    R9        2.06649  -0.00260   0.00000  -0.00718  -0.00718   2.05931
   R10        2.71425  -0.01377   0.00000  -0.03286  -0.03286   2.68138
   R11        2.90317  -0.00358   0.00000  -0.01168  -0.01168   2.89149
   R12        2.06740  -0.00160   0.00000  -0.00443  -0.00443   2.06297
   R13        2.72383  -0.01315   0.00000  -0.03190  -0.03190   2.69193
   R14        2.06625   0.00211   0.00000   0.00583   0.00583   2.07208
   R15        2.06844  -0.00394   0.00000  -0.01091  -0.01091   2.05753
   R16        2.69896  -0.00972   0.00000  -0.02258  -0.02258   2.67638
   R17        2.06531   0.00037   0.00000   0.00101   0.00101   2.06632
   R18        2.06887  -0.00360   0.00000  -0.00998  -0.00998   2.05889
   R19        2.69841  -0.00787   0.00000  -0.01827  -0.01827   2.68014
   R20        1.85713  -0.01747   0.00000  -0.03317  -0.03317   1.82396
   R21        1.85038  -0.01738   0.00000  -0.03256  -0.03256   1.81782
   R22        1.85451  -0.02041   0.00000  -0.03856  -0.03856   1.81595
   R23        1.85278  -0.01960   0.00000  -0.03690  -0.03690   1.81588
   R24        1.85242  -0.01785   0.00000  -0.03358  -0.03358   1.81884
   R25        1.85177  -0.01751   0.00000  -0.03290  -0.03290   1.81887
    A1        2.00131   0.00033   0.00000  -0.00521  -0.00564   1.99567
    A2        1.92650  -0.00060   0.00000  -0.01506  -0.01602   1.91047
    A3        1.87619   0.00071   0.00000   0.01467   0.01468   1.89087
    A4        1.91340  -0.00284   0.00000  -0.03839  -0.03889   1.87451
    A5        1.90950  -0.00021   0.00000   0.00641   0.00655   1.91605
    A6        1.82858   0.00294   0.00000   0.04376   0.04402   1.87260
    A7        2.01632   0.00256   0.00000   0.00296   0.00303   2.01936
    A8        1.91746   0.00030   0.00000  -0.01609  -0.01617   1.90129
    A9        1.86970  -0.00896   0.00000  -0.04301  -0.04289   1.82681
   A10        1.91663  -0.00447   0.00000  -0.03066  -0.03150   1.88513
   A11        1.90295   0.00697   0.00000   0.04328   0.04326   1.94621
   A12        1.83104   0.00381   0.00000   0.04932   0.04927   1.88031
   A13        1.99110   0.00485   0.00000   0.03662   0.03467   2.02577
   A14        1.92488  -0.00460   0.00000  -0.05627  -0.05572   1.86916
   A15        1.88562   0.00126   0.00000   0.03396   0.03161   1.91723
   A16        1.91533  -0.00211   0.00000  -0.03192  -0.03136   1.88398
   A17        1.88595   0.00114   0.00000   0.03676   0.03450   1.92045
   A18        1.85537  -0.00072   0.00000  -0.01957  -0.01862   1.83675
   A19        1.99662   0.00411   0.00000   0.02486   0.02421   2.02084
   A20        1.92176  -0.00302   0.00000  -0.03713  -0.03700   1.88476
   A21        1.86466  -0.00060   0.00000   0.01392   0.01301   1.87767
   A22        1.91542  -0.00230   0.00000  -0.02685  -0.02670   1.88873
   A23        1.88994   0.00102   0.00000   0.02424   0.02354   1.91348
   A24        1.87039   0.00077   0.00000   0.00235   0.00271   1.87310
   A25        1.95149  -0.00404   0.00000  -0.01336  -0.01504   1.93646
   A26        1.91811  -0.00571   0.00000  -0.04710  -0.04720   1.87091
   A27        1.93951   0.00997   0.00000   0.04748   0.04713   1.98664
   A28        1.89153   0.00188   0.00000  -0.00607  -0.00690   1.88463
   A29        1.89948   0.00088   0.00000   0.03807   0.03743   1.93691
   A30        1.86087  -0.00305   0.00000  -0.01992  -0.01904   1.84183
   A31        1.96916  -0.00677   0.00000  -0.03254  -0.03377   1.93539
   A32        1.91396  -0.00200   0.00000  -0.02089  -0.02104   1.89292
   A33        1.91897   0.00965   0.00000   0.04585   0.04577   1.96474
   A34        1.88825   0.00174   0.00000  -0.00560  -0.00625   1.88200
   A35        1.91168   0.00219   0.00000   0.04212   0.04222   1.95390
   A36        1.85829  -0.00487   0.00000  -0.02985  -0.02929   1.82900
   A37        1.86544   0.00004   0.00000   0.00020   0.00020   1.86564
   A38        1.84197   0.00140   0.00000   0.00785   0.00785   1.84982
   A39        1.82485   0.00679   0.00000   0.03810   0.03810   1.86295
   A40        1.82553   0.00381   0.00000   0.02141   0.02141   1.84693
   A41        1.85665  -0.00172   0.00000  -0.00967  -0.00967   1.84699
   A42        1.87026  -0.00082   0.00000  -0.00461  -0.00461   1.86565
    D1        1.05278  -0.00430   0.00000  -0.06395  -0.06392   0.98886
    D2       -1.12687  -0.00048   0.00000  -0.01139  -0.01117  -1.13804
    D3       -3.10657  -0.00037   0.00000  -0.03858  -0.03866   3.13795
    D4       -1.11840  -0.00026   0.00000   0.00369   0.00358  -1.11483
    D5        2.98513   0.00355   0.00000   0.05625   0.05633   3.04147
    D6        1.00543   0.00366   0.00000   0.02906   0.02884   1.03427
    D7       -3.10320  -0.00382   0.00000  -0.04835  -0.04835   3.13163
    D8        1.00034  -0.00000   0.00000   0.00421   0.00440   1.00474
    D9       -0.97936   0.00011   0.00000  -0.02298  -0.02309  -1.00245
   D10        1.22447  -0.00231   0.00000  -0.06735  -0.06789   1.15658
   D11       -0.94028   0.00049   0.00000  -0.00801  -0.00829  -0.94856
   D12       -2.96130   0.00312   0.00000   0.02650   0.02674  -2.93456
   D13       -2.88061  -0.00515   0.00000  -0.12234  -0.12244  -3.00305
   D14        1.23782  -0.00235   0.00000  -0.06300  -0.06283   1.17499
   D15       -0.78320   0.00028   0.00000  -0.02849  -0.02780  -0.81100
   D16       -0.88450  -0.00331   0.00000  -0.08757  -0.08798  -0.97248
   D17       -3.04925  -0.00051   0.00000  -0.02823  -0.02838  -3.07762
   D18        1.21292   0.00212   0.00000   0.00628   0.00665   1.21957
   D19        0.87590  -0.00078   0.00000  -0.02953  -0.02935   0.84655
   D20        3.05930  -0.00003   0.00000  -0.02234  -0.02235   3.03695
   D21       -1.17372  -0.00186   0.00000  -0.04058  -0.04074  -1.21446
   D22        1.04233  -0.00367   0.00000  -0.05831  -0.05851   0.98382
   D23       -1.12420  -0.00129   0.00000  -0.01170  -0.01182  -1.13603
   D24        3.13352  -0.00031   0.00000  -0.00305  -0.00304   3.13047
   D25       -3.06077  -0.00502   0.00000  -0.10333  -0.10309   3.11932
   D26        1.05588  -0.00264   0.00000  -0.05671  -0.05641   0.99947
   D27       -0.96959  -0.00166   0.00000  -0.04806  -0.04763  -1.01722
   D28       -1.06356   0.00096   0.00000  -0.03719  -0.03750  -1.10106
   D29        3.05309   0.00334   0.00000   0.00942   0.00919   3.06227
   D30        1.02762   0.00432   0.00000   0.01807   0.01797   1.04559
   D31        2.99676  -0.00115   0.00000  -0.00366  -0.00386   2.99290
   D32       -1.09285   0.00058   0.00000  -0.00067  -0.00176  -1.09461
   D33        0.95923   0.00075   0.00000   0.01056   0.01185   0.97108
   D34       -1.01832   0.00066   0.00000   0.04378   0.04448  -0.97384
   D35       -3.11967   0.00479   0.00000   0.09204   0.09194  -3.02773
   D36        1.10799   0.00603   0.00000   0.11710   0.11771   1.22570
   D37        1.15155  -0.00349   0.00000  -0.02860  -0.02823   1.12333
   D38       -0.94980   0.00065   0.00000   0.01966   0.01924  -0.93056
   D39       -3.00532   0.00189   0.00000   0.04472   0.04500  -2.96032
   D40       -3.11554  -0.00483   0.00000  -0.04852  -0.04871   3.11893
   D41        1.06629  -0.00070   0.00000  -0.00027  -0.00124   1.06505
   D42       -0.98924   0.00054   0.00000   0.02480   0.02452  -0.96471
   D43       -1.33096  -0.00524   0.00000  -0.08453  -0.08501  -1.41597
   D44        0.83124   0.00213   0.00000   0.00325   0.00374   0.83498
   D45        2.88625  -0.00013   0.00000  -0.02573  -0.02575   2.86050
   D46       -0.97804   0.00011   0.00000   0.05917   0.05979  -0.91826
   D47       -3.08404   0.00380   0.00000   0.10258   0.10241  -2.98163
   D48        1.16157   0.00526   0.00000   0.12432   0.12442   1.28599
   D49        1.19187  -0.00266   0.00000   0.00710   0.00760   1.19947
   D50       -0.91413   0.00103   0.00000   0.05051   0.05022  -0.86390
   D51       -2.95170   0.00249   0.00000   0.07225   0.07224  -2.87947
   D52       -3.05503  -0.00242   0.00000   0.00890   0.00909  -3.04594
   D53        1.12216   0.00127   0.00000   0.05231   0.05171   1.17387
   D54       -0.91542   0.00272   0.00000   0.07405   0.07372  -0.84170
   D55       -1.87531  -0.00222   0.00000  -0.00719  -0.00732  -1.88264
   D56        0.28327   0.00296   0.00000   0.04523   0.04532   0.32859
   D57        2.34843   0.00121   0.00000   0.02769   0.02774   2.37617
   D58       -0.78471  -0.00383   0.00000  -0.09339  -0.09429  -0.87900
   D59        1.37162  -0.00168   0.00000  -0.05240  -0.05132   1.32030
   D60       -2.87465  -0.00066   0.00000  -0.05086  -0.05103  -2.92568
   D61       -1.01403   0.00126   0.00000   0.02289   0.02188  -0.99215
   D62        1.15917   0.00077   0.00000   0.04182   0.04295   1.20211
   D63       -3.08615   0.00127   0.00000   0.04040   0.04028  -3.04587
         Item               Value     Threshold  Converged?
 Maximum Force            0.020412     0.000450     NO 
 RMS     Force            0.005595     0.000300     NO 
 Maximum Displacement     0.483276     0.001800     NO 
 RMS     Displacement     0.134394     0.001200     NO 
 Predicted change in Energy=-1.121373D-02
 GradGradGradGradGradGradGradGradGradGradGradGradGradGradGradGradGradGrad

                          Input orientation:                          
 ---------------------------------------------------------------------
 Center     Atomic      Atomic             Coordinates (Angstroms)
 Number     Number       Type             X           Y           Z
 ---------------------------------------------------------------------
      1          6           0        0.013953   -0.006789   -0.105906
      2          6           0        1.532739    0.004306   -0.085256
      3          6           0       -0.638753    0.547755    1.163775
      4          6           0        2.187906   -0.744599    1.083012
      5          1           0        1.879676    1.040874   -0.059396
      6          1           0       -0.341206   -1.033040   -0.234765
      7          6           0       -0.426020    2.042009    1.433200
      8          1           0       -0.225017   -0.007363    2.005319
      9          6           0        1.797652   -2.216520    1.232611
     10          1           0        1.923668   -0.225928    2.006547
     11          1           0        0.642324    2.287489    1.459310
     12          1           0       -0.843857    2.254570    2.415907
     13          1           0        0.710509   -2.331010    1.258001
     14          1           0        2.193993   -2.584015    2.178607
     15          8           0       -1.119218    2.889684    0.534996
     16          1           0       -0.910859    2.584039   -0.356505
     17          8           0       -2.025312    0.246413    1.163753
     18          1           0       -2.440918    0.911257    0.606440
     19          8           0       -0.427681    0.743932   -1.246769
     20          1           0        0.076623    0.425030   -2.000046
     21          8           0        1.918090   -0.554907   -1.352146
     22          1           0        2.869013   -0.431540   -1.414614
     23          8           0        3.599593   -0.637325    0.925346
     24          1           0        3.900780   -1.510988    0.656294
     25          8           0        2.394646   -3.041069    0.245084
     26          1           0        2.132875   -2.686768   -0.610699
 ---------------------------------------------------------------------
                    Distance matrix (angstroms):
                    1          2          3          4          5
     1  C    0.000000
     2  C    1.518967   0.000000
     3  C    1.531546   2.563355   0.000000
     4  C    2.585336   1.534586   3.109132   0.000000
     5  H    2.140253   1.093392   2.842850   2.141965   0.000000
     6  H    1.093587   2.147117   2.131516   2.866382   3.043713
     7  C    2.599999   3.208532   1.533180   3.836721   2.923413
     8  H    2.124707   2.731364   1.089739   2.686329   3.129150
     9  C    3.139446   2.595963   3.685380   1.530108   3.505229
    10  H    2.856132   2.140437   2.806216   1.091677   2.423807
    11  H    2.847537   2.896799   2.180636   3.424030   2.321973
    12  H    3.494156   4.119188   2.126763   4.468021   3.875283
    13  H    2.783421   2.816754   3.180673   2.174862   3.804219
    14  H    4.075986   3.501676   4.343077   2.140985   4.271682
    15  O    3.175592   3.967744   2.472011   4.944229   3.572781
    16  H    2.762330   3.563673   2.555727   4.770155   3.202610
    17  O    2.415522   3.778672   1.418927   4.328953   4.168476
    18  H    2.715997   4.134121   1.921082   4.939130   4.373519
    19  O    1.435337   2.395705   2.427707   3.805903   2.611881
    20  H    1.943750   2.442069   3.246011   3.915456   2.719630
    21  O    2.340788   1.437437   3.752755   2.457393   2.054068
    22  H    3.169305   1.934627   4.462233   2.607690   2.232354
    23  O    3.783896   2.388491   4.407361   1.424508   2.596957
    24  H    4.236861   2.907513   5.010321   1.924416   3.333028
    25  O    3.872692   3.182188   4.788022   2.453292   4.125549
    26  H    3.453539   2.806801   4.614414   2.577539   3.776686
                    6          7          8          9         10
     6  H    0.000000
     7  C    3.499318   0.000000
     8  H    2.466474   2.137206   0.000000
     9  C    2.851059   4.808329   3.093322   0.000000
    10  H    3.287030   3.315614   2.159772   2.139466   0.000000
    11  H    3.855274   1.096495   2.513315   4.655349   2.873773
    12  H    4.252893   1.088799   2.380732   5.326200   3.738935
    13  H    2.240353   4.521691   2.614007   1.093449   2.542331
    14  H    3.828462   5.368445   3.538471   1.089516   2.379760
    15  O    4.072542   1.416279   3.369618   5.921834   4.596917
    16  H    3.663684   1.931815   3.572668   5.736435   4.638369
    17  O    2.535560   2.419608   2.003422   4.548168   4.065446
    18  H    2.982735   2.453966   2.776859   5.304768   4.722616
    19  O    2.046768   2.977792   3.343890   4.456872   4.129592
    20  H    2.327394   3.828113   4.039914   4.515507   4.459608
    21  O    2.565458   4.471798   4.020608   3.075132   3.374771
    22  H    3.472658   5.008565   4.631294   3.367755   3.555319
    23  O    4.127026   4.862335   4.023783   2.415628   2.036411
    24  H    4.360833   5.652306   4.593795   2.291957   2.717266
    25  O    3.427437   5.933418   4.377720   1.418271   3.354041
    26  H    2.999537   5.752112   4.425202   1.931657   3.598538
                   11         12         13         14         15
    11  H    0.000000
    12  H    1.767738   0.000000
    13  H    4.623387   4.978388   0.000000
    14  H    5.163004   5.718107   1.764158   0.000000
    15  O    2.078467   2.004251   5.579093   6.606073   0.000000
    16  H    2.407801   2.792725   5.421547   6.540312   0.965198
    17  O    3.371888   2.645075   3.759882   5.181099   2.864127
    18  H    3.482497   2.762113   4.568186   6.014237   2.380372
    19  O    3.293987   3.983771   4.126090   5.448082   2.873528
    20  H    3.969373   4.867766   4.314213   5.567652   3.732425
    21  O    4.196556   5.451581   3.380186   4.081619   4.965053
    22  H    4.539901   5.972728   3.925556   4.242645   5.544140
    23  O    4.193458   5.507184   3.365417   2.708500   5.904180
    24  H    5.068609   6.307713   3.348479   2.526251   6.676900
    25  O    5.739208   6.576029   2.089617   1.996915   6.899646
    26  H    5.590162   6.514453   2.375232   2.791866   6.556336
                   16         17         18         19         20
    16  H    0.000000
    17  O    3.002946   0.000000
    18  H    2.463035   0.961948   0.000000
    19  O    2.100482   2.934377   2.741443   0.000000
    20  H    2.887502   3.802586   3.656255   0.960961   0.000000
    21  O    4.341340   4.745765   4.998665   2.683417   2.184274
    22  H    4.949821   5.573330   5.838076   3.504011   2.978906
    23  O    5.688980   5.698893   6.244004   4.779632   4.700833
    24  H    6.398974   6.201978   6.788733   5.238500   5.042666
    25  O    6.552107   5.584578   6.255729   4.951503   4.735787
    26  H    6.091825   5.389133   5.945318   4.327901   3.980168
                   21         22         23         24         25
    21  O    0.000000
    22  H    0.960924   0.000000
    23  O    2.832175   2.459981   0.000000
    24  H    2.979762   2.553118   0.962491   0.000000
    25  O    2.993201   3.128780   2.773560   2.186020   0.000000
    26  H    2.267313   2.504841   2.951425   2.472492   0.962506
                   26
    26  H    0.000000
 Stoichiometry    C6H14O6
 Framework group  C1[X(C6H14O6)]
 Deg. of freedom    72
 Full point group                 C1      NOp   1
 Largest Abelian subgroup         C1      NOp   1
 Largest concise Abelian subgroup C1      NOp   1
                         Standard orientation:                         
 ---------------------------------------------------------------------
 Center     Atomic      Atomic             Coordinates (Angstroms)
 Number     Number       Type             X           Y           Z
 ---------------------------------------------------------------------
      1          6           0       -0.557654    0.241164   -0.646292
      2          6           0        0.552850    0.678149    0.293435
      3          6           0       -1.465972   -0.855893   -0.083213
      4          6           0        1.492019   -0.435018    0.776938
      5          1           0        0.107724    1.150766    1.173208
      6          1           0       -0.121233   -0.139688   -1.573880
      7          6           0       -2.329080   -0.463443    1.121638
      8          1           0       -0.821767   -1.680951    0.219790
      9          6           0        2.191722   -1.239086   -0.320843
     10          1           0        0.908592   -1.126853    1.387459
     11          1           0       -1.708832   -0.076267    1.938760
     12          1           0       -2.821532   -1.368603    1.473290
     13          1           0        1.467057   -1.627419   -1.041738
     14          1           0        2.692101   -2.089875    0.140486
     15          8           0       -3.374244    0.439043    0.806998
     16          1           0       -2.977105    1.166824    0.312810
     17          8           0       -2.284032   -1.381552   -1.116564
     18          1           0       -3.015582   -0.764715   -1.215005
     19          8           0       -1.341890    1.394385   -0.985771
     20          1           0       -0.723578    2.083824   -1.242309
     21          8           0        1.267248    1.691622   -0.433706
     22          1           0        1.887124    2.075382    0.192278
     23          8           0        2.466181    0.162903    1.627068
     24          1           0        3.289005    0.157560    1.127748
     25          8           0        3.229414   -0.508121   -0.953598
     26          1           0        2.833295    0.298534   -1.298293
 ---------------------------------------------------------------------
 Rotational constants (GHZ):           1.5170618           0.5134068           0.5010145
 Standard basis: def2TZVPP (5D, 7F)
 There are   642 symmetry adapted cartesian basis functions of A   symmetry.
 There are   568 symmetry adapted basis functions of A   symmetry.
   568 basis functions,   850 primitive gaussians,   642 cartesian basis functions
    49 alpha electrons       49 beta electrons
       nuclear repulsion energy       835.6284327858 Hartrees.
 NAtoms=   26 NActive=   26 NUniq=   26 SFac= 1.00D+00 NAtFMM=   60 NAOKFM=F Big=F
 Integral buffers will be    131072 words long.
 Raffenetti 2 integral format.
 Two-electron integral symmetry is turned on.
 Nuclear repulsion after empirical dispersion term =      835.6082937280 Hartrees.
 One-electron integrals computed using PRISM.
   1 Symmetry operations used in ECPInt.
 ECPInt:  NShTT=   23436 NPrTT=   62434 LenC2=   22055 LenP2D=   46035.
 LDataN:  DoStor=T MaxTD1= 6 Len=  172
 NBasis=   568 RedAO= T EigKep=  5.27D-05  NBF=   568
[...]
 84,0.00451921,0.00483176,-0.00141241,-0.00178224,-0.00000842,0.0030563
 5,-0.00008396,0.00126386,0.00043687,-0.00053637,-0.00101212,0.26693779
 ,0.04272659,-0.12995477,0.04231682,0.00669792,-0.00600284,0.01076402,-
 0.00229575,0.00845693,-0.00512579,-0.00007516,0.00191795,-0.00211781,0
 .00148269,0.00212430,-0.00072888,0.01560133,-0.02320310,0.03824137,0.0
 0097850,-0.00365234,0.00428963,0.00110031,-0.00012556,-0.00277156,-0.0
 0133726,0.00002566,0.00059310,0.00018246,-0.00009298,0.00039918,-0.000
 21645,0.00036415,-0.00001506,-0.00003498,0.00089548,-0.00023633,0.0008
 0204,0.00041404,-0.00052451,0.00059083,0.00004062,0.00002377,0.0026961
 7,-0.00282425,-0.00955991,-0.00244136,-0.00027869,0.00016188,-0.001014
 02,0.00174578,0.00022486,-0.00047741,-0.00108054,0.00034092,-0.1621728
 3,0.22609052,-0.03890034,0.07380006,-0.16172494,-0.01188258,0.01333581
 ,-0.02243441,-0.01550731,0.02490517,-0.04020306,0.00004482,-0.00157187
 ,0.00425927,0.00118134,-0.00053000,0.00028048,-0.00281129,0.01375308,-
 0.00719281,-0.00046080,0.00258814,0.00328209,0.00433922,-0.00289672,-0
 .00572274,0.00084483,-0.00081849,-0.00118409,0.00029336,0.00000707,0.0
 0039387,-0.00014042,-0.00027503,-0.00008867,0.00006444,0.00025927,0.00
 034613,-0.00042988,-0.00035316,0.00021284,-0.00030135,0.00022896,-0.00
 000873,0.00364374,-0.00917910,-0.00151872,0.00046835,0.00029908,-0.007
 05098,0.00131977,-0.00099753,0.00326007,-0.00008622,0.00022205,-0.0006
 0313,-0.16981175,0.01643857,0.57201306,0.00726893,-0.00392808,-0.01242
 128,0.00119062,-0.00012789,-0.00667317,-0.00193018,0.00122031,-0.00275
 029,-0.00000666,0.00038972,0.00027245,-0.00038588,0.00002990,0.0001171
 6,-0.00011977,0.00092932,0.00004571,0.00023177,0.00041810,0.00020210,0
 .00051454,-0.00005827,-0.00099246,0.00055735,0.00008941,-0.00034439,0.
 00015675,-0.00009054,0.00042093,-0.00014639,-0.00009563,-0.00000677,-0
 .00005163,-0.00008876,-0.00000510,-0.00020532,-0.00010151,0.00008497,-
 0.00008998,-0.00007829,0.00004337,0.00040158,-0.00014332,-0.00039741,-
 0.00059928,0.00012400,0.00041364,0.00018331,-0.00007288,0.00027239,0.0
 0027220,0.00004814,-0.00008487,-0.16242517,0.09421735,0.22773479,0.154
 88580,-0.01255794,0.00616902,0.02283398,0.00061430,0.00181876,0.002660
 80,0.00189419,-0.00246854,0.00276190,-0.00007612,-0.00025813,-0.000538
 96,-0.00033553,-0.00043012,-0.00061433,-0.00050468,-0.00056789,0.00114
 747,0.00056906,-0.00034099,0.00075281,-0.00037217,0.00058748,0.0009011
 8,-0.00000513,0.00018564,0.00039334,-0.00008730,0.00004468,-0.00019857
 ,-0.00011372,0.00007646,-0.00004908,-0.00011174,0.00002086,-0.00007683
 ,0.00000340,0.00000941,0.00002490,-0.00002624,-0.00005316,-0.00003666,
 0.00045143,-0.00179635,-0.00166671,0.00000072,0.00250691,-0.00049248,0
 .00003483,0.00004092,-0.00026827,-0.00005163,-0.00014717,0.00002629,0.
 10300597,-0.07583467,-0.12861969,-0.09126507,0.07233009,0.01644276,-0.
 00830544,-0.03307203,-0.00027051,-0.00104474,-0.00044899,-0.00325752,0
 .00495906,-0.00403500,0.00009234,0.00001947,-0.00126395,-0.00039081,-0
 .00009336,-0.00017938,0.00064747,-0.00033514,0.00110791,-0.00014762,0.
 00032362,0.00028937,0.00081377,-0.00065006,-0.00111153,0.00008507,0.00
 018182,0.00025902,0.00001393,0.00003058,0.00006878,-0.00006175,-0.0001
 4539,-0.00004536,-0.00004629,0.00008904,0.00010237,0.00005250,0.000022
 19,-0.00006947,0.00005743,-0.00011314,0.00002118,-0.00032525,0.0007157
 9,0.00124767,0.00055663,-0.00144329,-0.00092436,-0.00028034,-0.0001487
 0,0.00107988,0.00030347,-0.00007821,-0.00015026,0.19294019,-0.09500664
 ,-0.34102144,-0.20977665,0.10237702,0.37709875,-0.02464479,0.02341318,
 0.04489977,-0.09810324,0.01462621,0.04703325,-0.00389164,-0.00039460,-
 0.00704532,-0.00222260,-0.00272166,-0.00652204,0.00517865,0.00109833,-
 0.00430478,0.00336739,0.00010997,0.00014459,-0.00049178,-0.00082627,0.
 00058356,0.00021621,-0.00028831,0.00021173,-0.00080053,0.00071357,0.00
 165533,-0.00000095,0.00118033,-0.00182720,0.00012846,0.00009869,-0.000
 04871,-0.00009762,0.00042386,0.00015879,0.00052478,0.00033935,-0.00036
 338,-0.00003299,-0.00038398,0.00004132,0.00002254,0.00089169,0.0000956
 2,0.00005975,-0.00084340,-0.00000062,-0.00423594,0.00050285,0.00269264
 ,0.00027451,-0.00039201,0.00015608,-0.00185588,0.00141232,0.00397489,0
 .00092438,-0.00118290,0.00160834,0.63664177,0.00366047,-0.00087047,-0.
 00139119,-0.00511436,-0.09522560,-0.04858627,-0.00094748,0.00027084,0.
 00082211,-0.00083289,0.01112278,0.00704041,0.01363777,-0.01228019,-0.0
 3966684,0.00102753,0.00133397,0.00102828,-0.00137202,-0.00042527,-0.00
 033598,0.00008364,-0.00010440,-0.00036175,0.00029596,-0.00286205,-0.00
 675799,0.00140427,-0.00031661,0.00289388,0.00077536,0.00055571,0.00028
 285,0.00042038,0.00013667,-0.00008105,-0.00048973,0.00017926,0.0004632
 3,-0.00001464,0.00114627,0.00040106,0.00075600,-0.00001692,0.00014006,
 -0.00043800,0.00011412,-0.00003993,0.00068323,0.00050622,-0.00024733,-
 0.00025536,-0.00009900,0.00000094,0.00264746,0.00157613,-0.00201069,-0
 .00132757,-0.00181148,-0.00080385,0.05525400,0.12526754,0.00935875,-0.
 00479937,-0.01575895,0.00453510,-0.05961497,-0.17612560,-0.00117545,0.
 00020995,0.00258934,0.01403447,-0.01976397,-0.04771124,0.00699167,-0.0
 1312304,-0.01742338,-0.00051262,0.00047422,0.00071200,-0.00123661,0.00
 051123,-0.00114403,-0.00039351,-0.00010318,0.00055782,-0.00016579,-0.0
 0368520,0.00071024,-0.00449971,0.00521476,-0.00582873,0.00058266,0.000
 44147,0.00009836,0.00028027,-0.00007174,-0.00002493,0.00011859,0.00040
 599,0.00000158,-0.00006612,0.00037179,0.00037065,0.00077157,-0.0005597
 3,0.00120681,-0.00000609,-0.00023905,-0.00062790,0.00224208,-0.0001076
 9,-0.00028473,-0.00007284,0.00011596,-0.00028756,-0.00271050,0.0004416
 3,0.00418501,0.00239412,0.00013275,-0.00014363,-0.08720600,0.09106396,
 0.29277394,-0.00108693,0.00214207,0.00237355,-0.01312870,-0.00201099,0
 .00164652,-0.00027501,-0.00002897,-0.00054824,0.00257151,-0.00119841,-
 0.00102907,0.00119912,-0.00057723,-0.00168119,0.00053582,0.00017677,-0
 .00000704,-0.00017229,-0.00007882,0.00000406,0.00001549,-0.00002684,-0
 .00000987,-0.00055976,0.00008704,0.00026537,-0.00071869,0.00026256,-0.
 00035947,0.00010863,0.00012358,0.00005833,0.00008408,0.00002370,-0.000
 02752,-0.00005917,-0.00016085,-0.00000225,0.00005856,0.00017134,-0.000
 08682,0.00012942,-0.00006608,-0.00002106,-0.00009993,0.00007830,0.0000
 4376,-0.00003403,0.00001705,0.00004292,-0.00004746,-0.00001526,0.00004
 289,0.00075644,-0.00030766,0.00034739,-0.00033808,-0.00039776,0.000022
 05,-0.51543527,-0.06923367,0.05575380,0.52828295,0.00087629,-0.0018317
 7,-0.00302524,0.01922854,0.00138264,-0.00499344,0.00069177,0.00061498,
 0.00043751,-0.00142774,0.00034410,0.00048849,0.00107191,-0.00000286,-0
 .00008244,0.00001604,0.00030606,-0.00001606,0.00012342,0.00022443,0.00
 012895,-0.00003905,0.00000860,0.00008168,-0.00051212,0.00051484,0.0010
 1257,0.00013404,-0.00006162,-0.00027665,-0.00008250,-0.00007825,-0.000
 06201,-0.00006793,0.00000198,0.00002117,0.00021688,-0.00004755,-0.0002
 1531,0.00006024,-0.00010035,-0.00012918,-0.00010489,-0.00018437,0.0000
 4635,0.00012002,0.00010375,-0.00004318,0.00043451,-0.00019561,-0.00029
 759,0.00002592,0.00007745,-0.00003063,0.00034335,-0.00038014,-0.000427
 96,-0.00040120,0.00040296,-0.00032020,-0.09162630,-0.02769450,-0.00466
 997,0.07131957,0.02959614,0.00120748,-0.00279456,-0.00739746,0.0405841
 0,0.00438573,-0.00691261,0.00104547,0.00011217,0.00136177,0.00496922,0
 .00045473,-0.00237731,-0.00032539,-0.00093088,0.00091128,-0.00038284,0
 .00014748,-0.00001995,0.00013013,0.00004514,-0.00004724,-0.00003531,0.
 00009186,-0.00009818,0.00011237,0.00046875,-0.00023564,-0.00035298,-0.
 00013216,0.00047630,-0.00007443,-0.00007514,0.00001231,-0.00000777,-0.
 00005216,-0.00001441,-0.00024480,-0.00029065,0.00000216,0.00001794,0.0
 0003840,-0.00001401,-0.00012258,0.00012407,-0.00003098,0.00003319,-0.0
 0012813,-0.00000713,0.00053681,-0.00007881,-0.00042739,0.00003954,0.00
 003093,-0.00007157,-0.00141544,0.00103557,0.00062755,0.00081067,-0.001
 24314,0.00064819,0.01306507,-0.01426504,-0.03821138,-0.05695860,0.0121
 3520,0.04768430,0.00557294,0.00292037,-0.00353332,-0.04898417,0.003316
 61,-0.00069570,0.00176597,-0.00073822,-0.00019054,-0.22116592,-0.02870
 185,0.01724205,0.00178322,0.00002315,0.00080863,-0.00020571,-0.0002103
 4,0.00018444,-0.00001285,-0.00070933,0.00015144,0.00021191,0.00015786,
 -0.00049552,-0.03973808,-0.00580851,0.00630186,-0.02412757,0.00148838,
 0.00738657,-0.00005503,-0.00016988,-0.00005811,-0.00009465,0.00013752,
 0.00008384,0.00043775,-0.00581326,0.00001609,0.00157142,0.00068569,0.0
 0058263,-0.00030376,0.00090646,-0.00015805,0.00013542,-0.00061975,-0.0
 0008009,-0.00157930,0.00043251,0.00024375,0.00019862,-0.00023189,-0.00
 009329,-0.00452177,0.00208691,-0.00353598,-0.00016013,0.00024703,0.000
 98135,0.00362752,-0.00085018,0.00152042,-0.00175078,0.00017700,-0.0012
 2156,0.39669353,-0.00179988,-0.00118141,0.00268899,0.02336284,0.003614
 76,-0.00440256,-0.00068263,0.00023957,0.00007549,0.02169068,-0.0960243
 0,-0.01259241,-0.00027006,0.00206318,-0.00190384,0.00091850,0.00044273
 ,0.00018584,-0.00038796,0.00018442,-0.00010357,0.00000039,-0.00038295,
 0.00029415,-0.03774806,-0.00373630,0.00319911,0.02180765,0.00344185,-0
 .00173117,0.00013107,0.00014137,0.00000505,0.00004813,-0.00003035,-0.0
 0002423,-0.00233281,-0.00697044,0.00025938,0.00024115,0.00261207,-0.00
 068546,0.00029226,-0.00017474,0.00012784,-0.00009616,0.00013098,0.0000
 0403,0.00083037,0.00001171,-0.00004810,-0.00005509,0.00004160,0.000049
 92,0.00193654,-0.00025272,0.00126932,-0.00016876,-0.00018431,-0.000320
 12,-0.00052755,0.00217148,0.00038243,-0.00045026,-0.00138586,-0.000820
 61,-0.10365491,0.52933634,0.00135517,0.00234156,-0.00259072,-0.0221008
 4,-0.00060992,-0.00206625,-0.00004660,0.00032325,-0.00164398,0.0316385
 1,-0.00367937,-0.06782889,0.00046281,-0.00081438,0.00099697,-0.0000592
 3,-0.00026417,0.00001756,-0.00024781,0.00018615,0.00000697,-0.00003455
 ,-0.00024423,0.00074122,0.01140072,-0.00248808,-0.00300015,0.03000018,
 0.00146106,0.00238780,0.00007274,-0.00000583,-0.00010290,-0.00006695,0
 .00010413,0.00006698,0.00048871,0.00223853,0.00170956,-0.00019818,-0.0
 0194644,0.00072444,0.00012339,-0.00011503,0.00045693,0.00014218,-0.000
 28210,-0.00024796,-0.00005385,-0.00014559,0.00062427,0.00011241,0.0000
 1419,-0.00004188,-0.00227884,0.00057023,-0.00017915,0.00063315,-0.0002
 0949,0.00048167,-0.00887462,0.00232104,0.00313542,0.00115911,-0.001341
 63,0.00525574,-0.07771645,0.16030395,0.11325335,0.00026860,0.00050828,
 -0.00063378,-0.00426655,0.00074581,0.00199963,-0.00004435,-0.00006456,
 0.00015667,-0.02185555,0.04077512,0.01644541,0.00006298,-0.00027240,0.
 00021257,-0.00020239,-0.00013418,-0.00005728,0.00000154,0.00004413,-0.
 00004425,-0.00002206,0.00009670,-0.00006654,-0.00323460,0.00109503,0.0
 0443409,-0.00490209,-0.00036473,-0.00035969,-0.00000186,0.00001510,0.0
 0001864,0.00001963,-0.00001788,-0.00001330,0.00077839,0.00074499,-0.00
 010331,-0.00009371,-0.00055959,-0.00002695,0.00003762,-0.00010135,0.00
 000883,-0.00003109,0.00007383,0.00000780,0.00007311,-0.00004531,-0.000
 06891,-0.00004402,0.00001746,-0.00000385,-0.00013523,-0.00017900,-0.00
 012605,-0.00012944,0.00011504,-0.00006798,0.00111215,-0.00130320,0.000
 09388,0.00034764,0.00069103,-0.00117362,-0.07365944,0.08446229,0.03906
 561,0.10237737,0.00038756,0.00069082,-0.00013694,-0.00007588,-0.000986
 73,-0.00022547,0.00014322,-0.00010467,-0.00007233,0.00117356,0.0027451
 0,0.00053228,-0.00003346,0.00006884,0.00002100,-0.00009945,-0.00013484
 ,-0.00006418,0.00011982,-0.00003983,0.00003565,0.00006592,0.00006992,-
 0.00003855,-0.00762195,0.00200623,0.00342431,-0.00213838,0.00010156,0.
 00169867,-0.00005250,-0.00004897,-0.00000453,-0.00001772,0.00000520,0.
 00000932,0.00059813,-0.00111930,-0.00088787,0.00012108,0.00002831,0.00
 009322,-0.00010107,0.00004733,-0.00002577,0.00004593,-0.00004468,-0.00
 000713,-0.00029543,-0.00001541,0.00002191,0.00002459,-0.00000607,-0.00
 000803,-0.00051444,-0.00000471,-0.00013606,0.00021064,-0.00000542,0.00
 011085,-0.00112499,-0.00028086,-0.00071640,0.00083917,-0.00069579,0.00
 180071,0.13226907,-0.43208642,-0.15593419,-0.12859131,0.42876887,0.000
 22983,-0.00013739,-0.00085729,-0.00429626,0.00136082,0.00202783,0.0000
 9191,0.00002425,-0.00008518,0.00528563,-0.00548889,-0.00599198,0.00012
 886,-0.00034597,0.00000875,-0.00012915,-0.00001536,0.00006905,0.000001
 66,0.00001729,0.00001301,-0.00001135,-0.00005901,0.00006841,-0.0005275
 1,-0.00032231,0.00409215,0.00442917,-0.00028307,-0.00081632,0.00000988
 ,0.00000486,-0.00000360,0.00000337,-0.00000188,-0.00000584,-0.00018084
 ,-0.00080963,-0.00100976,0.00042768,0.00061663,-0.00103984,0.00001199,
 -0.00001901,-0.00001608,-0.00000769,0.00001414,0.00001156,0.00008890,-
 0.00002922,0.00000932,0.00000837,0.00001420,0.00001391,-0.00031964,0.0
 0017594,-0.00045380,-0.00022465,0.00012980,0.00004390,0.00131152,-0.00
 150609,-0.00067797,-0.00095050,0.00215818,-0.00143086,0.05207700,-0.14
 676360,-0.05572344,-0.05778483,0.15010627,0.06499987,-0.00077607,-0.00
 149263,0.00064232,-0.00049095,-0.00005397,0.00094360,0.00038622,0.0000
 6446,0.00056330,-0.00404583,-0.00237912,0.00061652,0.00003076,0.000242
 55,-0.00022800,0.00053081,0.00021941,0.00035541,-0.00035040,-0.0003665
 1,-0.00011858,-0.00003562,-0.00023869,-0.00045620,-0.09638591,0.049291
 68,0.02692244,0.00063215,-0.00124712,-0.00026990,0.00010987,0.00008187
 ,-0.00000778,0.00000896,0.00003795,0.00001008,-0.00861511,0.02591925,0
 .03356079,0.00727929,-0.00656221,-0.00547769,0.00004185,0.00043729,-0.
 00012896,-0.00004712,-0.00011719,0.00005375,-0.00004274,0.00029256,-0.
 00010626,0.00004459,-0.00008459,0.00000587,0.00049942,0.00067390,-0.00
 049446,-0.00035049,-0.00004306,0.00001617,0.00344747,-0.00089040,-0.00
 053829,-0.00040968,0.00168038,-0.00069547,0.00543518,-0.00760009,-0.00
 612828,0.00473076,0.00482119,0.00260643,0.15795782,-0.00120192,-0.0004
 9460,-0.00036900,-0.00056038,0.00310569,-0.00055406,-0.00080820,0.0002
 6683,-0.00017453,0.01379950,-0.03048452,-0.04071867,-0.00001108,0.0001
 7709,0.00014363,0.00027986,0.00014753,-0.00010899,-0.00042092,0.000297
 80,-0.00008847,-0.00018924,-0.00008977,0.00038853,0.04578909,-0.128207
 01,-0.04024866,-0.00311445,-0.00789994,0.00154422,0.00015130,0.0001916
 8,0.00000624,0.00005139,-0.00000726,-0.00002360,0.00661627,-0.00207014
 ,-0.00712052,-0.00422931,0.00780414,0.00363791,0.00041213,-0.00036587,
 0.00026966,-0.00012249,0.00014124,-0.00006368,0.00095473,-0.00001222,0
 .00005332,-0.00010965,0.00002288,-0.00000730,0.00101570,-0.00012735,0.
 00062031,-0.00054091,-0.00007578,-0.00035288,0.00128861,-0.00613758,0.
 00589747,0.00058735,-0.00002967,-0.00081517,0.00262100,-0.00069381,-0.
 00301540,0.00269959,-0.00004317,0.00219304,-0.14415000,0.27904283,-0.0
 0060948,0.00026165,-0.00028945,0.00066584,-0.00241047,-0.00653897,-0.0
 0051677,0.00047645,-0.00112144,0.00343439,-0.01437063,-0.00781986,0.00
 029976,-0.00033848,0.00153820,0.00024663,0.00000861,-0.00040937,-0.000
 14053,0.00035286,0.00006327,-0.00000451,0.00004745,0.00061016,0.051255
 22,-0.07677362,-0.17610752,-0.00028074,-0.00097420,0.00172963,0.000025
 20,0.00002271,-0.00002935,-0.00001587,0.00006316,0.00002916,0.01095402
 ,-0.01004930,-0.00896495,0.01668727,-0.02569033,-0.03433235,0.00018095
 ,-0.00038542,0.00039941,0.00004140,-0.00004221,-0.00017995,0.00033821,
 -0.00020217,0.00041487,-0.00002185,0.00002286,-0.00005789,-0.00000257,
 -0.00022417,0.00114701,0.00046262,-0.00038438,-0.00008586,-0.00217268,
 0.00895796,0.00311821,-0.00056389,-0.00102308,-0.00015659,0.00034953,-
 0.00063534,0.00371324,-0.00057343,0.00173806,-0.00283780,0.06265064,-0
 .06685047,0.61577303,0.00089198,0.00164881,-0.00021516,0.00088347,0.00
 046138,-0.00038799,-0.00018924,-0.00032594,0.00022570,0.00178614,0.000
 52620,-0.00084321,-0.00021223,0.00005762,0.00004192,-0.00077732,-0.000
 51178,0.00003231,0.00020863,0.00009677,-0.00012570,0.00002453,0.000037
 28,-0.00004593,0.00371231,-0.00534584,0.01784066,-0.00012006,0.0001978
 1,0.00015087,-0.00005947,-0.00003969,0.00001011,-0.00000716,-0.0000763
 3,-0.00001777,0.00012502,-0.00043454,0.00144470,-0.00021568,0.00144049
 ,0.00212813,-0.00005602,-0.00011291,-0.00002694,0.00000733,0.00010378,
 0.00002907,-0.00005717,-0.00010707,-0.00009286,-0.00003251,0.00005277,
 0.00001979,-0.00038681,-0.00069746,0.00023150,0.00035115,0.00019502,-0
 .00000876,-0.00371233,0.00242342,-0.00009385,0.00002610,-0.00294921,0.
 00045882,-0.00107434,0.00005237,0.00115151,-0.00118742,-0.00015332,-0.
 00227978,-0.06958525,0.07919202,-0.14268937,0.06965634,0.00053606,0.00
 021326,0.00037890,0.00217278,-0.00433216,-0.00483896,0.00031608,0.0001
 0275,-0.00069211,-0.00101882,0.00076426,-0.00264325,-0.00008784,0.0004
 4480,0.00072234,0.00015073,0.00013569,-0.00011203,0.00011130,-0.000048
 94,0.00015856,0.00002883,0.00003971,0.00010282,-0.00730396,0.00827337,
 -0.02720654,0.00021869,-0.00017583,0.00070473,-0.00008572,-0.00009721,
 -0.00005243,-0.00006496,0.00006595,0.00004536,0.00089634,-0.00022859,0
 .00004011,0.00167936,-0.00222461,-0.00442790,-0.00017264,0.00011945,0.
 00004637,0.00014122,-0.00019340,-0.00007092,-0.00060454,-0.00005914,0.
 00026243,0.00010409,-0.00001570,-0.00001799,-0.00083119,0.00016310,0.0
 0008942,0.00081180,-0.00021918,0.00033171,-0.00104099,0.00374395,0.001
 79071,-0.00127570,-0.00088961,0.00075569,0.00003858,-0.00132843,0.0012
 3176,-0.00045090,0.00108469,-0.00103400,0.08146308,-0.11445899,0.18840
 252,-0.07573167,0.10912082,0.00016703,-0.00051490,0.00015007,-0.001131
 17,-0.00163169,0.00325892,0.00019962,-0.00004296,0.00027629,-0.0007543
 6,-0.00085020,0.00177567,0.00010041,-0.00007159,-0.00083094,0.00023941
 ,-0.00004768,0.00022169,0.00001470,-0.00012913,0.00001772,0.00003161,-
 0.00001591,-0.00019447,-0.01001183,0.01122346,-0.03391633,0.00037071,0
 .00100581,0.00003643,0.00000553,-0.00000083,0.00001313,0.00001204,-0.0
 0000254,-0.00000896,-0.00030750,0.00137911,0.00126488,0.00305299,-0.00
 378474,-0.00189174,-0.00005195,0.00012601,-0.00014346,-0.00002154,0.00
 001752,0.00006649,-0.00008930,0.00007756,-0.00012194,0.00000799,-0.000
 00996,0.00002643,-0.00009638,0.00029317,-0.00062072,-0.00023103,0.0002
 5634,0.00010256,0.00073285,0.00063823,-0.00520935,0.00048575,0.0004444
 8,0.00047309,-0.00015099,0.00118550,-0.00014678,-0.00133935,-0.0013348
 2,-0.00040799,-0.11429745,0.14575708,-0.38960485,0.12306221,-0.1539673
 2,0.42541415\\-0.00005742,0.00002067,0.00001245,0.00000245,-0.00000982
 ,0.00002189,0.00002433,0.00001372,-0.00007536,0.00000296,-0.00001293,-
 0.00006610,-0.00000297,0.00000205,-0.00000998,0.00000351,0.00000328,-0
 .00000589,0.00000551,-0.00001368,0.00002853,0.00001478,0.00000383,0.00
 004442,0.00001481,0.00001086,0.00003079,0.00001403,0.00001208,0.000023
 93,-0.00000904,-0.00000675,-0.00000407,-0.00000946,0.00000373,-0.00000
 577,0.00000334,-0.00001239,-0.00000578,-0.00000027,-0.00000438,-0.0000
 0868,0.00000639,-0.00000283,-0.00000790,-0.00000701,0.00000481,0.00000
 672,0.00000189,-0.00002286,-0.00000270,-0.00000612,0.00001420,-0.00000
 301,-0.00001224,0.00001298,0.00002962,0.00001664,-0.00001627,-0.000022
 55,-0.00000083,-0.00001655,-0.00000019,0.00001012,0.00001168,-0.000006
 01,-0.00000579,0.00002777,0.00004544,-0.00000305,-0.00002214,-0.000012
 39,0.00000250,0.00000166,-0.00000440,-0.00000906,-0.00000273,-0.000003
 01\\\@
 The archive entry for this job was punched.


 VIRTUE IS LEARNED AT YOUR MOTHER'S KNEE,
 VICES ARE PICKED UP AT SOME OTHER JOINT.
 Job cpu time:       0 days 10 hours 47 minutes 35.7 seconds.
 Elapsed time:       0 days  0 hours 40 minutes 39.8 seconds.
 File lengths (MBytes):  RWF=    704 Int=      0 D2E=      0 Chk=     27 Scr=      1
 Normal termination of Gaussian 16 at Wed Oct 11 15:27:36 2023.
