 Entering Gaussian System, Link 0=/opt/software/gaussian/g16.c01/g16
 Initial command:
 /opt/software/gaussian/g16.c01/l1.exe "/scratch/arhender/14836907/Gau-13479.inp" -scrdir="/scratch/arhender/14836907/"
 Entering Link 1 = /opt/software/gaussian/g16.c01/l1.exe PID=     13833.
  
 Copyright (c) 1988-2019, Gaussian, Inc.  All Rights Reserved.
  
 This is part of the Gaussian(R) 16 program.  It is based on
 the Gaussian(R) 09 system (copyright 2009, Gaussian, Inc.),
 the Gaussian(R) 03 system (copyright 2003, Gaussian, Inc.),
 the Gaussian(R) 98 system (copyright 1998, Gaussian, Inc.),
 the Gaussian(R) 94 system (copyright 1995, Gaussian, Inc.),
 the Gaussian 92(TM) system (copyright 1992, Gaussian, Inc.),
 the Gaussian 90(TM) system (copyright 1990, Gaussian, Inc.),
 the Gaussian 88(TM) system (copyright 1988, Gaussian, Inc.),
 the Gaussian 86(TM) system (copyright 1986, Carnegie Mellon
 University), and the Gaussian 82(TM) system (copyright 1983,
 Carnegie Mellon University). Gaussian is a federally registered
 trademark of Gaussian, Inc.
  
 This software contains proprietary and confidential information,
 including trade secrets, belonging to Gaussian, Inc.
  
 This software is provided under written license and may be
 used, copied, transmitted, or stored only in accord with that
 written license.
  
 The following legend is applicable only to US Government
 contracts under FAR:
  
                    RESTRICTED RIGHTS LEGEND
  
 Use, reproduction and disclosure by the US Government is
 subject to restrictions as set forth in subparagraphs (a)
 and (c) of the Commercial Computer Software - Restricted
 Rights clause in FAR 52.227-19.
  
 Gaussian, Inc.
 340 Quinnipiac St., Bldg. 40, Wallingford CT 06492
  
  
 ---------------------------------------------------------------
 Warning -- This program may not be used in any manner that
 competes with the business of Gaussian, Inc. or will provide
 assistance to any competitor of Gaussian, Inc.  The licensee
 of this program is prohibited from giving any competitor of
 Gaussian, Inc. access to this program.  By using this program,
 the user acknowledges that Gaussian, Inc. is engaged in the
 business of creating and licensing software in the field of
 computational chemistry and represents and warrants to the
 licensee that it is not a competitor of Gaussian, Inc. and that
 it will not use this program in any manner prohibited above.
 ---------------------------------------------------------------
  

 Cite this work as:
 Gaussian 16, Revision C.01,
 M. J. Frisch, G. W. Trucks, H. B. Schlegel, G. E. Scuseria, 
 M. A. Robb, J. R. Cheeseman, G. Scalmani, V. Barone, 
 G. A. Petersson, H. Nakatsuji, X. Li, M. Caricato, A. V. Marenich, 
 J. Bloino, B. G. Janesko, R. Gomperts, B. Mennucci, H. P. Hratchian, 
 J. V. Ortiz, A. F. Izmaylov, J. L. Sonnenberg, D. Williams-Young, 
 F. Ding, F. Lipparini, F. Egidi, J. Goings, B. Peng, A. Petrone, 
 T. Henderson, D. Ranasinghe, V. G. Zakrzewski, J. Gao, N. Rega, 
 G. Zheng, W. Liang, M. Hada, M. Ehara, K. Toyota, R. Fukuda, 
 J. Hasegawa, M. Ishida, T. Nakajima, Y. Honda, O. Kitao, H. Nakai, 
 T. Vreven, K. Throssell, J. A. Montgomery, Jr., J. E. Peralta, 
 F. Ogliaro, M. J. Bearpark, J. J. Heyd, E. N. Brothers, K. N. Kudin, 
 V. N. Staroverov, T. A. Keith, R. Kobayashi, J. Normand, 
 K. Raghavachari, A. P. Rendell, J. C. Burant, S. S. Iyengar, 
 J. Tomasi, M. Cossi, J. M. Millam, M. Klene, C. Adamo, R. Cammi, 
 J. W. Ochterski, R. L. Martin, K. Morokuma, O. Farkas, 
 J. B. Foresman, and D. J. Fox, Gaussian, Inc., Wallingford CT, 2019.
 
 ******************************************
 Gaussian 16:  ES64L-G16RevC.01  3-Jul-2019
                11-Oct-2023 
 ******************************************
 %chk=MannitolConformerOpt_44.chk
 %mem=8GB
 %nprocs=16
 Will use up to   16 processors via shared memory.
 ---------------------------------------------
 # opt freq wb97xd/Def2TZVPP geom=connectivity
 ---------------------------------------------
 1/18=20,19=15,26=3,38=1,57=2/1,3;
 2/9=110,12=2,17=6,18=5,40=1/2;
 3/5=44,7=202,11=2,25=1,30=1,71=1,74=-58/1,2,3;
 4//1;
 5/5=2,38=5/2;
 6/7=2,8=2,9=2,10=2,28=1/1;
 7//1,2,3,16;
 1/18=20,19=15,26=3/3(2);
 2/9=110/2;
 99//99;
 2/9=110/2;
 3/5=44,7=202,11=2,25=1,30=1,71=1,74=-58/1,2,3;
 4/5=5,16=3,69=1/1;
 5/5=2,38=5/2;
 7//1,2,3,16;
 1/18=20,19=15,26=3/3(-5);
 2/9=110/2;
 6/7=2,8=2,9=2,10=2,19=2,28=1/1;
 99/9=1/99;
 -------------------
 Title Card Required
 -------------------
 Symbolic Z-matrix:
 Charge =  0 Multiplicity = 1
 C                     0.        0.        0. 
 C                     1.5485    0.        0. 
 C                    -0.6128    0.9685   -1.0297 
 C                     2.1957   -0.7885    1.168 
 H                     1.9486    1.0189    0. 
 H                    -0.4094    0.2284    0.9866 
 C                    -0.4725    2.4393   -0.6302 
 H                    -1.6721    0.7271   -1.1802 
 C                     2.3381    0.0669    2.4308 
 H                     3.1916   -1.1308    0.8637 
 H                     0.5758    2.7386   -0.5471 
 H                    -0.9921    2.6457    0.3101 
 H                     2.9011    0.9835    2.2312 
 H                     2.8551   -0.493     3.2173 
 O                    -1.0541    3.2337   -1.6679 
 H                    -1.016     4.1606   -1.3696 
 O                     0.0145    0.7791   -2.3155 
 H                    -0.3633    1.4974   -2.8688 
 O                    -0.4358   -1.3355   -0.3421 
 H                    -0.092    -1.4909   -1.2464 
 O                     1.9932   -0.6133   -1.2317 
 H                     1.5391   -0.1258   -1.9556 
 O                     1.4494   -1.9601    1.5298 
 H                     0.9324   -2.2232    0.7392 
 O                     1.055     0.4252    2.94 
 H                     0.6067   -0.4329    3.0917 
 

 GradGradGradGradGradGradGradGradGradGradGradGradGradGradGradGradGradGrad
 Berny optimization.
 Initialization pass.
                           ----------------------------
                           !    Initial Parameters    !
                           ! (Angstroms and Degrees)  !
 --------------------------                            --------------------------
 ! Name  Definition              Value          Derivative Info.                !
 --------------------------------------------------------------------------------
 ! R1    R(1,2)                  1.5485         estimate D2E/DX2                !
 ! R2    R(1,3)                  1.5407         estimate D2E/DX2                !
 ! R3    R(1,6)                  1.0923         estimate D2E/DX2                !
 ! R4    R(1,19)                 1.4459         estimate D2E/DX2                !
 ! R5    R(2,4)                  1.5507         estimate D2E/DX2                !
 ! R6    R(2,5)                  1.0946         estimate D2E/DX2                !
 ! R7    R(2,21)                 1.446          estimate D2E/DX2                !
 ! R8    R(3,7)                  1.5305         estimate D2E/DX2                !
 ! R9    R(3,8)                  1.0968         estimate D2E/DX2                !
 ! R10   R(3,17)                 1.4431         estimate D2E/DX2                !
 ! R11   R(4,9)                  1.5319         estimate D2E/DX2                !
 ! R12   R(4,10)                 1.0962         estimate D2E/DX2                !
 ! R13   R(4,23)                 1.4354         estimate D2E/DX2                !
 ! R14   R(7,11)                 1.0934         estimate D2E/DX2                !
 ! R15   R(7,12)                 1.094          estimate D2E/DX2                !
 ! R16   R(7,15)                 1.4304         estimate D2E/DX2                !
 ! R17   R(9,13)                 1.0941         estimate D2E/DX2                !
 ! R18   R(9,14)                 1.0952         estimate D2E/DX2                !
 ! R19   R(9,25)                 1.4262         estimate D2E/DX2                !
 ! R20   R(15,16)                0.9745         estimate D2E/DX2                !
 ! R21   R(17,18)                0.9823         estimate D2E/DX2                !
 ! R22   R(19,20)                0.9799         estimate D2E/DX2                !
 ! R23   R(21,22)                0.9838         estimate D2E/DX2                !
 ! R24   R(23,24)                0.9806         estimate D2E/DX2                !
 ! R25   R(25,26)                0.98           estimate D2E/DX2                !
 ! A1    A(2,1,3)              113.4368         estimate D2E/DX2                !
 ! A2    A(2,1,6)              112.0119         estimate D2E/DX2                !
 ! A3    A(2,1,19)             107.5424         estimate D2E/DX2                !
 ! A4    A(3,1,6)              108.8525         estimate D2E/DX2                !
 ! A5    A(3,1,19)             107.6145         estimate D2E/DX2                !
 ! A6    A(6,1,19)             107.0901         estimate D2E/DX2                !
 ! A7    A(1,2,4)              114.6672         estimate D2E/DX2                !
 ! A8    A(1,2,5)              111.4389         estimate D2E/DX2                !
 ! A9    A(1,2,21)             107.9106         estimate D2E/DX2                !
 ! A10   A(4,2,5)              108.7076         estimate D2E/DX2                !
 ! A11   A(4,2,21)             107.3104         estimate D2E/DX2                !
 ! A12   A(5,2,21)             106.4021         estimate D2E/DX2                !
 ! A13   A(1,3,7)              113.1516         estimate D2E/DX2                !
 ! A14   A(1,3,8)              109.7236         estimate D2E/DX2                !
 ! A15   A(1,3,17)             109.8814         estimate D2E/DX2                !
 ! A16   A(7,3,8)              109.6239         estimate D2E/DX2                !
 ! A17   A(7,3,17)             108.5925         estimate D2E/DX2                !
 ! A18   A(8,3,17)             105.5848         estimate D2E/DX2                !
 ! A19   A(2,4,9)              112.071          estimate D2E/DX2                !
 ! A20   A(2,4,10)             109.1998         estimate D2E/DX2                !
 ! A21   A(2,4,23)             112.8214         estimate D2E/DX2                !
 ! A22   A(9,4,10)             108.5878         estimate D2E/DX2                !
 ! A23   A(9,4,23)             107.2365         estimate D2E/DX2                !
 ! A24   A(10,4,23)            106.7052         estimate D2E/DX2                !
 ! A25   A(3,7,11)             111.7644         estimate D2E/DX2                !
 ! A26   A(3,7,12)             111.2308         estimate D2E/DX2                !
 ! A27   A(3,7,15)             107.8818         estimate D2E/DX2                !
 ! A28   A(11,7,12)            109.7808         estimate D2E/DX2                !
 ! A29   A(11,7,15)            107.0344         estimate D2E/DX2                !
 ! A30   A(12,7,15)            109.0048         estimate D2E/DX2                !
 ! A31   A(4,9,13)             111.4241         estimate D2E/DX2                !
 ! A32   A(4,9,14)             110.5129         estimate D2E/DX2                !
 ! A33   A(4,9,25)             110.5471         estimate D2E/DX2                !
 ! A34   A(13,9,14)            108.4464         estimate D2E/DX2                !
 ! A35   A(13,9,25)            108.5195         estimate D2E/DX2                !
 ! A36   A(14,9,25)            107.2624         estimate D2E/DX2                !
 ! A37   A(7,15,16)            106.8748         estimate D2E/DX2                !
 ! A38   A(3,17,18)            103.811          estimate D2E/DX2                !
 ! A39   A(1,19,20)            105.0165         estimate D2E/DX2                !
 ! A40   A(2,21,22)            105.9404         estimate D2E/DX2                !
 ! A41   A(4,23,24)            106.8514         estimate D2E/DX2                !
 ! A42   A(9,25,26)            104.2913         estimate D2E/DX2                !
 ! D1    D(3,1,2,4)            170.777          estimate D2E/DX2                !
 ! D2    D(3,1,2,5)             46.7543         estimate D2E/DX2                !
 ! D3    D(3,1,2,21)           -69.7158         estimate D2E/DX2                !
 ! D4    D(6,1,2,4)             47.0572         estimate D2E/DX2                !
 ! D5    D(6,1,2,5)            -76.9655         estimate D2E/DX2                !
 ! D6    D(6,1,2,21)           166.5644         estimate D2E/DX2                !
 ! D7    D(19,1,2,4)           -70.3452         estimate D2E/DX2                !
 ! D8    D(19,1,2,5)           165.6321         estimate D2E/DX2                !
 ! D9    D(19,1,2,21)           49.1621         estimate D2E/DX2                !
 ! D10   D(2,1,3,7)            -72.9008         estimate D2E/DX2                !
 ! D11   D(2,1,3,8)            164.3252         estimate D2E/DX2                !
 ! D12   D(2,1,3,17)            48.6578         estimate D2E/DX2                !
 ! D13   D(6,1,3,7)             52.5271         estimate D2E/DX2                !
 ! D14   D(6,1,3,8)            -70.2469         estimate D2E/DX2                !
 ! D15   D(6,1,3,17)           174.0857         estimate D2E/DX2                !
 ! D16   D(19,1,3,7)           168.2627         estimate D2E/DX2                !
 ! D17   D(19,1,3,8)            45.4888         estimate D2E/DX2                !
 ! D18   D(19,1,3,17)          -70.1787         estimate D2E/DX2                !
 ! D19   D(2,1,19,20)          -62.2384         estimate D2E/DX2                !
 ! D20   D(3,1,19,20)           60.3107         estimate D2E/DX2                !
 ! D21   D(6,1,19,20)          177.2024         estimate D2E/DX2                !
 ! D22   D(1,2,4,9)            -85.651          estimate D2E/DX2                !
 ! D23   D(1,2,4,10)           153.9898         estimate D2E/DX2                !
 ! D24   D(1,2,4,23)            35.5154         estimate D2E/DX2                !
 ! D25   D(5,2,4,9)             39.8111         estimate D2E/DX2                !
 ! D26   D(5,2,4,10)           -80.5482         estimate D2E/DX2                !
 ! D27   D(5,2,4,23)           160.9775         estimate D2E/DX2                !
 ! D28   D(21,2,4,9)           154.5075         estimate D2E/DX2                !
 ! D29   D(21,2,4,10)           34.1482         estimate D2E/DX2                !
 ! D30   D(21,2,4,23)          -84.3261         estimate D2E/DX2                !
 ! D31   D(1,2,21,22)           53.3598         estimate D2E/DX2                !
 ! D32   D(4,2,21,22)          177.4253         estimate D2E/DX2                !
 ! D33   D(5,2,21,22)          -66.3465         estimate D2E/DX2                !
 ! D34   D(1,3,7,11)            61.6228         estimate D2E/DX2                !
 ! D35   D(1,3,7,12)           -61.4728         estimate D2E/DX2                !
 ! D36   D(1,3,7,15)           179.0265         estimate D2E/DX2                !
 ! D37   D(8,3,7,11)          -175.548          estimate D2E/DX2                !
 ! D38   D(8,3,7,12)            61.3564         estimate D2E/DX2                !
 ! D39   D(8,3,7,15)           -58.1443         estimate D2E/DX2                !
 ! D40   D(17,3,7,11)          -60.6579         estimate D2E/DX2                !
 ! D41   D(17,3,7,12)          176.2465         estimate D2E/DX2                !
 ! D42   D(17,3,7,15)           56.7458         estimate D2E/DX2                !
 ! D43   D(1,3,17,18)         -173.8445         estimate D2E/DX2                !
 ! D44   D(7,3,17,18)          -49.5981         estimate D2E/DX2                !
 ! D45   D(8,3,17,18)           67.898          estimate D2E/DX2                !
 ! D46   D(2,4,9,13)           -55.7208         estimate D2E/DX2                !
 ! D47   D(2,4,9,14)          -176.366          estimate D2E/DX2                !
 ! D48   D(2,4,9,25)            65.0401         estimate D2E/DX2                !
 ! D49   D(10,4,9,13)           64.9934         estimate D2E/DX2                !
 ! D50   D(10,4,9,14)          -55.6517         estimate D2E/DX2                !
 ! D51   D(10,4,9,25)         -174.2457         estimate D2E/DX2                !
 ! D52   D(23,4,9,13)          179.9458         estimate D2E/DX2                !
 ! D53   D(23,4,9,14)           59.3007         estimate D2E/DX2                !
 ! D54   D(23,4,9,25)          -59.2933         estimate D2E/DX2                !
 ! D55   D(2,4,23,24)           24.4072         estimate D2E/DX2                !
 ! D56   D(9,4,23,24)          148.2827         estimate D2E/DX2                !
 ! D57   D(10,4,23,24)         -95.5137         estimate D2E/DX2                !
 ! D58   D(3,7,15,16)          175.9342         estimate D2E/DX2                !
 ! D59   D(11,7,15,16)         -63.6453         estimate D2E/DX2                !
 ! D60   D(12,7,15,16)          55.0324         estimate D2E/DX2                !
 ! D61   D(4,9,25,26)           57.2777         estimate D2E/DX2                !
 ! D62   D(13,9,25,26)         179.7533         estimate D2E/DX2                !
 ! D63   D(14,9,25,26)         -63.2763         estimate D2E/DX2                !
 --------------------------------------------------------------------------------
 Trust Radius=3.00D-01 FncErr=1.00D-07 GrdErr=1.00D-06 EigMax=2.50D+02 EigMin=1.00D-04
 Number of steps in this run=    140 maximum allowed number of steps=    156.
 GradGradGradGradGradGradGradGradGradGradGradGradGradGradGradGradGradGrad

                          Input orientation:                          
 ---------------------------------------------------------------------
 Center     Atomic      Atomic             Coordinates (Angstroms)
 Number     Number       Type             X           Y           Z
 ---------------------------------------------------------------------
      1          6           0        0.000000    0.000000    0.000000
      2          6           0        1.548500    0.000000    0.000000
      3          6           0       -0.612800    0.968500   -1.029700
      4          6           0        2.195700   -0.788500    1.168000
      5          1           0        1.948600    1.018900    0.000000
      6          1           0       -0.409400    0.228400    0.986600
      7          6           0       -0.472500    2.439300   -0.630200
      8          1           0       -1.672100    0.727100   -1.180200
      9          6           0        2.338100    0.066900    2.430800
     10          1           0        3.191600   -1.130800    0.863700
     11          1           0        0.575800    2.738600   -0.547100
     12          1           0       -0.992100    2.645700    0.310100
     13          1           0        2.901100    0.983500    2.231200
     14          1           0        2.855100   -0.493000    3.217300
     15          8           0       -1.054100    3.233700   -1.667900
     16          1           0       -1.016000    4.160600   -1.369600
     17          8           0        0.014500    0.779100   -2.315500
     18          1           0       -0.363300    1.497400   -2.868800
     19          8           0       -0.435800   -1.335500   -0.342100
     20          1           0       -0.092000   -1.490900   -1.246400
     21          8           0        1.993200   -0.613300   -1.231700
     22          1           0        1.539100   -0.125800   -1.955600
     23          8           0        1.449400   -1.960100    1.529800
     24          1           0        0.932400   -2.223200    0.739200
     25          8           0        1.055000    0.425200    2.940000
     26          1           0        0.606700   -0.432900    3.091700
 ---------------------------------------------------------------------
                    Distance matrix (angstroms):
                    1          2          3          4          5
     1  C    0.000000
     2  C    1.548500   0.000000
     3  C    1.540714   2.582536   0.000000
     4  C    2.609033   1.550750   3.975501   0.000000
     5  H    2.198909   1.094640   2.761085   2.166097   0.000000
     6  H    1.092316   2.204295   2.157449   2.802416   2.675525
     7  C    2.563317   3.229826   1.530535   4.557577   2.876876
     8  H    2.171973   3.506253   1.096832   4.771893   3.819357
     9  C    3.373422   2.556703   4.636351   1.531878   2.639470
    10  H    3.494424   2.173583   4.739777   1.096168   2.629113
    11  H    2.851455   2.957261   2.186076   4.243357   2.267436
    12  H    2.842561   3.681106   2.179893   4.763590   3.374960
    13  H    3.789711   2.788378   4.793870   2.183568   2.426265
    14  H    4.329626   3.507317   5.674445   2.172961   3.668597
    15  O    3.788117   4.473503   2.394405   5.897595   4.086984
    16  H    4.496516   5.075732   3.235368   6.422462   4.531549
    17  O    2.443102   2.884734   1.443142   4.398838   3.026514
    18  H    3.256410   3.758617   1.929838   5.298073   3.715354
    19  O    1.445861   2.416203   2.410921   3.082921   3.368322
    20  H    1.945446   2.543135   2.523260   3.399451   3.466505
    21  O    2.421997   1.446022   3.055181   2.414593   2.045275
    22  H    2.491792   1.959665   2.585625   3.259934   2.302694
    23  O    2.878027   2.488393   4.402318   1.435447   3.385843
    24  H    2.521588   2.422522   3.962777   1.959122   3.477110
    25  O    3.152367   3.011302   4.339960   2.431923   3.129633
    26  H    3.180267   3.260828   4.520734   2.520316   3.669745
                    6          7          8          9         10
     6  H    0.000000
     7  C    2.739727   0.000000
     8  H    2.556978   2.161751   0.000000
     9  C    3.108143   4.785131   5.436625   0.000000
    10  H    3.850939   5.329445   5.593290   2.149128   0.000000
    11  H    3.102251   1.093352   3.082207   4.371678   4.879039
    12  H    2.576923   1.093960   2.522780   4.715698   5.663194
    13  H    3.616437   4.657053   5.711178   1.094059   2.534701
    14  H    4.019129   5.871504   6.428234   1.095153   2.461596
    15  O    4.061260   1.430437   2.627322   6.191525   6.594227
    16  H    4.624050   1.950635   3.500752   6.515474   7.119722
    17  O    3.374437   2.415299   2.033772   5.332327   4.883543
    18  H    4.059137   2.431138   2.271055   6.117978   5.785871
    19  O    2.052297   3.785956   2.546599   4.165360   3.828040
    20  H    2.836023   3.996368   2.724082   4.674818   3.919722
    21  O    3.376655   3.969867   3.903043   3.741061   2.468739
    22  H    3.546639   3.518943   3.411816   4.462739   3.418952
    23  O    2.922283   5.264411   4.930406   2.389627   2.041247
    24  H    2.805704   5.058449   4.378560   3.175226   2.512533
    25  O    2.449279   4.374492   4.950178   1.426187   3.361133
    26  H    2.429243   4.823561   4.978721   1.919462   3.483211
                   11         12         13         14         15
    11  H    0.000000
    12  H    1.789339   0.000000
    13  H    4.025711   4.648714   0.000000
    14  H    5.459776   5.753625   1.776109   0.000000
    15  O    2.039091   2.064479   5.992494   7.282535   0.000000
    16  H    2.287448   2.262053   6.197047   7.594805   0.974463
    17  O    2.698506   3.375087   5.389501   6.348159   2.754333
    18  H    2.795135   3.437934   6.077039   7.166617   2.221284
    19  O    4.202815   4.072443   4.809837   4.920280   4.797669
    20  H    4.338623   4.510469   5.212965   5.441123   4.839953
    21  O    3.703098   4.680838   3.919914   4.533315   4.927039
    22  H    3.334158   4.384242   4.540362   5.350288   4.253669
    23  O    5.210995   5.353689   3.356215   2.641218   6.593054
    24  H    5.138209   5.253001   4.047810   3.582087   6.286340
    25  O    4.212044   4.004699   2.054795   2.039693   5.793852
    26  H    4.827031   4.446486   2.830357   2.252707   6.233458
                   16         17         18         19         20
    16  H    0.000000
    17  O    3.659399   0.000000
    18  H    3.125100   0.982257   0.000000
    19  O    5.621344   2.927219   3.796682   0.000000
    20  H    5.727862   2.511417   3.411117   0.979850   0.000000
    21  O    5.644858   2.651161   3.562056   2.685703   2.262401
    22  H    5.024456   1.809082   2.662299   2.822585   2.242086
    23  O    7.207474   4.934419   5.881145   2.729123   3.209883
    24  H    6.999729   4.380358   5.342225   1.956832   2.351226
    25  O    6.067529   5.369187   6.074812   4.011824   4.744786
    26  H    6.605800   5.572922   6.339915   3.700335   4.519586
                   21         22         23         24         25
    21  O    0.000000
    22  H    0.983816   0.000000
    23  O    3.120172   3.939634   0.000000
    24  H    2.757086   3.468302   0.980591   0.000000
    25  O    4.400203   4.950238   2.798905   3.445660   0.000000
    26  H    4.543866   5.141879   2.341370   2.974140   0.979960
                   26
    26  H    0.000000
 Stoichiometry    C6H14O6
 Framework group  C1[X(C6H14O6)]
 Deg. of freedom    72
 Full point group                 C1      NOp   1
 Largest Abelian subgroup         C1      NOp   1
 Largest concise Abelian subgroup C1      NOp   1
                         Standard orientation:                         
 ---------------------------------------------------------------------
 Center     Atomic      Atomic             Coordinates (Angstroms)
 Number     Number       Type             X           Y           Z
 ---------------------------------------------------------------------
      1          6           0       -0.184964   -0.203150    0.663575
      2          6           0        0.553014   -0.315770   -0.693096
      3          6           0       -1.717363   -0.126842    0.523121
      4          6           0        2.094308   -0.168859   -0.605597
      5          1           0        0.171635    0.410843   -1.417542
      6          1           0        0.159127    0.653878    1.246892
      7          6           0       -2.206012    1.220217   -0.014646
      8          1           0       -2.188481   -0.329197    1.492729
      9          6           0        2.536197    1.297245   -0.649465
     10          1           0        2.555254   -0.698073   -1.447646
     11          1           0       -1.818241    1.421374   -1.016937
     12          1           0       -1.933410    2.038070    0.658818
     13          1           0        2.154858    1.803045   -1.541492
     14          1           0        3.629008    1.368798   -0.651058
     15          8           0       -3.631207    1.159793   -0.121046
     16          1           0       -3.931653    2.043399   -0.401314
     17          8           0       -2.181914   -1.170293   -0.358957
     18          1           0       -3.139559   -0.978991   -0.464541
     19          8           0        0.125724   -1.390093    1.428529
     20          1           0       -0.234940   -2.133330    0.901626
     21          8           0        0.276037   -1.624271   -1.242720
     22          1           0       -0.703801   -1.712356   -1.250094
     23          8           0        2.641187   -0.742306    0.591311
     24          1           0        2.007672   -1.427005    0.893643
     25          8           0        2.068010    1.995838    0.502394
     26          1           0        2.438762    1.493147    1.257486
 ---------------------------------------------------------------------
 Rotational constants (GHZ):           1.3684226           0.5747760           0.4917295
 Standard basis: def2TZVPP (5D, 7F)
 There are   642 symmetry adapted cartesian basis functions of A   symmetry.
 There are   568 symmetry adapted basis functions of A   symmetry.
   568 basis functions,   850 primitive gaussians,   642 cartesian basis functions
    49 alpha electrons       49 beta electrons
       nuclear repulsion energy       837.2660990524 Hartrees.
 NAtoms=   26 NActive=   26 NUniq=   26 SFac= 1.00D+00 NAtFMM=   60 NAOKFM=F Big=F
 Integral buffers will be    131072 words long.
 Raffenetti 2 integral format.
 Two-electron integral symmetry is turned on.
 Nuclear repulsion after empirical dispersion term =      837.2473957141 Hartrees.
 One-electron integrals computed using PRISM.
   1 Symmetry operations used in ECPInt.
 ECPInt:  NShTT=   23436 NPrTT=   62434 LenC2=   21980 LenP2D=   45806.
 LDataN:  DoStor=T MaxTD1= 6 Len=  172
 NBasis=   568 RedAO= T EigKep=  4.12D-05  NBF=   568
 NBsUse=   568 1.00D-06 EigRej= -1.00D+00 NBFU=   568
 ExpMin= 9.52D-02 ExpMax= 2.70D+04 ExpMxC= 9.22D+02 IAcc=3 IRadAn=         5 AccDes= 0.00D+00
 Harris functional with IExCor= 4639 and IRadAn=       5 diagonalized for initial guess.
 HarFok:  IExCor= 4639 AccDes= 0.00D+00 IRadAn=         5 IDoV= 1 UseB2=F ITyADJ=14
 ICtDFT=  3500011 ScaDFX=  1.000000  1.000000  1.000000  1.000000
 FoFCou: FMM=F IPFlag=           0 FMFlag=      100000 FMFlg1=           0
         NFxFlg=           0 DoJE=T BraDBF=F KetDBF=T FulRan=T
         wScrn=  0.000000 ICntrl=       500 IOpCl=  0 I1Cent=   200000004 NGrid=           0
         NMat0=    1 NMatS0=      1 NMatT0=    0 NMatD0=    1 NMtDS0=    0 NMtDT0=    0
 Petite list used in FoFCou.
 Requested convergence on RMS density matrix=1.00D-08 within 128 cycles.
 Requested convergence on MAX density matrix=1.00D-06.
 Requested convergence on             energy=1.00D-06.
 No special actions if energy rises.
 Integral accuracy reduced to 1.0D-05 until final iterations.
 Initial convergence to 1.0D-05 achieved.  Increase integral accuracy.
 SCF Done:  E(RwB97XD) =  -688.468914321     A.U. after   13 cycles
            NFock= 13  Conv=0.98D-08     -V/T= 2.0050

 **********************************************************************

            Population analysis using the SCF Density.

 **********************************************************************

 Orbital symmetries:
       Occupied  (A) (A) (A) (A) (A) (A) (A) (A) (A) (A) (A) (A)
                 (A) (A) (A) (A) (A) (A) (A) (A) (A) (A) (A) (A)
                 (A) (A) (A) (A) (A) (A) (A) (A) (A) (A) (A) (A)
                 (A) (A) (A) (A) (A) (A) (A) (A) (A) (A) (A) (A)
                 (A)
       Virtual   (A) (A) (A) (A) (A) (A) (A) (A) (A) (A) (A) (A)
                 (A) (A) (A) (A) (A) (A) (A) (A) (A) (A) (A) (A)
                 (A) (A) (A) (A) (A) (A) (A) (A) (A) (A) (A) (A)
                 (A) (A) (A) (A) (A) (A) (A) (A) (A) (A) (A) (A)
                 (A) (A) (A) (A) (A) (A) (A) (A) (A) (A) (A) (A)
                 (A) (A) (A) (A) (A) (A) (A) (A) (A) (A) (A) (A)
                 (A) (A) (A) (A) (A) (A) (A) (A) (A) (A) (A) (A)
                 (A) (A) (A) (A) (A) (A) (A) (A) (A) (A) (A) (A)
                 (A) (A) (A) (A) (A) (A) (A) (A) (A) (A) (A) (A)
                 (A) (A) (A) (A) (A) (A) (A) (A) (A) (A) (A) (A)
                 (A) (A) (A) (A) (A) (A) (A) (A) (A) (A) (A) (A)
                 (A) (A) (A) (A) (A) (A) (A) (A) (A) (A) (A) (A)
                 (A) (A) (A) (A) (A) (A) (A) (A) (A) (A) (A) (A)
                 (A) (A) (A) (A) (A) (A) (A) (A) (A) (A) (A) (A)
                 (A) (A) (A) (A) (A) (A) (A) (A) (A) (A) (A) (A)
                 (A) (A) (A) (A) (A) (A) (A) (A) (A) (A) (A) (A)
                 (A) (A) (A) (A) (A) (A) (A) (A) (A) (A) (A) (A)
                 (A) (A) (A) (A) (A) (A) (A) (A) (A) (A) (A) (A)
                 (A) (A) (A) (A) (A) (A) (A) (A) (A) (A) (A) (A)
                 (A) (A) (A) (A) (A) (A) (A) (A) (A) (A) (A) (A)
                 (A) (A) (A) (A) (A) (A) (A) (A) (A) (A) (A) (A)
                 (A) (A) (A) (A) (A) (A) (A) (A) (A) (A) (A) (A)
                 (A) (A) (A) (A) (A) (A) (A) (A) (A) (A) (A) (A)
                 (A) (A) (A) (A) (A) (A) (A) (A) (A) (A) (A) (A)
                 (A) (A) (A) (A) (A) (A) (A) (A) (A) (A) (A) (A)
                 (A) (A) (A) (A) (A) (A) (A) (A) (A) (A) (A) (A)
                 (A) (A) (A) (A) (A) (A) (A) (A) (A) (A) (A) (A)
                 (A) (A) (A) (A) (A) (A) (A) (A) (A) (A) (A) (A)
                 (A) (A) (A) (A) (A) (A) (A) (A) (A) (A) (A) (A)
                 (A) (A) (A) (A) (A) (A) (A) (A) (A) (A) (A) (A)
                 (A) (A) (A) (A) (A) (A) (A) (A) (A) (A) (A) (A)
                 (A) (A) (A) (A) (A) (A) (A) (A) (A) (A) (A) (A)
                 (A) (A) (A) (A) (A) (A) (A) (A) (A) (A) (A) (A)
                 (A) (A) (A) (A) (A) (A) (A) (A) (A) (A) (A) (A)
                 (A) (A) (A) (A) (A) (A) (A) (A) (A) (A) (A) (A)
                 (A) (A) (A) (A) (A) (A) (A) (A) (A) (A) (A) (A)
                 (A) (A) (A) (A) (A) (A) (A) (A) (A) (A) (A) (A)
                 (A) (A) (A) (A) (A) (A) (A) (A) (A) (A) (A) (A)
                 (A) (A) (A) (A) (A) (A) (A) (A) (A) (A) (A) (A)
                 (A) (A) (A) (A) (A) (A) (A) (A) (A) (A) (A) (A)
                 (A) (A) (A) (A) (A) (A) (A) (A) (A) (A) (A) (A)
                 (A) (A) (A) (A) (A) (A) (A) (A) (A) (A) (A) (A)
                 (A) (A) (A) (A) (A) (A) (A) (A) (A) (A) (A) (A)
                 (A) (A) (A)
 The electronic state is 1-A.
 Alpha  occ. eigenvalues --  -19.28051 -19.27857 -19.26277 -19.24707 -19.24342
 Alpha  occ. eigenvalues --  -19.23795 -10.35960 -10.35369 -10.35368 -10.34657
 Alpha  occ. eigenvalues --  -10.33576 -10.32905  -1.16727  -1.14754  -1.13297
 Alpha  occ. eigenvalues --   -1.12374  -1.10649  -1.09791  -0.89132  -0.85340
 Alpha  occ. eigenvalues --   -0.80303  -0.75622  -0.70797  -0.68219  -0.65793
 Alpha  occ. eigenvalues --   -0.62375  -0.60496  -0.59366  -0.58488  -0.57794
 Alpha  occ. eigenvalues --   -0.56606  -0.56402  -0.53591  -0.52581  -0.51178
 Alpha  occ. eigenvalues --   -0.50785  -0.48681  -0.47147  -0.46946  -0.44635
 Alpha  occ. eigenvalues --   -0.43126  -0.42318  -0.41993  -0.39365  -0.38952
 Alpha  occ. eigenvalues --   -0.38525  -0.36494  -0.35238  -0.34912
 Alpha virt. eigenvalues --    0.07981   0.11106   0.11409   0.12522   0.13676
 Alpha virt. eigenvalues --    0.14445   0.15586   0.17420   0.17923   0.18297
 Alpha virt. eigenvalues --    0.19001   0.19915   0.20578   0.21451   0.22066
 Alpha virt. eigenvalues --    0.22724   0.23370   0.24172   0.25173   0.26338
 Alpha virt. eigenvalues --    0.27518   0.29756   0.30606   0.31250   0.32760
 Alpha virt. eigenvalues --    0.35171   0.35898   0.36332   0.37109   0.38056
 Alpha virt. eigenvalues --    0.38889   0.39242   0.39532   0.40134   0.41266
 Alpha virt. eigenvalues --    0.41683   0.42659   0.43476   0.43695   0.44834
 Alpha virt. eigenvalues --    0.45377   0.46376   0.47486   0.47780   0.48253
 Alpha virt. eigenvalues --    0.48346   0.49027   0.50120   0.50449   0.50738
 Alpha virt. eigenvalues --    0.52253   0.53248   0.53820   0.54497   0.55265
 Alpha virt. eigenvalues --    0.56243   0.56544   0.57137   0.58930   0.59224
 Alpha virt. eigenvalues --    0.59493   0.60370   0.60799   0.62217   0.63256
 Alpha virt. eigenvalues --    0.64468   0.65714   0.66032   0.66985   0.67703
 Alpha virt. eigenvalues --    0.69685   0.70365   0.72467   0.73537   0.74052
 Alpha virt. eigenvalues --    0.75887   0.76216   0.76925   0.77922   0.79727
 Alpha virt. eigenvalues --    0.81487   0.82384   0.83285   0.85158   0.86369
 Alpha virt. eigenvalues --    0.86954   0.88041   0.88804   0.90926   0.91527
 Alpha virt. eigenvalues --    0.91690   0.92440   0.92600   0.94494   0.97282
 Alpha virt. eigenvalues --    0.97667   0.98185   0.99329   1.00468   1.01045
 Alpha virt. eigenvalues --    1.03153   1.04006   1.05059   1.06863   1.07977
 Alpha virt. eigenvalues --    1.08863   1.09730   1.10760   1.11581   1.13047
 Alpha virt. eigenvalues --    1.14009   1.14982   1.17807   1.18478   1.18815
 Alpha virt. eigenvalues --    1.19856   1.20836   1.22146   1.22596   1.23418
 Alpha virt. eigenvalues --    1.25267   1.26635   1.27531   1.28526   1.29528
 Alpha virt. eigenvalues --    1.30225   1.30673   1.33762   1.34258   1.34792
 Alpha virt. eigenvalues --    1.36611   1.36796   1.38329   1.38458   1.39269
 Alpha virt. eigenvalues --    1.40893   1.43040   1.43410   1.44877   1.46421
 Alpha virt. eigenvalues --    1.47111   1.49076   1.49305   1.50465   1.51853
 Alpha virt. eigenvalues --    1.52840   1.53537   1.54883   1.55937   1.56915
 Alpha virt. eigenvalues --    1.59171   1.60443   1.61370   1.63401   1.65332
 Alpha virt. eigenvalues --    1.66485   1.68117   1.70055   1.72984   1.74193
 Alpha virt. eigenvalues --    1.75438   1.76877   1.78985   1.82442   1.85008
 Alpha virt. eigenvalues --    1.87113   1.87669   1.89588   1.90704   1.92729
 Alpha virt. eigenvalues --    1.94589   1.95429   1.97245   1.98556   1.98856
 Alpha virt. eigenvalues --    2.00502   2.02638   2.02885   2.05007   2.05778
 Alpha virt. eigenvalues --    2.06421   2.08314   2.09183   2.10748   2.12116
 Alpha virt. eigenvalues --    2.12334   2.13109   2.14448   2.15963   2.19005
 Alpha virt. eigenvalues --    2.19615   2.22086   2.22256   2.25658   2.25915
 Alpha virt. eigenvalues --    2.27486   2.28983   2.30936   2.31142   2.31419
 Alpha virt. eigenvalues --    2.32719   2.34742   2.36924   2.39161   2.42111
 Alpha virt. eigenvalues --    2.42508   2.45327   2.48183   2.50438   2.51722
 Alpha virt. eigenvalues --    2.52571   2.57117   2.61762   2.62518   2.64325
 Alpha virt. eigenvalues --    2.64804   2.66377   2.68458   2.70532   2.71736
 Alpha virt. eigenvalues --    2.71996   2.73159   2.75246   2.76654   2.76835
 Alpha virt. eigenvalues --    2.77925   2.78966   2.80921   2.81636   2.83476
 Alpha virt. eigenvalues --    2.84472   2.86505   2.87755   2.89813   2.91058
 Alpha virt. eigenvalues --    2.92573   2.93582   2.95986   2.96701   2.98116
 Alpha virt. eigenvalues --    2.99600   3.00084   3.00619   3.02578   3.02808
 Alpha virt. eigenvalues --    3.05285   3.06786   3.09100   3.09255   3.10334
 Alpha virt. eigenvalues --    3.10719   3.12476   3.12935   3.16217   3.17529
 Alpha virt. eigenvalues --    3.17896   3.18894   3.19551   3.20357   3.21868
 Alpha virt. eigenvalues --    3.22742   3.23373   3.23469   3.24968   3.26574
 Alpha virt. eigenvalues --    3.28247   3.29352   3.30420   3.31549   3.33141
 Alpha virt. eigenvalues --    3.33406   3.35077   3.35890   3.36359   3.38397
 Alpha virt. eigenvalues --    3.38638   3.39881   3.40591   3.42137   3.42741
 Alpha virt. eigenvalues --    3.43550   3.44395   3.45288   3.45568   3.48202
 Alpha virt. eigenvalues --    3.49121   3.49677   3.51809   3.53078   3.54418
 Alpha virt. eigenvalues --    3.55992   3.56274   3.58043   3.58161   3.60444
 Alpha virt. eigenvalues --    3.61046   3.63000   3.63384   3.63965   3.65421
 Alpha virt. eigenvalues --    3.66436   3.68567   3.69327   3.71715   3.72019
 Alpha virt. eigenvalues --    3.72108   3.73637   3.75950   3.76433   3.77113
 Alpha virt. eigenvalues --    3.77774   3.78152   3.80844   3.82102   3.83248
 Alpha virt. eigenvalues --    3.84251   3.85416   3.86735   3.88443   3.89802
 Alpha virt. eigenvalues --    3.91236   3.92598   3.93271   3.94031   3.95262
 Alpha virt. eigenvalues --    3.95865   3.97683   3.98838   4.00016   4.01311
 Alpha virt. eigenvalues --    4.02060   4.03019   4.04682   4.05536   4.07516
 Alpha virt. eigenvalues --    4.08397   4.09835   4.10308   4.11580   4.12313
 Alpha virt. eigenvalues --    4.13460   4.13761   4.14480   4.17005   4.17744
 Alpha virt. eigenvalues --    4.18351   4.19064   4.20045   4.21214   4.22218
 Alpha virt. eigenvalues --    4.23525   4.24625   4.25812   4.26528   4.27670
 Alpha virt. eigenvalues --    4.28130   4.29699   4.30525   4.32063   4.34038
 Alpha virt. eigenvalues --    4.34796   4.35466   4.38261   4.38831   4.40622
 Alpha virt. eigenvalues --    4.42211   4.43191   4.44048   4.46385   4.46896
 Alpha virt. eigenvalues --    4.48308   4.49614   4.50855   4.52939   4.53360
 Alpha virt. eigenvalues --    4.56249   4.57466   4.59873   4.60260   4.61049
 Alpha virt. eigenvalues --    4.61338   4.64088   4.67021   4.68125   4.70510
 Alpha virt. eigenvalues --    4.72216   4.73217   4.74563   4.79657   4.80144
 Alpha virt. eigenvalues --    4.81942   4.83876   4.85116   4.87271   4.89492
 Alpha virt. eigenvalues --    4.89792   4.91775   4.94737   4.96489   4.97166
 Alpha virt. eigenvalues --    4.98261   4.99580   5.01984   5.02993   5.03829
 Alpha virt. eigenvalues --    5.06161   5.07078   5.07697   5.09002   5.10264
 Alpha virt. eigenvalues --    5.12859   5.14870   5.17332   5.19269   5.20107
 Alpha virt. eigenvalues --    5.21303   5.22952   5.24078   5.26785   5.28515
 Alpha virt. eigenvalues --    5.29858   5.33829   5.35685   5.37405   5.41411
 Alpha virt. eigenvalues --    5.43768   5.46313   5.54091   5.55673   5.56789
 Alpha virt. eigenvalues --    5.59262   5.59961   5.61961   5.63497   5.64602
 Alpha virt. eigenvalues --    5.67618   5.68311   5.70450   5.71924   5.73038
 Alpha virt. eigenvalues --    5.75386   5.79337   5.81739   5.82008   5.83211
 Alpha virt. eigenvalues --    5.86786   5.88587   5.90291   5.95220   5.96490
 Alpha virt. eigenvalues --    5.97213   6.01000   6.04587   6.11221   6.13876
 Alpha virt. eigenvalues --    6.14058   6.14844   6.18755   6.21863   6.52371
 Alpha virt. eigenvalues --    6.53129   6.53686   6.54063   6.56529   6.56975
 Alpha virt. eigenvalues --    6.69972   6.72241   6.74714   6.74978   6.76153
 Alpha virt. eigenvalues --    6.77141   6.77611   6.79028   6.79727   6.80746
 Alpha virt. eigenvalues --    6.80871   6.82423   6.86340   6.86411   6.90672
 Alpha virt. eigenvalues --    6.91972   6.94249   6.96245   6.99208   7.01389
 Alpha virt. eigenvalues --    7.02575   7.04545   7.05121   7.07293   7.14516
 Alpha virt. eigenvalues --    7.17662   7.21186   7.22460   7.24064   7.26344
 Alpha virt. eigenvalues --    7.39800   7.42866   7.45403   7.46035   7.47137
 Alpha virt. eigenvalues --    7.48827   7.49378   7.54486   7.58378   7.64663
 Alpha virt. eigenvalues --    7.67756   7.71680  23.09030  23.11542  23.20672
 Alpha virt. eigenvalues --   23.23276  23.42483  23.45123  44.10018  44.12134
 Alpha virt. eigenvalues --   44.24675  44.26707  44.37529  44.40899
          Condensed to atoms (all electrons):
               1          2          3          4          5          6
     1  C    5.095967   0.153106   0.190373   0.059974  -0.081616   0.382658
     2  C    0.153106   5.010537   0.014230   0.175544   0.466754  -0.034076
     3  C    0.190373   0.014230   5.040399  -0.012756   0.020023  -0.002960
     4  C    0.059974   0.175544  -0.012756   4.967765  -0.060629  -0.001413
     5  H   -0.081616   0.466754   0.020023  -0.060629   0.621279   0.007047
     6  H    0.382658  -0.034076  -0.002960  -0.001413   0.007047   0.538856
     7  C   -0.017811  -0.000460   0.247732   0.002985  -0.015353  -0.006771
     8  H   -0.028875   0.008292   0.413864  -0.000021   0.000033  -0.002887
     9  C   -0.018865   0.033220  -0.000016   0.224349   0.006759  -0.004943
    10  H    0.017663  -0.067042   0.000015   0.451050  -0.001023   0.000115
    11  H    0.008494   0.001270  -0.031672   0.000612   0.002609  -0.000007
    12  H    0.001788  -0.002049  -0.045808   0.000454   0.000411   0.001312
    13  H   -0.000327  -0.010732   0.000681  -0.016661   0.001149  -0.000390
    14  H    0.000107   0.009962  -0.000125  -0.049677  -0.000560   0.000925
    15  O    0.007647  -0.000034  -0.066979  -0.000034  -0.000229   0.000025
    16  H   -0.001951   0.000093   0.009443  -0.000007  -0.000033   0.000020
    17  O   -0.054692   0.005311   0.207254   0.001789   0.001675   0.001978
    18  H    0.007114   0.000615  -0.028386   0.000008  -0.000194  -0.000338
    19  O    0.195908  -0.013883  -0.010822  -0.010252   0.004670  -0.017045
    20  H   -0.060036  -0.003721   0.006870  -0.003167   0.002343   0.007704
    21  O   -0.052765   0.286468   0.003379  -0.056203  -0.032536   0.004049
    22  H    0.013991  -0.047551  -0.011589   0.012997  -0.008678  -0.000237
    23  O    0.020534  -0.050106   0.004478   0.277501   0.004909   0.001477
    24  H   -0.018892   0.022898  -0.000094  -0.048232   0.000617  -0.002249
    25  O   -0.008596  -0.006508  -0.002856  -0.045757  -0.001525   0.026316
    26  H    0.002533  -0.007968   0.000681   0.004334  -0.000065  -0.001662
               7          8          9         10         11         12
     1  C   -0.017811  -0.028875  -0.018865   0.017663   0.008494   0.001788
     2  C   -0.000460   0.008292   0.033220  -0.067042   0.001270  -0.002049
     3  C    0.247732   0.413864  -0.000016   0.000015  -0.031672  -0.045808
     4  C    0.002985  -0.000021   0.224349   0.451050   0.000612   0.000454
     5  H   -0.015353   0.000033   0.006759  -0.001023   0.002609   0.000411
     6  H   -0.006771  -0.002887  -0.004943   0.000115  -0.000007   0.001312
     7  C    4.764706  -0.018399  -0.000667   0.000183   0.414480   0.444348
     8  H   -0.018399   0.549916  -0.000006   0.000013   0.007432  -0.007483
     9  C   -0.000667  -0.000006   4.776294  -0.039504  -0.000747   0.000306
    10  H    0.000183   0.000013  -0.039504   0.574759  -0.000010  -0.000004
    11  H    0.414480   0.007432  -0.000747  -0.000010   0.598590  -0.038345
    12  H    0.444348  -0.007483   0.000306  -0.000004  -0.038345   0.594500
    13  H   -0.000376   0.000007   0.390613   0.003079   0.000190  -0.000073
    14  H    0.000057  -0.000002   0.442501  -0.003067  -0.000011   0.000009
    15  O    0.272046   0.005613   0.000006  -0.000000  -0.048835  -0.043912
    16  H   -0.025544   0.000066  -0.000001   0.000000  -0.005242  -0.006128
    17  O   -0.012166  -0.028376   0.000048   0.000022  -0.002538   0.005111
    18  H   -0.007697  -0.006811  -0.000004  -0.000003  -0.001742   0.001402
    19  O    0.003540   0.003961   0.000085  -0.001279  -0.000022  -0.000002
    20  H   -0.000788  -0.002275   0.000255  -0.000034   0.000014  -0.000043
    21  O   -0.003076  -0.000327   0.003199   0.008966  -0.000034  -0.000023
    22  H    0.001648   0.000857  -0.001186   0.000680   0.000351  -0.000008
    23  O    0.000047  -0.000023  -0.056110  -0.032311  -0.000010  -0.000003
    24  H   -0.000158   0.000054   0.009172  -0.003281   0.000001   0.000005
    25  O    0.002854  -0.000021   0.267966   0.004273  -0.000104   0.000302
    26  H   -0.000199   0.000013  -0.049042   0.001134   0.000025  -0.000073
              13         14         15         16         17         18
     1  C   -0.000327   0.000107   0.007647  -0.001951  -0.054692   0.007114
     2  C   -0.010732   0.009962  -0.000034   0.000093   0.005311   0.000615
     3  C    0.000681  -0.000125  -0.066979   0.009443   0.207254  -0.028386
     4  C   -0.016661  -0.049677  -0.000034  -0.000007   0.001789   0.000008
     5  H    0.001149  -0.000560  -0.000229  -0.000033   0.001675  -0.000194
     6  H   -0.000390   0.000925   0.000025   0.000020   0.001978  -0.000338
     7  C   -0.000376   0.000057   0.272046  -0.025544  -0.012166  -0.007697
     8  H    0.000007  -0.000002   0.005613   0.000066  -0.028376  -0.006811
     9  C    0.390613   0.442501   0.000006  -0.000001   0.000048  -0.000004
    10  H    0.003079  -0.003067  -0.000000   0.000000   0.000022  -0.000003
    11  H    0.000190  -0.000011  -0.048835  -0.005242  -0.002538  -0.001742
    12  H   -0.000073   0.000009  -0.043912  -0.006128   0.005111   0.001402
    13  H    0.620598  -0.033218  -0.000001  -0.000000  -0.000011   0.000000
    14  H   -0.033218   0.591007   0.000000  -0.000000   0.000001   0.000000
    15  O   -0.000001   0.000000   7.889797   0.326313  -0.009060   0.022703
    16  H   -0.000000  -0.000000   0.326313   0.518971  -0.000028  -0.001382
    17  O   -0.000011   0.000001  -0.009060  -0.000028   7.935111   0.322911
    18  H    0.000000   0.000000   0.022703  -0.001382   0.322911   0.488508
    19  O    0.000005   0.000054  -0.000055   0.000014  -0.003652  -0.000305
    20  H   -0.000002  -0.000012  -0.000010   0.000003   0.008405  -0.000412
    21  O    0.000110  -0.000158  -0.000018   0.000001  -0.028992   0.001164
    22  H    0.000025   0.000030  -0.000052   0.000004   0.040410  -0.001858
    23  O    0.003380   0.000605   0.000000   0.000000  -0.000025   0.000000
    24  H   -0.000578  -0.000262   0.000000  -0.000000  -0.000065   0.000010
    25  O   -0.032870  -0.039725   0.000003   0.000002  -0.000002   0.000002
    26  H    0.010720  -0.010332  -0.000000  -0.000000  -0.000004   0.000000
              19         20         21         22         23         24
     1  C    0.195908  -0.060036  -0.052765   0.013991   0.020534  -0.018892
     2  C   -0.013883  -0.003721   0.286468  -0.047551  -0.050106   0.022898
     3  C   -0.010822   0.006870   0.003379  -0.011589   0.004478  -0.000094
     4  C   -0.010252  -0.003167  -0.056203   0.012997   0.277501  -0.048232
     5  H    0.004670   0.002343  -0.032536  -0.008678   0.004909   0.000617
     6  H   -0.017045   0.007704   0.004049  -0.000237   0.001477  -0.002249
     7  C    0.003540  -0.000788  -0.003076   0.001648   0.000047  -0.000158
     8  H    0.003961  -0.002275  -0.000327   0.000857  -0.000023   0.000054
     9  C    0.000085   0.000255   0.003199  -0.001186  -0.056110   0.009172
    10  H   -0.001279  -0.000034   0.008966   0.000680  -0.032311  -0.003281
    11  H   -0.000022   0.000014  -0.000034   0.000351  -0.000010   0.000001
    12  H   -0.000002  -0.000043  -0.000023  -0.000008  -0.000003   0.000005
    13  H    0.000005  -0.000002   0.000110   0.000025   0.003380  -0.000578
    14  H    0.000054  -0.000012  -0.000158   0.000030   0.000605  -0.000262
    15  O   -0.000055  -0.000010  -0.000018  -0.000052   0.000000   0.000000
    16  H    0.000014   0.000003   0.000001   0.000004   0.000000  -0.000000
    17  O   -0.003652   0.008405  -0.028992   0.040410  -0.000025  -0.000065
    18  H   -0.000305  -0.000412   0.001164  -0.001858   0.000000   0.000010
    19  O    7.906528   0.318975  -0.016656  -0.000003  -0.027701   0.038735
    20  H    0.318975   0.511618   0.026625  -0.002410   0.001387  -0.002797
    21  O   -0.016656   0.026625   7.917614   0.332698  -0.000233   0.001473
    22  H   -0.000003  -0.002410   0.332698   0.463039  -0.000608  -0.000579
    23  O   -0.027701   0.001387  -0.000233  -0.000608   7.923883   0.337148
    24  H    0.038735  -0.002797   0.001473  -0.000579   0.337148   0.443083
    25  O   -0.000029  -0.000097  -0.000025   0.000073  -0.011749  -0.000383
    26  H    0.000080  -0.000019   0.000054   0.000012   0.022257  -0.001635
              25         26
     1  C   -0.008596   0.002533
     2  C   -0.006508  -0.007968
     3  C   -0.002856   0.000681
     4  C   -0.045757   0.004334
     5  H   -0.001525  -0.000065
     6  H    0.026316  -0.001662
     7  C    0.002854  -0.000199
     8  H   -0.000021   0.000013
     9  C    0.267966  -0.049042
    10  H    0.004273   0.001134
    11  H   -0.000104   0.000025
    12  H    0.000302  -0.000073
    13  H   -0.032870   0.010720
    14  H   -0.039725  -0.010332
    15  O    0.000003  -0.000000
    16  H    0.000002  -0.000000
    17  O   -0.000002  -0.000004
    18  H    0.000002   0.000000
    19  O   -0.000029   0.000080
    20  H   -0.000097  -0.000019
    21  O   -0.000025   0.000054
    22  H    0.000073   0.000012
    23  O   -0.011749   0.022257
    24  H   -0.000383  -0.001635
    25  O    7.917841   0.312473
    26  H    0.312473   0.515929
 Mulliken charges:
               1
     1  C    0.186571
     2  C    0.055829
     3  C    0.054639
     4  C    0.125450
     5  H    0.062164
     6  H    0.102494
     7  C   -0.045159
     8  H    0.105388
     9  C    0.016320
    10  H    0.085606
    11  H    0.095249
    12  H    0.094003
    13  H    0.064681
    14  H    0.091890
    15  O   -0.354934
    16  H    0.185386
    17  O   -0.390417
    18  H    0.204696
    19  O   -0.370850
    20  H    0.191623
    21  O   -0.394751
    22  H    0.207944
    23  O   -0.418726
    24  H    0.226009
    25  O   -0.381858
    26  H    0.200753
 Sum of Mulliken charges =  -0.00000
 Mulliken charges with hydrogens summed into heavy atoms:
               1
     1  C    0.289065
     2  C    0.117992
     3  C    0.160027
     4  C    0.211056
     7  C    0.144093
     9  C    0.172891
    15  O   -0.169548
    17  O   -0.185721
    19  O   -0.179227
    21  O   -0.186807
    23  O   -0.192717
    25  O   -0.181104
 Electronic spatial extent (au):  <R**2>=           2403.3666
 Charge=              0.0000 electrons
 Dipole moment (field-independent basis, Debye):
    X=             -3.4125    Y=              2.2022    Z=             -1.0580  Tot=              4.1969
 Quadrupole moment (field-independent basis, Debye-Ang):
   XX=            -69.9019   YY=            -72.1659   ZZ=            -73.3838
   XY=             -3.4348   XZ=             -0.0181   YZ=             -3.0435
 Traceless Quadrupole moment (field-independent basis, Debye-Ang):
   XX=              1.9153   YY=             -0.3487   ZZ=             -1.5666
   XY=             -3.4348   XZ=             -0.0181   YZ=             -3.0435
 Octapole moment (field-independent basis, Debye-Ang**2):
  XXX=            -31.7592  YYY=            -11.4479  ZZZ=              2.4686  XYY=            -34.4680
  XXY=             20.7052  XXZ=            -15.2342  XZZ=             -0.2763  YZZ=             10.2117
  YYZ=              0.2668  XYZ=              1.4703
 Hexadecapole moment (field-independent basis, Debye-Ang**3):
 XXXX=          -1840.4926 YYYY=           -661.8532 ZZZZ=           -352.8035 XXXY=            -28.8956
 XXXZ=             36.8080 YYYX=            -84.0707 YYYZ=            -28.5081 ZZZX=             23.9348
 ZZZY=              9.3207 XXYY=           -358.2191 XXZZ=           -351.7776 YYZZ=           -168.6843
 XXYZ=            -12.0625 YYXZ=             19.3383 ZZXY=             10.5073
 N-N= 8.372473957141D+02 E-N=-3.291734035283D+03  KE= 6.850544117250D+02
   1 Symmetry operations used in ECPInt.
 ECPInt:  NShTT=   23436 NPrTT=   62434 LenC2=   21980 LenP2D=   45806.
 LDataN:  DoStor=T MaxTD1= 7 Len=  274
 Calling FoFJK, ICntrl=      2127 FMM=F ISym2X=0 I1Cent= 0 IOpClX= 0 NMat=1 NMatS=1 NMatT=0.
 ***** Axes restored to original set *****
 -------------------------------------------------------------------
 Center     Atomic                   Forces (Hartrees/Bohr)
 Number     Number              X              Y              Z
 -------------------------------------------------------------------
      1        6          -0.004531857   -0.012906019   -0.014720629
      2        6           0.009733428   -0.008753311   -0.013730952
      3        6           0.007046458    0.009338430   -0.002906681
      4        6          -0.005979919   -0.005414840    0.002702571
      5        1          -0.003350406    0.001087395    0.005778610
      6        1           0.003304147   -0.001320733   -0.002922768
      7        6          -0.004595189    0.004562886   -0.004917259
      8        1           0.001311301    0.000563879    0.008560810
      9        6          -0.011828970   -0.005218624    0.003692005
     10        1          -0.000260544    0.006945325   -0.004521696
     11        1           0.001671770   -0.006082326    0.004507367
     12        1           0.002191565   -0.004803142    0.001715758
     13        1          -0.003326592   -0.001937267   -0.000543470
     14        1           0.004829325   -0.001469324   -0.005115917
     15        8          -0.000224183    0.011156409    0.008269613
     16        1          -0.001396296   -0.017010056   -0.009207496
     17        8          -0.014457887    0.019345038   -0.003102358
     18        1           0.011420654   -0.016095441    0.007701085
     19        8           0.005511713    0.009927667   -0.012502723
     20        1          -0.005535880    0.000586655    0.017437342
     21        8          -0.010145298    0.009443482    0.001201556
     22        1           0.010783192   -0.007458440    0.012816050
     23        8          -0.002196758    0.007480552   -0.013634514
     24        1           0.005557756    0.005019693    0.016302664
     25        8          -0.002801245   -0.013947568    0.000550882
     26        1           0.007269715    0.016959680   -0.003409849
 -------------------------------------------------------------------
 Cartesian Forces:  Max     0.019345038 RMS     0.008382734

 GradGradGradGradGradGradGradGradGradGradGradGradGradGradGradGradGradGrad
 Berny optimization.
 FormGI is forming the generalized inverse of G from B-inverse, IUseBI=4.
 Internal  Forces:  Max     0.020501446 RMS     0.005723416
 Search for a local minimum.
 Step number   1 out of a maximum of  140
 All quantities printed in internal units (Hartrees-Bohrs-Radians)
 Mixed Optimization -- RFO/linear search
 Second derivative matrix not updated -- first step.
 ITU=  0
     Eigenvalues ---    0.00230   0.00230   0.00230   0.00344   0.00362
     Eigenvalues ---    0.01083   0.01085   0.01121   0.01223   0.01289
     Eigenvalues ---    0.01345   0.03816   0.03929   0.04024   0.04175
     Eigenvalues ---    0.04673   0.04709   0.04780   0.04881   0.05003
     Eigenvalues ---    0.05336   0.05564   0.05631   0.07383   0.07573
     Eigenvalues ---    0.07606   0.07775   0.11343   0.11578   0.13606
     Eigenvalues ---    0.13826   0.16000   0.16000   0.16000   0.16000
     Eigenvalues ---    0.16000   0.16000   0.16665   0.16764   0.16936
     Eigenvalues ---    0.16958   0.19340   0.19411   0.19761   0.20000
     Eigenvalues ---    0.22022   0.22025   0.27588   0.27779   0.28456
     Eigenvalues ---    0.29251   0.29374   0.34035   0.34109   0.34224
     Eigenvalues ---    0.34282   0.34348   0.34359   0.34428   0.34546
     Eigenvalues ---    0.38771   0.38792   0.39158   0.40216   0.40927
     Eigenvalues ---    0.41542   0.50651   0.50949   0.51270   0.51393
     Eigenvalues ---    0.51414   0.52475
 RFO step:  Lambda=-1.90691983D-02 EMin= 2.30000000D-03
 Linear search not attempted -- first point.
 Iteration  1 RMS(Cart)=  0.10760043 RMS(Int)=  0.00296593
 Iteration  2 RMS(Cart)=  0.00554425 RMS(Int)=  0.00052394
 Iteration  3 RMS(Cart)=  0.00001035 RMS(Int)=  0.00052389
 Iteration  4 RMS(Cart)=  0.00000000 RMS(Int)=  0.00052389
 Variable       Old X    -DE/DX   Delta X   Delta X   Delta X     New X
                                 (Linear)    (Quad)   (Total)
    R1        2.92624  -0.00173   0.00000  -0.00582  -0.00582   2.92042
    R2        2.91153  -0.00766   0.00000  -0.02524  -0.02524   2.88629
    R3        2.06418  -0.00416   0.00000  -0.01140  -0.01140   2.05278
    R4        2.73228  -0.01087   0.00000  -0.02671  -0.02671   2.70557
    R5        2.93049  -0.01092   0.00000  -0.03703  -0.03703   2.89346
    R6        2.06857  -0.00021   0.00000  -0.00059  -0.00059   2.06798
    R7        2.73259  -0.01259   0.00000  -0.03094  -0.03094   2.70164
    R8        2.89229  -0.01182   0.00000  -0.03780  -0.03780   2.85449
    R9        2.07271  -0.00257   0.00000  -0.00714  -0.00714   2.06557
   R10        2.72714  -0.00584   0.00000  -0.01422  -0.01422   2.71292
   R11        2.89483  -0.00765   0.00000  -0.02456  -0.02456   2.87027
   R12        2.07146  -0.00115   0.00000  -0.00320  -0.00320   2.06826
   R13        2.71260  -0.01128   0.00000  -0.02677  -0.02677   2.68583
   R14        2.06614   0.00028   0.00000   0.00077   0.00077   2.06691
   R15        2.06729  -0.00047   0.00000  -0.00131  -0.00131   2.06598
   R16        2.70313  -0.00191   0.00000  -0.00446  -0.00446   2.69868
   R17        2.06747  -0.00324   0.00000  -0.00893  -0.00893   2.05854
   R18        2.06954  -0.00064   0.00000  -0.00178  -0.00178   2.06776
   R19        2.69510  -0.00428   0.00000  -0.00985  -0.00985   2.68526
   R20        1.84147  -0.01905   0.00000  -0.03504  -0.03504   1.80643
   R21        1.85620  -0.02050   0.00000  -0.03879  -0.03879   1.81741
   R22        1.85165  -0.01813   0.00000  -0.03399  -0.03399   1.81765
   R23        1.85914  -0.01810   0.00000  -0.03445  -0.03445   1.82470
   R24        1.85305  -0.01742   0.00000  -0.03276  -0.03276   1.82029
   R25        1.85186  -0.01870   0.00000  -0.03509  -0.03509   1.81677
    A1        1.97985   0.00272   0.00000   0.02489   0.02285   2.00270
    A2        1.95498  -0.00362   0.00000  -0.04721  -0.04691   1.90806
    A3        1.87697   0.00333   0.00000   0.04563   0.04401   1.92098
    A4        1.89984  -0.00210   0.00000  -0.03733  -0.03723   1.86261
    A5        1.87823   0.00085   0.00000   0.03299   0.03095   1.90918
    A6        1.86907  -0.00111   0.00000  -0.01652  -0.01538   1.85369
    A7        2.00132  -0.00070   0.00000  -0.00875  -0.00919   1.99213
    A8        1.94498  -0.00178   0.00000  -0.01937  -0.02082   1.92415
    A9        1.88340   0.00615   0.00000   0.04744   0.04739   1.93079
   A10        1.89731  -0.00132   0.00000  -0.03688  -0.03745   1.85986
   A11        1.87292  -0.00417   0.00000  -0.01351  -0.01337   1.85955
   A12        1.85707   0.00202   0.00000   0.03623   0.03610   1.89317
   A13        1.97487   0.00084   0.00000  -0.00194  -0.00225   1.97262
   A14        1.91504  -0.00276   0.00000  -0.03467  -0.03502   1.88002
   A15        1.91779  -0.00012   0.00000   0.00612   0.00620   1.92399
   A16        1.91330  -0.00088   0.00000  -0.01592  -0.01657   1.89673
   A17        1.89530   0.00021   0.00000   0.01047   0.01047   1.90577
   A18        1.84280   0.00287   0.00000   0.03928   0.03951   1.88231
   A19        1.95601   0.00425   0.00000   0.00929   0.00930   1.96530
   A20        1.90590  -0.00682   0.00000  -0.05251  -0.05276   1.85314
   A21        1.96910   0.00466   0.00000   0.02770   0.02782   1.99692
   A22        1.89522   0.00146   0.00000   0.00191   0.00187   1.89708
   A23        1.87163  -0.00824   0.00000  -0.03763  -0.03754   1.83409
   A24        1.86236   0.00472   0.00000   0.05347   0.05389   1.91625
   A25        1.95066  -0.00281   0.00000  -0.03030  -0.03008   1.92058
   A26        1.94134  -0.00091   0.00000  -0.02096  -0.02088   1.92046
   A27        1.88289  -0.01136   0.00000  -0.04388  -0.04364   1.83925
   A28        1.91604  -0.00027   0.00000  -0.00435  -0.00634   1.90970
   A29        1.86810   0.00883   0.00000   0.06007   0.05919   1.92729
   A30        1.90249   0.00701   0.00000   0.04411   0.04321   1.94570
   A31        1.94472  -0.00125   0.00000  -0.01710  -0.01732   1.92740
   A32        1.92881  -0.00604   0.00000  -0.03139  -0.03218   1.89664
   A33        1.92941   0.00526   0.00000   0.02537   0.02534   1.95475
   A34        1.89275   0.00144   0.00000  -0.00175  -0.00225   1.89049
   A35        1.89402  -0.00357   0.00000  -0.02412  -0.02386   1.87016
   A36        1.87208   0.00435   0.00000   0.05116   0.05138   1.92346
   A37        1.86532   0.00641   0.00000   0.03581   0.03581   1.90113
   A38        1.81184   0.00977   0.00000   0.05457   0.05457   1.86641
   A39        1.83288   0.00325   0.00000   0.01817   0.01817   1.85105
   A40        1.84901   0.00103   0.00000   0.00578   0.00578   1.85479
   A41        1.86491   0.00421   0.00000   0.02349   0.02349   1.88840
   A42        1.82023   0.00215   0.00000   0.01198   0.01198   1.83221
    D1        2.98062  -0.00501   0.00000  -0.14355  -0.14373   2.83689
    D2        0.81602  -0.00123   0.00000  -0.07100  -0.07150   0.74451
    D3       -1.21677  -0.00637   0.00000  -0.13250  -0.13270  -1.34947
    D4        0.82130  -0.00144   0.00000  -0.07559  -0.07572   0.74559
    D5       -1.34330   0.00235   0.00000  -0.00304  -0.00349  -1.34679
    D6        2.90710  -0.00280   0.00000  -0.06454  -0.06468   2.84242
    D7       -1.22775  -0.00009   0.00000  -0.05703  -0.05639  -1.28414
    D8        2.89083   0.00369   0.00000   0.01553   0.01585   2.90667
    D9        0.85804  -0.00145   0.00000  -0.04598  -0.04535   0.81269
   D10       -1.27236   0.00295   0.00000   0.05664   0.05696  -1.21540
   D11        2.86802   0.00553   0.00000   0.10424   0.10425   2.97226
   D12        0.84924   0.00371   0.00000   0.07321   0.07344   0.92268
   D13        0.91677  -0.00146   0.00000  -0.01603  -0.01580   0.90097
   D14       -1.22604   0.00113   0.00000   0.03157   0.03149  -1.19455
   D15        3.03837  -0.00069   0.00000   0.00053   0.00068   3.03905
   D16        2.93674  -0.00340   0.00000  -0.03721  -0.03737   2.89937
   D17        0.79393  -0.00081   0.00000   0.01039   0.00992   0.80385
   D18       -1.22485  -0.00263   0.00000  -0.02065  -0.02088  -1.24573
   D19       -1.08626  -0.00183   0.00000  -0.00206  -0.00271  -1.08897
   D20        1.05262   0.00384   0.00000   0.07321   0.07391   1.12653
   D21        3.09277   0.00125   0.00000   0.03796   0.03791   3.13067
   D22       -1.49489   0.00326   0.00000  -0.00917  -0.00928  -1.50417
   D23        2.68763   0.00329   0.00000   0.01786   0.01732   2.70495
   D24        0.61986  -0.00098   0.00000  -0.03131  -0.03126   0.58860
   D25        0.69483  -0.00068   0.00000  -0.07108  -0.07089   0.62394
   D26       -1.40583  -0.00065   0.00000  -0.04405  -0.04429  -1.45012
   D27        2.80959  -0.00492   0.00000  -0.09323  -0.09287   2.71671
   D28        2.69666  -0.00114   0.00000  -0.05414  -0.05394   2.64272
   D29        0.59600  -0.00110   0.00000  -0.02710  -0.02734   0.56866
   D30       -1.47177  -0.00537   0.00000  -0.07628  -0.07592  -1.54769
   D31        0.93130   0.00234   0.00000   0.06089   0.06154   0.99284
   D32        3.09665   0.00265   0.00000   0.07042   0.07066  -3.11587
   D33       -1.15797   0.00012   0.00000   0.03924   0.03835  -1.11961
   D34        1.07552  -0.00049   0.00000  -0.00677  -0.00677   1.06875
   D35       -1.07290   0.00256   0.00000   0.03611   0.03602  -1.03688
   D36        3.12460   0.00166   0.00000   0.02207   0.02203  -3.13655
   D37       -3.06389  -0.00412   0.00000  -0.06473  -0.06462  -3.12851
   D38        1.07087  -0.00107   0.00000  -0.02185  -0.02183   1.04905
   D39       -1.01481  -0.00197   0.00000  -0.03590  -0.03582  -1.05062
   D40       -1.05868  -0.00105   0.00000  -0.02080  -0.02080  -1.07948
   D41        3.07608   0.00199   0.00000   0.02208   0.02200   3.09808
   D42        0.99040   0.00109   0.00000   0.00803   0.00801   0.99841
   D43       -3.03416  -0.00039   0.00000   0.01008   0.01011  -3.02405
   D44       -0.86565   0.00073   0.00000   0.01863   0.01851  -0.84714
   D45        1.18504   0.00132   0.00000   0.02584   0.02593   1.21098
   D46       -0.97251   0.00230   0.00000   0.02837   0.02863  -0.94388
   D47       -3.07817   0.00541   0.00000   0.06327   0.06298  -3.01519
   D48        1.13516   0.00051   0.00000   0.00363   0.00377   1.13893
   D49        1.13435  -0.00255   0.00000  -0.03015  -0.03002   1.10433
   D50       -0.97131   0.00055   0.00000   0.00475   0.00432  -0.96699
   D51       -3.04116  -0.00434   0.00000  -0.05489  -0.05489  -3.09605
   D52        3.14065  -0.00056   0.00000   0.01382   0.01411  -3.12843
   D53        1.03499   0.00254   0.00000   0.04872   0.04845   1.08344
   D54       -1.03486  -0.00235   0.00000  -0.01092  -0.01076  -1.04562
   D55        0.42599  -0.00386   0.00000  -0.07412  -0.07345   0.35253
   D56        2.58802  -0.00130   0.00000  -0.07107  -0.07088   2.51714
   D57       -1.66703  -0.00129   0.00000  -0.06081  -0.06166  -1.72868
   D58        3.07063   0.00085   0.00000   0.01805   0.01818   3.08881
   D59       -1.11082  -0.00377   0.00000  -0.00844  -0.01014  -1.12096
   D60        0.96050   0.00462   0.00000   0.04376   0.04533   1.00583
   D61        0.99968  -0.00092   0.00000  -0.00795  -0.00735   0.99234
   D62        3.13729  -0.00149   0.00000  -0.02893  -0.02880   3.10849
   D63       -1.10438   0.00068   0.00000  -0.01619  -0.01693  -1.12131
         Item               Value     Threshold  Converged?
 Maximum Force            0.020501     0.000450     NO 
 RMS     Force            0.005723     0.000300     NO 
 Maximum Displacement     0.374707     0.001800     NO 
 RMS     Displacement     0.107555     0.001200     NO 
 Predicted change in Energy=-1.168707D-02
 GradGradGradGradGradGradGradGradGradGradGradGradGradGradGradGradGradGrad

                          Input orientation:                          
 ---------------------------------------------------------------------
 Center     Atomic      Atomic             Coordinates (Angstroms)
 Number     Number       Type             X           Y           Z
 ---------------------------------------------------------------------
      1          6           0        0.018257   -0.061284   -0.095081
      2          6           0        1.563171   -0.055402   -0.056065
      3          6           0       -0.601617    0.974650   -1.030722
      4          6           0        2.161680   -0.772862    1.156979
      5          1           0        1.937325    0.972552   -0.026431
      6          1           0       -0.367222    0.145373    0.899259
      7          6           0       -0.427306    2.392741   -0.540475
      8          1           0       -1.670595    0.758766   -1.104532
      9          6           0        2.281208    0.132722    2.370500
     10          1           0        3.164702   -1.092729    0.857798
     11          1           0        0.636515    2.637216   -0.470995
     12          1           0       -0.891911    2.509048    0.442303
     13          1           0        2.835402    1.035888    2.117898
     14          1           0        2.830362   -0.400288    3.152566
     15          8           0       -1.064289    3.213297   -1.520447
     16          1           0       -1.024818    4.124691   -1.234807
     17          8           0       -0.037170    0.857081   -2.345474
     18          1           0       -0.377453    1.592623   -2.863271
     19          8           0       -0.459258   -1.364636   -0.445924
     20          1           0       -0.125084   -1.541235   -1.330411
     21          8           0        2.098672   -0.699094   -1.214854
     22          1           0        1.737386   -0.228781   -1.976849
     23          8           0        1.412405   -1.894499    1.604811
     24          1           0        0.845347   -2.185272    0.882484
     25          8           0        1.010227    0.542901    2.855821
     26          1           0        0.538765   -0.274567    3.039517
 ---------------------------------------------------------------------
                    Distance matrix (angstroms):
                    1          2          3          4          5
     1  C    0.000000
     2  C    1.545418   0.000000
     3  C    1.527359   2.587908   0.000000
     4  C    2.582298   1.531156   3.933909   0.000000
     5  H    2.180907   1.094330   2.730354   2.120675   0.000000
     6  H    1.086284   2.163185   2.113638   2.702761   2.617644
     7  C    2.533602   3.192186   1.510533   4.427780   2.805826
     8  H    2.131593   3.495624   1.093054   4.706022   3.771617
     9  C    3.352264   2.537554   4.537381   1.518881   2.562976
    10  H    3.445574   2.115679   4.693157   1.094476   2.560020
    11  H    2.793825   2.877681   2.147183   4.074931   2.158900
    12  H    2.779171   3.584997   2.146730   4.539396   3.253477
    13  H    3.746648   2.745105   4.661616   2.156117   2.325661
    14  H    4.309301   3.466992   5.582905   2.137362   3.576063
    15  O    3.731816   4.442111   2.337827   5.784890   4.032705
    16  H    4.461991   5.055718   3.184887   6.313512   4.491151
    17  O    2.431200   2.938556   1.435617   4.445091   3.047938
    18  H    3.248826   3.789777   1.946889   5.310850   3.713536
    19  O    1.431725   2.440553   2.415474   3.128707   3.373727
    20  H    1.933091   2.584930   2.578095   3.465082   3.503287
    21  O    2.447206   1.429648   3.182276   2.373816   2.057373
    22  H    2.554313   1.936446   2.795414   3.208883   2.299415
    23  O    2.862510   2.482644   4.385697   1.421281   3.340131
    24  H    2.480129   2.435671   3.967262   1.950124   3.462715
    25  O    3.171257   3.023705   4.229618   2.437855   3.058020
    26  H    3.184670   3.268037   4.407704   2.534975   3.593231
                    6          7          8          9         10
     6  H    0.000000
     7  C    2.669664   0.000000
     8  H    2.467834   2.129272   0.000000
     9  C    3.029668   4.573566   5.299483   0.000000
    10  H    3.742874   5.196749   5.537045   2.137887   0.000000
    11  H    3.015687   1.093761   3.041826   4.129358   4.697863
    12  H    2.463954   1.093269   2.462221   4.408350   5.440731
    13  H    3.540466   4.421907   5.546608   1.089334   2.495456
    14  H    3.949643   5.661445   6.302769   1.094211   2.420169
    15  O    3.969009   1.428077   2.562287   5.985128   6.487086
    16  H    4.563073   1.959277   3.429789   6.313783   7.010888
    17  O    3.338226   2.401766   2.053699   5.304713   4.930994
    18  H    4.031286   2.457246   2.336814   6.049144   5.796925
    19  O    2.024380   3.758702   2.531785   4.205291   3.860921
    20  H    2.806190   4.023867   2.780221   4.721134   3.976444
    21  O    3.356073   4.049049   4.042882   3.685104   2.363737
    22  H    3.583485   3.690724   3.653837   4.396120   3.289204
    23  O    2.797491   5.134902   4.887253   2.334678   2.066739
    24  H    2.627263   4.960107   4.352649   3.106281   2.563917
    25  O    2.425599   4.125923   4.787254   1.420977   3.362907
    26  H    2.361751   4.567731   4.808553   1.910386   3.510674
                   11         12         13         14         15
    11  H    0.000000
    12  H    1.785113   0.000000
    13  H    3.755226   4.344040   0.000000
    14  H    5.212446   5.446566   1.770074   0.000000
    15  O    2.079893   2.092384   5.760752   7.075546   0.000000
    16  H    2.357120   2.332523   5.973494   7.388294   0.955922
    17  O    2.671405   3.351310   5.310870   6.327098   2.699517
    18  H    2.800409   3.468620   5.953523   7.102962   2.213934
    19  O    4.149237   3.997695   4.815649   4.969979   4.741111
    20  H    4.333369   4.487241   5.224641   5.489399   4.850133
    21  O    3.717821   4.688489   3.828860   4.438357   5.040289
    22  H    3.419570   4.501246   4.424023   5.247372   4.461568
    23  O    5.044544   5.104168   3.297779   2.576590   6.480033
    24  H    5.013174   5.024786   3.982768   3.504244   6.210100
    25  O    3.948864   3.648142   2.029490   2.071365   5.530494
    26  H    4.561987   4.067046   2.800217   2.297825   5.960557
                   16         17         18         19         20
    16  H    0.000000
    17  O    3.589749   0.000000
    18  H    3.079341   0.961731   0.000000
    19  O    5.574487   2.953384   3.820424   0.000000
    20  H    5.737715   2.605764   3.497773   0.961861   0.000000
    21  O    5.746780   2.874336   3.755056   2.752672   2.380681
    22  H    5.208946   2.112826   2.928447   2.908461   2.368378
    23  O    7.087604   5.027645   5.943683   2.826551   3.332295
    24  H    6.913470   4.522661   5.458792   2.034725   2.500684
    25  O    5.805503   5.315000   5.977925   4.086515   4.812181
    26  H    6.329937   5.532672   6.258495   3.785841   4.597979
                   21         22         23         24         25
    21  O    0.000000
    22  H    0.965587   0.000000
    23  O    3.138545   3.963398   0.000000
    24  H    2.859785   3.577622   0.963255   0.000000
    25  O    4.392910   4.947621   2.769060   3.371079   0.000000
    26  H    4.551175   5.157782   2.333625   2.897858   0.961392
                   26
    26  H    0.000000
 Stoichiometry    C6H14O6
 Framework group  C1[X(C6H14O6)]
 Deg. of freedom    72
 Full point group                 C1      NOp   1
 Largest Abelian subgroup         C1      NOp   1
 Largest concise Abelian subgroup C1      NOp   1
                         Standard orientation:                         
 ---------------------------------------------------------------------
 Center     Atomic      Atomic             Coordinates (Angstroms)
 Number     Number       Type             X           Y           Z
 ---------------------------------------------------------------------
      1          6           0       -0.201652   -0.307632    0.641742
      2          6           0        0.571624   -0.400224   -0.693094
      3          6           0       -1.711621   -0.130791    0.494958
      4          6           0        2.077317   -0.154524   -0.562881
      5          1           0        0.194326    0.343483   -1.401687
      6          1           0        0.159430    0.546268    1.207858
      7          6           0       -2.097778    1.225986   -0.045180
      8          1           0       -2.158693   -0.253615    1.484811
      9          6           0        2.436664    1.319486   -0.634756
     10          1           0        2.544700   -0.671118   -1.407015
     11          1           0       -1.672206    1.367255   -1.042799
     12          1           0       -1.731986    2.012159    0.620677
     13          1           0        2.028425    1.766709   -1.540283
     14          1           0        3.526403    1.413219   -0.666059
     15          8           0       -3.524409    1.216364   -0.108706
     16          1           0       -3.827514    2.074256   -0.401853
     17          8           0       -2.250126   -1.150096   -0.360627
     18          1           0       -3.175784   -0.933519   -0.506157
     19          8           0        0.065790   -1.461944    1.445407
     20          1           0       -0.263704   -2.215514    0.946666
     21          8           0        0.419594   -1.697545   -1.274247
     22          1           0       -0.530157   -1.838669   -1.376307
     23          8           0        2.644327   -0.614460    0.656544
     24          1           0        2.049721   -1.270286    1.036274
     25          8           0        1.912689    2.049395    0.466087
     26          1           0        2.266796    1.611848    1.245468
 ---------------------------------------------------------------------
 Rotational constants (GHZ):           1.3203686           0.5952893           0.5016425
 Standard basis: def2TZVPP (5D, 7F)
 There are   642 symmetry adapted cartesian basis functions of A   symmetry.
 There are   568 symmetry adapted basis functions of A   symmetry.
   568 basis functions,   850 primitive gaussians,   642 cartesian basis functions
    49 alpha electrons       49 beta electrons
       nuclear repulsion energy       840.1307703023 Hartrees.
 NAtoms=   26 NActive=   26 NUniq=   26 SFac= 1.00D+00 NAtFMM=   60 NAOKFM=F Big=F
 Integral buffers will be    131072 words long.
 Raffenetti 2 integral format.
 Two-electron integral symmetry is turned on.
 Nuclear repulsion after empirical dispersion term =      840.1117041225 Hartrees.
 One-electron integrals computed using PRISM.
   1 Symmetry operations used in ECPInt.
 ECPInt:  NShTT=   23436 NPrTT=   62434 LenC2=   22057 LenP2D=   45988.
 LDataN:  DoStor=T MaxTD1= 6 Len=  172
 NBasis=   568 RedAO= T EigKep=  4.14D-05  NBF=   568
[...]
 0046205,0.00080125,0.00006970,-0.00019966,0.00007514,-0.00013474,0.001
 82027,0.00063309,-0.00077895,0.00007816,-0.00001755,-0.00007615,0.3046
 7958,-0.05669186,-0.19421352,-0.02467032,-0.01483592,-0.02212966,-0.00
 812575,-0.00985054,-0.04912640,-0.01449718,-0.00324545,-0.00541144,0.0
 0474361,-0.00324659,0.00174860,0.00011406,-0.00627569,-0.01834901,-0.0
 0808380,0.00181395,0.00157223,0.00779150,-0.00129967,0.00231912,-0.001
 59202,0.00133433,-0.00003412,-0.00046244,0.00001701,0.00074963,-0.0008
 4211,-0.00041371,-0.00010499,-0.00008851,0.00012583,0.00009382,-0.0001
 4537,0.00012835,0.00051691,0.00025967,-0.00019248,0.00011769,-0.000354
 03,0.00033253,-0.00537773,0.00030453,0.00047208,-0.00022178,0.00053163
 ,-0.00115761,0.00167906,0.00215351,-0.00002942,0.00022638,-0.00028109,
 0.00609618,0.35308559,-0.00949840,-0.05309585,-0.09449728,-0.00123188,
 -0.01058387,-0.00388666,0.00563946,0.01662942,0.00800834,0.00326817,0.
 00294316,-0.00110785,-0.00182860,0.00063444,0.00097439,-0.01320224,-0.
 03537721,-0.00569471,-0.00027047,0.00105777,-0.00285458,0.00197685,-0.
 00101773,0.00129394,0.00063039,-0.00053960,0.00033488,-0.00070868,-0.0
 0025984,0.00015855,0.00022371,0.00050629,-0.00001013,-0.00036209,0.000
 35523,0.00046348,-0.00006219,-0.00030491,-0.00006032,-0.00003274,0.000
 25280,0.00014981,-0.00005533,0.00105841,0.00075047,-0.00021662,0.00013
 988,-0.00010201,-0.00006026,-0.00012053,0.00327000,-0.00020658,-0.0001
 4792,0.00073091,-0.21707906,0.16713443,0.39153852,0.00960330,-0.003335
 68,-0.01083585,0.00042289,-0.00492489,-0.00648803,0.00040838,0.0001292
 3,-0.00011427,0.00006891,0.00067301,-0.00041720,-0.00013547,0.00105312
 ,0.00114760,-0.00142251,-0.00342007,-0.00188200,0.00013536,0.00027553,
 0.00042646,-0.00039439,0.00040733,0.00006314,0.00048971,-0.00055839,-0
 .00020672,-0.00030616,0.00006379,-0.00022027,-0.00010845,-0.00023929,-
 0.00007805,-0.00006080,0.00002509,0.00001371,-0.00005767,-0.00005836,-
 0.00003403,-0.00003729,0.00010196,0.00018501,-0.00013647,-0.00038058,0
 .00001191,0.00008009,-0.00002017,0.00001515,-0.00127227,-0.00025484,0.
 00009683,-0.00014123,0.00013927,0.00004442,-0.18930160,0.08015531,0.23
 450287,0.17993401,0.02121129,-0.01976737,-0.03637697,0.00003940,-0.000
 57749,-0.00317091,0.00150173,-0.00183293,-0.00197397,0.00029724,0.0008
 0373,-0.00039582,0.00046552,0.00008055,-0.00001475,-0.00217243,-0.0050
 9410,-0.00025013,0.00008288,-0.00027920,0.00012359,-0.00005623,-0.0002
 1286,0.00011338,0.00014694,-0.00020681,-0.00005927,0.00001028,0.000045
 31,0.00004875,0.00001012,0.00009025,-0.00003725,-0.00009673,0.00017640
 ,0.00014978,-0.00004103,-0.00005794,-0.00003356,-0.00000304,0.00003554
 ,0.00012226,-0.00018943,0.00022148,0.00010012,0.00001105,-0.00006337,0
 .00006210,-0.00040819,0.00060332,0.00043976,0.00003659,0.00007772,0.00
 040014,0.05026820,-0.07549912,-0.09009168,-0.07176463,0.10170972,0.004
 92273,-0.00822806,-0.01200219,0.00048983,0.00012754,0.00059175,-0.0002
 8517,0.00183942,0.00248682,-0.00114285,-0.00090427,-0.00036100,0.00104
 435,-0.00011865,-0.00057056,-0.00071361,-0.00289937,0.00053575,0.00006
 713,-0.00002019,-0.00046718,0.00004478,-0.00003403,0.00003337,0.000251
 01,-0.00012242,-0.00026749,0.00018044,-0.00002959,0.00006495,-0.000016
 06,-0.00004548,-0.00001398,-0.00001321,-0.00007988,-0.00004458,-0.0000
 0058,0.00009643,0.00003341,-0.00002938,0.00000509,0.00002664,-0.000061
 38,0.00038050,-0.00019346,-0.00001962,0.00003808,-0.00004513,0.0002417
 0,-0.00061497,-0.00076574,0.00000211,0.00000314,-0.00004535,0.21246586
 ,-0.11922143,-0.29729322,-0.21992011,0.12602955,0.31434985,-0.02352553
 ,0.01574410,0.03845810,-0.08686805,0.03602004,0.02532717,0.00182053,-0
 .00186400,0.00099121,0.00319326,-0.00526338,-0.00829032,0.00647930,0.0
 0032629,-0.00349735,-0.00811660,-0.00014048,-0.00140466,-0.00043835,-0
 .00105476,-0.00000375,0.00026848,-0.00009444,-0.00021837,-0.00149475,0
 .00150436,-0.00129595,0.00214533,-0.00124982,-0.00039107,0.00021418,0.
 00019974,0.00006277,0.00013175,0.00004489,-0.00014566,0.00012489,0.000
 29567,0.00021628,-0.00000312,-0.00027077,-0.00053450,0.00007410,0.0011
 2543,-0.00025023,-0.00015281,-0.00009569,0.00007124,-0.00209124,0.0077
 6394,-0.00552726,-0.00153636,-0.00015752,0.00094424,-0.00389703,0.0040
 7393,0.00760983,0.00258599,0.00399428,0.00041311,0.16940529,0.00298708
 ,-0.00773060,-0.01317689,0.03810890,-0.12488145,-0.03152425,-0.0012973
 0,0.00024662,0.00060923,-0.00574286,0.01006004,0.01333655,0.01800319,-
 0.01631624,-0.03716286,0.00152768,0.00070878,0.00078209,-0.00078236,-0
 .00015770,-0.00074577,0.00051218,0.00003640,-0.00009691,0.00102238,-0.
 00210654,0.00170746,-0.00147921,0.00105583,-0.00017669,0.00041646,0.00
 064996,0.00023330,0.00024206,-0.00002612,0.00001291,0.00045061,0.00049
 348,0.00026357,0.00035574,0.00062749,0.00025894,0.00077297,-0.00042167
 ,0.00049389,-0.00014116,0.00021734,-0.00006333,0.00536480,-0.00421200,
 0.00326715,0.00123190,0.00056421,-0.00073560,-0.00744804,0.00544662,0.
 00588353,0.00486699,0.00088130,0.00096420,-0.15402773,0.31978097,0.015
 43457,-0.00936120,-0.01627942,0.04569166,-0.06971028,-0.17186839,0.002
 72282,0.00239481,-0.00674107,0.00974126,-0.02125415,-0.04202058,0.0061
 4897,-0.01433811,-0.01354193,0.00254653,0.00000421,0.00144284,-0.00115
 852,0.00040701,-0.00042992,-0.00010957,-0.00058452,0.00138395,-0.00237
 971,0.00606731,-0.00291450,0.00220895,-0.00092669,0.00168776,0.0003262
 2,0.00043255,-0.00003972,-0.00011859,0.00046972,0.00032786,0.00014340,
 -0.00000082,0.00036397,-0.00051220,-0.00106997,-0.00205165,0.00040388,
 -0.00047666,0.00132648,-0.00005291,0.00008185,0.00003060,-0.00692358,0
 .00480518,0.00272478,-0.00125009,-0.00052098,0.00095481,-0.00039811,-0
 .00143831,0.00464567,0.00221988,0.00243811,-0.00307876,0.03881903,-0.1
 2397059,0.56340425,0.00024839,-0.00063407,0.00281089,0.00449281,-0.008
 41080,0.01361857,-0.00356836,0.00002982,0.00486319,-0.00075023,0.00239
 292,0.00095923,0.00018378,0.00134649,0.00010272,-0.00010699,0.00027135
 ,-0.00037694,0.00076565,0.00043787,-0.00009197,0.00047579,0.00008602,-
 0.00060398,0.00089980,-0.00060129,0.00001281,0.00028397,-0.00010073,-0
 .00019592,-0.00018864,-0.00018676,-0.00001229,0.00006369,-0.00039719,-
 0.00022732,-0.00006656,-0.00006262,-0.00004858,-0.00000646,0.00016619,
 0.00020199,0.00000597,-0.00065028,-0.00043600,0.00010146,0.00009279,-0
 .00014714,-0.00076491,-0.00188306,-0.00040636,0.00216702,0.00022713,-0
 .00164123,-0.00195276,0.00069324,-0.00116372,-0.00014005,-0.00245031,0
 .00185537,-0.06033989,0.09480556,-0.11459889,0.05843509,0.00067137,0.0
 0204237,-0.00041143,-0.00551437,0.01079986,-0.01949042,0.00196342,0.00
 106181,-0.00476642,0.00174144,-0.00201019,-0.00342732,-0.00036742,-0.0
 0023772,-0.00159799,0.00046376,-0.00032553,0.00008927,-0.00003490,-0.0
 0000766,0.00027905,-0.00063046,-0.00009884,0.00098628,-0.00058563,0.00
 078195,-0.00062196,-0.00001578,-0.00004169,0.00014887,-0.00001730,-0.0
 0003903,-0.00018286,-0.00018896,0.00025450,0.00017638,-0.00004500,-0.0
 0002364,0.00001292,-0.00006063,-0.00017161,-0.00032977,-0.00025889,0.0
 0008797,0.00033378,0.00008484,-0.00011368,0.00006453,-0.00237074,-0.00
 150102,0.00244518,-0.00062505,-0.00099856,0.00072289,0.00039271,-0.001
 07021,-0.00095574,-0.00254277,-0.00154523,0.00184171,0.09217508,-0.187
 05473,0.22460068,-0.08463757,0.18001181,0.00154247,0.00017861,0.001096
 83,-0.00821270,0.01872396,-0.03513675,0.00143839,-0.00195413,0.0028593
 9,0.00187275,-0.00371465,-0.00427795,-0.00134433,0.00067218,0.00171390
 ,-0.00083902,-0.00009316,0.00001662,0.00062539,-0.00014818,-0.00026353
 ,0.00015390,0.00006897,-0.00057433,-0.00045128,0.00104086,-0.00071045,
 0.00032823,-0.00024445,0.00004243,-0.00012264,-0.00017604,-0.00003603,
 -0.00001086,-0.00023353,-0.00015181,-0.00008352,-0.00006681,-0.0000313
 8,-0.00009573,-0.00023401,-0.00016861,-0.00018130,0.00038302,-0.000436
 74,-0.00000059,-0.00001646,-0.00000776,-0.00060632,0.00222985,-0.00537
 922,-0.00061384,0.00044347,-0.00033398,-0.00139137,0.00030269,0.000206
 25,0.00189659,0.00086638,0.00038554,-0.08945694,0.18129256,-0.31727981
 ,0.09547177,-0.19941682,0.35806768,-0.00339590,-0.00410797,0.00037059,
 0.00344950,0.00156175,-0.00099128,0.00099601,-0.00031563,0.00025064,-0
 .13383678,-0.08323238,0.03518311,0.00035684,0.00144169,-0.00104424,0.0
 0084110,-0.00045245,-0.00112093,-0.00020662,-0.00032866,-0.00024718,0.
 00034166,-0.00011166,0.00023953,-0.01817685,-0.02185290,0.00833905,-0.
 02235566,-0.03379260,0.01412225,0.00014402,0.00018075,0.00001007,0.000
 06007,-0.00006037,-0.00007066,0.00052486,-0.00308603,-0.00328442,0.000
 59229,0.00106276,0.00128545,0.00012564,0.00046032,-0.00008349,-0.00010
 812,-0.00001198,-0.00001663,0.00052151,0.00062711,-0.00087934,0.000032
 93,-0.00012912,-0.00010877,-0.00277690,0.00701594,-0.00943041,-0.00176
 550,0.00053878,0.00032051,0.00268256,0.00058951,0.00115652,-0.00043532
 ,0.00019819,-0.00013022,0.38091661,-0.00382205,-0.00321244,-0.00219008
 ,-0.01355038,-0.02611675,0.00944770,-0.00081286,0.00095120,-0.00016226
 ,-0.06171615,-0.14170294,0.05487303,0.00160137,-0.00155684,0.00489188,
 -0.00023978,0.00020095,0.00044681,-0.00057091,0.00016049,-0.00057496,0
 .00027662,-0.00009833,0.00020895,-0.02612906,-0.03451372,0.00568475,-0
 .00933575,0.00368456,0.00449095,0.00023424,0.00028529,0.00007010,0.000
 06221,0.00002260,0.00002718,-0.00055793,-0.00295415,-0.00439399,0.0005
 9348,0.00159591,0.00035282,0.00044490,-0.00028387,0.00038946,-0.000127
 52,0.00012715,-0.00003905,0.00059490,-0.00007899,0.00069921,-0.0000514
 3,0.00002856,-0.00009702,0.00084353,0.00585039,-0.00005627,-0.00016357
 ,-0.00103369,0.00098530,0.00052573,0.00202048,0.00283814,-0.00045680,0
 .00042823,-0.00009901,0.22438293,0.25451721,0.00139921,-0.00506550,0.0
 0035421,0.02144715,0.02654673,-0.00755241,0.00086287,0.00034815,0.0001
 8882,0.00690472,0.02921066,-0.11234100,-0.00170887,0.00249783,-0.00477
 899,-0.00086783,0.00057489,-0.00021018,0.00028549,-0.00014700,-0.00021
 402,0.00007303,-0.00011414,0.00006015,-0.01569140,-0.02077853,0.010290
 50,0.01064910,0.01255441,-0.00154647,-0.00002790,-0.00010553,-0.000138
 19,-0.00019828,0.00001520,0.00002066,-0.00050578,-0.00473890,-0.003955
 23,0.00054918,0.00079595,0.00261874,-0.00026445,0.00053680,-0.00001921
 ,0.00002596,-0.00006325,-0.00004297,-0.00040918,0.00036978,-0.00020328
 ,0.00001240,-0.00013733,0.00011657,-0.00845188,0.00474693,-0.00780869,
 -0.00002256,0.00033014,0.00103996,-0.00049415,0.00005949,-0.00126137,-
 0.00011290,-0.00056112,0.00036618,0.19468082,0.01865355,0.40463727,0.0
 0278943,0.00613536,0.00081215,0.00394323,-0.00006800,0.00056593,-0.000
 30163,-0.00071904,-0.00061842,-0.01907730,-0.00914640,-0.01350848,-0.0
 0070057,0.00046200,-0.00078496,-0.00006903,0.00031699,-0.00001345,0.00
 016363,0.00024970,0.00042975,-0.00025543,0.00019585,-0.00016651,-0.000
 68775,-0.00016399,0.00112142,-0.00106586,-0.00143204,-0.00016529,-0.00
 012844,-0.00014637,-0.00001202,-0.00001069,0.00002287,0.00002478,0.000
 36741,0.00046785,-0.00013698,-0.00008550,0.00005173,-0.00003385,-0.000
 06348,-0.00044805,0.00001589,0.00006871,-0.00000548,0.00002613,-0.0004
 6986,-0.00030355,0.00035469,-0.00001205,0.00008573,0.00000742,-0.00290
 875,-0.00385799,0.00277913,0.00216681,-0.00120603,0.00006336,-0.001802
 30,0.00022078,-0.00087492,0.00061865,0.00008957,0.00010168,-0.21406761
 ,-0.10915198,-0.20416357,0.23100495,0.00219593,-0.00521128,0.00397669,
 -0.00141975,0.00096510,0.00078254,-0.00003377,-0.00085485,0.00019163,-
 0.02131283,-0.01475307,-0.02323269,0.00023519,0.00059026,-0.00090981,0
 .00071181,-0.00105930,-0.00011703,0.00011860,-0.00035600,0.00006086,-0
 .00006355,0.00013414,-0.00010869,-0.00524814,-0.00543075,0.00286959,0.
 00071990,0.00026385,-0.00032736,-0.00000064,-0.00000536,-0.00002621,-0
 .00000340,-0.00002506,-0.00003569,-0.00021876,-0.00128573,-0.00145688,
 0.00009394,0.00024433,0.00027355,-0.00013390,0.00042215,-0.00017969,0.
 00001055,-0.00005578,0.00000150,0.00001138,0.00039053,-0.00065289,0.00
 003670,-0.00008389,0.00002521,-0.00217302,-0.00164081,-0.00383915,-0.0
 0036128,0.00145167,-0.00005521,0.00065713,-0.00050240,-0.00026449,-0.0
 0008955,-0.00012417,0.00019918,-0.09213119,-0.05943711,-0.06598488,0.1
 1804272,0.08578801,0.00119969,0.00894080,0.00205703,0.00199076,0.00340
 127,0.00148138,-0.00021917,-0.00122390,-0.00056819,0.01310066,0.005151
 92,0.01280836,-0.00063171,-0.00001965,-0.00047010,0.00046985,-0.001112
 96,-0.00021679,0.00004202,0.00019235,0.00056285,-0.00026681,0.00019463
 ,-0.00016161,0.00164622,0.00101074,-0.00173686,0.00247710,0.00199698,-
 0.00127937,-0.00009888,-0.00011912,0.00000265,0.00005139,-0.00002120,-
 0.00002438,0.00023227,0.00063657,0.00068503,0.00014373,-0.00009306,0.0
 0008191,0.00003890,-0.00053486,-0.00004896,0.00004191,0.00000039,0.000
 03982,-0.00019385,-0.00035084,0.00006449,0.00001617,0.00010818,-0.0000
 6922,0.00378512,-0.00754912,0.00121976,-0.00051263,0.00118814,-0.00434
 987,-0.00112563,-0.00120572,-0.00067737,0.00018283,-0.00001541,-0.0002
 3093,-0.23564382,-0.09946349,-0.28347091,0.21442327,0.08863492,0.27434
 380,-0.00283119,0.00078836,0.00288515,-0.00077922,0.00208020,-0.001438
 98,0.00078958,-0.00032657,0.00049519,-0.01209994,0.00542065,0.01145092
 ,-0.00024016,-0.00025131,-0.00009749,0.00164140,0.00002689,-0.00131003
 ,-0.00050316,-0.00048415,0.00089488,0.00015006,-0.00012099,0.00011361,
 -0.19726425,0.07379653,0.04977777,0.00213381,0.00054930,0.00035430,-0.
 00009538,0.00003472,0.00010478,0.00061545,-0.00014859,-0.00009854,-0.0
 2795586,0.01244519,0.01336316,-0.03027016,0.01667618,0.01027279,0.0000
 9512,0.00038973,-0.00080664,-0.00010412,-0.00012952,0.00011055,0.00054
 490,0.00015127,-0.00111076,0.00002875,0.00001264,-0.00000713,0.0013956
 2,-0.00147842,-0.00123032,-0.00079189,-0.00021836,-0.00025177,0.001532
 46,-0.00058561,0.00110742,-0.00054758,0.00016318,0.00010316,0.00606699
 ,-0.00243403,-0.00255789,-0.00033042,0.00049198,-0.00090366,0.45033456
 ,-0.00035705,-0.00011978,-0.00105655,-0.00039760,-0.00104487,0.0022432
 2,0.00000800,-0.00056259,-0.00027203,0.02717748,-0.01445779,-0.0128358
 3,0.00020522,0.00079599,-0.00058310,0.00011920,-0.00046650,-0.00055295
 ,-0.00023356,-0.00013090,-0.00050254,-0.00008276,0.00014905,-0.0000248
 8,0.02810299,-0.12083177,-0.00493877,-0.00150765,-0.00288026,-0.004590
 23,0.00028223,0.00008727,-0.00024306,-0.00033749,0.00000385,0.00001647
 ,-0.02101319,0.01514301,0.00764867,0.02433078,-0.00680251,-0.01023172,
 0.00015080,0.00012301,0.00050144,-0.00004125,0.00008078,-0.00010703,-0
 .00028262,0.00050996,0.00007441,-0.00001010,-0.00013467,-0.00010269,-0
 .00060375,0.00063991,-0.00041490,0.00022157,-0.00001486,0.00023017,-0.
 00034555,0.00079661,-0.00064266,0.00003932,-0.00017113,0.00002598,0.00
 266708,0.00075680,-0.00230174,0.00146385,0.00044231,0.00042442,0.12785
 962,0.46571747,-0.00146179,0.00055384,0.00027165,0.00000305,0.00121760
 ,0.00388484,0.00047131,-0.00073567,0.00026438,0.03641031,-0.01692942,-
 0.01142180,-0.00023796,0.00020028,-0.00001574,0.00102237,-0.00071869,-
 0.00233862,0.00055699,-0.00035916,0.00007568,-0.00013925,0.00006189,-0
 .00011868,0.04959954,-0.02624620,-0.08519645,-0.00191866,-0.00569029,-
 0.00487381,-0.00017527,-0.00017498,0.00001202,-0.00000447,-0.00005693,
 -0.00003347,0.01381750,-0.00632957,-0.00436389,-0.01338512,0.00453967,
 0.01499752,-0.00041966,0.00063074,-0.00029127,0.00006718,-0.00012033,-
 0.00004897,-0.00024139,0.00058293,-0.00067979,0.00005208,-0.00011962,0
 .00002205,-0.00032711,-0.00108369,-0.00121313,0.00002689,-0.00000694,0
 .00005398,0.00018316,-0.00022631,-0.00067810,-0.00008160,-0.00000302,0
 .00038812,-0.00012639,0.00105197,0.00249450,-0.00000581,0.00077166,0.0
 0049570,-0.16894693,-0.06553653,0.13693684,0.00048143,-0.00044160,-0.0
 0088677,0.00032721,-0.00000409,0.00048436,-0.00014553,0.00014541,-0.00
 004885,0.00084348,-0.00082250,0.00118573,-0.00010343,-0.00001758,-0.00
 001408,-0.00012492,0.00012908,-0.00072675,0.00030992,0.00010517,-0.000
 15500,-0.00005357,0.00000293,-0.00006105,-0.03133264,-0.02966478,0.015
 92845,-0.00017662,-0.00040276,-0.00041469,-0.00009720,-0.00006186,0.00
 007969,-0.00006525,0.00006180,0.00004805,-0.00484547,0.00397141,0.0014
 8422,0.00061947,-0.00080396,-0.00091646,-0.00013629,-0.00006084,0.0000
 7664,0.00004989,0.00000448,-0.00000868,-0.00013942,-0.00006664,0.00021
 535,-0.00000197,0.00001419,0.00002521,-0.00051005,0.00031665,0.0000091
 9,0.00017629,-0.00000788,0.00009145,-0.00039211,0.00002545,-0.00029403
 ,0.00012566,-0.00004808,0.00000633,-0.00052733,-0.00043971,-0.00141330
 ,0.00091384,-0.00013604,-0.00024573,-0.19151537,-0.18741558,0.08526101
 ,0.22631998,-0.00025336,0.00073139,0.00028868,-0.00053519,-0.00020804,
 0.00006263,0.00004809,-0.00001435,0.00006207,0.00371504,0.00179135,-0.
 00270776,-0.00000269,-0.00019350,0.00022422,0.00020864,0.00042088,0.00
 014647,-0.00015828,-0.00004728,0.00025692,0.00000464,-0.00000271,0.000
 00708,0.01418748,0.01251591,-0.00611093,-0.00071122,-0.00073280,0.0002
 1041,0.00000252,-0.00000243,-0.00001426,0.00011862,-0.00003846,-0.0000
 2420,0.00272786,-0.00007829,-0.00200979,0.00151294,-0.00005647,-0.0000
 0237,0.00004017,0.00001042,-0.00016613,-0.00001807,-0.00002032,0.00002
 817,0.00007329,-0.00007652,-0.00013140,0.00000529,0.00002769,0.0000121
 2,0.00039751,-0.00086715,0.00020984,-0.00008768,0.00000798,-0.00016758
 ,0.00011354,-0.00017667,0.00001985,-0.00002766,0.00006615,-0.00003045,
 -0.00111386,0.00035900,0.00275742,-0.00115608,0.00013320,-0.00017195,-
 0.23470890,-0.33762837,0.11472679,0.21561735,0.32407937,0.00055595,-0.
 00072009,-0.00136319,0.00062767,0.00029437,-0.00099981,-0.00039286,0.0
 0058976,-0.00013955,0.00329488,0.00212540,-0.00149553,-0.00008188,-0.0
 0025007,0.00025604,-0.00163716,0.00033020,-0.00133451,0.00003541,0.000
 33350,-0.00005825,0.00004508,-0.00004594,0.00003128,0.01209799,0.01238
 647,-0.00484157,-0.00049605,0.00011403,0.00053441,-0.00002861,-0.00000
 751,0.00004708,-0.00004154,0.00006026,0.00004175,0.00209916,-0.0018516
 0,-0.00039558,-0.00092674,-0.00067161,0.00103392,0.00008419,-0.0004065
 9,0.00015182,-0.00000229,0.00005088,0.00001908,0.00004851,-0.00043835,
 0.00055823,-0.00003410,0.00009216,0.00002402,0.00007191,0.00035260,0.0
 0078359,0.00008127,-0.00000093,-0.00010352,-0.00046032,-0.00007996,0.0
 0056962,0.00006547,0.00007874,-0.00012367,-0.00278077,0.00196431,0.001
 35539,-0.00024133,-0.00059663,-0.00053823,0.08772646,0.09377245,-0.048
 62356,-0.09971030,-0.10747585,0.05461071\\-0.00001112,0.00002818,0.000
 03138,0.00002478,-0.00001093,-0.00007374,0.00000086,-0.00001066,-0.000
 00594,-0.00000245,-0.00001967,0.00001172,0.00000149,0.00000010,0.00000
 644,0.00000593,0.00000007,-0.00000801,0.00000654,0.00000295,-0.0000007
 3,-0.00000085,0.00000531,0.00000025,-0.00001861,0.00000190,0.00001099,
 -0.00000536,0.00000081,0.00000329,-0.00000372,0.00000116,0.00000269,-0
 .00000504,-0.00000268,0.00000263,0.00000134,-0.00000550,-0.00000095,0.
 00000403,0.00000345,0.00000540,-0.00001490,0.00000610,0.00001004,0.000
 00971,-0.00000785,-0.00000771,0.00001486,0.00000639,0.00000350,0.00000
 085,-0.00001216,0.00000069,0.00000614,-0.00002272,-0.00001268,-0.00000
 224,0.00000533,-0.00000339,-0.00001766,0.00002777,0.00004022,-0.000004
 17,-0.00000264,-0.00000720,0.00001680,-0.00000104,-0.00000101,-0.00000
 716,0.00000843,-0.00000227,-0.00000044,-0.00000275,0.00000039,0.000000
 39,0.00000063,-0.00000598\\\@
 The archive entry for this job was punched.


 A DANDELION FROM A LOVER MEANS MORE THAN AN ORCHID FROM A FRIEND.
 Job cpu time:       0 days 10 hours 28 minutes 11.1 seconds.
 Elapsed time:       0 days  0 hours 39 minutes 28.8 seconds.
 File lengths (MBytes):  RWF=    704 Int=      0 D2E=      0 Chk=     27 Scr=      1
 Normal termination of Gaussian 16 at Wed Oct 11 15:46:31 2023.
