 Entering Gaussian System, Link 0=/opt/software/gaussian/g16.c01/g16
 Initial command:
 /opt/software/gaussian/g16.c01/l1.exe "/scratch/arhender/13209913/Gau-65237.inp" -scrdir="/scratch/arhender/13209913/"
 Entering Link 1 = /opt/software/gaussian/g16.c01/l1.exe PID=     65253.
  
 Copyright (c) 1988-2019, Gaussian, Inc.  All Rights Reserved.
  
 This is part of the Gaussian(R) 16 program.  It is based on
 the Gaussian(R) 09 system (copyright 2009, Gaussian, Inc.),
 the Gaussian(R) 03 system (copyright 2003, Gaussian, Inc.),
 the Gaussian(R) 98 system (copyright 1998, Gaussian, Inc.),
 the Gaussian(R) 94 system (copyright 1995, Gaussian, Inc.),
 the Gaussian 92(TM) system (copyright 1992, Gaussian, Inc.),
 the Gaussian 90(TM) system (copyright 1990, Gaussian, Inc.),
 the Gaussian 88(TM) system (copyright 1988, Gaussian, Inc.),
 the Gaussian 86(TM) system (copyright 1986, Carnegie Mellon
 University), and the Gaussian 82(TM) system (copyright 1983,
 Carnegie Mellon University). Gaussian is a federally registered
 trademark of Gaussian, Inc.
  
 This software contains proprietary and confidential information,
 including trade secrets, belonging to Gaussian, Inc.
  
 This software is provided under written license and may be
 used, copied, transmitted, or stored only in accord with that
 written license.
  
 The following legend is applicable only to US Government
 contracts under FAR:
  
                    RESTRICTED RIGHTS LEGEND
  
 Use, reproduction and disclosure by the US Government is
 subject to restrictions as set forth in subparagraphs (a)
 and (c) of the Commercial Computer Software - Restricted
 Rights clause in FAR 52.227-19.
  
 Gaussian, Inc.
 340 Quinnipiac St., Bldg. 40, Wallingford CT 06492
  
  
 ---------------------------------------------------------------
 Warning -- This program may not be used in any manner that
 competes with the business of Gaussian, Inc. or will provide
 assistance to any competitor of Gaussian, Inc.  The licensee
 of this program is prohibited from giving any competitor of
 Gaussian, Inc. access to this program.  By using this program,
 the user acknowledges that Gaussian, Inc. is engaged in the
 business of creating and licensing software in the field of
 computational chemistry and represents and warrants to the
 licensee that it is not a competitor of Gaussian, Inc. and that
 it will not use this program in any manner prohibited above.
 ---------------------------------------------------------------
  

 Cite this work as:
 Gaussian 16, Revision C.01,
 M. J. Frisch, G. W. Trucks, H. B. Schlegel, G. E. Scuseria, 
 M. A. Robb, J. R. Cheeseman, G. Scalmani, V. Barone, 
 G. A. Petersson, H. Nakatsuji, X. Li, M. Caricato, A. V. Marenich, 
 J. Bloino, B. G. Janesko, R. Gomperts, B. Mennucci, H. P. Hratchian, 
 J. V. Ortiz, A. F. Izmaylov, J. L. Sonnenberg, D. Williams-Young, 
 F. Ding, F. Lipparini, F. Egidi, J. Goings, B. Peng, A. Petrone, 
 T. Henderson, D. Ranasinghe, V. G. Zakrzewski, J. Gao, N. Rega, 
 G. Zheng, W. Liang, M. Hada, M. Ehara, K. Toyota, R. Fukuda, 
 J. Hasegawa, M. Ishida, T. Nakajima, Y. Honda, O. Kitao, H. Nakai, 
 T. Vreven, K. Throssell, J. A. Montgomery, Jr., J. E. Peralta, 
 F. Ogliaro, M. J. Bearpark, J. J. Heyd, E. N. Brothers, K. N. Kudin, 
 V. N. Staroverov, T. A. Keith, R. Kobayashi, J. Normand, 
 K. Raghavachari, A. P. Rendell, J. C. Burant, S. S. Iyengar, 
 J. Tomasi, M. Cossi, J. M. Millam, M. Klene, C. Adamo, R. Cammi, 
 J. W. Ochterski, R. L. Martin, K. Morokuma, O. Farkas, 
 J. B. Foresman, and D. J. Fox, Gaussian, Inc., Wallingford CT, 2019.
 
 ******************************************
 Gaussian 16:  ES64L-G16RevC.01  3-Jul-2019
                27-Sep-2023 
 ******************************************
 %chk=MannitolConformerOpt_10.chk
 %mem=8GB
 %nprocs=16
 Will use up to   16 processors via shared memory.
 ---------------------------------------------
 # opt freq wb97xd/def2tzvpp geom=connectivity
 ---------------------------------------------
 1/18=20,19=15,26=3,38=1,57=2/1,3;
 2/9=110,12=2,17=6,18=5,40=1/2;
 3/5=44,7=202,11=2,25=1,30=1,71=1,74=-58/1,2,3;
 4//1;
 5/5=2,38=5/2;
 6/7=2,8=2,9=2,10=2,28=1/1;
 7//1,2,3,16;
 1/18=20,19=15,26=3/3(2);
 2/9=110/2;
 99//99;
 2/9=110/2;
 3/5=44,7=202,11=2,25=1,30=1,71=1,74=-58/1,2,3;
 4/5=5,16=3,69=1/1;
 5/5=2,38=5/2;
 7//1,2,3,16;
 1/18=20,19=15,26=3/3(-5);
 2/9=110/2;
 6/7=2,8=2,9=2,10=2,19=2,28=1/1;
 99/9=1/99;
 --------------------------------
 Mannitol Conformer Optimziations
 --------------------------------
 Symbolic Z-matrix:
 Charge =  0 Multiplicity = 1
 C                     0.        0.        0. 
 C                     1.5407    0.        0. 
 C                    -0.6488    0.7458   -1.1938 
 C                     2.2013   -0.7132    1.1948 
 H                     1.9128    1.0291    0. 
 H                    -0.3691    0.4209    0.9416 
 C                    -0.4128    2.2573   -1.2115 
 H                    -1.7307    0.5711   -1.1493 
 C                     1.8395   -2.1879    1.394 
 H                     2.0015   -0.1605    2.12 
 H                    -0.6334    2.7042   -0.2375 
 H                    -1.0601    2.7289   -1.9586 
 H                     1.9943   -2.7663    0.4782 
 H                     0.8153   -2.312     1.7528 
 O                     0.9281    2.5731   -1.5674 
 H                     1.0633    2.1902   -2.4556 
 O                    -0.2119    0.182    -2.4449 
 H                     0.726    -0.0901   -2.3219 
 O                    -0.4689   -1.3601   -0.0721 
 H                    -0.3077   -1.6417   -0.9964 
 O                     2.0206   -0.5952   -1.2267 
 H                     2.9885   -0.6818   -1.075 
 O                     3.6305   -0.6509    0.9755 
 H                     3.9993   -1.2634    1.6481 
 O                     2.7216   -2.7242    2.3922 
 H                     2.4509   -3.6508    2.5252 
 

 GradGradGradGradGradGradGradGradGradGradGradGradGradGradGradGradGradGrad
 Berny optimization.
 Initialization pass.
                           ----------------------------
                           !    Initial Parameters    !
                           ! (Angstroms and Degrees)  !
 --------------------------                            --------------------------
 ! Name  Definition              Value          Derivative Info.                !
 --------------------------------------------------------------------------------
 ! R1    R(1,2)                  1.5407         estimate D2E/DX2                !
 ! R2    R(1,3)                  1.5499         estimate D2E/DX2                !
 ! R3    R(1,6)                  1.0954         estimate D2E/DX2                !
 ! R4    R(1,19)                 1.4405         estimate D2E/DX2                !
 ! R5    R(2,4)                  1.5403         estimate D2E/DX2                !
 ! R6    R(2,5)                  1.0943         estimate D2E/DX2                !
 ! R7    R(2,21)                 1.4455         estimate D2E/DX2                !
 ! R8    R(3,7)                  1.5299         estimate D2E/DX2                !
 ! R9    R(3,8)                  1.0968         estimate D2E/DX2                !
 ! R10   R(3,17)                 1.4401         estimate D2E/DX2                !
 ! R11   R(4,9)                  1.5314         estimate D2E/DX2                !
 ! R12   R(4,10)                 1.0961         estimate D2E/DX2                !
 ! R13   R(4,23)                 1.4473         estimate D2E/DX2                !
 ! R14   R(7,11)                 1.0941         estimate D2E/DX2                !
 ! R15   R(7,12)                 1.0952         estimate D2E/DX2                !
 ! R16   R(7,15)                 1.4228         estimate D2E/DX2                !
 ! R17   R(9,13)                 1.0942         estimate D2E/DX2                !
 ! R18   R(9,14)                 1.0923         estimate D2E/DX2                !
 ! R19   R(9,25)                 1.436          estimate D2E/DX2                !
 ! R20   R(15,16)                0.9766         estimate D2E/DX2                !
 ! R21   R(17,18)                0.9843         estimate D2E/DX2                !
 ! R22   R(19,20)                0.9796         estimate D2E/DX2                !
 ! R23   R(21,22)                0.9835         estimate D2E/DX2                !
 ! R24   R(23,24)                0.9816         estimate D2E/DX2                !
 ! R25   R(25,26)                0.9745         estimate D2E/DX2                !
 ! A1    A(2,1,3)              114.746          estimate D2E/DX2                !
 ! A2    A(2,1,6)              109.6906         estimate D2E/DX2                !
 ! A3    A(2,1,19)             108.9971         estimate D2E/DX2                !
 ! A4    A(3,1,6)              109.6411         estimate D2E/DX2                !
 ! A5    A(3,1,19)             106.2316         estimate D2E/DX2                !
 ! A6    A(6,1,19)             107.2255         estimate D2E/DX2                !
 ! A7    A(1,2,4)              115.3959         estimate D2E/DX2                !
 ! A8    A(1,2,5)              109.8789         estimate D2E/DX2                !
 ! A9    A(1,2,21)             109.3905         estimate D2E/DX2                !
 ! A10   A(4,2,5)              106.834          estimate D2E/DX2                !
 ! A11   A(4,2,21)             108.9802         estimate D2E/DX2                !
 ! A12   A(5,2,21)             105.9229         estimate D2E/DX2                !
 ! A13   A(1,3,7)              114.8174         estimate D2E/DX2                !
 ! A14   A(1,3,8)              107.7589         estimate D2E/DX2                !
 ! A15   A(1,3,17)             110.717          estimate D2E/DX2                !
 ! A16   A(7,3,8)              108.0586         estimate D2E/DX2                !
 ! A17   A(7,3,17)             109.2645         estimate D2E/DX2                !
 ! A18   A(8,3,17)             105.7915         estimate D2E/DX2                !
 ! A19   A(2,4,9)              116.4515         estimate D2E/DX2                !
 ! A20   A(2,4,10)             110.0656         estimate D2E/DX2                !
 ! A21   A(2,4,23)             106.6216         estimate D2E/DX2                !
 ! A22   A(9,4,10)             109.4332         estimate D2E/DX2                !
 ! A23   A(9,4,23)             107.1251         estimate D2E/DX2                !
 ! A24   A(10,4,23)            106.631          estimate D2E/DX2                !
 ! A25   A(3,7,11)             111.232          estimate D2E/DX2                !
 ! A26   A(3,7,12)             110.0067         estimate D2E/DX2                !
 ! A27   A(3,7,15)             111.5647         estimate D2E/DX2                !
 ! A28   A(11,7,12)            108.1924         estimate D2E/DX2                !
 ! A29   A(11,7,15)            108.7862         estimate D2E/DX2                !
 ! A30   A(12,7,15)            106.905          estimate D2E/DX2                !
 ! A31   A(4,9,13)             111.5148         estimate D2E/DX2                !
 ! A32   A(4,9,14)             111.9408         estimate D2E/DX2                !
 ! A33   A(4,9,25)             107.7536         estimate D2E/DX2                !
 ! A34   A(13,9,14)            110.3364         estimate D2E/DX2                !
 ! A35   A(13,9,25)            107.3062         estimate D2E/DX2                !
 ! A36   A(14,9,25)            107.7708         estimate D2E/DX2                !
 ! A37   A(7,15,16)            105.72           estimate D2E/DX2                !
 ! A38   A(3,17,18)            106.7826         estimate D2E/DX2                !
 ! A39   A(1,19,20)            105.3722         estimate D2E/DX2                !
 ! A40   A(2,21,22)            103.42           estimate D2E/DX2                !
 ! A41   A(4,23,24)            103.9061         estimate D2E/DX2                !
 ! A42   A(9,25,26)            106.2219         estimate D2E/DX2                !
 ! D1    D(3,1,2,4)            178.8397         estimate D2E/DX2                !
 ! D2    D(3,1,2,5)             58.0058         estimate D2E/DX2                !
 ! D3    D(3,1,2,21)           -57.877          estimate D2E/DX2                !
 ! D4    D(6,1,2,4)             54.9187         estimate D2E/DX2                !
 ! D5    D(6,1,2,5)            -65.9151         estimate D2E/DX2                !
 ! D6    D(6,1,2,21)           178.202          estimate D2E/DX2                !
 ! D7    D(19,1,2,4)           -62.2006         estimate D2E/DX2                !
 ! D8    D(19,1,2,5)           176.9655         estimate D2E/DX2                !
 ! D9    D(19,1,2,21)           61.0827         estimate D2E/DX2                !
 ! D10   D(2,1,3,7)            -66.4042         estimate D2E/DX2                !
 ! D11   D(2,1,3,8)            173.1499         estimate D2E/DX2                !
 ! D12   D(2,1,3,17)            57.8955         estimate D2E/DX2                !
 ! D13   D(6,1,3,7)             57.543          estimate D2E/DX2                !
 ! D14   D(6,1,3,8)            -62.9029         estimate D2E/DX2                !
 ! D15   D(6,1,3,17)          -178.1573         estimate D2E/DX2                !
 ! D16   D(19,1,3,7)           173.0983         estimate D2E/DX2                !
 ! D17   D(19,1,3,8)            52.6524         estimate D2E/DX2                !
 ! D18   D(19,1,3,17)          -62.602          estimate D2E/DX2                !
 ! D19   D(2,1,19,20)          -74.0296         estimate D2E/DX2                !
 ! D20   D(3,1,19,20)           50.1171         estimate D2E/DX2                !
 ! D21   D(6,1,19,20)          167.2967         estimate D2E/DX2                !
 ! D22   D(1,2,4,9)             58.1095         estimate D2E/DX2                !
 ! D23   D(1,2,4,10)           -67.1553         estimate D2E/DX2                !
 ! D24   D(1,2,4,23)           177.5655         estimate D2E/DX2                !
 ! D25   D(5,2,4,9)           -179.4176         estimate D2E/DX2                !
 ! D26   D(5,2,4,10)            55.3177         estimate D2E/DX2                !
 ! D27   D(5,2,4,23)           -59.9616         estimate D2E/DX2                !
 ! D28   D(21,2,4,9)           -65.3904         estimate D2E/DX2                !
 ! D29   D(21,2,4,10)          169.3448         estimate D2E/DX2                !
 ! D30   D(21,2,4,23)           54.0656         estimate D2E/DX2                !
 ! D31   D(1,2,21,22)         -171.3347         estimate D2E/DX2                !
 ! D32   D(4,2,21,22)          -44.3317         estimate D2E/DX2                !
 ! D33   D(5,2,21,22)           70.288          estimate D2E/DX2                !
 ! D34   D(1,3,7,11)           -48.8492         estimate D2E/DX2                !
 ! D35   D(1,3,7,12)          -168.7114         estimate D2E/DX2                !
 ! D36   D(1,3,7,15)            72.8217         estimate D2E/DX2                !
 ! D37   D(8,3,7,11)            71.4313         estimate D2E/DX2                !
 ! D38   D(8,3,7,12)           -48.4308         estimate D2E/DX2                !
 ! D39   D(8,3,7,15)          -166.8977         estimate D2E/DX2                !
 ! D40   D(17,3,7,11)         -173.9126         estimate D2E/DX2                !
 ! D41   D(17,3,7,12)           66.2253         estimate D2E/DX2                !
 ! D42   D(17,3,7,15)          -52.2417         estimate D2E/DX2                !
 ! D43   D(1,3,17,18)          -35.3633         estimate D2E/DX2                !
 ! D44   D(7,3,17,18)           92.0488         estimate D2E/DX2                !
 ! D45   D(8,3,17,18)         -151.841          estimate D2E/DX2                !
 ! D46   D(2,4,9,13)            52.4912         estimate D2E/DX2                !
 ! D47   D(2,4,9,14)           -71.6703         estimate D2E/DX2                !
 ! D48   D(2,4,9,25)           170.0049         estimate D2E/DX2                !
 ! D49   D(10,4,9,13)          178.0751         estimate D2E/DX2                !
 ! D50   D(10,4,9,14)           53.9137         estimate D2E/DX2                !
 ! D51   D(10,4,9,25)          -64.4111         estimate D2E/DX2                !
 ! D52   D(23,4,9,13)          -66.6928         estimate D2E/DX2                !
 ! D53   D(23,4,9,14)          169.1457         estimate D2E/DX2                !
 ! D54   D(23,4,9,25)           50.8209         estimate D2E/DX2                !
 ! D55   D(2,4,23,24)         -168.9203         estimate D2E/DX2                !
 ! D56   D(9,4,23,24)          -43.5814         estimate D2E/DX2                !
 ! D57   D(10,4,23,24)          73.5079         estimate D2E/DX2                !
 ! D58   D(3,7,15,16)           59.4483         estimate D2E/DX2                !
 ! D59   D(11,7,15,16)        -177.4758         estimate D2E/DX2                !
 ! D60   D(12,7,15,16)         -60.857          estimate D2E/DX2                !
 ! D61   D(4,9,25,26)          177.9259         estimate D2E/DX2                !
 ! D62   D(13,9,25,26)         -61.8687         estimate D2E/DX2                !
 ! D63   D(14,9,25,26)          56.9548         estimate D2E/DX2                !
 --------------------------------------------------------------------------------
 Trust Radius=3.00D-01 FncErr=1.00D-07 GrdErr=1.00D-06 EigMax=2.50D+02 EigMin=1.00D-04
 Number of steps in this run=    140 maximum allowed number of steps=    156.
 GradGradGradGradGradGradGradGradGradGradGradGradGradGradGradGradGradGrad

                          Input orientation:                          
 ---------------------------------------------------------------------
 Center     Atomic      Atomic             Coordinates (Angstroms)
 Number     Number       Type             X           Y           Z
 ---------------------------------------------------------------------
      1          6           0        0.000000    0.000000    0.000000
      2          6           0        1.540700    0.000000    0.000000
      3          6           0       -0.648800    0.745800   -1.193800
      4          6           0        2.201300   -0.713200    1.194800
      5          1           0        1.912800    1.029100    0.000000
      6          1           0       -0.369100    0.420900    0.941600
      7          6           0       -0.412800    2.257300   -1.211500
      8          1           0       -1.730700    0.571100   -1.149300
      9          6           0        1.839500   -2.187900    1.394000
     10          1           0        2.001500   -0.160500    2.120000
     11          1           0       -0.633400    2.704200   -0.237500
     12          1           0       -1.060100    2.728900   -1.958600
     13          1           0        1.994300   -2.766300    0.478200
     14          1           0        0.815300   -2.312000    1.752800
     15          8           0        0.928100    2.573100   -1.567400
     16          1           0        1.063300    2.190200   -2.455600
     17          8           0       -0.211900    0.182000   -2.444900
     18          1           0        0.726000   -0.090100   -2.321900
     19          8           0       -0.468900   -1.360100   -0.072100
     20          1           0       -0.307700   -1.641700   -0.996400
     21          8           0        2.020600   -0.595200   -1.226700
     22          1           0        2.988500   -0.681800   -1.075000
     23          8           0        3.630500   -0.650900    0.975500
     24          1           0        3.999300   -1.263400    1.648100
     25          8           0        2.721600   -2.724200    2.392200
     26          1           0        2.450900   -3.650800    2.525200
 ---------------------------------------------------------------------
                    Distance matrix (angstroms):
                    1          2          3          4          5
     1  C    0.000000
     2  C    1.540700   0.000000
     3  C    1.549941   2.602938   0.000000
     4  C    2.604213   1.540323   3.994642   0.000000
     5  H    2.172061   1.094306   2.840284   2.132226   0.000000
     6  H    1.095446   2.170508   2.178009   2.820860   2.542358
     7  C    2.594906   3.221692   1.529916   4.631163   2.895621
     8  H    2.154616   3.514129   1.096817   4.754456   3.847824
     9  C    3.180236   2.611403   4.636264   1.531444   3.506807
    10  H    2.919959   2.175430   4.338979   1.096080   2.432574
    11  H    2.787526   3.477904   2.179467   4.665365   3.057041
    12  H    3.522332   4.248196   2.164895   5.694621   3.945069
    13  H    3.443592   2.843738   4.702809   2.184396   3.826275
    14  H    3.013696   2.990628   4.491790   2.188269   3.929346
    15  O    3.152611   3.074551   2.442379   4.477785   2.410459
    16  H    3.457970   3.324885   2.570937   4.801062   2.846010
    17  O    2.460805   3.013680   1.440140   4.457840   3.348054
    18  H    2.434423   2.462331   1.965048   3.864187   2.837661
    19  O    1.440464   2.427666   2.392779   3.025472   3.374310
    20  H    1.944909   2.665441   2.419808   3.458114   3.613393
    21  O    2.437597   1.445462   2.987484   2.431098   2.038324
    22  H    3.248324   1.927849   3.909233   2.402636   2.289090
    23  O    3.815207   2.396359   4.996903   1.447269   2.593163
    24  H    4.506308   3.218249   5.806730   1.934168   3.510737
    25  O    4.533320   3.812927   6.021619   2.397624   4.523720
    26  H    5.070689   4.531384   6.539816   3.234464   5.344871
                    6          7          8          9         10
     6  H    0.000000
     7  C    2.830215   0.000000
     8  H    2.499675   2.141028   0.000000
     9  C    3.447958   5.623281   5.179458   0.000000
    10  H    2.710424   4.772158   5.015264   2.159553   0.000000
    11  H    2.583329   1.094102   2.566235   5.719237   4.550496
    12  H    3.770345   1.095245   2.400161   6.619859   5.861485
    13  H    3.994827   5.821149   5.259527   1.094166   3.079895
    14  H    3.087004   5.583351   4.818357   1.092302   2.484121
    15  O    3.551024   1.422817   3.354404   5.680463   4.713987
    16  H    4.089396   1.931621   3.483438   5.881298   5.228970
    17  O    3.398554   2.422500   2.033896   4.955988   5.084757
    18  H    3.480057   2.835514   2.801348   4.410052   4.621940
    19  O    2.051709   3.793015   2.545984   2.857169   3.513861
    20  H    2.830889   3.906343   2.635297   3.259266   4.151904
    21  O    3.382994   3.749456   3.929185   3.072061   3.374867
    22  H    4.068919   4.497308   4.883250   3.111993   3.384368
    23  O    4.140858   5.439565   5.894958   2.396913   2.050369
    24  H    4.734863   6.327659   6.635039   2.363050   2.330297
    25  O    4.642017   6.901193   6.574511   1.436009   2.676788
    26  H    5.199897   7.554426   6.986571   1.947691   3.542364
                   11         12         13         14         15
    11  H    0.000000
    12  H    1.773378   0.000000
    13  H    6.110925   6.742743   0.000000
    14  H    5.587691   6.534699   1.794724   0.000000
    15  O    2.055262   2.032302   5.816395   5.907678   0.000000
    16  H    2.839534   2.246338   5.834452   6.167815   0.976622
    17  O    3.378131   2.728118   4.701522   4.989575   2.790513
    18  H    3.741765   3.356918   4.075683   4.641982   2.775383
    19  O    4.070989   4.541841   2.889218   2.426014   4.433688
    20  H    4.423670   4.538070   2.956074   3.044426   4.429197
    21  O    4.348364   4.590864   2.760625   3.643840   3.368643
    22  H    5.028376   5.367009   2.783164   3.921327   3.883565
    23  O    5.559578   6.483342   2.720179   3.359881   4.915636
    24  H    6.384297   7.385409   2.765393   3.353860   5.872856
    25  O    6.902092   7.935176   2.047958   2.052491   6.852479
    26  H    7.584948   8.551734   2.276188   2.250372   7.602975
                   16         17         18         19         20
    16  H    0.000000
    17  O    2.378890   0.000000
    18  H    2.308986   0.984288   0.000000
    19  O    4.542394   2.841531   2.846451   0.000000
    20  H    4.323467   2.330925   2.287564   0.979599   0.000000
    21  O    3.191406   2.659343   1.769344   2.848821   2.563041
    22  H    3.723014   3.586828   2.650241   3.663265   3.434024
    23  O    5.141480   5.211228   4.429838   4.290164   4.514365
    24  H    6.114557   6.047812   5.277502   4.788867   5.068209
    25  O    7.099468   6.359949   5.757051   4.255917   4.672374
    26  H    7.800710   6.817826   6.256856   4.529736   4.903878
                   21         22         23         24         25
    21  O    0.000000
    22  H    0.983536   0.000000
    23  O    2.728473   2.148876   0.000000
    24  H    3.553339   2.962305   0.981611   0.000000
    25  O    4.256816   4.032879   2.670526   2.078494   0.000000
    26  H    4.857839   4.697384   3.576650   2.977671   0.974451
                   26
    26  H    0.000000
 Stoichiometry    C6H14O6
 Framework group  C1[X(C6H14O6)]
 Deg. of freedom    72
 Full point group                 C1      NOp   1
 Largest Abelian subgroup         C1      NOp   1
 Largest concise Abelian subgroup C1      NOp   1
                         Standard orientation:                         
 ---------------------------------------------------------------------
 Center     Atomic      Atomic             Coordinates (Angstroms)
 Number     Number       Type             X           Y           Z
 ---------------------------------------------------------------------
      1          6           0       -0.616075    0.758811   -0.617733
      2          6           0        0.153930   -0.470080   -0.097466
      3          6           0       -2.119526    0.789182   -0.242193
      4          6           0        1.643317   -0.529467   -0.485784
      5          1           0       -0.308961   -1.386727   -0.475613
      6          1           0       -0.506735    0.829593   -1.705407
      7          6           0       -2.965105   -0.310034   -0.888229
      8          1           0       -2.523656    1.758764   -0.557782
      9          6           0        2.510609    0.653687   -0.046158
     10          1           0        1.744429   -0.673629   -1.567628
     11          1           0       -2.778700   -0.372330   -1.964534
     12          1           0       -4.029639   -0.101517   -0.737065
     13          1           0        2.408794    0.849520    1.025515
     14          1           0        2.290066    1.556750   -0.619709
     15          8           0       -2.705429   -1.581077   -0.303912
     16          1           0       -2.923914   -1.486489    0.643246
     17          8           0       -2.288685    0.740565    1.187151
     18          1           0       -1.575338    0.160278    1.538187
     19          8           0       -0.035682    1.949748   -0.052268
     20          1           0       -0.326482    1.961436    0.883100
     21          8           0        0.040550   -0.533306    1.342155
     22          1           0        0.668975   -1.248342    1.589436
     23          8           0        2.188080   -1.713912    0.142635
     24          1           0        3.158022   -1.617791    0.026297
     25          8           0        3.882405    0.304833   -0.288228
     26          1           0        4.410330    1.083087   -0.032942
 ---------------------------------------------------------------------
 Rotational constants (GHZ):           1.6821259           0.5223397           0.4646468
 Standard basis: def2TZVPP (5D, 7F)
 There are   642 symmetry adapted cartesian basis functions of A   symmetry.
 There are   568 symmetry adapted basis functions of A   symmetry.
   568 basis functions,   850 primitive gaussians,   642 cartesian basis functions
    49 alpha electrons       49 beta electrons
       nuclear repulsion energy       835.7981812219 Hartrees.
 NAtoms=   26 NActive=   26 NUniq=   26 SFac= 1.00D+00 NAtFMM=   60 NAOKFM=F Big=F
 Integral buffers will be    131072 words long.
 Raffenetti 2 integral format.
 Two-electron integral symmetry is turned on.
 Nuclear repulsion after empirical dispersion term =      835.7794398243 Hartrees.
 One-electron integrals computed using PRISM.
   1 Symmetry operations used in ECPInt.
 ECPInt:  NShTT=   23436 NPrTT=   62434 LenC2=   21870 LenP2D=   45562.
 LDataN:  DoStor=T MaxTD1= 6 Len=  172
 NBasis=   568 RedAO= T EigKep=  4.57D-05  NBF=   568
 NBsUse=   568 1.00D-06 EigRej= -1.00D+00 NBFU=   568
 ExpMin= 9.52D-02 ExpMax= 2.70D+04 ExpMxC= 9.22D+02 IAcc=3 IRadAn=         5 AccDes= 0.00D+00
 Harris functional with IExCor= 4639 and IRadAn=       5 diagonalized for initial guess.
 HarFok:  IExCor= 4639 AccDes= 0.00D+00 IRadAn=         5 IDoV= 1 UseB2=F ITyADJ=14
 ICtDFT=  3500011 ScaDFX=  1.000000  1.000000  1.000000  1.000000
 FoFCou: FMM=F IPFlag=           0 FMFlag=      100000 FMFlg1=           0
         NFxFlg=           0 DoJE=T BraDBF=F KetDBF=T FulRan=T
         wScrn=  0.000000 ICntrl=       500 IOpCl=  0 I1Cent=   200000004 NGrid=           0
         NMat0=    1 NMatS0=      1 NMatT0=    0 NMatD0=    1 NMtDS0=    0 NMtDT0=    0
 Petite list used in FoFCou.
 Requested convergence on RMS density matrix=1.00D-08 within 128 cycles.
 Requested convergence on MAX density matrix=1.00D-06.
 Requested convergence on             energy=1.00D-06.
 No special actions if energy rises.
 Integral accuracy reduced to 1.0D-05 until final iterations.
 Initial convergence to 1.0D-05 achieved.  Increase integral accuracy.
 SCF Done:  E(RwB97XD) =  -688.469999119     A.U. after   13 cycles
            NFock= 13  Conv=0.75D-08     -V/T= 2.0050

 **********************************************************************

            Population analysis using the SCF Density.

 **********************************************************************

 Orbital symmetries:
       Occupied  (A) (A) (A) (A) (A) (A) (A) (A) (A) (A) (A) (A)
                 (A) (A) (A) (A) (A) (A) (A) (A) (A) (A) (A) (A)
                 (A) (A) (A) (A) (A) (A) (A) (A) (A) (A) (A) (A)
                 (A) (A) (A) (A) (A) (A) (A) (A) (A) (A) (A) (A)
                 (A)
       Virtual   (A) (A) (A) (A) (A) (A) (A) (A) (A) (A) (A) (A)
                 (A) (A) (A) (A) (A) (A) (A) (A) (A) (A) (A) (A)
                 (A) (A) (A) (A) (A) (A) (A) (A) (A) (A) (A) (A)
                 (A) (A) (A) (A) (A) (A) (A) (A) (A) (A) (A) (A)
                 (A) (A) (A) (A) (A) (A) (A) (A) (A) (A) (A) (A)
                 (A) (A) (A) (A) (A) (A) (A) (A) (A) (A) (A) (A)
                 (A) (A) (A) (A) (A) (A) (A) (A) (A) (A) (A) (A)
                 (A) (A) (A) (A) (A) (A) (A) (A) (A) (A) (A) (A)
                 (A) (A) (A) (A) (A) (A) (A) (A) (A) (A) (A) (A)
                 (A) (A) (A) (A) (A) (A) (A) (A) (A) (A) (A) (A)
                 (A) (A) (A) (A) (A) (A) (A) (A) (A) (A) (A) (A)
                 (A) (A) (A) (A) (A) (A) (A) (A) (A) (A) (A) (A)
                 (A) (A) (A) (A) (A) (A) (A) (A) (A) (A) (A) (A)
                 (A) (A) (A) (A) (A) (A) (A) (A) (A) (A) (A) (A)
                 (A) (A) (A) (A) (A) (A) (A) (A) (A) (A) (A) (A)
                 (A) (A) (A) (A) (A) (A) (A) (A) (A) (A) (A) (A)
                 (A) (A) (A) (A) (A) (A) (A) (A) (A) (A) (A) (A)
                 (A) (A) (A) (A) (A) (A) (A) (A) (A) (A) (A) (A)
                 (A) (A) (A) (A) (A) (A) (A) (A) (A) (A) (A) (A)
                 (A) (A) (A) (A) (A) (A) (A) (A) (A) (A) (A) (A)
                 (A) (A) (A) (A) (A) (A) (A) (A) (A) (A) (A) (A)
                 (A) (A) (A) (A) (A) (A) (A) (A) (A) (A) (A) (A)
                 (A) (A) (A) (A) (A) (A) (A) (A) (A) (A) (A) (A)
                 (A) (A) (A) (A) (A) (A) (A) (A) (A) (A) (A) (A)
                 (A) (A) (A) (A) (A) (A) (A) (A) (A) (A) (A) (A)
                 (A) (A) (A) (A) (A) (A) (A) (A) (A) (A) (A) (A)
                 (A) (A) (A) (A) (A) (A) (A) (A) (A) (A) (A) (A)
                 (A) (A) (A) (A) (A) (A) (A) (A) (A) (A) (A) (A)
                 (A) (A) (A) (A) (A) (A) (A) (A) (A) (A) (A) (A)
                 (A) (A) (A) (A) (A) (A) (A) (A) (A) (A) (A) (A)
                 (A) (A) (A) (A) (A) (A) (A) (A) (A) (A) (A) (A)
                 (A) (A) (A) (A) (A) (A) (A) (A) (A) (A) (A) (A)
                 (A) (A) (A) (A) (A) (A) (A) (A) (A) (A) (A) (A)
                 (A) (A) (A) (A) (A) (A) (A) (A) (A) (A) (A) (A)
                 (A) (A) (A) (A) (A) (A) (A) (A) (A) (A) (A) (A)
                 (A) (A) (A) (A) (A) (A) (A) (A) (A) (A) (A) (A)
                 (A) (A) (A) (A) (A) (A) (A) (A) (A) (A) (A) (A)
                 (A) (A) (A) (A) (A) (A) (A) (A) (A) (A) (A) (A)
                 (A) (A) (A) (A) (A) (A) (A) (A) (A) (A) (A) (A)
                 (A) (A) (A) (A) (A) (A) (A) (A) (A) (A) (A) (A)
                 (A) (A) (A) (A) (A) (A) (A) (A) (A) (A) (A) (A)
                 (A) (A) (A) (A) (A) (A) (A) (A) (A) (A) (A) (A)
                 (A) (A) (A) (A) (A) (A) (A) (A) (A) (A) (A) (A)
                 (A) (A) (A)
 The electronic state is 1-A.
 Alpha  occ. eigenvalues --  -19.27259 -19.26458 -19.25937 -19.25370 -19.25081
 Alpha  occ. eigenvalues --  -19.24873 -10.35500 -10.35072 -10.35016 -10.34354
 Alpha  occ. eigenvalues --  -10.33467 -10.33268  -1.16053  -1.14425  -1.13137
 Alpha  occ. eigenvalues --   -1.12250  -1.11146  -1.10292  -0.88635  -0.85287
 Alpha  occ. eigenvalues --   -0.80582  -0.75124  -0.71112  -0.68231  -0.64138
 Alpha  occ. eigenvalues --   -0.61781  -0.60901  -0.60082  -0.59365  -0.57263
 Alpha  occ. eigenvalues --   -0.56498  -0.55058  -0.53130  -0.52680  -0.51158
 Alpha  occ. eigenvalues --   -0.50567  -0.48842  -0.47484  -0.45603  -0.44701
 Alpha  occ. eigenvalues --   -0.43924  -0.42890  -0.41406  -0.38979  -0.38116
 Alpha  occ. eigenvalues --   -0.37523  -0.37082  -0.36789  -0.34788
 Alpha virt. eigenvalues --    0.09064   0.10263   0.11679   0.12902   0.13524
 Alpha virt. eigenvalues --    0.14232   0.16392   0.17588   0.18180   0.18677
 Alpha virt. eigenvalues --    0.19713   0.19973   0.20474   0.21184   0.21979
 Alpha virt. eigenvalues --    0.22900   0.23311   0.24158   0.25803   0.25977
 Alpha virt. eigenvalues --    0.26704   0.27930   0.30581   0.31833   0.34278
 Alpha virt. eigenvalues --    0.34759   0.36483   0.37159   0.37539   0.37600
 Alpha virt. eigenvalues --    0.38990   0.39418   0.39726   0.40921   0.42023
 Alpha virt. eigenvalues --    0.42213   0.42349   0.43335   0.43950   0.44667
 Alpha virt. eigenvalues --    0.45848   0.45904   0.46305   0.47192   0.48099
 Alpha virt. eigenvalues --    0.48411   0.49225   0.50105   0.50187   0.51113
 Alpha virt. eigenvalues --    0.51375   0.51983   0.53246   0.54207   0.55172
 Alpha virt. eigenvalues --    0.56400   0.57075   0.57258   0.58365   0.58876
 Alpha virt. eigenvalues --    0.59345   0.61833   0.62370   0.62559   0.64618
 Alpha virt. eigenvalues --    0.65087   0.66221   0.66628   0.67156   0.68414
 Alpha virt. eigenvalues --    0.69150   0.71688   0.72619   0.73681   0.74395
 Alpha virt. eigenvalues --    0.74972   0.75020   0.75983   0.80339   0.80498
 Alpha virt. eigenvalues --    0.81523   0.83437   0.83650   0.85903   0.86681
 Alpha virt. eigenvalues --    0.86983   0.88286   0.89678   0.90209   0.90860
 Alpha virt. eigenvalues --    0.92050   0.93237   0.93768   0.95077   0.96183
 Alpha virt. eigenvalues --    0.96256   0.97257   0.98468   0.99870   1.01287
 Alpha virt. eigenvalues --    1.02601   1.04836   1.06244   1.07110   1.07999
 Alpha virt. eigenvalues --    1.08641   1.09898   1.11008   1.11871   1.13292
 Alpha virt. eigenvalues --    1.14436   1.14852   1.15403   1.16657   1.17437
 Alpha virt. eigenvalues --    1.17839   1.19563   1.23308   1.24285   1.25425
 Alpha virt. eigenvalues --    1.26717   1.28557   1.29899   1.30708   1.30894
 Alpha virt. eigenvalues --    1.31701   1.32861   1.33463   1.34040   1.34546
 Alpha virt. eigenvalues --    1.36068   1.37582   1.38770   1.38897   1.40161
 Alpha virt. eigenvalues --    1.41262   1.43281   1.44674   1.45347   1.45865
 Alpha virt. eigenvalues --    1.47681   1.49278   1.50275   1.51190   1.52291
 Alpha virt. eigenvalues --    1.52914   1.53678   1.55942   1.57219   1.57747
 Alpha virt. eigenvalues --    1.59194   1.60737   1.61199   1.62752   1.63291
 Alpha virt. eigenvalues --    1.65269   1.66453   1.69844   1.70090   1.73128
 Alpha virt. eigenvalues --    1.74582   1.75887   1.80432   1.81436   1.84955
 Alpha virt. eigenvalues --    1.85884   1.88339   1.90617   1.92024   1.93595
 Alpha virt. eigenvalues --    1.94044   1.95801   1.96262   1.99020   1.99279
 Alpha virt. eigenvalues --    2.01404   2.02397   2.02934   2.04761   2.05096
 Alpha virt. eigenvalues --    2.06237   2.07433   2.08417   2.08774   2.11455
 Alpha virt. eigenvalues --    2.12791   2.14205   2.15867   2.17344   2.18168
 Alpha virt. eigenvalues --    2.19974   2.20643   2.22319   2.23891   2.26800
 Alpha virt. eigenvalues --    2.28392   2.29919   2.30205   2.31421   2.34526
 Alpha virt. eigenvalues --    2.35111   2.35745   2.38866   2.40708   2.42050
 Alpha virt. eigenvalues --    2.43221   2.46203   2.47783   2.48417   2.52037
 Alpha virt. eigenvalues --    2.56189   2.57238   2.59255   2.62102   2.65921
 Alpha virt. eigenvalues --    2.66237   2.67645   2.68805   2.69904   2.70642
 Alpha virt. eigenvalues --    2.73077   2.74674   2.75114   2.76898   2.77748
 Alpha virt. eigenvalues --    2.78781   2.79956   2.82043   2.82745   2.83720
 Alpha virt. eigenvalues --    2.85136   2.86095   2.88221   2.89185   2.89641
 Alpha virt. eigenvalues --    2.92262   2.93617   2.94751   2.97094   2.99392
 Alpha virt. eigenvalues --    2.99696   3.01996   3.02613   3.04465   3.05169
 Alpha virt. eigenvalues --    3.05860   3.08093   3.09075   3.09300   3.11110
 Alpha virt. eigenvalues --    3.12023   3.13293   3.14581   3.14611   3.17209
 Alpha virt. eigenvalues --    3.18136   3.18539   3.19991   3.20897   3.21118
 Alpha virt. eigenvalues --    3.23020   3.24194   3.24980   3.25925   3.27138
 Alpha virt. eigenvalues --    3.27720   3.28813   3.29672   3.31317   3.32049
 Alpha virt. eigenvalues --    3.33713   3.35333   3.35793   3.36505   3.37778
 Alpha virt. eigenvalues --    3.39163   3.40054   3.41941   3.42197   3.42608
 Alpha virt. eigenvalues --    3.43151   3.44107   3.45972   3.47187   3.48852
 Alpha virt. eigenvalues --    3.49267   3.51537   3.51938   3.52927   3.53626
 Alpha virt. eigenvalues --    3.54303   3.56451   3.57651   3.58867   3.60885
 Alpha virt. eigenvalues --    3.61499   3.62431   3.64565   3.65990   3.67464
 Alpha virt. eigenvalues --    3.67570   3.68891   3.69732   3.70418   3.70981
 Alpha virt. eigenvalues --    3.73653   3.74334   3.75283   3.76602   3.78218
 Alpha virt. eigenvalues --    3.78711   3.80538   3.81316   3.82750   3.83281
 Alpha virt. eigenvalues --    3.84194   3.85701   3.87597   3.88977   3.89734
 Alpha virt. eigenvalues --    3.90390   3.91311   3.91809   3.94256   3.96559
 Alpha virt. eigenvalues --    3.96695   3.98343   3.99521   3.99861   4.01029
 Alpha virt. eigenvalues --    4.02530   4.03662   4.04524   4.05315   4.06704
 Alpha virt. eigenvalues --    4.07695   4.08977   4.09437   4.10504   4.11847
 Alpha virt. eigenvalues --    4.14785   4.15511   4.16133   4.17691   4.18275
 Alpha virt. eigenvalues --    4.19178   4.19689   4.21324   4.21698   4.21896
 Alpha virt. eigenvalues --    4.22631   4.24431   4.25083   4.26595   4.28033
 Alpha virt. eigenvalues --    4.29314   4.30014   4.32463   4.33215   4.33871
 Alpha virt. eigenvalues --    4.36185   4.37080   4.38110   4.39426   4.41100
 Alpha virt. eigenvalues --    4.42085   4.42742   4.44072   4.45734   4.47085
 Alpha virt. eigenvalues --    4.48724   4.49127   4.50183   4.52249   4.54179
 Alpha virt. eigenvalues --    4.55673   4.57455   4.58478   4.60051   4.61220
 Alpha virt. eigenvalues --    4.64302   4.64653   4.66194   4.67740   4.68794
 Alpha virt. eigenvalues --    4.73737   4.75624   4.76365   4.79468   4.82098
 Alpha virt. eigenvalues --    4.82945   4.84154   4.86241   4.87852   4.90359
 Alpha virt. eigenvalues --    4.91546   4.93905   4.94724   4.95643   4.96853
 Alpha virt. eigenvalues --    4.98781   5.01326   5.02009   5.02654   5.04587
 Alpha virt. eigenvalues --    5.05270   5.06864   5.08917   5.10402   5.12682
 Alpha virt. eigenvalues --    5.13631   5.14766   5.15091   5.16825   5.20225
 Alpha virt. eigenvalues --    5.22218   5.22313   5.24917   5.26008   5.30108
 Alpha virt. eigenvalues --    5.32624   5.33430   5.35021   5.36073   5.42472
 Alpha virt. eigenvalues --    5.43358   5.49029   5.54727   5.56692   5.59371
 Alpha virt. eigenvalues --    5.59915   5.61448   5.63780   5.64894   5.65262
 Alpha virt. eigenvalues --    5.66700   5.69916   5.71266   5.73074   5.74200
 Alpha virt. eigenvalues --    5.75679   5.76059   5.78359   5.82794   5.85510
 Alpha virt. eigenvalues --    5.86233   5.88337   5.91361   5.92724   5.97973
 Alpha virt. eigenvalues --    6.00314   6.00639   6.02474   6.10408   6.13633
 Alpha virt. eigenvalues --    6.14533   6.16214   6.18262   6.21830   6.52841
 Alpha virt. eigenvalues --    6.53753   6.55186   6.56144   6.57133   6.57321
 Alpha virt. eigenvalues --    6.70045   6.72955   6.74698   6.76144   6.76700
 Alpha virt. eigenvalues --    6.77662   6.78423   6.79964   6.80478   6.81029
 Alpha virt. eigenvalues --    6.82446   6.83481   6.87117   6.88086   6.89514
 Alpha virt. eigenvalues --    6.90940   6.91822   6.96259   6.98092   7.01474
 Alpha virt. eigenvalues --    7.03277   7.04622   7.05701   7.07697   7.16239
 Alpha virt. eigenvalues --    7.17275   7.19009   7.21736   7.23720   7.25851
 Alpha virt. eigenvalues --    7.40868   7.42566   7.45041   7.46023   7.48701
 Alpha virt. eigenvalues --    7.49602   7.52798   7.54425   7.58766   7.61481
 Alpha virt. eigenvalues --    7.66711   7.75668  23.08894  23.15663  23.19563
 Alpha virt. eigenvalues --   23.23464  23.44764  23.45976  44.09428  44.14998
 Alpha virt. eigenvalues --   44.24814  44.27526  44.37546  44.38068
          Condensed to atoms (all electrons):
               1          2          3          4          5          6
     1  C    4.892539   0.139907   0.322479   0.039881  -0.018983   0.409012
     2  C    0.139907   5.266262   0.028520   0.110922   0.423250  -0.054063
     3  C    0.322479   0.028520   4.815492  -0.015527  -0.008091  -0.017003
     4  C    0.039881   0.110922  -0.015527   4.971891  -0.019207   0.006328
     5  H   -0.018983   0.423250  -0.008091  -0.019207   0.517844   0.004045
     6  H    0.409012  -0.054063  -0.017003   0.006328   0.004045   0.578439
     7  C   -0.031237   0.000166   0.293812   0.001634  -0.005118  -0.005864
     8  H   -0.047105   0.011889   0.423940  -0.000289  -0.000633  -0.003822
     9  C    0.002659   0.004714   0.001895   0.266705   0.007508  -0.001391
    10  H   -0.012192  -0.023766   0.000462   0.421353  -0.006392   0.002154
    11  H    0.003304  -0.002961  -0.037406  -0.000523  -0.001167  -0.000108
    12  H    0.007004   0.001917  -0.042901   0.000051   0.000849  -0.000555
    13  H   -0.010121   0.020529   0.000177  -0.051162   0.000494   0.000255
    14  H    0.003336  -0.019581  -0.000164  -0.009877  -0.000761   0.000200
    15  O   -0.028989   0.015428  -0.029690   0.001721   0.018040  -0.000822
    16  H   -0.003921   0.001584  -0.003645  -0.000408  -0.003207  -0.000305
    17  O   -0.027395  -0.010394   0.261244   0.002486   0.000692   0.003990
    18  H   -0.004725  -0.002239  -0.037336   0.001395   0.000204  -0.000064
    19  O    0.252316  -0.038947  -0.027353  -0.018758   0.003162  -0.020917
    20  H   -0.042068  -0.005968  -0.009791  -0.001263   0.000520   0.008223
    21  O   -0.015059   0.191370  -0.015768  -0.011657  -0.033967   0.002873
    22  H    0.001812  -0.043690   0.001324   0.006195  -0.004840  -0.000271
    23  O    0.003794  -0.073182  -0.000123   0.279804   0.002820   0.000070
    24  H   -0.000854   0.007364   0.000000  -0.039516  -0.000234  -0.000004
    25  O   -0.000295   0.007336  -0.000019  -0.074195  -0.000051  -0.000054
    26  H    0.000058  -0.001766  -0.000005   0.011448   0.000032   0.000002
               7          8          9         10         11         12
     1  C   -0.031237  -0.047105   0.002659  -0.012192   0.003304   0.007004
     2  C    0.000166   0.011889   0.004714  -0.023766  -0.002961   0.001917
     3  C    0.293812   0.423940   0.001895   0.000462  -0.037406  -0.042901
     4  C    0.001634  -0.000289   0.266705   0.421353  -0.000523   0.000051
     5  H   -0.005118  -0.000633   0.007508  -0.006392  -0.001167   0.000849
     6  H   -0.005864  -0.003822  -0.001391   0.002154  -0.000108  -0.000555
     7  C    4.797100  -0.032986  -0.000449  -0.000126   0.397575   0.428849
     8  H   -0.032986   0.577996  -0.000077   0.000056   0.004512  -0.003856
     9  C   -0.000449  -0.000077   4.764712  -0.044420   0.000098  -0.000000
    10  H   -0.000126   0.000056  -0.044420   0.616557   0.000019  -0.000003
    11  H    0.397575   0.004512   0.000098   0.000019   0.615157  -0.031029
    12  H    0.428849  -0.003856  -0.000000  -0.000003  -0.031029   0.591120
    13  H   -0.000033   0.000024   0.412993   0.009619   0.000001   0.000000
    14  H    0.000057   0.000020   0.427063  -0.005462  -0.000005   0.000001
    15  O    0.241684   0.004521  -0.000035  -0.000032  -0.031276  -0.037890
    16  H   -0.041039   0.000861   0.000052  -0.000007   0.010579  -0.008193
    17  O   -0.055215  -0.029117  -0.000607   0.000019   0.004474   0.002218
    18  H   -0.006780   0.005578   0.000087  -0.000084  -0.000191   0.000060
    19  O    0.006067   0.006285   0.012303   0.000257   0.000091  -0.000314
    20  H    0.001993  -0.004042   0.000992  -0.000042  -0.000084  -0.000135
    21  O   -0.001395  -0.000765  -0.017941   0.003411   0.000062  -0.000058
    22  H   -0.000013   0.000080  -0.003524   0.002102  -0.000008  -0.000002
    23  O   -0.000040   0.000003  -0.036636  -0.037588  -0.000001   0.000000
    24  H   -0.000002  -0.000001  -0.006459  -0.004254  -0.000000   0.000000
    25  O   -0.000001  -0.000000   0.268291   0.005871  -0.000000   0.000000
    26  H   -0.000000   0.000000  -0.031836  -0.000138   0.000000  -0.000000
              13         14         15         16         17         18
     1  C   -0.010121   0.003336  -0.028989  -0.003921  -0.027395  -0.004725
     2  C    0.020529  -0.019581   0.015428   0.001584  -0.010394  -0.002239
     3  C    0.000177  -0.000164  -0.029690  -0.003645   0.261244  -0.037336
     4  C   -0.051162  -0.009877   0.001721  -0.000408   0.002486   0.001395
     5  H    0.000494  -0.000761   0.018040  -0.003207   0.000692   0.000204
     6  H    0.000255   0.000200  -0.000822  -0.000305   0.003990  -0.000064
     7  C   -0.000033   0.000057   0.241684  -0.041039  -0.055215  -0.006780
     8  H    0.000024   0.000020   0.004521   0.000861  -0.029117   0.005578
     9  C    0.412993   0.427063  -0.000035   0.000052  -0.000607   0.000087
    10  H    0.009619  -0.005462  -0.000032  -0.000007   0.000019  -0.000084
    11  H    0.000001  -0.000005  -0.031276   0.010579   0.004474  -0.000191
    12  H    0.000000   0.000001  -0.037890  -0.008193   0.002218   0.000060
    13  H    0.597660  -0.031015  -0.000003  -0.000003   0.000026  -0.000007
    14  H   -0.031015   0.583449   0.000003  -0.000001  -0.000008  -0.000007
    15  O   -0.000003   0.000003   7.899176   0.318878  -0.006136   0.001060
    16  H   -0.000003  -0.000001   0.318878   0.518724   0.018868   0.001524
    17  O    0.000026  -0.000008  -0.006136   0.018868   7.931507   0.341754
    18  H   -0.000007  -0.000007   0.001060   0.001524   0.341754   0.441511
    19  O    0.001900   0.002633  -0.000049   0.000032  -0.009192  -0.000230
    20  H    0.000126  -0.001243  -0.000068  -0.000152   0.022618  -0.000620
    21  O    0.014258   0.001191  -0.000596   0.002359  -0.024774   0.044815
    22  H    0.000582   0.000187   0.000122   0.000019   0.000995  -0.002520
    23  O    0.001069   0.004830   0.000019  -0.000001  -0.000006  -0.000050
    24  H   -0.001744   0.001716   0.000003   0.000000  -0.000000   0.000009
    25  O   -0.049542  -0.045137   0.000000   0.000000  -0.000000   0.000002
    26  H   -0.004325  -0.005878  -0.000000   0.000000  -0.000000  -0.000000
              19         20         21         22         23         24
     1  C    0.252316  -0.042068  -0.015059   0.001812   0.003794  -0.000854
     2  C   -0.038947  -0.005968   0.191370  -0.043690  -0.073182   0.007364
     3  C   -0.027353  -0.009791  -0.015768   0.001324  -0.000123   0.000000
     4  C   -0.018758  -0.001263  -0.011657   0.006195   0.279804  -0.039516
     5  H    0.003162   0.000520  -0.033967  -0.004840   0.002820  -0.000234
     6  H   -0.020917   0.008223   0.002873  -0.000271   0.000070  -0.000004
     7  C    0.006067   0.001993  -0.001395  -0.000013  -0.000040  -0.000002
     8  H    0.006285  -0.004042  -0.000765   0.000080   0.000003  -0.000001
     9  C    0.012303   0.000992  -0.017941  -0.003524  -0.036636  -0.006459
    10  H    0.000257  -0.000042   0.003411   0.002102  -0.037588  -0.004254
    11  H    0.000091  -0.000084   0.000062  -0.000008  -0.000001  -0.000000
    12  H   -0.000314  -0.000135  -0.000058  -0.000002   0.000000   0.000000
    13  H    0.001900   0.000126   0.014258   0.000582   0.001069  -0.001744
    14  H    0.002633  -0.001243   0.001191   0.000187   0.004830   0.001716
    15  O   -0.000049  -0.000068  -0.000596   0.000122   0.000019   0.000003
    16  H    0.000032  -0.000152   0.002359   0.000019  -0.000001   0.000000
    17  O   -0.009192   0.022618  -0.024774   0.000995  -0.000006  -0.000000
    18  H   -0.000230  -0.000620   0.044815  -0.002520  -0.000050   0.000009
    19  O    7.888436   0.324138  -0.002781  -0.000288   0.000146   0.000049
    20  H    0.324138   0.503511   0.006321  -0.000276   0.000028   0.000001
    21  O   -0.002781   0.006321   7.949905   0.318458  -0.013266   0.000231
    22  H   -0.000288  -0.000276   0.318458   0.486293   0.031727  -0.001534
    23  O    0.000146   0.000028  -0.013266   0.031727   7.916272   0.332958
    24  H    0.000049   0.000001   0.000231  -0.001534   0.332958   0.472608
    25  O    0.000738  -0.000027   0.000102  -0.000032  -0.013357   0.027948
    26  H    0.000081  -0.000003   0.000065  -0.000009   0.000172  -0.001683
              25         26
     1  C   -0.000295   0.000058
     2  C    0.007336  -0.001766
     3  C   -0.000019  -0.000005
     4  C   -0.074195   0.011448
     5  H   -0.000051   0.000032
     6  H   -0.000054   0.000002
     7  C   -0.000001  -0.000000
     8  H   -0.000000   0.000000
     9  C    0.268291  -0.031836
    10  H    0.005871  -0.000138
    11  H   -0.000000   0.000000
    12  H    0.000000  -0.000000
    13  H   -0.049542  -0.004325
    14  H   -0.045137  -0.005878
    15  O    0.000000  -0.000000
    16  H    0.000000   0.000000
    17  O   -0.000000  -0.000000
    18  H    0.000002  -0.000000
    19  O    0.000738   0.000081
    20  H   -0.000027  -0.000003
    21  O    0.000102   0.000065
    22  H   -0.000032  -0.000009
    23  O   -0.013357   0.000172
    24  H    0.027948  -0.001683
    25  O    7.908719   0.327308
    26  H    0.327308   0.522975
 Mulliken charges:
               1
     1  C    0.164844
     2  C    0.045400
     3  C    0.095477
     4  C    0.120570
     5  H    0.123192
     6  H    0.089653
     7  C    0.011362
     8  H    0.086929
     9  C   -0.026696
    10  H    0.072627
    11  H    0.068888
    12  H    0.092867
    13  H    0.088243
    14  H    0.094453
    15  O   -0.365071
    16  H    0.187398
    17  O   -0.428044
    18  H    0.216853
    19  O   -0.379805
    20  H    0.197312
    21  O   -0.397394
    22  H    0.207108
    23  O   -0.399462
    24  H    0.213399
    25  O   -0.363604
    26  H    0.183501
 Sum of Mulliken charges =  -0.00000
 Mulliken charges with hydrogens summed into heavy atoms:
               1
     1  C    0.254498
     2  C    0.168592
     3  C    0.182406
     4  C    0.193196
     7  C    0.173116
     9  C    0.156001
    15  O   -0.177673
    17  O   -0.211192
    19  O   -0.182493
    21  O   -0.190286
    23  O   -0.186063
    25  O   -0.180103
 Electronic spatial extent (au):  <R**2>=           2483.6708
 Charge=             -0.0000 electrons
 Dipole moment (field-independent basis, Debye):
    X=              1.4952    Y=              1.1549    Z=             -0.4313  Tot=              1.9379
 Quadrupole moment (field-independent basis, Debye-Ang):
   XX=            -67.4082   YY=            -78.1332   ZZ=            -69.1595
   XY=              3.7696   XZ=              4.3810   YZ=             -2.7609
 Traceless Quadrupole moment (field-independent basis, Debye-Ang):
   XX=              4.1588   YY=             -6.5663   ZZ=              2.4075
   XY=              3.7696   XZ=              4.3810   YZ=             -2.7609
 Octapole moment (field-independent basis, Debye-Ang**2):
  XXX=             37.3789  YYY=              3.1306  ZZZ=              6.3707  XYY=             18.0263
  XXY=             24.5200  XXZ=              6.6228  XZZ=              1.3064  YZZ=             -4.6932
  YYZ=             12.4984  XYZ=             12.6252
 Hexadecapole moment (field-independent basis, Debye-Ang**3):
 XXXX=          -1958.4830 YYYY=           -596.2024 ZZZZ=           -278.8814 XXXY=             90.4536
 XXXZ=             47.8066 YYYX=             -0.3493 YYYZ=             -3.2676 ZZZX=              3.8128
 ZZZY=             -7.8798 XXYY=           -421.7223 XXZZ=           -418.8132 YYZZ=           -130.3458
 XXYZ=            -28.7948 YYXZ=            -11.6660 ZZXY=              8.1995
 N-N= 8.357794398243D+02 E-N=-3.288894553523D+03  KE= 6.850488786116D+02
   1 Symmetry operations used in ECPInt.
 ECPInt:  NShTT=   23436 NPrTT=   62434 LenC2=   21870 LenP2D=   45562.
 LDataN:  DoStor=T MaxTD1= 7 Len=  274
 Calling FoFJK, ICntrl=      2127 FMM=F ISym2X=0 I1Cent= 0 IOpClX= 0 NMat=1 NMatS=1 NMatT=0.
 ***** Axes restored to original set *****
 -------------------------------------------------------------------
 Center     Atomic                   Forces (Hartrees/Bohr)
 Number     Number              X              Y              Z
 -------------------------------------------------------------------
      1        6          -0.002020182   -0.020362308   -0.014552403
      2        6           0.009008370    0.000998828   -0.001640270
      3        6           0.007162644    0.003042422   -0.006553999
      4        6           0.012679784   -0.008059407    0.001557952
      5        1          -0.004363262    0.000382826    0.003738465
      6        1           0.001806790   -0.001670735   -0.002705220
      7        6           0.008078894    0.001325830   -0.009175737
      8        1           0.003812961   -0.000823428    0.002925947
      9        6          -0.001720710   -0.005813286    0.007269306
     10        1          -0.005887207   -0.000125465   -0.001913243
     11        1           0.003344761   -0.000859801   -0.001505683
     12        1          -0.005605298   -0.003632742    0.003375324
     13        1          -0.004617272    0.006001334   -0.002767457
     14        1           0.000103622    0.004015395   -0.006453586
     15        8          -0.001312872   -0.005803622   -0.009058165
     16        1          -0.001805819    0.006728451    0.016237830
     17        8           0.008253345   -0.000622706    0.014023550
     18        1          -0.014199371    0.005026121   -0.003833125
     19        8           0.004558166    0.007074071   -0.012399091
     20        1          -0.004178131    0.004472844    0.017691242
     21        8           0.015998281   -0.000201592    0.016503178
     22        1          -0.019058458   -0.000169822   -0.006547523
     23        8          -0.008731456   -0.008963312    0.011189057
     24        1          -0.004345901    0.011111582   -0.015741325
     25        8          -0.005394822   -0.011148999    0.001112599
     26        1           0.008433144    0.018077524   -0.000777624
 -------------------------------------------------------------------
 Cartesian Forces:  Max     0.020362308 RMS     0.008212231

 GradGradGradGradGradGradGradGradGradGradGradGradGradGradGradGradGradGrad
 Berny optimization.
 FormGI is forming the generalized inverse of G from B-inverse, IUseBI=4.
 Internal  Forces:  Max     0.019751381 RMS     0.005744954
 Search for a local minimum.
 Step number   1 out of a maximum of  140
 All quantities printed in internal units (Hartrees-Bohrs-Radians)
 Mixed Optimization -- RFO/linear search
 Second derivative matrix not updated -- first step.
 ITU=  0
     Eigenvalues ---    0.00230   0.00230   0.00233   0.00350   0.00370
     Eigenvalues ---    0.01067   0.01090   0.01157   0.01161   0.01215
     Eigenvalues ---    0.01390   0.03707   0.03765   0.03825   0.03862
     Eigenvalues ---    0.04598   0.04662   0.04781   0.04815   0.04908
     Eigenvalues ---    0.05348   0.05497   0.05693   0.07652   0.07729
     Eigenvalues ---    0.07736   0.08004   0.11356   0.11669   0.13580
     Eigenvalues ---    0.13908   0.16000   0.16000   0.16000   0.16000
     Eigenvalues ---    0.16000   0.16000   0.16959   0.17256   0.17479
     Eigenvalues ---    0.17540   0.19319   0.19462   0.19902   0.20115
     Eigenvalues ---    0.22038   0.22039   0.27656   0.28457   0.28490
     Eigenvalues ---    0.29290   0.29431   0.34037   0.34119   0.34191
     Eigenvalues ---    0.34213   0.34320   0.34336   0.34343   0.34548
     Eigenvalues ---    0.38605   0.38846   0.39522   0.39566   0.40138
     Eigenvalues ---    0.42039   0.50561   0.50704   0.51073   0.51463
     Eigenvalues ---    0.52046   0.52478
 RFO step:  Lambda=-1.74635763D-02 EMin= 2.30000000D-03
 Linear search not attempted -- first point.
 Iteration  1 RMS(Cart)=  0.08896637 RMS(Int)=  0.00266792
 Iteration  2 RMS(Cart)=  0.00476683 RMS(Int)=  0.00057349
 Iteration  3 RMS(Cart)=  0.00000769 RMS(Int)=  0.00057346
 Iteration  4 RMS(Cart)=  0.00000000 RMS(Int)=  0.00057346
 Variable       Old X    -DE/DX   Delta X   Delta X   Delta X     New X
                                 (Linear)    (Quad)   (Total)
    R1        2.91150  -0.00788   0.00000  -0.02609  -0.02609   2.88541
    R2        2.92896  -0.00609   0.00000  -0.02070  -0.02070   2.90827
    R3        2.07009  -0.00358   0.00000  -0.00995  -0.00995   2.06014
    R4        2.72208  -0.01129   0.00000  -0.02736  -0.02736   2.69472
    R5        2.91079  -0.01149   0.00000  -0.03799  -0.03799   2.87280
    R6        2.06794  -0.00112   0.00000  -0.00311  -0.00311   2.06482
    R7        2.73153  -0.00931   0.00000  -0.02294  -0.02294   2.70859
    R8        2.89112  -0.00180   0.00000  -0.00578  -0.00578   2.88534
    R9        2.07268  -0.00351   0.00000  -0.00981  -0.00981   2.06288
   R10        2.72147  -0.01238   0.00000  -0.02997  -0.02997   2.69150
   R11        2.89401  -0.01018   0.00000  -0.03280  -0.03280   2.86121
   R12        2.07129  -0.00061   0.00000  -0.00169  -0.00169   2.06960
   R13        2.73494  -0.01213   0.00000  -0.03006  -0.03006   2.70489
   R14        2.06755  -0.00237   0.00000  -0.00655  -0.00655   2.06100
   R15        2.06971  -0.00055   0.00000  -0.00154  -0.00154   2.06817
   R16        2.68873  -0.00453   0.00000  -0.01036  -0.01036   2.67838
   R17        2.06767  -0.00151   0.00000  -0.00418  -0.00418   2.06349
   R18        2.06415  -0.00268   0.00000  -0.00737  -0.00737   2.05678
   R19        2.71366  -0.00049   0.00000  -0.00116  -0.00116   2.71250
   R20        1.84555  -0.01766   0.00000  -0.03282  -0.03282   1.81273
   R21        1.86004  -0.01540   0.00000  -0.02944  -0.02944   1.83059
   R22        1.85117  -0.01867   0.00000  -0.03508  -0.03508   1.81609
   R23        1.85861  -0.01975   0.00000  -0.03766  -0.03766   1.82096
   R24        1.85498  -0.01935   0.00000  -0.03664  -0.03664   1.81833
   R25        1.84145  -0.01964   0.00000  -0.03622  -0.03622   1.80522
    A1        2.00270  -0.00169   0.00000   0.00489   0.00241   2.00511
    A2        1.91446  -0.00196   0.00000  -0.04089  -0.04103   1.87343
    A3        1.90236   0.00432   0.00000   0.05105   0.04980   1.95216
    A4        1.91360  -0.00089   0.00000  -0.03281  -0.03313   1.88047
    A5        1.85409   0.00294   0.00000   0.04459   0.04309   1.89718
    A6        1.87144  -0.00261   0.00000  -0.02531  -0.02401   1.84743
    A7        2.01404   0.00252   0.00000   0.00320   0.00312   2.01716
    A8        1.91775  -0.00230   0.00000  -0.02392  -0.02395   1.89379
    A9        1.90922  -0.00192   0.00000  -0.00963  -0.00958   1.89964
   A10        1.86461  -0.00104   0.00000  -0.00909  -0.00931   1.85529
   A11        1.90206  -0.00072   0.00000  -0.00150  -0.00152   1.90055
   A12        1.84870   0.00365   0.00000   0.04520   0.04525   1.89395
   A13        2.00394   0.00027   0.00000   0.00688   0.00640   2.01035
   A14        1.88075  -0.00344   0.00000  -0.04018  -0.04006   1.84069
   A15        1.93238   0.00290   0.00000   0.02542   0.02519   1.95756
   A16        1.88598   0.00127   0.00000  -0.00015  -0.00026   1.88572
   A17        1.90703  -0.00078   0.00000   0.01073   0.01025   1.91728
   A18        1.84641  -0.00035   0.00000  -0.00531  -0.00502   1.84139
   A19        2.03246   0.00375   0.00000   0.00847   0.00869   2.04116
   A20        1.92101  -0.00038   0.00000  -0.01345  -0.01315   1.90786
   A21        1.86090  -0.00974   0.00000  -0.05665  -0.05651   1.80438
   A22        1.90997  -0.00295   0.00000  -0.00809  -0.00863   1.90134
   A23        1.86969   0.00552   0.00000   0.02887   0.02865   1.89834
   A24        1.86106   0.00399   0.00000   0.04531   0.04476   1.90582
   A25        1.94136  -0.00046   0.00000  -0.01388  -0.01402   1.92734
   A26        1.91998  -0.00606   0.00000  -0.02750  -0.02852   1.89146
   A27        1.94717   0.00598   0.00000   0.02840   0.02819   1.97536
   A28        1.88831   0.00112   0.00000  -0.00409  -0.00425   1.88406
   A29        1.89868  -0.00523   0.00000  -0.03915  -0.03880   1.85987
   A30        1.86584   0.00471   0.00000   0.05795   0.05802   1.92386
   A31        1.94630  -0.00213   0.00000  -0.03135  -0.03103   1.91527
   A32        1.95374  -0.00033   0.00000  -0.01771  -0.01731   1.93643
   A33        1.88066  -0.01489   0.00000  -0.05760  -0.05726   1.82340
   A34        1.92573  -0.00113   0.00000  -0.01066  -0.01313   1.91260
   A35        1.87285   0.00972   0.00000   0.06158   0.06016   1.93301
   A36        1.88095   0.00932   0.00000   0.06178   0.06079   1.94174
   A37        1.84516   0.00098   0.00000   0.00552   0.00552   1.85068
   A38        1.86371   0.00292   0.00000   0.01643   0.01643   1.88014
   A39        1.83909   0.00230   0.00000   0.01299   0.01299   1.85208
   A40        1.80502   0.00742   0.00000   0.04182   0.04182   1.84684
   A41        1.81350   0.00616   0.00000   0.03473   0.03473   1.84824
   A42        1.85392   0.00648   0.00000   0.03649   0.03649   1.89041
    D1        3.12134  -0.00436   0.00000  -0.10711  -0.10711   3.01423
    D2        1.01239  -0.00300   0.00000  -0.07905  -0.07912   0.93327
    D3       -1.01014  -0.00499   0.00000  -0.11445  -0.11447  -1.12462
    D4        0.95851  -0.00036   0.00000  -0.03463  -0.03493   0.92358
    D5       -1.15044   0.00100   0.00000  -0.00658  -0.00694  -1.15738
    D6        3.11021  -0.00100   0.00000  -0.04197  -0.04229   3.06792
    D7       -1.08561   0.00140   0.00000  -0.01034  -0.00995  -1.09556
    D8        3.08863   0.00276   0.00000   0.01771   0.01804   3.10667
    D9        1.06609   0.00077   0.00000  -0.01768  -0.01732   1.04878
   D10       -1.15897   0.00330   0.00000   0.05490   0.05488  -1.10409
   D11        3.02204   0.00400   0.00000   0.07978   0.07965   3.10169
   D12        1.01047   0.00483   0.00000   0.09545   0.09563   1.10610
   D13        1.00431  -0.00126   0.00000  -0.02184  -0.02166   0.98266
   D14       -1.09786  -0.00056   0.00000   0.00303   0.00311  -1.09475
   D15       -3.10943   0.00027   0.00000   0.01870   0.01909  -3.09034
   D16        3.02114  -0.00319   0.00000  -0.04382  -0.04408   2.97706
   D17        0.91896  -0.00249   0.00000  -0.01894  -0.01931   0.89965
   D18       -1.09261  -0.00165   0.00000  -0.00327  -0.00333  -1.09594
   D19       -1.29206  -0.00166   0.00000  -0.04697  -0.04818  -1.34024
   D20        0.87471   0.00063   0.00000   0.01617   0.01742   0.89213
   D21        2.91988  -0.00021   0.00000  -0.01182  -0.01186   2.90802
   D22        1.01420  -0.00090   0.00000   0.00374   0.00366   1.01786
   D23       -1.17208   0.00049   0.00000   0.01975   0.01995  -1.15213
   D24        3.09910   0.00129   0.00000   0.00404   0.00389   3.10299
   D25       -3.13143  -0.00299   0.00000  -0.03184  -0.03189   3.11987
   D26        0.96548  -0.00160   0.00000  -0.01583  -0.01560   0.94988
   D27       -1.04653  -0.00079   0.00000  -0.03154  -0.03166  -1.07819
   D28       -1.14128   0.00038   0.00000   0.01536   0.01528  -1.12599
   D29        2.95563   0.00177   0.00000   0.03137   0.03158   2.98720
   D30        0.94362   0.00257   0.00000   0.01566   0.01551   0.95913
   D31       -2.99036  -0.00081   0.00000   0.00557   0.00552  -2.98484
   D32       -0.77373   0.00055   0.00000   0.00188   0.00180  -0.77193
   D33        1.22676   0.00086   0.00000   0.01367   0.01380   1.24056
   D34       -0.85258   0.00231   0.00000   0.03762   0.03784  -0.81474
   D35       -2.94457   0.00518   0.00000   0.06974   0.06949  -2.87508
   D36        1.27098  -0.00053   0.00000  -0.00249  -0.00238   1.26860
   D37        1.24671  -0.00099   0.00000  -0.00937  -0.00922   1.23749
   D38       -0.84528   0.00188   0.00000   0.02274   0.02244  -0.82284
   D39       -2.91292  -0.00383   0.00000  -0.04949  -0.04944  -2.96235
   D40       -3.03535  -0.00114   0.00000  -0.01014  -0.00995  -3.04530
   D41        1.15585   0.00174   0.00000   0.02197   0.02170   1.17755
   D42       -0.91179  -0.00397   0.00000  -0.05026  -0.05017  -0.96196
   D43       -0.61721  -0.00240   0.00000  -0.05323  -0.05337  -0.67058
   D44        1.60655  -0.00051   0.00000  -0.01781  -0.01762   1.58893
   D45       -2.65013   0.00040   0.00000  -0.01557  -0.01561  -2.66574
   D46        0.91614  -0.00370   0.00000  -0.03833  -0.03846   0.87769
   D47       -1.25088  -0.00036   0.00000   0.01259   0.01247  -1.23841
   D48        2.96715  -0.00219   0.00000  -0.01648  -0.01641   2.95074
   D49        3.10800  -0.00380   0.00000  -0.05703  -0.05702   3.05098
   D50        0.94097  -0.00046   0.00000  -0.00611  -0.00609   0.93488
   D51       -1.12419  -0.00230   0.00000  -0.03518  -0.03497  -1.15916
   D52       -1.16401   0.00234   0.00000   0.00758   0.00749  -1.15652
   D53        2.95215   0.00568   0.00000   0.05850   0.05843   3.01057
   D54        0.88699   0.00384   0.00000   0.02943   0.02954   0.91653
   D55       -2.94822  -0.00046   0.00000   0.04094   0.04062  -2.90760
   D56       -0.76064   0.00152   0.00000   0.03457   0.03383  -0.72681
   D57        1.28296   0.00281   0.00000   0.06205   0.06312   1.34607
   D58        1.03757  -0.00049   0.00000   0.00691   0.00772   1.04529
   D59       -3.09754  -0.00072   0.00000  -0.01893  -0.01864  -3.11618
   D60       -1.06216   0.00043   0.00000  -0.01284  -0.01395  -1.07610
   D61        3.10539   0.00100   0.00000   0.01927   0.01937   3.12476
   D62       -1.07981  -0.00430   0.00000  -0.01536  -0.01765  -1.09746
   D63        0.99405   0.00455   0.00000   0.03804   0.04024   1.03429
         Item               Value     Threshold  Converged?
 Maximum Force            0.019751     0.000450     NO 
 RMS     Force            0.005745     0.000300     NO 
 Maximum Displacement     0.260909     0.001800     NO 
 RMS     Displacement     0.089182     0.001200     NO 
 Predicted change in Energy=-1.016166D-02
 GradGradGradGradGradGradGradGradGradGradGradGradGradGradGradGradGradGrad

                          Input orientation:                          
 ---------------------------------------------------------------------
 Center     Atomic      Atomic             Coordinates (Angstroms)
 Number     Number       Type             X           Y           Z
 ---------------------------------------------------------------------
      1          6           0        0.004826   -0.077710   -0.074393
      2          6           0        1.530965   -0.060342   -0.029599
      3          6           0       -0.618977    0.746005   -1.214940
      4          6           0        2.159411   -0.722623    1.185927
      5          1           0        1.865830    0.979689   -0.019625
      6          1           0       -0.352639    0.336500    0.868552
      7          6           0       -0.347056    2.247301   -1.156114
      8          1           0       -1.696469    0.593888   -1.128219
      9          6           0        1.825740   -2.180436    1.422349
     10          1           0        1.903774   -0.149386    2.083415
     11          1           0       -0.522185    2.626703   -0.148708
     12          1           0       -1.044831    2.751011   -1.832253
     13          1           0        1.988854   -2.749558    0.504823
     14          1           0        0.792520   -2.295878    1.744450
     15          8           0        0.988426    2.585835   -1.488866
     16          1           0        1.126846    2.269523   -2.383827
     17          8           0       -0.265187    0.240318   -2.498562
     18          1           0        0.659180   -0.046556   -2.457993
     19          8           0       -0.509242   -1.406389   -0.135903
     20          1           0       -0.382711   -1.699691   -1.042297
     21          8           0        2.036016   -0.689799   -1.214135
     22          1           0        2.985045   -0.784802   -1.076805
     23          8           0        3.564221   -0.606195    0.937419
     24          1           0        3.992857   -1.194216    1.567000
     25          8           0        2.740000   -2.595959    2.447935
     26          1           0        2.565584   -3.512733    2.652069
 ---------------------------------------------------------------------
                    Distance matrix (angstroms):
                    1          2          3          4          5
     1  C    0.000000
     2  C    1.526895   0.000000
     3  C    1.538988   2.584082   0.000000
     4  C    2.578091   1.520218   3.954804   0.000000
     5  H    2.141128   1.092657   2.767247   2.106516   0.000000
     6  H    1.090181   2.124175   2.139993   2.744606   2.474703
     7  C    2.588362   3.181386   1.526857   4.537398   2.792009
     8  H    2.110924   3.471500   1.091627   4.685753   3.750707
     9  C    3.158705   2.586473   4.636377   1.514085   3.473800
    10  H    2.875287   2.147497   4.247958   1.095187   2.387264
    11  H    2.756286   3.383760   2.164081   4.493350   2.903780
    12  H    3.491922   4.217582   2.140672   5.607381   3.859424
    13  H    3.377962   2.779775   4.687998   2.145102   3.767953
    14  H    2.974713   2.947909   4.472512   2.157654   3.872118
    15  O    3.172172   3.070189   2.458405   4.412665   2.346958
    16  H    3.478781   3.336761   2.595246   4.770982   2.792708
    17  O    2.459806   3.067953   1.424279   4.514576   3.351572
    18  H    2.471983   2.580174   1.951158   3.998239   2.907718
    19  O    1.425987   2.446546   2.410221   3.055565   3.368658
    20  H    1.928172   2.715728   2.463139   3.518811   3.644293
    21  O    2.408193   1.433324   3.018364   2.403456   2.059857
    22  H    3.222811   1.932830   3.918090   2.409459   2.341731
    23  O    3.737960   2.316723   4.894920   1.431364   2.513064
    24  H    4.454789   3.145744   5.724741   1.931098   3.430376
    25  O    4.492760   3.745569   5.988999   2.332195   4.431510
    26  H    5.078431   4.492302   6.575108   3.177934   5.273468
                    6          7          8          9         10
     6  H    0.000000
     7  C    2.783965   0.000000
     8  H    2.420583   2.134354   0.000000
     9  C    3.374461   5.565462   5.158316   0.000000
    10  H    2.608328   4.615723   4.881475   2.137349   0.000000
    11  H    2.511692   1.090634   2.543761   5.575802   4.309794
    12  H    3.688271   1.094431   2.360821   6.569002   5.695528
    13  H    3.890840   5.760537   5.237085   1.091953   3.043039
    14  H    3.001333   5.509299   4.774729   1.088402   2.440739
    15  O    3.523547   1.417336   3.362526   5.647442   4.591349
    16  H    4.062440   1.918375   3.515027   5.897250   5.139162
    17  O    3.369622   2.415958   2.012814   5.060194   5.084366
    18  H    3.498058   2.822974   2.779847   4.579450   4.709987
    19  O    2.017701   3.796918   2.528895   2.911947   3.511135
    20  H    2.792547   3.948794   2.644588   3.344077   4.171514
    21  O    3.331147   3.782718   3.947996   3.035994   3.344154
    22  H    4.022669   4.505867   4.880574   3.088293   3.399984
    23  O    4.029293   5.274790   5.777708   2.394934   2.068590
    24  H    4.659855   6.172053   6.544459   2.385362   2.392200
    25  O    4.545127   6.780579   6.530410   1.435395   2.611104
    26  H    5.149131   7.494246   7.022821   1.958213   3.474688
                   11         12         13         14         15
    11  H    0.000000
    12  H    1.767183   0.000000
    13  H    5.969641   6.702345   0.000000
    14  H    5.435467   6.452887   1.781492   0.000000
    15  O    2.019812   2.068656   5.782912   5.858654   0.000000
    16  H    2.800471   2.291778   5.854787   6.164197   0.959254
    17  O    3.358973   2.712082   4.800039   5.055115   2.844729
    18  H    3.724881   3.334904   4.225226   4.768412   2.824375
    19  O    4.033134   4.521995   2.907767   2.453874   4.473407
    20  H    4.419914   4.568498   3.019954   3.082623   4.521634
    21  O    4.321888   4.659706   2.683216   3.588731   3.450029
    22  H    4.980000   5.414109   2.711865   3.879432   3.939223
    23  O    5.322595   6.339186   2.694982   3.344944   4.765567
    24  H    6.158627   7.245553   2.750152   3.389292   5.714342
    25  O    6.682859   7.825283   2.088899   2.092276   6.739243
    26  H    7.421008   8.507569   2.350685   2.334152   7.538388
                   16         17         18         19         20
    16  H    0.000000
    17  O    2.463451   0.000000
    18  H    2.363987   0.968708   0.000000
    19  O    4.608934   2.890219   2.933677   0.000000
    20  H    4.453439   2.428611   2.413004   0.961034   0.000000
    21  O    3.309434   2.794710   1.963828   2.855595   2.626718
    22  H    3.806587   3.692732   2.803986   3.671744   3.489984
    23  O    5.024064   5.214107   4.503474   4.287823   4.548986
    24  H    5.985025   6.059506   5.350803   4.818068   5.119524
    25  O    7.044224   6.445421   5.907402   4.318433   4.768264
    26  H    7.801583   6.973353   6.462314   4.654463   5.062402
                   21         22         23         24         25
    21  O    0.000000
    22  H    0.963609   0.000000
    23  O    2.640376   2.103436   0.000000
    24  H    3.437786   2.858847   0.962221   0.000000
    25  O    4.188054   3.970406   2.630619   2.076193   0.000000
    26  H    4.816319   4.639187   3.519270   2.930871   0.955284
                   26
    26  H    0.000000
 Stoichiometry    C6H14O6
 Framework group  C1[X(C6H14O6)]
 Deg. of freedom    72
 Full point group                 C1      NOp   1
 Largest Abelian subgroup         C1      NOp   1
 Largest concise Abelian subgroup C1      NOp   1
                         Standard orientation:                         
 ---------------------------------------------------------------------
 Center     Atomic      Atomic             Coordinates (Angstroms)
 Number     Number       Type             X           Y           Z
 ---------------------------------------------------------------------
      1          6           0       -0.603384    0.770913   -0.560413
      2          6           0        0.174791   -0.430316   -0.028530
      3          6           0       -2.114673    0.743145   -0.271070
      4          6           0        1.632897   -0.507280   -0.451691
      5          1           0       -0.300256   -1.342399   -0.397768
      6          1           0       -0.472591    0.789489   -1.642561
      7          6           0       -2.879259   -0.408574   -0.919333
      8          1           0       -2.505691    1.678644   -0.675540
      9          6           0        2.517226    0.665075   -0.082912
     10          1           0        1.688058   -0.667602   -1.533675
     11          1           0       -2.596932   -0.510496   -1.967849
     12          1           0       -3.948543   -0.178869   -0.878763
     13          1           0        2.401242    0.895007    0.978238
     14          1           0        2.267107    1.542841   -0.675857
     15          8           0       -2.623675   -1.661700   -0.308435
     16          1           0       -2.895987   -1.570750    0.606848
     17          8           0       -2.395303    0.785046    1.124660
     18          1           0       -1.730517    0.243581    1.575516
     19          8           0       -0.068918    2.003467   -0.082298
     20          1           0       -0.368390    2.089301    0.826842
     21          8           0        0.106465   -0.429035    1.403163
     22          1           0        0.722203   -1.109919    1.696089
     23          8           0        2.112235   -1.675564    0.222216
     24          1           0        3.071663   -1.642539    0.156815
     25          8           0        3.849936    0.210960   -0.362233
     26          1           0        4.457123    0.920534   -0.161245
 ---------------------------------------------------------------------
 Rotational constants (GHZ):           1.6517312           0.5302717           0.4699604
 Standard basis: def2TZVPP (5D, 7F)
 There are   642 symmetry adapted cartesian basis functions of A   symmetry.
 There are   568 symmetry adapted basis functions of A   symmetry.
   568 basis functions,   850 primitive gaussians,   642 cartesian basis functions
    49 alpha electrons       49 beta electrons
       nuclear repulsion energy       838.8617727723 Hartrees.
 NAtoms=   26 NActive=   26 NUniq=   26 SFac= 1.00D+00 NAtFMM=   60 NAOKFM=F Big=F
 Integral buffers will be    131072 words long.
 Raffenetti 2 integral format.
 Two-electron integral symmetry is turned on.
 Nuclear repulsion after empirical dispersion term =      838.8427966972 Hartrees.
 One-electron integrals computed using PRISM.
   1 Symmetry operations used in ECPInt.
 ECPInt:  NShTT=   23436 NPrTT=   62434 LenC2=   21895 LenP2D=   45655.
 LDataN:  DoStor=T MaxTD1= 6 Len=  172
[...]
 0023754,-0.00402450,0.00132746,-0.00067060,0.00113047,0.00126745,0.001
 25055,-0.00338627,-0.00002749,0.00003569,0.00022562,0.00001717,0.00053
 951,0.00050942,0.00012886,0.00144706,0.00033379,-0.00014994,0.00027129
 ,0.00019120,-0.00296884,0.00008067,0.00008648,0.00131005,0.00039938,0.
 00038714,-0.00035528,-0.00041096,0.00013615,0.00150141,0.00654764,0.00
 168466,-0.00155804,-0.00030895,-0.00022800,-0.05404834,0.14387029,0.57
 457428,0.00056894,-0.00725400,-0.01527288,0.00019721,-0.00350523,-0.00
 341087,0.00181425,-0.00018694,0.00043123,-0.00009865,-0.00017805,-0.00
 010648,-0.00031835,0.00038059,0.00060329,-0.00027299,-0.00042973,0.000
 34779,0.00031236,0.00037751,0.00031556,-0.00059640,0.00063785,0.000016
 26,0.00010282,-0.00011396,-0.00125904,0.00003554,0.00008492,0.00021184
 ,0.00001831,-0.00002593,-0.00006496,-0.00005820,-0.00009270,-0.0000411
 0,-0.00041203,0.00042623,0.00008095,-0.00017638,-0.00004916,0.00006234
 ,-0.00064265,-0.00015115,0.00001398,0.00014030,-0.00005404,0.00000147,
 -0.00221266,0.00046528,0.00004392,0.00034958,-0.00210475,0.00141834,-0
 .01748282,0.00718724,0.06870553,0.01832003,0.00333386,-0.02131704,-0.0
 4324042,-0.00035951,-0.00014883,-0.00090495,0.00145597,-0.00243748,-0.
 00336409,-0.00003767,0.00005033,-0.00031939,0.00006825,0.00013461,0.00
 006101,-0.00301034,-0.00638868,0.00029045,-0.00055068,-0.00038333,-0.0
 0048007,0.00022461,-0.00033864,0.00038214,-0.00027027,0.00019003,0.000
 80022,-0.00001655,-0.00010274,0.00006244,0.00004485,0.00032188,0.00025
 337,0.00002423,0.00025388,0.00007678,0.00045970,-0.00009269,-0.0001739
 8,-0.00004672,0.00027494,-0.00011654,0.00053886,0.00056812,0.00012962,
 -0.00030142,-0.00042441,0.00009332,0.00061594,0.00449715,-0.00075544,-
 0.00215046,-0.00101751,0.00116423,-0.00315628,-0.07779795,-0.10981332,
 0.00232979,0.10474124,0.00050197,-0.00237715,-0.00242551,0.00004780,0.
 00083585,0.00029515,-0.00044082,0.00453602,0.00371393,-0.00038843,-0.0
 0012931,-0.00034887,0.00072898,-0.00001684,-0.00002386,-0.00095145,0.0
 0078990,0.00147574,-0.00019688,-0.00032305,-0.00123862,0.00021448,-0.0
 0018773,-0.00007294,-0.00005338,0.00006047,-0.00083271,0.00001182,0.00
 009841,0.00002158,-0.00006943,-0.00042896,-0.00002801,0.00000674,0.000
 36111,-0.00001860,-0.00035370,0.00018310,0.00020204,-0.00009854,-0.000
 11974,-0.00017127,0.00014503,-0.00003416,-0.00035491,0.00022245,0.0003
 6190,0.00013035,-0.00077685,-0.00393157,-0.00033739,0.00230744,0.00144
 563,-0.00010867,0.05194928,-0.15644725,-0.47894014,-0.05360185,0.15473
 377,0.47959338,-0.01982627,0.02146763,0.04343666,-0.10735140,0.0291115
 5,0.04928886,0.00358366,-0.00217120,-0.00194616,-0.00131534,-0.0036957
 5,-0.00263841,0.00488680,0.00247184,-0.00137560,-0.00878445,-0.0003442
 3,-0.00049184,-0.00124950,-0.00073065,0.00068485,0.00019402,-0.0001435
 2,0.00034927,0.00035520,0.00123071,0.00072868,0.00023179,0.00091407,-0
 .00194878,0.00019685,-0.00003900,-0.00000445,0.00015303,0.00013411,-0.
 00013793,-0.00026480,-0.00046185,-0.00029135,0.00017606,0.00025278,-0.
 00061226,0.00163600,0.00046666,-0.00054483,-0.00097190,-0.00019856,0.0
 0001463,-0.01095872,0.00586125,-0.00783528,-0.00383157,0.00087739,0.00
 302378,0.00230562,0.00106113,-0.00033299,0.00057281,0.00033691,0.00036
 227,0.64825805,0.00098035,-0.00352819,-0.00587791,0.01455257,-0.100550
 27,-0.06065805,-0.00088526,-0.00004256,-0.00003470,-0.00146096,0.00706
 102,0.00379718,0.01747358,-0.01345940,-0.03881732,0.00015047,0.0008655
 3,0.00049742,-0.00127740,-0.00007910,0.00003846,0.00016640,-0.00000177
 ,-0.00003336,-0.00202587,-0.00171425,-0.00215292,0.00102095,0.00035704
 ,0.00279986,-0.00011490,0.00024301,-0.00001551,0.00023789,0.00004586,0
 .00021035,-0.00009928,0.00187425,0.00157109,-0.00017414,0.00015137,0.0
 0087982,0.00121712,-0.00082104,0.00004552,-0.00031303,0.00061257,-0.00
 058516,0.00302300,0.00199731,0.00255511,0.00183984,-0.00384918,-0.0001
 5130,-0.00101069,0.00445526,0.00221890,0.00151433,-0.00055383,0.000500
 69,-0.07265722,0.11690880,0.00663748,-0.00428342,-0.00652413,0.0036971
 0,-0.05643840,-0.17279112,0.00081712,-0.00058946,-0.00563162,0.0165620
 6,-0.02017042,-0.04839846,0.00796364,-0.01275263,-0.01638625,-0.000278
 15,0.00016207,0.00120380,0.00071370,0.00020201,-0.00022300,-0.00005785
 ,-0.00000158,0.00096658,0.00057933,-0.00349539,0.00152293,-0.00474305,
 0.00424458,-0.00620041,-0.00019237,0.00055105,0.00035456,-0.00017403,-
 0.00025958,0.00020311,-0.00009568,0.00116651,-0.00070557,-0.00017717,-
 0.00000705,-0.00058366,-0.00109522,0.00093189,0.00172201,0.00087350,-0
 .00143627,0.00027665,-0.00896162,0.00327855,0.00320978,0.00377949,0.00
 053874,-0.00249771,0.00018248,0.00065852,0.00276873,0.00065852,0.00071
 565,-0.00092200,0.01172764,0.09793717,0.29615886,-0.00006250,0.0018059
 6,0.00247058,-0.01834073,0.00199256,0.00390453,-0.00022065,0.00010693,
 0.00013209,0.00284251,-0.00034506,-0.00116154,0.00090418,-0.00064123,-
 0.00143556,-0.00043661,-0.00008246,-0.00042078,-0.00027304,0.00008804,
 0.00000183,0.00009025,-0.00001468,-0.00001449,-0.00011051,-0.00058815,
 0.00070177,-0.00123806,0.00018125,-0.00035086,-0.00001474,-0.00000166,
 -0.00002518,0.00004735,-0.00002369,0.00004592,-0.00001476,-0.00041295,
 0.00017530,-0.00003771,-0.00017649,-0.00008034,0.00020017,-0.00047419,
 0.00010131,-0.00002145,0.00029240,-0.00016400,0.00170539,-0.00036148,0
 .00000542,-0.00221553,0.00028133,-0.00080990,0.00107350,0.00042342,-0.
 00012604,-0.00017077,-0.00001316,-0.00011731,-0.51096192,0.03750629,-0
 .03860637,0.52993441,-0.00023965,-0.00210409,-0.00279133,0.02093909,-0
 .00187727,-0.00224311,-0.00030917,0.00015782,0.00003859,-0.00064562,0.
 00214965,0.00041411,0.00101743,-0.00037349,0.00008503,0.00069240,0.000
 29104,0.00008114,0.00061141,0.00021471,-0.00024785,-0.00003183,-0.0000
 1866,-0.00000910,0.00013865,0.00038548,0.00120918,0.00006525,-0.000233
 99,-0.00019008,-0.00003473,-0.00000201,0.00004279,-0.00015440,-0.00003
 339,-0.00000229,-0.00035680,-0.00077778,-0.00008572,0.00005648,-0.0001
 5563,-0.00042098,-0.00092932,0.00014044,0.00014706,0.00040355,-0.00016
 106,0.00016502,0.00063126,0.00013449,0.00048882,-0.00009666,-0.0005857
 7,-0.00056906,-0.00060498,0.00016645,0.00063037,0.00054912,0.00039310,
 0.00006163,0.01819441,-0.01409156,-0.01192200,-0.03981855,0.01941535,0
 .00153144,-0.00350889,-0.00679843,0.04016990,-0.00407908,0.00131984,0.
 00000471,-0.00030706,-0.00105328,0.00660446,0.00004229,-0.00336890,-0.
 00010635,-0.00089960,0.00009263,0.00198994,-0.00010484,0.00006530,-0.0
 0024536,-0.00010809,0.00016894,-0.00007070,0.00008736,0.00011000,-0.00
 025075,0.00053190,-0.00033032,-0.00068660,-0.00007380,0.00084338,0.000
 06380,0.00006920,-0.00000975,0.00005208,-0.00001455,0.00000460,0.00023
 159,0.00025882,-0.00002972,-0.00014079,-0.00035615,0.00036018,0.000403
 47,0.00007022,-0.00018154,-0.00038586,0.00007788,0.00000015,-0.0024197
 2,0.00136695,-0.00087063,0.00114721,-0.00140078,0.00261020,-0.00064461
 ,0.00021862,0.00019260,0.00003738,0.00020676,-0.00003494,-0.08154793,-
 0.00784026,-0.04681375,0.03587447,0.01537070,0.04872113,0.00226786,0.0
 0347133,-0.00507017,-0.04259524,0.00066165,-0.00388466,-0.00173878,-0.
 00092046,0.00179473,-0.21427891,-0.02903469,0.03955620,0.00134902,-0.0
 0069185,0.00120671,0.00081594,-0.00020984,0.00017946,-0.00052059,-0.00
 056442,0.00013011,-0.00036924,0.00036583,-0.00060600,-0.03777894,-0.00
 896167,0.00537927,-0.03152529,0.00097900,0.00911794,0.00006849,-0.0001
 2421,0.00000042,0.00006603,0.00023252,-0.00013021,0.00149634,0.0002528
 3,-0.00101823,0.00132606,-0.00530935,0.00135103,0.00063054,0.00072306,
 -0.00049041,-0.00024258,-0.00023204,0.00017712,0.00034611,0.00021959,-
 0.00114725,-0.00032952,-0.00006439,0.00051120,-0.00082189,-0.00088713,
 -0.00066465,0.00009710,0.00014844,0.00038751,0.00081222,0.00011404,-0.
 00010857,-0.00173295,0.00044035,-0.00005053,0.44850603,-0.00048231,-0.
 00327145,0.00448815,0.02332091,0.00275769,-0.00243403,0.00129566,0.000
 46707,-0.00072965,0.00951640,-0.08508659,0.01651613,0.00004019,0.00164
 297,-0.00174865,-0.00048904,0.00003914,0.00008946,-0.00008496,0.000114
 85,-0.00004481,0.00028763,-0.00022563,0.00036887,-0.04012973,-0.005985
 94,0.01047912,0.01507527,0.00686631,0.00028389,-0.00003922,0.00003837,
 0.00000443,0.00002462,-0.00004643,0.00005049,0.00054793,0.00348436,-0.
 00009279,-0.00126906,-0.00770295,0.00241389,0.00011603,-0.00003806,0.0
 0007536,-0.00000490,0.00001829,-0.00007316,-0.00012557,0.00026550,0.00
 037556,0.00008516,-0.00010962,-0.00011261,0.00040346,0.00208281,-0.000
 28261,0.00014984,-0.00021767,0.00003586,-0.00021986,0.00294525,0.00004
 038,-0.00050702,-0.00300381,-0.00045006,-0.11786980,0.31820137,0.00031
 512,0.00315564,-0.00535208,-0.03262096,-0.00204459,-0.00274523,-0.0014
 1653,-0.00062896,0.00032432,0.01151209,0.01454986,-0.08600540,0.000462
 95,-0.00095515,0.00150641,-0.00037404,0.00020130,0.00028157,0.00006703
 ,-0.00029112,-0.00012109,-0.00034801,0.00028991,-0.00039818,0.00547523
 ,0.00426344,-0.00123016,0.03193049,0.00425591,0.00204813,-0.00000562,0
 .00005324,0.00007214,-0.00001691,0.00008993,-0.00002121,-0.00042511,0.
 00166031,0.00074542,-0.00038068,0.00120734,0.00147372,-0.00007478,0.00
 038154,0.00006030,0.00006086,-0.00024419,0.00012317,-0.00069457,0.0004
 1813,-0.00006681,0.00077292,-0.00039757,0.00080855,-0.00032551,-0.0008
 0258,0.00056120,0.00031485,0.00023221,0.00002466,-0.00881022,0.0021041
 4,-0.00040000,0.00035606,-0.00090568,0.00387692,0.09572449,-0.24345293
 ,0.29230903,0.00008571,0.00142432,-0.00182988,-0.00814510,-0.00098713,
 0.00212292,-0.00061755,-0.00012949,0.00024430,-0.02820950,0.02803305,-
 0.02726040,0.00019904,-0.00011563,0.00039563,0.00008493,0.00001511,0.0
 0000846,-0.00007882,-0.00002086,0.00000239,-0.00007207,0.00009263,-0.0
 0014178,-0.00291968,-0.00026937,-0.00275302,-0.00015104,0.00042415,0.0
 0007297,-0.00000738,0.00001558,-0.00000049,0.00002897,0.00000286,0.000
 01454,0.00001350,-0.00025149,0.00021375,0.00026724,0.00087916,-0.00036
 680,0.00009141,-0.00011094,0.00005968,-0.00000245,0.00005479,-0.000036
 86,0.00018014,-0.00014013,0.00004386,-0.00017113,0.00008998,-0.0001315
 9,0.00027869,-0.00046474,0.00023625,-0.00011116,0.00003101,-0.00006288
 ,0.00121824,-0.00013939,0.00129192,-0.00024880,-0.00034061,-0.00109445
 ,-0.13141824,0.11695708,-0.10669131,0.16836534,0.00014828,0.00114559,-
 0.00058144,-0.00217163,-0.00084752,-0.00076791,-0.00029676,-0.00010381
 ,0.00011771,-0.00020582,0.00391361,-0.00314999,-0.00001218,0.00012437,
 0.00012024,0.00003456,-0.00000514,0.00002626,0.00006772,-0.00003364,0.
 00003066,-0.00008341,0.00005814,-0.00009534,-0.00662956,0.00189029,-0.
 00236610,-0.00026546,-0.00022565,0.00071274,0.00001322,-0.00000866,0.0
 0000246,-0.00001404,0.00000633,-0.00001582,0.00019327,-0.00033873,0.00
 015712,0.00087353,-0.00039355,0.00055478,-0.00007180,0.00003944,-0.000
 03146,0.00001132,-0.00002332,0.00002838,-0.00012024,-0.00003585,-0.000
 07856,0.00014365,-0.00001422,0.00014819,0.00013336,-0.00059769,0.00016
 928,-0.00000264,0.00010731,-0.00003630,-0.00136240,-0.00013699,-0.0008
 9786,0.00047650,0.00021859,0.00131732,0.15324317,-0.23214064,0.2127307
 1,-0.14667160,0.23006493,0.00010631,-0.00007190,0.00018287,0.00019146,
 0.00028247,-0.00118744,0.00001993,0.00005809,-0.00003483,0.00229978,-0
 .00462179,0.00409609,0.00007657,-0.00000149,-0.00008802,-0.00005325,0.
 00001130,0.00003681,-0.00003488,0.00003269,0.00001455,0.00003632,-0.00
 001539,0.00001355,0.00233816,0.00037723,0.00266038,0.00204625,-0.00058
 773,-0.00028478,-0.00000339,0.00000701,-0.00000693,0.00000930,-0.00001
 337,0.00001344,-0.00062389,-0.00025557,-0.00063526,-0.00027655,0.00066
 311,-0.00098549,0.00004218,-0.00006516,0.00001699,-0.00001170,0.000028
 34,-0.00001381,0.00000403,-0.00001367,0.00007070,-0.00003289,0.0000098
 8,-0.00000655,0.00009630,0.00008524,-0.00000002,-0.00004051,0.00001499
 ,-0.00001780,-0.00110726,-0.00012726,0.00021617,0.00003825,0.00103013,
 0.00083872,-0.14060913,0.21192826,-0.20857661,0.13553857,-0.20865848,0
 .20672967,-0.00068010,-0.00227479,0.00031131,0.00076757,-0.00093174,0.
 00171945,0.00025618,0.00008662,0.00032086,-0.00378463,0.00164525,-0.00
 234642,-0.00007141,0.00018842,-0.00034130,0.00010236,-0.00005024,0.000
 03571,-0.00023500,-0.00019528,-0.00008246,0.00004012,-0.00003964,0.000
 03994,-0.13761341,0.00709066,-0.07516245,0.00029057,-0.00000263,0.0003
 5205,0.00001677,-0.00004666,0.00000667,0.00000692,0.00012242,-0.000052
 94,-0.00127308,0.00205727,-0.00930586,-0.02184372,0.01655459,-0.035022
 18,0.00025752,0.00032728,-0.00018108,-0.00008478,-0.00012721,0.0000805
 0,0.00010231,0.00037803,-0.00048843,-0.00013214,-0.00011506,0.00019047
 ,-0.00154108,0.00210190,-0.00250963,0.00000794,0.00026450,0.00026663,0
 .00088840,0.00038429,-0.00097257,-0.00066031,-0.00007831,-0.00031728,0
 .00508275,-0.00455465,0.00316871,-0.00049445,0.00167565,0.00134871,0.1
 8547600,-0.00168833,-0.00042015,-0.00018737,-0.00397641,-0.00806663,-0
 .00393943,0.00016051,0.00032922,-0.00046314,0.02711712,-0.02232910,0.0
 4064167,0.00128353,-0.00082819,0.00220367,0.00001232,0.00004043,-0.000
 03644,-0.00031837,0.00019753,-0.00000501,0.00017031,-0.00007017,0.0001
 5605,0.03567959,-0.10250004,0.04260989,0.00049841,0.00272154,-0.000808
 24,-0.00003972,0.00006375,-0.00001582,0.00006921,-0.00006966,0.0000743
 7,-0.00930270,0.00874286,-0.00401792,0.00393629,0.00192798,0.00066912,
 0.00029354,-0.00056673,0.00039312,0.00002443,0.00013877,-0.00014657,0.
 00019821,-0.00005429,0.00044104,-0.00030636,0.00005041,-0.00038983,0.0
 0057628,0.00133079,0.00031748,-0.00003058,-0.00034146,-0.00003938,-0.0
 0030174,0.00103265,0.00185512,0.00031443,-0.00018314,-0.00057527,0.002
 96319,-0.00213686,0.00437033,0.00141712,-0.00208266,0.00021211,0.00012
 789,0.66895168,0.00037208,-0.00112140,-0.00021026,0.00130171,0.0005290
 4,0.00126158,0.00013580,-0.00017356,0.00022483,-0.00696828,0.01139182,
 -0.01148748,-0.00040579,0.00025171,-0.00056903,-0.00006718,0.00009852,
 0.00008777,0.00008338,-0.00022245,-0.00010522,-0.00009767,0.00001602,-
 0.00005177,-0.07853710,0.00749945,-0.14819857,0.00043244,0.00078684,0.
 00121128,0.00003143,-0.00003230,0.00003842,-0.00004647,0.00011207,-0.0
 0007087,-0.02977238,0.01625304,-0.02777670,-0.00766499,0.00264380,0.00
 295537,-0.00008245,0.00052100,-0.00021272,-0.00002100,-0.00021274,0.00
 013312,-0.00027754,0.00043438,-0.00033016,0.00032961,-0.00027895,0.000
 42442,-0.00159095,0.00116192,-0.00030293,0.00066588,-0.00016595,0.0004
 9170,-0.00019334,0.00171199,-0.00063307,-0.00048051,-0.00057856,0.0003
 5553,-0.00119456,0.00253393,0.00059921,0.00008542,0.00052074,-0.002793
 08,0.13902242,-0.09575213,0.20826726,0.00023978,0.00017611,0.00007721,
 0.00063543,0.00098761,0.00027161,-0.00002141,-0.00002877,-0.00003102,-
 0.00503722,0.00029276,-0.00350799,-0.00012212,0.00016834,-0.00025782,-
 0.00002093,0.00000827,0.00000858,0.00006625,0.00001422,0.00000016,-0.0
 0001881,0.00000790,-0.00001422,-0.00086287,0.03014177,-0.00421807,-0.0
 0004271,-0.00020534,0.00011581,-0.00000076,0.00000612,0.00000362,-0.00
 000571,-0.00001196,0.00000473,0.00090379,-0.00076045,-0.00046871,-0.00
 079283,0.00108475,0.00000853,-0.00006570,-0.00000386,0.00000104,0.0000
 1241,0.00001116,-0.00000644,-0.00003629,-0.00003986,0.00006891,0.00004
 642,0.00000560,-0.00001169,-0.00003815,-0.00032948,0.00012115,0.000015
 87,0.00003617,-0.00004089,0.00004714,-0.00002301,-0.00002134,-0.000036
 73,-0.00009875,-0.00014948,0.00048769,-0.00204405,0.00202344,0.0018341
 6,0.00089331,-0.00139866,-0.02488128,-0.05887817,-0.01505998,0.0276945
 9,-0.00006350,-0.00023743,0.00000954,-0.00045492,-0.00055757,-0.000353
 14,0.00003768,-0.00000807,0.00005397,0.00136496,-0.00047290,0.00264572
 ,0.00014635,0.00000072,0.00011704,0.00002288,-0.00001293,0.00000024,-0
 .00002309,-0.00002929,-0.00000958,-0.00000284,-0.00000037,0.00000195,-
 0.00429426,-0.01073179,-0.00371640,-0.00001801,0.00054858,-0.00003724,
 0.00000520,-0.00000996,0.00000105,-0.00000352,0.00002087,-0.00001335,-
 0.00134854,0.00173506,-0.00080456,-0.00035792,0.00038254,-0.00084527,0
 .00001544,0.00005605,-0.00002360,-0.00000420,-0.00002998,0.00002000,-0
 .00002074,0.00006026,-0.00009929,0.00002196,-0.00003062,0.00006297,-0.
 00029676,0.00028969,-0.00027232,0.00007614,0.00002967,0.00006711,-0.00
 005446,0.00027821,-0.00002820,-0.00000833,-0.00006546,0.00010040,0.001
 05486,0.00104166,-0.00024118,0.00020455,-0.00058055,-0.00030905,-0.024
 58855,-0.54587851,0.05207178,0.02858962,0.55420212,0.00016770,0.000193
 94,0.00007124,0.00037333,0.00186201,0.00071601,-0.00005538,0.00000699,
 0.00005072,-0.00368237,0.00167281,-0.00506432,-0.00023543,0.00009632,-
 0.00045137,-0.00000996,-0.00001889,-0.00002044,0.00002145,0.00001434,0
 .00001789,0.00000166,0.00000265,-0.00001038,0.00068614,0.03326265,-0.0
 0512901,-0.00011762,-0.00006923,0.00010082,-0.00000286,-0.00000436,-0.
 00000813,0.00000206,-0.00001151,0.00000732,0.00092349,0.00035954,-0.00
 005503,-0.00018097,-0.00053102,0.00075166,-0.00001289,-0.00001413,-0.0
 0003238,-0.00000830,0.00003377,-0.00000632,0.00006526,-0.00010555,-0.0
 0001927,-0.00006436,0.00007640,-0.00003729,0.00017549,-0.00038533,0.00
 001171,-0.00013142,0.00011721,-0.00007229,0.00020198,-0.00057393,0.000
 10757,-0.00001465,0.00020117,-0.00006888,-0.00054183,-0.00026249,0.000
 10203,0.00003878,0.00004267,-0.00025930,-0.02008085,0.01243258,-0.0233
 0862,0.02248153,-0.04839861,0.03260605\\-0.00001603,0.00000272,0.00001
 691,0.00001277,-0.00000362,-0.00002105,0.00000588,0.00000419,-0.000001
 36,0.00001932,0.00000455,0.00000089,0.00000020,0.00000191,0.00000696,0
 .00000244,0.00000065,-0.00000357,0.00001700,-0.00000181,-0.00000285,-0
 .00000318,-0.00000213,0.00000634,0.00001318,-0.00000811,0.00001184,-0.
 00000556,0.00000240,0.00000392,-0.00000489,0.00000298,0.,-0.00000333,-
 0.00000209,-0.00000630,-0.00000328,-0.00000247,-0.00000412,-0.00000822
 ,-0.00000008,-0.00000027,-0.00000276,-0.00000010,0.00000860,-0.0000013
 1,-0.00000287,-0.00000843,-0.00000058,0.00001438,-0.00000696,0.0000065
 8,-0.00000888,0.00000270,0.00000095,-0.00000254,0.00000108,0.00000285,
 -0.00000473,-0.00000404,-0.00001152,0.00000466,0.00001167,0.00000432,-
 0.00000457,-0.00000378,-0.00001794,-0.00000021,-0.00000667,0.00000480,
 -0.00000590,0.00000688,-0.00001103,0.00001677,-0.00000634,-0.00000065,
 -0.00000508,-0.00000203\\\@
 The archive entry for this job was punched.


 A ROPE OVER THE TOP OF A FENCE HAS THE SAME LENGTH ON EACH SIDE.
 WEIGHS 1/3 POUND PER FOOT.  ON ONE END HANGS A MONKEY HOLDING A
 BANANA, AND ON THE OTHER END A WEIGHT EQUAL TO THE WEIGHT
 OF THE MONKEY.  THE BANANA WEIGHS TWO OUNCES PER INCH.
 THE ROPE IS AS LONG AS THE AGE OF THE MONKEY, 
 AND THE WEIGHT OF THE MONKEY (IN OUNCES) IS AS MUCH
 AS THE AGE OF THE MONKEY'S MOTHER.  THE COMBINED AGES OF MONKEY
 AND MOTHER ARE THIRTY YEARS.  HALF THE WEIGHT OF THE MONKEY,
  PLUS THE WEIGHT OF THE BANANA, IS ONE FOURTH AS MUCH AS THE WEIGHT
 OF THE WEIGHT AND THE ROPE.
 THE MONKEY'S MOTHER IS HALF AS OLD AS THE MONKEY WILL BE
 WHEN IT IS 3 TIMES AS OLD AS ITS MOTHER WAS WHEN
 SHE WAS HALF AS OLD AS THE MONKEY WILL BE WHEN IT IS
 AS OLD AS ITS MOTHER WILL BE WHEN SHE IS 4 TIMES AS
 OLD AS THE MONKEY WAS WHEN IT WAS TWICE AS OLD AS 
 ITS MOTHER WAS WHEN SHE WAS ONE THIRD AS OLD AS THE
 MONKEY WAS WHEN IT WAS AS OLD AS ITS MOTHER WAS WHEN 
 SHE WAS 3 TIMES AS OLD AS THE MONKEY WAS WHEN IT WAS AS OLD AS ITS
 MOTHER WAS WHEN SHE WAS 3 TIMES AS OLD AS THE MONKEY 
 WAS WHEN IT WAS ONE FOURTH WAS OLD AS IT IS NOW.

 HOW LONG IS THE BANANA?
 Job cpu time:       0 days  9 hours  6 minutes 49.9 seconds.
 Elapsed time:       0 days  0 hours 34 minutes 17.1 seconds.
 File lengths (MBytes):  RWF=    704 Int=      0 D2E=      0 Chk=     27 Scr=      1
 Normal termination of Gaussian 16 at Wed Sep 27 12:12:31 2023.
