 Entering Gaussian System, Link 0=/opt/software/gaussian/g16.c01/g16
 Initial command:
 /opt/software/gaussian/g16.c01/l1.exe "/scratch/arhender/14836888/Gau-244744.inp" -scrdir="/scratch/arhender/14836888/"
 Entering Link 1 = /opt/software/gaussian/g16.c01/l1.exe PID=    244745.
  
 Copyright (c) 1988-2019, Gaussian, Inc.  All Rights Reserved.
  
 This is part of the Gaussian(R) 16 program.  It is based on
 the Gaussian(R) 09 system (copyright 2009, Gaussian, Inc.),
 the Gaussian(R) 03 system (copyright 2003, Gaussian, Inc.),
 the Gaussian(R) 98 system (copyright 1998, Gaussian, Inc.),
 the Gaussian(R) 94 system (copyright 1995, Gaussian, Inc.),
 the Gaussian 92(TM) system (copyright 1992, Gaussian, Inc.),
 the Gaussian 90(TM) system (copyright 1990, Gaussian, Inc.),
 the Gaussian 88(TM) system (copyright 1988, Gaussian, Inc.),
 the Gaussian 86(TM) system (copyright 1986, Carnegie Mellon
 University), and the Gaussian 82(TM) system (copyright 1983,
 Carnegie Mellon University). Gaussian is a federally registered
 trademark of Gaussian, Inc.
  
 This software contains proprietary and confidential information,
 including trade secrets, belonging to Gaussian, Inc.
  
 This software is provided under written license and may be
 used, copied, transmitted, or stored only in accord with that
 written license.
  
 The following legend is applicable only to US Government
 contracts under FAR:
  
                    RESTRICTED RIGHTS LEGEND
  
 Use, reproduction and disclosure by the US Government is
 subject to restrictions as set forth in subparagraphs (a)
 and (c) of the Commercial Computer Software - Restricted
 Rights clause in FAR 52.227-19.
  
 Gaussian, Inc.
 340 Quinnipiac St., Bldg. 40, Wallingford CT 06492
  
  
 ---------------------------------------------------------------
 Warning -- This program may not be used in any manner that
 competes with the business of Gaussian, Inc. or will provide
 assistance to any competitor of Gaussian, Inc.  The licensee
 of this program is prohibited from giving any competitor of
 Gaussian, Inc. access to this program.  By using this program,
 the user acknowledges that Gaussian, Inc. is engaged in the
 business of creating and licensing software in the field of
 computational chemistry and represents and warrants to the
 licensee that it is not a competitor of Gaussian, Inc. and that
 it will not use this program in any manner prohibited above.
 ---------------------------------------------------------------
  

 Cite this work as:
 Gaussian 16, Revision C.01,
 M. J. Frisch, G. W. Trucks, H. B. Schlegel, G. E. Scuseria, 
 M. A. Robb, J. R. Cheeseman, G. Scalmani, V. Barone, 
 G. A. Petersson, H. Nakatsuji, X. Li, M. Caricato, A. V. Marenich, 
 J. Bloino, B. G. Janesko, R. Gomperts, B. Mennucci, H. P. Hratchian, 
 J. V. Ortiz, A. F. Izmaylov, J. L. Sonnenberg, D. Williams-Young, 
 F. Ding, F. Lipparini, F. Egidi, J. Goings, B. Peng, A. Petrone, 
 T. Henderson, D. Ranasinghe, V. G. Zakrzewski, J. Gao, N. Rega, 
 G. Zheng, W. Liang, M. Hada, M. Ehara, K. Toyota, R. Fukuda, 
 J. Hasegawa, M. Ishida, T. Nakajima, Y. Honda, O. Kitao, H. Nakai, 
 T. Vreven, K. Throssell, J. A. Montgomery, Jr., J. E. Peralta, 
 F. Ogliaro, M. J. Bearpark, J. J. Heyd, E. N. Brothers, K. N. Kudin, 
 V. N. Staroverov, T. A. Keith, R. Kobayashi, J. Normand, 
 K. Raghavachari, A. P. Rendell, J. C. Burant, S. S. Iyengar, 
 J. Tomasi, M. Cossi, J. M. Millam, M. Klene, C. Adamo, R. Cammi, 
 J. W. Ochterski, R. L. Martin, K. Morokuma, O. Farkas, 
 J. B. Foresman, and D. J. Fox, Gaussian, Inc., Wallingford CT, 2019.
 
 ******************************************
 Gaussian 16:  ES64L-G16RevC.01  3-Jul-2019
                11-Oct-2023 
 ******************************************
 %chk=MannitolConformerOpt_35.chk
 %mem=8GB
 %nprocs=16
 Will use up to   16 processors via shared memory.
 ---------------------------------------------
 # opt freq wb97xd/Def2TZVPP geom=connectivity
 ---------------------------------------------
 1/18=20,19=15,26=3,38=1,57=2/1,3;
 2/9=110,12=2,17=6,18=5,40=1/2;
 3/5=44,7=202,11=2,25=1,30=1,71=1,74=-58/1,2,3;
 4//1;
 5/5=2,38=5/2;
 6/7=2,8=2,9=2,10=2,28=1/1;
 7//1,2,3,16;
 1/18=20,19=15,26=3/3(2);
 2/9=110/2;
 99//99;
 2/9=110/2;
 3/5=44,7=202,11=2,25=1,30=1,71=1,74=-58/1,2,3;
 4/5=5,16=3,69=1/1;
 5/5=2,38=5/2;
 7//1,2,3,16;
 1/18=20,19=15,26=3/3(-5);
 2/9=110/2;
 6/7=2,8=2,9=2,10=2,19=2,28=1/1;
 99/9=1/99;
 -------------------
 Title Card Required
 -------------------
 Symbolic Z-matrix:
 Charge =  0 Multiplicity = 1
 C                     0.        0.        0. 
 C                     1.5419    0.        0. 
 C                    -0.7177    0.6638    1.1793 
 C                     2.2517   -0.8494    1.0658 
 H                     1.9348    1.0224    0. 
 H                    -0.3742   -1.0234   -0.1257 
 C                    -0.3102    2.1199    1.4268 
 H                    -0.6107    0.0714    2.091 
 C                     2.2841   -0.2472    2.4691 
 H                     3.288    -1.0287    0.7506 
 H                    -0.5257    2.7469    0.556 
 H                     0.7452    2.21      1.6942 
 H                     1.2973   -0.2127    2.9308 
 H                     2.715     0.7577    2.4623 
 O                    -1.0945    2.6158    2.5154 
 H                    -0.8431    3.5482    2.6454 
 O                    -2.1309    0.6629    0.8732 
 H                    -2.5355    1.2007    1.586 
 O                    -0.4102    0.6847   -1.2131 
 H                    -1.3882    0.735    -1.1366 
 O                     1.9326   -0.5614   -1.28 
 H                     1.326    -0.1411   -1.9278 
 O                     1.6512   -2.1524    1.1433 
 H                     1.726    -2.5179    0.2381 
 O                     3.0903   -1.0685    3.3157 
 H                     2.7898   -1.9845    3.1491 
 

 GradGradGradGradGradGradGradGradGradGradGradGradGradGradGradGradGradGrad
 Berny optimization.
 Initialization pass.
                           ----------------------------
                           !    Initial Parameters    !
                           ! (Angstroms and Degrees)  !
 --------------------------                            --------------------------
 ! Name  Definition              Value          Derivative Info.                !
 --------------------------------------------------------------------------------
 ! R1    R(1,2)                  1.5419         estimate D2E/DX2                !
 ! R2    R(1,3)                  1.5318         estimate D2E/DX2                !
 ! R3    R(1,6)                  1.0969         estimate D2E/DX2                !
 ! R4    R(1,19)                 1.4521         estimate D2E/DX2                !
 ! R5    R(2,4)                  1.5366         estimate D2E/DX2                !
 ! R6    R(2,5)                  1.0953         estimate D2E/DX2                !
 ! R7    R(2,21)                 1.4513         estimate D2E/DX2                !
 ! R8    R(3,7)                  1.5322         estimate D2E/DX2                !
 ! R9    R(3,8)                  1.0925         estimate D2E/DX2                !
 ! R10   R(3,17)                 1.446          estimate D2E/DX2                !
 ! R11   R(4,9)                  1.5274         estimate D2E/DX2                !
 ! R12   R(4,10)                 1.0979         estimate D2E/DX2                !
 ! R13   R(4,23)                 1.4368         estimate D2E/DX2                !
 ! R14   R(7,11)                 1.0945         estimate D2E/DX2                !
 ! R15   R(7,12)                 1.0925         estimate D2E/DX2                !
 ! R16   R(7,15)                 1.4304         estimate D2E/DX2                !
 ! R17   R(9,13)                 1.09           estimate D2E/DX2                !
 ! R18   R(9,14)                 1.0934         estimate D2E/DX2                !
 ! R19   R(9,25)                 1.4287         estimate D2E/DX2                !
 ! R20   R(15,16)                0.9744         estimate D2E/DX2                !
 ! R21   R(17,18)                0.9803         estimate D2E/DX2                !
 ! R22   R(19,20)                0.9823         estimate D2E/DX2                !
 ! R23   R(21,22)                0.982          estimate D2E/DX2                !
 ! R24   R(23,24)                0.9791         estimate D2E/DX2                !
 ! R25   R(25,26)                0.9783         estimate D2E/DX2                !
 ! A1    A(2,1,3)              117.9388         estimate D2E/DX2                !
 ! A2    A(2,1,6)              109.9467         estimate D2E/DX2                !
 ! A3    A(2,1,19)             106.4083         estimate D2E/DX2                !
 ! A4    A(3,1,6)              109.4324         estimate D2E/DX2                !
 ! A5    A(3,1,19)             107.8464         estimate D2E/DX2                !
 ! A6    A(6,1,19)             104.3486         estimate D2E/DX2                !
 ! A7    A(1,2,4)              117.5111         estimate D2E/DX2                !
 ! A8    A(1,2,5)              111.0214         estimate D2E/DX2                !
 ! A9    A(1,2,21)             105.6173         estimate D2E/DX2                !
 ! A10   A(4,2,5)              110.5046         estimate D2E/DX2                !
 ! A11   A(4,2,21)             105.876          estimate D2E/DX2                !
 ! A12   A(5,2,21)             105.3382         estimate D2E/DX2                !
 ! A13   A(1,3,7)              114.3039         estimate D2E/DX2                !
 ! A14   A(1,3,8)              111.1981         estimate D2E/DX2                !
 ! A15   A(1,3,17)             107.1374         estimate D2E/DX2                !
 ! A16   A(7,3,8)              110.7607         estimate D2E/DX2                !
 ! A17   A(7,3,17)             107.1409         estimate D2E/DX2                !
 ! A18   A(8,3,17)             105.7856         estimate D2E/DX2                !
 ! A19   A(2,4,9)              115.4107         estimate D2E/DX2                !
 ! A20   A(2,4,10)             109.0956         estimate D2E/DX2                !
 ! A21   A(2,4,23)             110.2213         estimate D2E/DX2                !
 ! A22   A(9,4,10)             107.9465         estimate D2E/DX2                !
 ! A23   A(9,4,23)             108.473          estimate D2E/DX2                !
 ! A24   A(10,4,23)            105.1811         estimate D2E/DX2                !
 ! A25   A(3,7,11)             111.3182         estimate D2E/DX2                !
 ! A26   A(3,7,12)             112.0154         estimate D2E/DX2                !
 ! A27   A(3,7,15)             107.8531         estimate D2E/DX2                !
 ! A28   A(11,7,12)            109.7378         estimate D2E/DX2                !
 ! A29   A(11,7,15)            107.394          estimate D2E/DX2                !
 ! A30   A(12,7,15)            108.3504         estimate D2E/DX2                !
 ! A31   A(4,9,13)             112.4845         estimate D2E/DX2                !
 ! A32   A(4,9,14)             111.4073         estimate D2E/DX2                !
 ! A33   A(4,9,25)             109.2531         estimate D2E/DX2                !
 ! A34   A(13,9,14)            109.288          estimate D2E/DX2                !
 ! A35   A(13,9,25)            106.1441         estimate D2E/DX2                !
 ! A36   A(14,9,25)            108.0367         estimate D2E/DX2                !
 ! A37   A(7,15,16)            106.9661         estimate D2E/DX2                !
 ! A38   A(3,17,18)            104.4246         estimate D2E/DX2                !
 ! A39   A(1,19,20)            103.9064         estimate D2E/DX2                !
 ! A40   A(2,21,22)            104.4755         estimate D2E/DX2                !
 ! A41   A(4,23,24)            104.8772         estimate D2E/DX2                !
 ! A42   A(9,25,26)            105.3076         estimate D2E/DX2                !
 ! D1    D(3,1,2,4)             67.9276         estimate D2E/DX2                !
 ! D2    D(3,1,2,5)            -60.6259         estimate D2E/DX2                !
 ! D3    D(3,1,2,21)          -174.3078         estimate D2E/DX2                !
 ! D4    D(6,1,2,4)            -58.4489         estimate D2E/DX2                !
 ! D5    D(6,1,2,5)            172.9977         estimate D2E/DX2                !
 ! D6    D(6,1,2,21)            59.3157         estimate D2E/DX2                !
 ! D7    D(19,1,2,4)          -170.8879         estimate D2E/DX2                !
 ! D8    D(19,1,2,5)            60.5587         estimate D2E/DX2                !
 ! D9    D(19,1,2,21)          -53.1233         estimate D2E/DX2                !
 ! D10   D(2,1,3,7)             55.2618         estimate D2E/DX2                !
 ! D11   D(2,1,3,8)            -71.0592         estimate D2E/DX2                !
 ! D12   D(2,1,3,17)           173.7946         estimate D2E/DX2                !
 ! D13   D(6,1,3,7)           -178.113          estimate D2E/DX2                !
 ! D14   D(6,1,3,8)             55.5659         estimate D2E/DX2                !
 ! D15   D(6,1,3,17)           -59.5803         estimate D2E/DX2                !
 ! D16   D(19,1,3,7)           -65.1797         estimate D2E/DX2                !
 ! D17   D(19,1,3,8)           168.4993         estimate D2E/DX2                !
 ! D18   D(19,1,3,17)           53.353          estimate D2E/DX2                !
 ! D19   D(2,1,19,20)         -175.1023         estimate D2E/DX2                !
 ! D20   D(3,1,19,20)          -47.6632         estimate D2E/DX2                !
 ! D21   D(6,1,19,20)           68.6402         estimate D2E/DX2                !
 ! D22   D(1,2,4,9)            -77.2357         estimate D2E/DX2                !
 ! D23   D(1,2,4,10)           161.065          estimate D2E/DX2                !
 ! D24   D(1,2,4,23)            46.0508         estimate D2E/DX2                !
 ! D25   D(5,2,4,9)             51.5625         estimate D2E/DX2                !
 ! D26   D(5,2,4,10)           -70.1368         estimate D2E/DX2                !
 ! D27   D(5,2,4,23)           174.8491         estimate D2E/DX2                !
 ! D28   D(21,2,4,9)           165.1387         estimate D2E/DX2                !
 ! D29   D(21,2,4,10)           43.4394         estimate D2E/DX2                !
 ! D30   D(21,2,4,23)          -71.5748         estimate D2E/DX2                !
 ! D31   D(1,2,21,22)           42.7255         estimate D2E/DX2                !
 ! D32   D(4,2,21,22)          168.0458         estimate D2E/DX2                !
 ! D33   D(5,2,21,22)          -74.8486         estimate D2E/DX2                !
 ! D34   D(1,3,7,11)            60.2218         estimate D2E/DX2                !
 ! D35   D(1,3,7,12)           -63.0648         estimate D2E/DX2                !
 ! D36   D(1,3,7,15)           177.7915         estimate D2E/DX2                !
 ! D37   D(8,3,7,11)          -173.23           estimate D2E/DX2                !
 ! D38   D(8,3,7,12)            63.4835         estimate D2E/DX2                !
 ! D39   D(8,3,7,15)           -55.6603         estimate D2E/DX2                !
 ! D40   D(17,3,7,11)          -58.309          estimate D2E/DX2                !
 ! D41   D(17,3,7,12)          178.4045         estimate D2E/DX2                !
 ! D42   D(17,3,7,15)           59.2607         estimate D2E/DX2                !
 ! D43   D(1,3,17,18)         -172.4645         estimate D2E/DX2                !
 ! D44   D(7,3,17,18)          -49.3836         estimate D2E/DX2                !
 ! D45   D(8,3,17,18)           68.8242         estimate D2E/DX2                !
 ! D46   D(2,4,9,13)            68.4917         estimate D2E/DX2                !
 ! D47   D(2,4,9,14)           -54.6184         estimate D2E/DX2                !
 ! D48   D(2,4,9,25)          -173.9067         estimate D2E/DX2                !
 ! D49   D(10,4,9,13)         -169.1931         estimate D2E/DX2                !
 ! D50   D(10,4,9,14)           67.6968         estimate D2E/DX2                !
 ! D51   D(10,4,9,25)          -51.5915         estimate D2E/DX2                !
 ! D52   D(23,4,9,13)          -55.7137         estimate D2E/DX2                !
 ! D53   D(23,4,9,14)         -178.8238         estimate D2E/DX2                !
 ! D54   D(23,4,9,25)           61.8879         estimate D2E/DX2                !
 ! D55   D(2,4,23,24)           57.4189         estimate D2E/DX2                !
 ! D56   D(9,4,23,24)         -175.3388         estimate D2E/DX2                !
 ! D57   D(10,4,23,24)         -60.0449         estimate D2E/DX2                !
 ! D58   D(3,7,15,16)         -178.4605         estimate D2E/DX2                !
 ! D59   D(11,7,15,16)         -58.385          estimate D2E/DX2                !
 ! D60   D(12,7,15,16)          60.0896         estimate D2E/DX2                !
 ! D61   D(4,9,25,26)          -47.158          estimate D2E/DX2                !
 ! D62   D(13,9,25,26)          74.3638         estimate D2E/DX2                !
 ! D63   D(14,9,25,26)        -168.5127         estimate D2E/DX2                !
 --------------------------------------------------------------------------------
 Trust Radius=3.00D-01 FncErr=1.00D-07 GrdErr=1.00D-06 EigMax=2.50D+02 EigMin=1.00D-04
 Number of steps in this run=    140 maximum allowed number of steps=    156.
 GradGradGradGradGradGradGradGradGradGradGradGradGradGradGradGradGradGrad

                          Input orientation:                          
 ---------------------------------------------------------------------
 Center     Atomic      Atomic             Coordinates (Angstroms)
 Number     Number       Type             X           Y           Z
 ---------------------------------------------------------------------
      1          6           0        0.000000    0.000000    0.000000
      2          6           0        1.541900    0.000000    0.000000
      3          6           0       -0.717700    0.663800    1.179300
      4          6           0        2.251700   -0.849400    1.065800
      5          1           0        1.934800    1.022400    0.000000
      6          1           0       -0.374200   -1.023400   -0.125700
      7          6           0       -0.310200    2.119900    1.426800
      8          1           0       -0.610700    0.071400    2.091000
      9          6           0        2.284100   -0.247200    2.469100
     10          1           0        3.288000   -1.028700    0.750600
     11          1           0       -0.525700    2.746900    0.556000
     12          1           0        0.745200    2.210000    1.694200
     13          1           0        1.297300   -0.212700    2.930800
     14          1           0        2.715000    0.757700    2.462300
     15          8           0       -1.094500    2.615800    2.515400
     16          1           0       -0.843100    3.548200    2.645400
     17          8           0       -2.130900    0.662900    0.873200
     18          1           0       -2.535500    1.200700    1.586000
     19          8           0       -0.410200    0.684700   -1.213100
     20          1           0       -1.388200    0.735000   -1.136600
     21          8           0        1.932600   -0.561400   -1.280000
     22          1           0        1.326000   -0.141100   -1.927800
     23          8           0        1.651200   -2.152400    1.143300
     24          1           0        1.726000   -2.517900    0.238100
     25          8           0        3.090300   -1.068500    3.315700
     26          1           0        2.789800   -1.984500    3.149100
 ---------------------------------------------------------------------
                    Distance matrix (angstroms):
                    1          2          3          4          5
     1  C    0.000000
     2  C    1.541900   0.000000
     3  C    1.531820   2.633851   0.000000
     4  C    2.632026   1.536628   3.334665   0.000000
     5  H    2.188322   1.095295   2.924910   2.177152   0.000000
     6  H    1.096893   2.175911   2.160477   2.888823   3.087488
     7  C    2.574094   3.155948   1.532168   3.938324   2.877549
     8  H    2.179526   3.001844   1.092513   3.176829   3.428739
     9  C    3.372636   2.590062   3.391800   1.527398   2.798276
    10  H    3.525985   2.161131   4.369665   1.097915   2.569350
    11  H    2.851483   3.482753   2.182813   4.572441   3.055666
    12  H    2.882661   2.896402   2.189962   3.467615   2.386599
    13  H    3.212136   2.948671   2.810023   2.189633   3.243681
    14  H    3.742760   2.830759   3.665834   2.178906   2.596478
    15  O    3.790459   4.485560   2.395297   5.030507   4.247684
    16  H    4.505406   5.027533   3.238045   5.604624   4.592879
    17  O    2.396383   3.832933   1.445971   4.640186   4.173923
    18  H    3.222706   4.536768   1.938573   5.233622   4.746659
    19  O    1.452133   2.398149   2.412171   3.825253   2.661706
    20  H    1.938861   3.227626   2.412060   4.539797   3.523746
    21  O    2.385060   1.451281   3.817507   2.384858   2.036376
    22  H    2.344056   1.944977   3.805081   3.212515   2.332549
    23  O    2.943879   2.439653   3.680213   1.436807   3.386284
    24  H    3.061958   2.535824   4.120770   1.935288   3.554436
    25  O    4.656771   3.812230   4.697439   2.411080   4.086675
    26  H    4.651672   3.925853   4.816239   2.432723   4.437263
                    6          7          8          9         10
     6  H    0.000000
     7  C    3.506378   0.000000
     8  H    2.483602   2.174354   0.000000
     9  C    3.795001   3.663324   2.936721   0.000000
    10  H    3.765586   4.828869   4.266937   2.138177   0.000000
    11  H    3.834427   1.094469   3.085733   4.529852   5.370040
    12  H    3.875560   1.092470   2.563108   3.001086   4.224380
    13  H    3.576778   3.207350   2.103911   1.090014   3.063007
    14  H    4.406043   3.475584   3.416014   1.093410   2.539581
    15  O    4.553901   1.430417   2.624528   4.428753   5.966842
    16  H    5.366413   1.951668   3.528386   4.920927   6.450137
    17  O    2.631996   2.396721   2.035661   4.781987   5.678118
    18  H    3.542281   2.412930   2.288056   5.109288   6.291365
    19  O    2.025177   3.006472   3.366514   4.656854   4.524217
    20  H    2.267617   3.106614   3.385598   5.239425   5.342191
    21  O    2.620530   4.421118   4.269948   3.778627   2.485722
    22  H    2.629962   4.363784   4.466175   4.501327   3.436729
    23  O    2.643340   4.709566   3.310531   2.405846   2.023865
    24  H    2.603214   5.202721   3.949415   3.231859   2.218156
    25  O    4.883444   5.029636   4.061608   1.428714   2.573015
    26  H    4.653915   5.424243   4.112141   1.932962   2.629555
                   11         12         13         14         15
    11  H    0.000000
    12  H    1.788560   0.000000
    13  H    4.209779   2.775512   0.000000
    14  H    4.253591   2.565008   1.780742   0.000000
    15  O    2.044497   2.055125   3.727422   4.238826   0.000000
    16  H    2.260181   2.284351   4.336719   4.525538   0.974408
    17  O    2.649592   3.367419   4.093037   5.100684   2.754045
    18  H    2.736956   3.434150   4.300761   5.341526   2.223235
    19  O    2.719508   3.480500   4.570863   4.825015   4.254307
    20  H    2.767046   3.839329   4.965258   5.457916   4.118346
    21  O    4.512093   4.235144   4.272708   4.044377   5.801982
    22  H    4.235398   4.357050   4.859212   4.691497   5.762061
    23  O    5.393232   4.489417   2.661360   3.367508   5.670737
    24  H    5.734922   5.043336   3.570485   4.081022   6.284600
    25  O    5.937060   4.344804   2.023707   2.050402   5.632681
    26  H    6.332681   4.887837   2.326905   2.827888   6.054100
                   16         17         18         19         20
    16  H    0.000000
    17  O    3.622717   0.000000
    18  H    3.081769   0.980313   0.000000
    19  O    4.824423   2.704428   3.552199   0.000000
    20  H    4.744971   2.143851   2.990940   0.982276   0.000000
    21  O    6.324720   4.758909   5.593109   2.654421   3.567762
    22  H    6.263393   4.521302   5.390584   2.051129   2.959802
    23  O    6.401147   4.722621   5.382167   4.225059   4.772104
    24  H    7.013768   5.039496   5.814224   4.114119   4.708439
    25  O    6.102037   6.018678   6.307991   5.986421   6.567538
    26  H    6.637955   6.033385   6.399031   6.032696   6.574085
                   21         22         23         24         25
    21  O    0.000000
    22  H    0.981968   0.000000
    23  O    2.912533   3.685477   0.000000
    24  H    2.484996   3.240417   0.979067   0.000000
    25  O    4.766328   5.609556   2.822263   3.665201   0.000000
    26  H    4.730426   5.596047   2.312538   3.144854   0.978321
                   26
    26  H    0.000000
 Stoichiometry    C6H14O6
 Framework group  C1[X(C6H14O6)]
 Deg. of freedom    72
 Full point group                 C1      NOp   1
 Largest Abelian subgroup         C1      NOp   1
 Largest concise Abelian subgroup C1      NOp   1
                         Standard orientation:                         
 ---------------------------------------------------------------------
 Center     Atomic      Atomic             Coordinates (Angstroms)
 Number     Number       Type             X           Y           Z
 ---------------------------------------------------------------------
      1          6           0        0.526627    1.013870    0.291379
      2          6           0       -0.695774    0.922077   -0.643909
      3          6           0        1.357028   -0.253997    0.513683
      4          6           0       -1.889664    0.078226   -0.170867
      5          1           0       -0.395348    0.628602   -1.655486
      6          1           0        0.225259    1.427499    1.261565
      7          6           0        1.876937   -0.901164   -0.774109
      8          1           0        0.812603   -0.981511    1.120238
      9          6           0       -1.716610   -1.433654   -0.302077
     10          1           0       -2.782228    0.367322   -0.741104
     11          1           0        2.523376   -0.215703   -1.330995
     12          1           0        1.063345   -1.245205   -1.416910
     13          1           0       -0.966832   -1.828471    0.383549
     14          1           0       -1.456000   -1.718222   -1.325135
     15          8           0        2.670099   -2.033402   -0.406650
     16          1           0        3.013862   -2.419821   -1.232470
     17          8           0        2.512127    0.125034    1.296572
     18          1           0        3.072641   -0.679117    1.309930
     19          8           0        1.401394    2.025190   -0.274929
     20          1           0        2.198033    1.996483    0.299013
     21          8           0       -1.194044    2.279298   -0.769985
     22          1           0       -0.386950    2.827977   -0.878659
     23          8           0       -2.202378    0.383582    1.197849
     24          1           0       -2.376141    1.347062    1.207080
     25          8           0       -2.944852   -2.079656    0.037521
     26          1           0       -3.235656   -1.659414    0.871752
 ---------------------------------------------------------------------
 Rotational constants (GHZ):           1.0569841           0.6351570           0.4699237
 Standard basis: def2TZVPP (5D, 7F)
 There are   642 symmetry adapted cartesian basis functions of A   symmetry.
 There are   568 symmetry adapted basis functions of A   symmetry.
   568 basis functions,   850 primitive gaussians,   642 cartesian basis functions
    49 alpha electrons       49 beta electrons
       nuclear repulsion energy       823.9933922420 Hartrees.
 NAtoms=   26 NActive=   26 NUniq=   26 SFac= 1.00D+00 NAtFMM=   60 NAOKFM=F Big=F
 Integral buffers will be    131072 words long.
 Raffenetti 2 integral format.
 Two-electron integral symmetry is turned on.
 Nuclear repulsion after empirical dispersion term =      823.9743337753 Hartrees.
 One-electron integrals computed using PRISM.
   1 Symmetry operations used in ECPInt.
 ECPInt:  NShTT=   23436 NPrTT=   62434 LenC2=   22036 LenP2D=   45732.
 LDataN:  DoStor=T MaxTD1= 6 Len=  172
 NBasis=   568 RedAO= T EigKep=  7.30D-05  NBF=   568
 NBsUse=   568 1.00D-06 EigRej= -1.00D+00 NBFU=   568
 ExpMin= 9.52D-02 ExpMax= 2.70D+04 ExpMxC= 9.22D+02 IAcc=3 IRadAn=         5 AccDes= 0.00D+00
 Harris functional with IExCor= 4639 and IRadAn=       5 diagonalized for initial guess.
 HarFok:  IExCor= 4639 AccDes= 0.00D+00 IRadAn=         5 IDoV= 1 UseB2=F ITyADJ=14
 ICtDFT=  3500011 ScaDFX=  1.000000  1.000000  1.000000  1.000000
 FoFCou: FMM=F IPFlag=           0 FMFlag=      100000 FMFlg1=           0
         NFxFlg=           0 DoJE=T BraDBF=F KetDBF=T FulRan=T
         wScrn=  0.000000 ICntrl=       500 IOpCl=  0 I1Cent=   200000004 NGrid=           0
         NMat0=    1 NMatS0=      1 NMatT0=    0 NMatD0=    1 NMtDS0=    0 NMtDT0=    0
 Petite list used in FoFCou.
 Requested convergence on RMS density matrix=1.00D-08 within 128 cycles.
 Requested convergence on MAX density matrix=1.00D-06.
 Requested convergence on             energy=1.00D-06.
 No special actions if energy rises.
 Integral accuracy reduced to 1.0D-05 until final iterations.
 Initial convergence to 1.0D-05 achieved.  Increase integral accuracy.
 SCF Done:  E(RwB97XD) =  -688.465546171     A.U. after   14 cycles
            NFock= 14  Conv=0.19D-08     -V/T= 2.0050

 **********************************************************************

            Population analysis using the SCF Density.

 **********************************************************************

 Orbital symmetries:
       Occupied  (A) (A) (A) (A) (A) (A) (A) (A) (A) (A) (A) (A)
                 (A) (A) (A) (A) (A) (A) (A) (A) (A) (A) (A) (A)
                 (A) (A) (A) (A) (A) (A) (A) (A) (A) (A) (A) (A)
                 (A) (A) (A) (A) (A) (A) (A) (A) (A) (A) (A) (A)
                 (A)
       Virtual   (A) (A) (A) (A) (A) (A) (A) (A) (A) (A) (A) (A)
                 (A) (A) (A) (A) (A) (A) (A) (A) (A) (A) (A) (A)
                 (A) (A) (A) (A) (A) (A) (A) (A) (A) (A) (A) (A)
                 (A) (A) (A) (A) (A) (A) (A) (A) (A) (A) (A) (A)
                 (A) (A) (A) (A) (A) (A) (A) (A) (A) (A) (A) (A)
                 (A) (A) (A) (A) (A) (A) (A) (A) (A) (A) (A) (A)
                 (A) (A) (A) (A) (A) (A) (A) (A) (A) (A) (A) (A)
                 (A) (A) (A) (A) (A) (A) (A) (A) (A) (A) (A) (A)
                 (A) (A) (A) (A) (A) (A) (A) (A) (A) (A) (A) (A)
                 (A) (A) (A) (A) (A) (A) (A) (A) (A) (A) (A) (A)
                 (A) (A) (A) (A) (A) (A) (A) (A) (A) (A) (A) (A)
                 (A) (A) (A) (A) (A) (A) (A) (A) (A) (A) (A) (A)
                 (A) (A) (A) (A) (A) (A) (A) (A) (A) (A) (A) (A)
                 (A) (A) (A) (A) (A) (A) (A) (A) (A) (A) (A) (A)
                 (A) (A) (A) (A) (A) (A) (A) (A) (A) (A) (A) (A)
                 (A) (A) (A) (A) (A) (A) (A) (A) (A) (A) (A) (A)
                 (A) (A) (A) (A) (A) (A) (A) (A) (A) (A) (A) (A)
                 (A) (A) (A) (A) (A) (A) (A) (A) (A) (A) (A) (A)
                 (A) (A) (A) (A) (A) (A) (A) (A) (A) (A) (A) (A)
                 (A) (A) (A) (A) (A) (A) (A) (A) (A) (A) (A) (A)
                 (A) (A) (A) (A) (A) (A) (A) (A) (A) (A) (A) (A)
                 (A) (A) (A) (A) (A) (A) (A) (A) (A) (A) (A) (A)
                 (A) (A) (A) (A) (A) (A) (A) (A) (A) (A) (A) (A)
                 (A) (A) (A) (A) (A) (A) (A) (A) (A) (A) (A) (A)
                 (A) (A) (A) (A) (A) (A) (A) (A) (A) (A) (A) (A)
                 (A) (A) (A) (A) (A) (A) (A) (A) (A) (A) (A) (A)
                 (A) (A) (A) (A) (A) (A) (A) (A) (A) (A) (A) (A)
                 (A) (A) (A) (A) (A) (A) (A) (A) (A) (A) (A) (A)
                 (A) (A) (A) (A) (A) (A) (A) (A) (A) (A) (A) (A)
                 (A) (A) (A) (A) (A) (A) (A) (A) (A) (A) (A) (A)
                 (A) (A) (A) (A) (A) (A) (A) (A) (A) (A) (A) (A)
                 (A) (A) (A) (A) (A) (A) (A) (A) (A) (A) (A) (A)
                 (A) (A) (A) (A) (A) (A) (A) (A) (A) (A) (A) (A)
                 (A) (A) (A) (A) (A) (A) (A) (A) (A) (A) (A) (A)
                 (A) (A) (A) (A) (A) (A) (A) (A) (A) (A) (A) (A)
                 (A) (A) (A) (A) (A) (A) (A) (A) (A) (A) (A) (A)
                 (A) (A) (A) (A) (A) (A) (A) (A) (A) (A) (A) (A)
                 (A) (A) (A) (A) (A) (A) (A) (A) (A) (A) (A) (A)
                 (A) (A) (A) (A) (A) (A) (A) (A) (A) (A) (A) (A)
                 (A) (A) (A) (A) (A) (A) (A) (A) (A) (A) (A) (A)
                 (A) (A) (A) (A) (A) (A) (A) (A) (A) (A) (A) (A)
                 (A) (A) (A) (A) (A) (A) (A) (A) (A) (A) (A) (A)
                 (A) (A) (A) (A) (A) (A) (A) (A) (A) (A) (A) (A)
                 (A) (A) (A)
 The electronic state is 1-A.
 Alpha  occ. eigenvalues --  -19.27370 -19.26501 -19.26306 -19.26301 -19.25471
 Alpha  occ. eigenvalues --  -19.24668 -10.35541 -10.35480 -10.35456 -10.34967
 Alpha  occ. eigenvalues --  -10.34836 -10.33865  -1.15886  -1.14805  -1.13805
 Alpha  occ. eigenvalues --   -1.12359  -1.11264  -1.10512  -0.89453  -0.85456
 Alpha  occ. eigenvalues --   -0.80686  -0.75959  -0.71699  -0.67878  -0.64646
 Alpha  occ. eigenvalues --   -0.63202  -0.61823  -0.60048  -0.58511  -0.57498
 Alpha  occ. eigenvalues --   -0.56780  -0.56020  -0.54197  -0.52083  -0.51737
 Alpha  occ. eigenvalues --   -0.50407  -0.49942  -0.46995  -0.45418  -0.45392
 Alpha  occ. eigenvalues --   -0.44138  -0.43622  -0.42058  -0.39199  -0.38325
 Alpha  occ. eigenvalues --   -0.37991  -0.36975  -0.36633  -0.36067
 Alpha virt. eigenvalues --    0.08514   0.10285   0.11008   0.12158   0.13123
 Alpha virt. eigenvalues --    0.14314   0.15270   0.16011   0.17077   0.17779
 Alpha virt. eigenvalues --    0.18229   0.19885   0.20279   0.21121   0.21532
 Alpha virt. eigenvalues --    0.23318   0.23632   0.24741   0.25598   0.26494
 Alpha virt. eigenvalues --    0.28078   0.28810   0.30727   0.32180   0.34150
 Alpha virt. eigenvalues --    0.35398   0.35850   0.36789   0.37422   0.38334
 Alpha virt. eigenvalues --    0.38623   0.39244   0.40037   0.40771   0.41349
 Alpha virt. eigenvalues --    0.42042   0.42668   0.43869   0.43917   0.44577
 Alpha virt. eigenvalues --    0.45077   0.46101   0.46250   0.46864   0.47512
 Alpha virt. eigenvalues --    0.48698   0.49604   0.50750   0.50954   0.51930
 Alpha virt. eigenvalues --    0.52207   0.52664   0.53154   0.53818   0.55185
 Alpha virt. eigenvalues --    0.55499   0.56640   0.57175   0.57695   0.59413
 Alpha virt. eigenvalues --    0.60131   0.61285   0.61932   0.63686   0.63873
 Alpha virt. eigenvalues --    0.64420   0.65096   0.65827   0.67020   0.68425
 Alpha virt. eigenvalues --    0.68860   0.69731   0.70849   0.71857   0.72529
 Alpha virt. eigenvalues --    0.72918   0.74136   0.75929   0.76930   0.77811
 Alpha virt. eigenvalues --    0.79542   0.82700   0.83410   0.84979   0.85180
 Alpha virt. eigenvalues --    0.86291   0.88173   0.88594   0.90187   0.90635
 Alpha virt. eigenvalues --    0.91281   0.92004   0.93318   0.95181   0.96618
 Alpha virt. eigenvalues --    0.97200   0.97820   0.99309   1.01008   1.01895
 Alpha virt. eigenvalues --    1.02894   1.04032   1.05177   1.06269   1.06843
 Alpha virt. eigenvalues --    1.08045   1.08392   1.08670   1.10800   1.11943
 Alpha virt. eigenvalues --    1.12475   1.13766   1.14782   1.16023   1.17439
 Alpha virt. eigenvalues --    1.17887   1.19648   1.20596   1.22005   1.23643
 Alpha virt. eigenvalues --    1.23867   1.25915   1.27528   1.27745   1.29087
 Alpha virt. eigenvalues --    1.29495   1.30451   1.31361   1.32642   1.34462
 Alpha virt. eigenvalues --    1.35311   1.36408   1.36791   1.38188   1.38934
 Alpha virt. eigenvalues --    1.41007   1.41434   1.42235   1.43606   1.47073
 Alpha virt. eigenvalues --    1.47504   1.48348   1.49480   1.51927   1.52454
 Alpha virt. eigenvalues --    1.53790   1.54783   1.56099   1.57638   1.58234
 Alpha virt. eigenvalues --    1.59339   1.60203   1.61887   1.63101   1.65582
 Alpha virt. eigenvalues --    1.68152   1.69516   1.71460   1.73106   1.73476
 Alpha virt. eigenvalues --    1.75446   1.78083   1.81574   1.82953   1.84389
 Alpha virt. eigenvalues --    1.85658   1.87536   1.89933   1.90874   1.91164
 Alpha virt. eigenvalues --    1.92712   1.94290   1.96705   1.97742   1.98539
 Alpha virt. eigenvalues --    1.99651   2.00689   2.01746   2.03166   2.03834
 Alpha virt. eigenvalues --    2.05687   2.07211   2.08012   2.09672   2.10220
 Alpha virt. eigenvalues --    2.10696   2.11929   2.12549   2.14143   2.15131
 Alpha virt. eigenvalues --    2.16541   2.19021   2.20891   2.21241   2.24355
 Alpha virt. eigenvalues --    2.25247   2.26465   2.27295   2.30693   2.31336
 Alpha virt. eigenvalues --    2.33270   2.34272   2.35916   2.37062   2.39555
 Alpha virt. eigenvalues --    2.43028   2.44645   2.46758   2.48048   2.50462
 Alpha virt. eigenvalues --    2.54070   2.54458   2.57045   2.58660   2.59908
 Alpha virt. eigenvalues --    2.65703   2.66783   2.69776   2.70520   2.71312
 Alpha virt. eigenvalues --    2.71874   2.73514   2.73845   2.75507   2.77105
 Alpha virt. eigenvalues --    2.78119   2.78601   2.80329   2.82395   2.83443
 Alpha virt. eigenvalues --    2.85074   2.85879   2.88075   2.89543   2.90624
 Alpha virt. eigenvalues --    2.92498   2.92932   2.94515   2.95477   2.97099
 Alpha virt. eigenvalues --    2.98126   2.99138   2.99658   3.01934   3.04029
 Alpha virt. eigenvalues --    3.05994   3.06816   3.07341   3.08769   3.10087
 Alpha virt. eigenvalues --    3.11941   3.12118   3.12707   3.14764   3.14884
 Alpha virt. eigenvalues --    3.16386   3.17429   3.19387   3.20010   3.22491
 Alpha virt. eigenvalues --    3.22614   3.22883   3.24260   3.24814   3.25549
 Alpha virt. eigenvalues --    3.27476   3.29232   3.31027   3.31454   3.32529
 Alpha virt. eigenvalues --    3.32952   3.34152   3.35453   3.36464   3.37919
 Alpha virt. eigenvalues --    3.38994   3.39488   3.39818   3.40702   3.42306
 Alpha virt. eigenvalues --    3.42980   3.43825   3.44348   3.45454   3.46243
 Alpha virt. eigenvalues --    3.46859   3.48919   3.50697   3.51214   3.52700
 Alpha virt. eigenvalues --    3.53549   3.54367   3.55802   3.58191   3.59272
 Alpha virt. eigenvalues --    3.60154   3.61242   3.63420   3.64289   3.65834
 Alpha virt. eigenvalues --    3.66822   3.69345   3.70537   3.70814   3.72029
 Alpha virt. eigenvalues --    3.73614   3.75384   3.76138   3.76369   3.78247
 Alpha virt. eigenvalues --    3.79817   3.80967   3.81713   3.82258   3.84317
 Alpha virt. eigenvalues --    3.84529   3.85535   3.85878   3.88293   3.88856
 Alpha virt. eigenvalues --    3.90754   3.92160   3.92787   3.94118   3.95423
 Alpha virt. eigenvalues --    3.95786   3.96726   3.98148   3.99526   4.00879
 Alpha virt. eigenvalues --    4.02490   4.03535   4.04476   4.05286   4.06568
 Alpha virt. eigenvalues --    4.07212   4.08519   4.09235   4.10080   4.10384
 Alpha virt. eigenvalues --    4.11878   4.12636   4.13513   4.14135   4.16655
 Alpha virt. eigenvalues --    4.17974   4.18298   4.18595   4.20437   4.21210
 Alpha virt. eigenvalues --    4.22312   4.24734   4.24855   4.26743   4.26974
 Alpha virt. eigenvalues --    4.28750   4.29894   4.30706   4.32631   4.33019
 Alpha virt. eigenvalues --    4.33450   4.36450   4.36935   4.39014   4.40457
 Alpha virt. eigenvalues --    4.41040   4.42141   4.43815   4.45695   4.47119
 Alpha virt. eigenvalues --    4.48864   4.51591   4.51995   4.53419   4.54915
 Alpha virt. eigenvalues --    4.55738   4.57210   4.59027   4.60601   4.62118
 Alpha virt. eigenvalues --    4.63898   4.66933   4.67998   4.69617   4.72570
 Alpha virt. eigenvalues --    4.75416   4.77144   4.78606   4.79500   4.79984
 Alpha virt. eigenvalues --    4.83035   4.83357   4.83853   4.86688   4.87515
 Alpha virt. eigenvalues --    4.90314   4.90981   4.93256   4.95330   4.96165
 Alpha virt. eigenvalues --    4.97098   4.98534   5.00860   5.02701   5.03379
 Alpha virt. eigenvalues --    5.04969   5.06763   5.06867   5.08643   5.09792
 Alpha virt. eigenvalues --    5.11824   5.13758   5.15537   5.19928   5.20500
 Alpha virt. eigenvalues --    5.21280   5.22554   5.25663   5.26987   5.29966
 Alpha virt. eigenvalues --    5.31220   5.35029   5.41623   5.42740   5.46490
 Alpha virt. eigenvalues --    5.48023   5.50209   5.54233   5.55335   5.58409
 Alpha virt. eigenvalues --    5.60074   5.62406   5.62960   5.64018   5.66738
 Alpha virt. eigenvalues --    5.68510   5.68985   5.69190   5.71537   5.74282
 Alpha virt. eigenvalues --    5.75287   5.80628   5.81575   5.83406   5.85616
 Alpha virt. eigenvalues --    5.86348   5.88695   5.90178   5.92419   5.96229
 Alpha virt. eigenvalues --    5.98803   6.02009   6.03853   6.11310   6.11735
 Alpha virt. eigenvalues --    6.13438   6.17257   6.17618   6.20625   6.51734
 Alpha virt. eigenvalues --    6.53699   6.53869   6.54388   6.54610   6.56011
 Alpha virt. eigenvalues --    6.70554   6.72647   6.73453   6.73841   6.74930
 Alpha virt. eigenvalues --    6.76564   6.76906   6.77744   6.78999   6.79778
 Alpha virt. eigenvalues --    6.80863   6.81211   6.81651   6.85074   6.86550
 Alpha virt. eigenvalues --    6.87103   6.89010   6.91139   6.96310   6.98443
 Alpha virt. eigenvalues --    6.98791   7.04452   7.06967   7.08356   7.15267
 Alpha virt. eigenvalues --    7.17793   7.18502   7.20853   7.21018   7.22417
 Alpha virt. eigenvalues --    7.41158   7.42391   7.43123   7.43589   7.44091
 Alpha virt. eigenvalues --    7.45179   7.48570   7.53090   7.54715   7.55683
 Alpha virt. eigenvalues --    7.57485   7.62239  23.14217  23.15159  23.16832
 Alpha virt. eigenvalues --   23.23246  23.44190  23.47438  44.08441  44.15883
 Alpha virt. eigenvalues --   44.24058  44.24610  44.32032  44.34948
          Condensed to atoms (all electrons):
               1          2          3          4          5          6
     1  C    5.127507   0.133944   0.132370   0.057630  -0.034285   0.411974
     2  C    0.133944   5.117232   0.015198   0.086675   0.435063  -0.020480
     3  C    0.132370   0.015198   5.076998   0.009756  -0.004895  -0.027097
     4  C    0.057630   0.086675   0.009756   5.136874  -0.057059  -0.014259
     5  H   -0.034285   0.435063  -0.004895  -0.057059   0.592650   0.006716
     6  H    0.411974  -0.020480  -0.027097  -0.014259   0.006716   0.548242
     7  C   -0.000168   0.016883   0.238960  -0.015256   0.004353   0.008253
     8  H   -0.025056  -0.015291   0.430466   0.011856   0.001363  -0.000681
     9  C   -0.015318   0.021192  -0.000491   0.215542   0.003014   0.002338
    10  H    0.008041  -0.031667  -0.000553   0.433677  -0.003314   0.000631
    11  H    0.016953  -0.011574  -0.033215   0.002995   0.001813   0.000608
    12  H   -0.024815   0.021196  -0.029962  -0.011054  -0.005624  -0.001018
    13  H   -0.004409   0.000117   0.012275  -0.005851   0.000717   0.000479
    14  H    0.003983  -0.005837  -0.006619  -0.038545   0.001683  -0.000069
    15  O    0.005388  -0.001177  -0.069264   0.000899   0.000145  -0.000041
    16  H   -0.001666   0.000177   0.009867  -0.000045   0.000021   0.000035
    17  O   -0.061558   0.007016   0.235851  -0.001665  -0.000180   0.002836
    18  H    0.004687  -0.000645  -0.039202  -0.000105   0.000006  -0.000367
    19  O    0.226281  -0.035334  -0.029720   0.004861   0.003172  -0.035993
    20  H   -0.047523   0.009306  -0.000014  -0.000623  -0.000297  -0.005373
    21  O   -0.028983   0.272007   0.010121  -0.052729  -0.034159   0.004204
    22  H   -0.002712  -0.043394   0.001890   0.006583  -0.003067  -0.001617
    23  O   -0.001084  -0.044450  -0.008997   0.218483   0.004450   0.017706
    24  H   -0.008953   0.014972   0.001791  -0.043410   0.001174   0.001733
    25  O    0.000840   0.008602  -0.001169  -0.027776   0.000107  -0.000037
    26  H    0.000962   0.000517  -0.000693  -0.013268  -0.000089  -0.000064
               7          8          9         10         11         12
     1  C   -0.000168  -0.025056  -0.015318   0.008041   0.016953  -0.024815
     2  C    0.016883  -0.015291   0.021192  -0.031667  -0.011574   0.021196
     3  C    0.238960   0.430466  -0.000491  -0.000553  -0.033215  -0.029962
     4  C   -0.015256   0.011856   0.215542   0.433677   0.002995  -0.011054
     5  H    0.004353   0.001363   0.003014  -0.003314   0.001813  -0.005624
     6  H    0.008253  -0.000681   0.002338   0.000631   0.000608  -0.001018
     7  C    4.789120  -0.026872   0.006028   0.000272   0.412859   0.415909
     8  H   -0.026872   0.545873  -0.016025   0.000235   0.006554  -0.002293
     9  C    0.006028  -0.016025   4.752919  -0.034894  -0.001195   0.007323
    10  H    0.000272   0.000235  -0.034894   0.564372  -0.000004  -0.000197
    11  H    0.412859   0.006554  -0.001195  -0.000004   0.571454  -0.035503
    12  H    0.415909  -0.002293   0.007323  -0.000197  -0.035503   0.634632
    13  H   -0.002870   0.003910   0.394168   0.007564   0.000545  -0.004383
    14  H    0.000228   0.001601   0.418001  -0.007008   0.000045  -0.000493
    15  O    0.276428   0.001490  -0.001460   0.000001  -0.048200  -0.042676
    16  H   -0.028024   0.000152   0.000102  -0.000000  -0.005768  -0.005571
    17  O   -0.028169  -0.033076   0.000841   0.000011  -0.001518   0.007044
    18  H   -0.005650  -0.003010   0.000092  -0.000001  -0.002488   0.001940
    19  O   -0.018132   0.003965  -0.000315  -0.000051   0.016973   0.001314
    20  H   -0.001092   0.001155  -0.000030   0.000030  -0.000230   0.000331
    21  O   -0.000811  -0.000080   0.003152   0.000799   0.000051   0.000054
    22  H   -0.000106  -0.000045  -0.000931   0.000064   0.000026  -0.000051
    23  O    0.001015   0.005642  -0.025582  -0.040541  -0.000031   0.000101
    24  H   -0.000098  -0.000349   0.008424  -0.009916  -0.000001   0.000026
    25  O    0.000045   0.000204   0.272002   0.009251   0.000002  -0.000119
    26  H    0.000012   0.000164  -0.043741  -0.003144   0.000001  -0.000041
              13         14         15         16         17         18
     1  C   -0.004409   0.003983   0.005388  -0.001666  -0.061558   0.004687
     2  C    0.000117  -0.005837  -0.001177   0.000177   0.007016  -0.000645
     3  C    0.012275  -0.006619  -0.069264   0.009867   0.235851  -0.039202
     4  C   -0.005851  -0.038545   0.000899  -0.000045  -0.001665  -0.000105
     5  H    0.000717   0.001683   0.000145   0.000021  -0.000180   0.000006
     6  H    0.000479  -0.000069  -0.000041   0.000035   0.002836  -0.000367
     7  C   -0.002870   0.000228   0.276428  -0.028024  -0.028169  -0.005650
     8  H    0.003910   0.001601   0.001490   0.000152  -0.033076  -0.003010
     9  C    0.394168   0.418001  -0.001460   0.000102   0.000841   0.000092
    10  H    0.007564  -0.007008   0.000001  -0.000000   0.000011  -0.000001
    11  H    0.000545   0.000045  -0.048200  -0.005768  -0.001518  -0.002488
    12  H   -0.004383  -0.000493  -0.042676  -0.005571   0.007044   0.001940
    13  H    0.601715  -0.037345   0.002009  -0.000088  -0.000374  -0.000103
    14  H   -0.037345   0.618437  -0.000103   0.000016  -0.000020  -0.000006
    15  O    0.002009  -0.000103   7.892096   0.325130  -0.007874   0.023204
    16  H   -0.000088   0.000016   0.325130   0.521936  -0.000037  -0.001302
    17  O   -0.000374  -0.000020  -0.007874  -0.000037   7.929188   0.330667
    18  H   -0.000103  -0.000006   0.023204  -0.001302   0.330667   0.486723
    19  O   -0.000023   0.000045   0.000201   0.000086  -0.013260   0.000169
    20  H    0.000024   0.000005  -0.000012   0.000001   0.028464  -0.001253
    21  O   -0.000091  -0.000081   0.000000  -0.000001  -0.000094   0.000018
    22  H    0.000023   0.000024  -0.000000  -0.000001  -0.000024   0.000006
    23  O   -0.005610   0.003686  -0.000000   0.000000   0.000092   0.000007
    24  H   -0.000111  -0.000461   0.000000  -0.000000  -0.000004   0.000001
    25  O   -0.042161  -0.030106   0.000002   0.000000  -0.000001  -0.000001
    26  H   -0.005839   0.010160   0.000001   0.000000  -0.000001  -0.000001
              19         20         21         22         23         24
     1  C    0.226281  -0.047523  -0.028983  -0.002712  -0.001084  -0.008953
     2  C   -0.035334   0.009306   0.272007  -0.043394  -0.044450   0.014972
     3  C   -0.029720  -0.000014   0.010121   0.001890  -0.008997   0.001791
     4  C    0.004861  -0.000623  -0.052729   0.006583   0.218483  -0.043410
     5  H    0.003172  -0.000297  -0.034159  -0.003067   0.004450   0.001174
     6  H   -0.035993  -0.005373   0.004204  -0.001617   0.017706   0.001733
     7  C   -0.018132  -0.001092  -0.000811  -0.000106   0.001015  -0.000098
     8  H    0.003965   0.001155  -0.000080  -0.000045   0.005642  -0.000349
     9  C   -0.000315  -0.000030   0.003152  -0.000931  -0.025582   0.008424
    10  H   -0.000051   0.000030   0.000799   0.000064  -0.040541  -0.009916
    11  H    0.016973  -0.000230   0.000051   0.000026  -0.000031  -0.000001
    12  H    0.001314   0.000331   0.000054  -0.000051   0.000101   0.000026
    13  H   -0.000023   0.000024  -0.000091   0.000023  -0.005610  -0.000111
    14  H    0.000045   0.000005  -0.000081   0.000024   0.003686  -0.000461
    15  O    0.000201  -0.000012   0.000000  -0.000000  -0.000000   0.000000
    16  H    0.000086   0.000001  -0.000001  -0.000001   0.000000  -0.000000
    17  O   -0.013260   0.028464  -0.000094  -0.000024   0.000092  -0.000004
    18  H    0.000169  -0.001253   0.000018   0.000006   0.000007   0.000001
    19  O    7.943964   0.327725  -0.017665   0.025346   0.000212  -0.000132
    20  H    0.327725   0.480522   0.000075  -0.001383   0.000082  -0.000014
    21  O   -0.017665   0.000075   7.890416   0.330232  -0.006812   0.014795
    22  H    0.025346  -0.001383   0.330232   0.478228  -0.000302  -0.000844
    23  O    0.000212   0.000082  -0.006812  -0.000302   7.937238   0.321628
    24  H   -0.000132  -0.000014   0.014795  -0.000844   0.321628   0.499132
    25  O    0.000001  -0.000000  -0.000088   0.000014  -0.006700  -0.000307
    26  H    0.000000  -0.000000  -0.000034   0.000006   0.018869  -0.001264
              25         26
     1  C    0.000840   0.000962
     2  C    0.008602   0.000517
     3  C   -0.001169  -0.000693
     4  C   -0.027776  -0.013268
     5  H    0.000107  -0.000089
     6  H   -0.000037  -0.000064
     7  C    0.000045   0.000012
     8  H    0.000204   0.000164
     9  C    0.272002  -0.043741
    10  H    0.009251  -0.003144
    11  H    0.000002   0.000001
    12  H   -0.000119  -0.000041
    13  H   -0.042161  -0.005839
    14  H   -0.030106   0.010160
    15  O    0.000002   0.000001
    16  H    0.000000   0.000000
    17  O   -0.000001  -0.000001
    18  H   -0.000001  -0.000001
    19  O    0.000001   0.000000
    20  H   -0.000000  -0.000000
    21  O   -0.000088  -0.000034
    22  H    0.000014   0.000006
    23  O   -0.006700   0.018869
    24  H   -0.000307  -0.001264
    25  O    7.860694   0.321659
    26  H    0.321659   0.518604
 Mulliken charges:
               1
     1  C    0.125967
     2  C    0.049752
     3  C    0.076348
     4  C    0.095813
     5  H    0.086524
     6  H    0.101342
     7  C   -0.043118
     8  H    0.108148
     9  C    0.034847
    10  H    0.106342
    11  H    0.108848
    12  H    0.073928
    13  H    0.085711
    14  H    0.068777
    15  O   -0.356187
    16  H    0.184979
    17  O   -0.394155
    18  H    0.206611
    19  O   -0.403689
    20  H    0.210124
    21  O   -0.384296
    22  H    0.212036
    23  O   -0.389102
    24  H    0.202187
    25  O   -0.364959
    26  H    0.197222
 Sum of Mulliken charges =  -0.00000
 Mulliken charges with hydrogens summed into heavy atoms:
               1
     1  C    0.227308
     2  C    0.136275
     3  C    0.184495
     4  C    0.202156
     7  C    0.139659
     9  C    0.189336
    15  O   -0.171208
    17  O   -0.187545
    19  O   -0.193565
    21  O   -0.172260
    23  O   -0.186915
    25  O   -0.167736
 Electronic spatial extent (au):  <R**2>=           2458.8296
 Charge=              0.0000 electrons
 Dipole moment (field-independent basis, Debye):
    X=              2.5288    Y=             -0.2730    Z=             -1.2559  Tot=              2.8367
 Quadrupole moment (field-independent basis, Debye-Ang):
   XX=            -73.5782   YY=            -76.6961   ZZ=            -70.1824
   XY=             -7.4992   XZ=             -6.4903   YZ=              4.7529
 Traceless Quadrupole moment (field-independent basis, Debye-Ang):
   XX=             -0.0926   YY=             -3.2105   ZZ=              3.3031
   XY=             -7.4992   XZ=             -6.4903   YZ=              4.7529
 Octapole moment (field-independent basis, Debye-Ang**2):
  XXX=             35.0409  YYY=             16.5725  ZZZ=             -4.9618  XYY=             26.5173
  XXY=              7.3097  XXZ=              1.5721  XZZ=              6.3470  YZZ=            -10.5489
  YYZ=              2.8050  XYZ=              8.5675
 Hexadecapole moment (field-independent basis, Debye-Ang**3):
 XXXX=          -1605.8273 YYYY=           -950.9611 ZZZZ=           -317.9740 XXXY=            -98.6885
 XXXZ=            -75.2870 YYYX=            -50.7556 YYYZ=             27.6943 ZZZX=            -20.4557
 ZZZY=              8.6599 XXYY=           -455.1931 XXZZ=           -299.6057 YYZZ=           -178.6111
 XXYZ=             19.8643 YYXZ=            -45.9067 ZZXY=            -23.1511
 N-N= 8.239743337753D+02 E-N=-3.264903353004D+03  KE= 6.850194388252D+02
   1 Symmetry operations used in ECPInt.
 ECPInt:  NShTT=   23436 NPrTT=   62434 LenC2=   22036 LenP2D=   45732.
 LDataN:  DoStor=T MaxTD1= 7 Len=  274
 Calling FoFJK, ICntrl=      2127 FMM=F ISym2X=0 I1Cent= 0 IOpClX= 0 NMat=1 NMatS=1 NMatT=0.
 ***** Axes restored to original set *****
 -------------------------------------------------------------------
 Center     Atomic                   Forces (Hartrees/Bohr)
 Number     Number              X              Y              Z
 -------------------------------------------------------------------
      1        6          -0.011467110    0.008265876   -0.009654045
      2        6           0.003484060   -0.006657834   -0.022329301
      3        6          -0.014021175    0.008680458    0.000474751
      4        6          -0.009547513   -0.004855784   -0.003093874
      5        1          -0.003343797    0.001316897    0.007164719
      6        1           0.005729139    0.000374776    0.009802675
      7        6          -0.001090075    0.003216926    0.007002975
      8        1           0.007549714    0.001135647   -0.000580893
      9        6           0.006109779   -0.018364935    0.006989265
     10        1          -0.001272699    0.010811333   -0.001094234
     11        1           0.004094498   -0.007094692   -0.004095738
     12        1           0.002224248   -0.003526298   -0.003184959
     13        1          -0.005081711    0.004735215   -0.005824437
     14        1           0.000242330   -0.003382851   -0.001264356
     15        8           0.006172796    0.011222264    0.000778615
     16        1          -0.007481341   -0.017783730   -0.000912294
     17        8           0.005932430    0.007524836    0.013151626
     18        1           0.005540806   -0.009960211   -0.016111568
     19        8          -0.011036505   -0.001693519    0.013940703
     20        1           0.019986259    0.000677559   -0.003707388
     21        8          -0.015132713    0.010641211    0.003134038
     22        1           0.012249270   -0.010275349    0.011180404
     23        8           0.002624090    0.003328869   -0.014511063
     24        1          -0.002316999    0.004753935    0.018530278
     25        8          -0.006331362   -0.009551275   -0.010026388
     26        1           0.006183579    0.016460676    0.004240490
 -------------------------------------------------------------------
 Cartesian Forces:  Max     0.022329301 RMS     0.008860110

 GradGradGradGradGradGradGradGradGradGradGradGradGradGradGradGradGradGrad
 Berny optimization.
 FormGI is forming the generalized inverse of G from B-inverse, IUseBI=4.
 Internal  Forces:  Max     0.020153248 RMS     0.006078351
 Search for a local minimum.
 Step number   1 out of a maximum of  140
 All quantities printed in internal units (Hartrees-Bohrs-Radians)
 Mixed Optimization -- RFO/linear search
 Second derivative matrix not updated -- first step.
 ITU=  0
     Eigenvalues ---    0.00230   0.00281   0.00340   0.00345   0.00404
     Eigenvalues ---    0.01002   0.01013   0.01084   0.01205   0.01289
     Eigenvalues ---    0.01312   0.03450   0.03490   0.03819   0.03844
     Eigenvalues ---    0.04658   0.04677   0.04879   0.04968   0.05193
     Eigenvalues ---    0.05309   0.05485   0.05532   0.07838   0.07874
     Eigenvalues ---    0.08284   0.08311   0.11364   0.11561   0.13606
     Eigenvalues ---    0.13721   0.16000   0.16000   0.16000   0.16000
     Eigenvalues ---    0.16000   0.16000   0.16808   0.17262   0.17539
     Eigenvalues ---    0.17636   0.19041   0.19256   0.19441   0.19963
     Eigenvalues ---    0.22016   0.22018   0.28351   0.28820   0.29224
     Eigenvalues ---    0.29256   0.29665   0.33914   0.34028   0.34208
     Eigenvalues ---    0.34301   0.34422   0.34524   0.34529   0.34811
     Eigenvalues ---    0.37967   0.38078   0.38778   0.40027   0.40929
     Eigenvalues ---    0.41175   0.50945   0.51005   0.51324   0.51566
     Eigenvalues ---    0.51712   0.52486
 RFO step:  Lambda=-1.92530353D-02 EMin= 2.30000000D-03
 Linear search not attempted -- first point.
 Iteration  1 RMS(Cart)=  0.08088074 RMS(Int)=  0.00146828
 Iteration  2 RMS(Cart)=  0.00220632 RMS(Int)=  0.00051377
 Iteration  3 RMS(Cart)=  0.00000218 RMS(Int)=  0.00051377
 Iteration  4 RMS(Cart)=  0.00000000 RMS(Int)=  0.00051377
 Variable       Old X    -DE/DX   Delta X   Delta X   Delta X     New X
                                 (Linear)    (Quad)   (Total)
    R1        2.91377  -0.01213   0.00000  -0.04006  -0.04006   2.87371
    R2        2.89472  -0.00971   0.00000  -0.03115  -0.03115   2.86357
    R3        2.07283  -0.00343   0.00000  -0.00953  -0.00953   2.06330
    R4        2.74413  -0.01156   0.00000  -0.02897  -0.02897   2.71516
    R5        2.90381  -0.01071   0.00000  -0.03484  -0.03484   2.86897
    R6        2.06981   0.00003   0.00000   0.00008   0.00008   2.06989
    R7        2.74252  -0.01354   0.00000  -0.03385  -0.03385   2.70867
    R8        2.89538  -0.01230   0.00000  -0.03948  -0.03948   2.85589
    R9        2.06455  -0.00036   0.00000  -0.00099  -0.00099   2.06356
   R10        2.73249  -0.01058   0.00000  -0.02600  -0.02600   2.70649
   R11        2.88636  -0.00936   0.00000  -0.02964  -0.02964   2.85673
   R12        2.07476  -0.00265   0.00000  -0.00740  -0.00740   2.06736
   R13        2.71517  -0.00724   0.00000  -0.01727  -0.01727   2.69791
   R14        2.06825  -0.00161   0.00000  -0.00445  -0.00445   2.06380
   R15        2.06447   0.00108   0.00000   0.00296   0.00296   2.06742
   R16        2.70310  -0.00166   0.00000  -0.00387  -0.00387   2.69922
   R17        2.05983   0.00228   0.00000   0.00622   0.00622   2.06604
   R18        2.06625  -0.00300   0.00000  -0.00827  -0.00827   2.05798
   R19        2.69988  -0.00748   0.00000  -0.01736  -0.01736   2.68251
   R20        1.84136  -0.01907   0.00000  -0.03505  -0.03505   1.80632
   R21        1.85252  -0.01947   0.00000  -0.03656  -0.03656   1.81597
   R22        1.85623  -0.02015   0.00000  -0.03812  -0.03812   1.81811
   R23        1.85565  -0.01934   0.00000  -0.03654  -0.03654   1.81911
   R24        1.85017  -0.01908   0.00000  -0.03568  -0.03568   1.81449
   R25        1.84876  -0.01804   0.00000  -0.03363  -0.03363   1.81513
    A1        2.05842   0.00129   0.00000  -0.00969  -0.00996   2.04846
    A2        1.91893  -0.00049   0.00000  -0.01827  -0.01844   1.90049
    A3        1.85718  -0.00683   0.00000  -0.03609  -0.03578   1.82139
    A4        1.90996  -0.00303   0.00000  -0.02210  -0.02332   1.88663
    A5        1.88227   0.00423   0.00000   0.02265   0.02222   1.90450
    A6        1.82123   0.00552   0.00000   0.07645   0.07651   1.89773
    A7        2.05096  -0.00173   0.00000  -0.02022  -0.02059   2.03036
    A8        1.93769  -0.00225   0.00000  -0.02258  -0.02385   1.91384
    A9        1.84337   0.00497   0.00000   0.03003   0.02984   1.87320
   A10        1.92867   0.00081   0.00000  -0.01179  -0.01246   1.91621
   A11        1.84788  -0.00459   0.00000  -0.02135  -0.02098   1.82691
   A12        1.83850   0.00354   0.00000   0.05870   0.05885   1.89735
   A13        1.99498   0.00135   0.00000  -0.00291  -0.00286   1.99212
   A14        1.94077   0.00050   0.00000  -0.01279  -0.01289   1.92789
   A15        1.86990  -0.00785   0.00000  -0.04029  -0.04007   1.82983
   A16        1.93314  -0.00364   0.00000  -0.02434  -0.02517   1.90797
   A17        1.86996   0.00632   0.00000   0.03839   0.03825   1.90821
   A18        1.84631   0.00364   0.00000   0.04816   0.04810   1.89440
   A19        2.01430   0.00401   0.00000   0.00686   0.00678   2.02108
   A20        1.90408  -0.00517   0.00000  -0.03957  -0.04004   1.86404
   A21        1.92372   0.00340   0.00000   0.02056   0.02058   1.94430
   A22        1.88402  -0.00011   0.00000  -0.01167  -0.01174   1.87229
   A23        1.89321  -0.00721   0.00000  -0.03352  -0.03338   1.85983
   A24        1.83576   0.00522   0.00000   0.06258   0.06286   1.89862
   A25        1.94287  -0.00403   0.00000  -0.03918  -0.03894   1.90393
   A26        1.95504  -0.00044   0.00000  -0.01819  -0.01811   1.93692
   A27        1.88239  -0.01169   0.00000  -0.04515  -0.04489   1.83750
   A28        1.91529   0.00007   0.00000  -0.00207  -0.00435   1.91093
   A29        1.87438   0.00968   0.00000   0.06557   0.06446   1.93884
   A30        1.89107   0.00700   0.00000   0.04458   0.04366   1.93474
   A31        1.96322  -0.00520   0.00000  -0.02602  -0.02725   1.93598
   A32        1.94442  -0.00235   0.00000  -0.02939  -0.02985   1.91457
   A33        1.90683   0.00383   0.00000   0.02159   0.02143   1.92826
   A34        1.90744   0.00118   0.00000  -0.00622  -0.00709   1.90035
   A35        1.85256   0.00557   0.00000   0.06518   0.06526   1.91782
   A36        1.88560  -0.00257   0.00000  -0.02051  -0.02027   1.86533
   A37        1.86691   0.00540   0.00000   0.03015   0.03015   1.89706
   A38        1.82255   0.00545   0.00000   0.03043   0.03043   1.85298
   A39        1.81351   0.00500   0.00000   0.02788   0.02788   1.84139
   A40        1.82344   0.00431   0.00000   0.02402   0.02402   1.84746
   A41        1.83045   0.00489   0.00000   0.02730   0.02730   1.85775
   A42        1.83796   0.00249   0.00000   0.01391   0.01391   1.85188
    D1        1.18556  -0.00160   0.00000  -0.04303  -0.04283   1.14273
    D2       -1.05812   0.00098   0.00000   0.01430   0.01387  -1.04425
    D3       -3.04225  -0.00480   0.00000  -0.06004  -0.06010  -3.10235
    D4       -1.02013   0.00204   0.00000   0.01320   0.01353  -1.00660
    D5        3.01938   0.00462   0.00000   0.07054   0.07023   3.08961
    D6        1.03525  -0.00116   0.00000  -0.00380  -0.00375   1.03150
    D7       -2.98256  -0.00064   0.00000  -0.04854  -0.04817  -3.03072
    D8        1.05695   0.00194   0.00000   0.00879   0.00853   1.06548
    D9       -0.92718  -0.00384   0.00000  -0.06555  -0.06544  -0.99262
   D10        0.96450  -0.00336   0.00000  -0.02935  -0.02964   0.93486
   D11       -1.24022   0.00010   0.00000   0.01707   0.01696  -1.22326
   D12        3.03329  -0.00001   0.00000  -0.01061  -0.01089   3.02239
   D13       -3.10866  -0.00577   0.00000  -0.08351  -0.08329   3.09123
   D14        0.96981  -0.00231   0.00000  -0.03709  -0.03669   0.93312
   D15       -1.03987  -0.00242   0.00000  -0.06477  -0.06454  -1.10441
   D16       -1.13760   0.00139   0.00000   0.00682   0.00671  -1.13089
   D17        2.94087   0.00485   0.00000   0.05324   0.05331   2.99418
   D18        0.93119   0.00474   0.00000   0.02556   0.02546   0.95665
   D19       -3.05611   0.00001   0.00000   0.01652   0.01617  -3.03994
   D20       -0.83188  -0.00012   0.00000  -0.00407  -0.00500  -0.83688
   D21        1.19800   0.00099   0.00000   0.01791   0.01920   1.21720
   D22       -1.34802   0.00312   0.00000   0.03173   0.03189  -1.31612
   D23        2.81111   0.00446   0.00000   0.07276   0.07250   2.88362
   D24        0.80374  -0.00076   0.00000   0.00868   0.00891   0.81265
   D25        0.89994  -0.00088   0.00000  -0.03042  -0.03028   0.86966
   D26       -1.22412   0.00045   0.00000   0.01061   0.01033  -1.21379
   D27        3.05169  -0.00476   0.00000  -0.05347  -0.05326   2.99843
   D28        2.88221   0.00120   0.00000   0.02119   0.02125   2.90346
   D29        0.75816   0.00253   0.00000   0.06223   0.06186   0.82002
   D30       -1.24922  -0.00268   0.00000  -0.00185  -0.00174  -1.25095
   D31        0.74570   0.00039   0.00000  -0.01094  -0.01012   0.73558
   D32        2.93295  -0.00141   0.00000  -0.02987  -0.02977   2.90319
   D33       -1.30635  -0.00094   0.00000  -0.02593  -0.02686  -1.33321
   D34        1.05107  -0.00340   0.00000  -0.03846  -0.03860   1.01247
   D35       -1.10069  -0.00019   0.00000   0.00655   0.00630  -1.09439
   D36        3.10305  -0.00104   0.00000  -0.00853  -0.00859   3.09446
   D37       -3.02343  -0.00470   0.00000  -0.07874  -0.07847  -3.10190
   D38        1.10800  -0.00149   0.00000  -0.03373  -0.03356   1.07443
   D39       -0.97146  -0.00234   0.00000  -0.04881  -0.04846  -1.01991
   D40       -1.01768   0.00129   0.00000  -0.01257  -0.01267  -1.03035
   D41        3.11375   0.00450   0.00000   0.03244   0.03223  -3.13721
   D42        1.03429   0.00365   0.00000   0.01736   0.01734   1.05164
   D43       -3.01007   0.00010   0.00000   0.02551   0.02534  -2.98473
   D44       -0.86191   0.00084   0.00000   0.02096   0.01999  -0.84192
   D45        1.20121   0.00153   0.00000   0.03569   0.03683   1.23804
   D46        1.19541  -0.00178   0.00000  -0.03366  -0.03321   1.16219
   D47       -0.95327   0.00227   0.00000   0.01572   0.01543  -0.93784
   D48       -3.03524   0.00445   0.00000   0.04546   0.04540  -2.98984
   D49       -2.95298  -0.00586   0.00000  -0.08941  -0.08909  -3.04206
   D50        1.18153  -0.00180   0.00000  -0.04002  -0.04044   1.14109
   D51       -0.90044   0.00037   0.00000  -0.01028  -0.01047  -0.91091
   D52       -0.97239  -0.00342   0.00000  -0.03902  -0.03854  -1.01093
   D53       -3.12106   0.00063   0.00000   0.01036   0.01010  -3.11096
   D54        1.08015   0.00280   0.00000   0.04011   0.04007   1.12022
   D55        1.00215  -0.00104   0.00000   0.00708   0.00770   1.00985
   D56       -3.06024   0.00128   0.00000   0.00619   0.00647  -3.05377
   D57       -1.04798   0.00045   0.00000   0.00858   0.00767  -1.04031
   D58       -3.11472   0.00137   0.00000   0.02078   0.02104  -3.09368
   D59       -1.01901  -0.00445   0.00000  -0.01411  -0.01608  -1.03510
   D60        1.04876   0.00469   0.00000   0.04324   0.04496   1.09372
   D61       -0.82306  -0.00067   0.00000  -0.02515  -0.02593  -0.84899
   D62        1.29789  -0.00149   0.00000  -0.00602  -0.00510   1.29279
   D63       -2.94110   0.00148   0.00000   0.01018   0.01004  -2.93106
         Item               Value     Threshold  Converged?
 Maximum Force            0.020153     0.000450     NO 
 RMS     Force            0.006078     0.000300     NO 
 Maximum Displacement     0.246358     0.001800     NO 
 RMS     Displacement     0.081077     0.001200     NO 
 Predicted change in Energy=-1.109402D-02
 GradGradGradGradGradGradGradGradGradGradGradGradGradGradGradGradGradGrad

                          Input orientation:                          
 ---------------------------------------------------------------------
 Center     Atomic      Atomic             Coordinates (Angstroms)
 Number     Number       Type             X           Y           Z
 ---------------------------------------------------------------------
      1          6           0       -0.009100    0.009826   -0.009502
      2          6           0        1.511433    0.006094   -0.031914
      3          6           0       -0.686620    0.653281    1.183465
      4          6           0        2.198776   -0.814278    1.044865
      5          1           0        1.882793    1.036259   -0.007011
      6          1           0       -0.366319   -1.018922   -0.088281
      7          6           0       -0.235707    2.068733    1.461169
      8          1           0       -0.540921    0.045482    2.078893
      9          6           0        2.205198   -0.208539    2.429900
     10          1           0        3.241900   -0.930523    0.736300
     11          1           0       -0.420595    2.682420    0.576906
     12          1           0        0.829188    2.098824    1.710173
     13          1           0        1.192512   -0.158594    2.838904
     14          1           0        2.618553    0.798143    2.388343
     15          8           0       -1.028674    2.506607    2.565571
     16          1           0       -0.811862    3.417833    2.756184
     17          8           0       -2.080984    0.655415    0.856399
     18          1           0       -2.513341    1.185472    1.531355
     19          8           0       -0.381269    0.720076   -1.201742
     20          1           0       -1.337766    0.813782   -1.157270
     21          8           0        1.918697   -0.599786   -1.265439
     22          1           0        1.332437   -0.242331   -1.940112
     23          8           0        1.609312   -2.108588    1.169521
     24          1           0        1.678617   -2.523065    0.306176
     25          8           0        3.039620   -0.961143    3.297297
     26          1           0        2.787121   -1.880275    3.178749
 ---------------------------------------------------------------------
                    Distance matrix (angstroms):
                    1          2          3          4          5
     1  C    0.000000
     2  C    1.520703   0.000000
     3  C    1.515334   2.593729   0.000000
     4  C    2.581774   1.518191   3.240131   0.000000
     5  H    2.152401   1.095339   2.857584   2.151923   0.000000
     6  H    1.091849   2.140044   2.125134   2.811692   3.047766
     7  C    2.540339   3.088086   1.511274   3.796284   2.776616
     8  H    2.155342   2.944352   1.091988   3.051940   3.347689
     9  C    3.301740   2.566692   3.264804   1.511715   2.755359
    10  H    3.465470   2.112326   4.259303   1.093998   2.503580
    11  H    2.766940   3.356503   2.134500   4.393971   2.890744
    12  H    2.832653   2.807106   2.159790   3.287031   2.277685
    13  H    3.096070   2.893169   2.632632   2.158950   3.162814
    14  H    3.643579   2.776815   3.520921   2.140338   2.517094
    15  O    3.728867   4.410401   2.337100   4.874142   4.154124
    16  H    4.461834   4.981079   3.183061   5.468393   4.535230
    17  O    2.336508   3.757150   1.432210   4.529002   4.074560
    18  H    3.166640   4.475885   1.934209   5.141957   4.659917
    19  O    1.436802   2.336790   2.405601   3.749415   2.579405
    20  H    1.931080   3.168078   2.434911   4.472931   3.427038
    21  O    2.380211   1.433366   3.788797   2.337082   2.064358
    22  H    2.364436   1.932608   3.825630   3.160340   2.382134
    23  O    2.914966   2.434113   3.591576   1.427671   3.368839
    24  H    3.059996   2.557128   4.056249   1.932920   3.578905
    25  O    4.601348   3.788740   4.578157   2.408743   4.030672
    26  H    4.642874   3.936258   4.739931   2.456820   4.412827
                    6          7          8          9         10
     6  H    0.000000
     7  C    3.457090   0.000000
     8  H    2.420761   2.137355   0.000000
     9  C    3.689262   3.475979   2.780090   0.000000
    10  H    3.702296   4.649164   4.130965   2.112887   0.000000
    11  H    3.761030   1.092115   3.037085   4.322733   5.147099
    12  H    3.792626   1.094034   2.495870   2.781247   3.993314
    13  H    3.426153   2.983111   1.903694   1.093303   3.035920
    14  H    4.283089   3.258965   3.262596   1.089036   2.471051
    15  O    4.462175   1.428368   2.555758   4.224732   5.779092
    16  H    5.289072   1.956806   3.450346   4.728603   6.278624
    17  O    2.576024   2.401720   2.058714   4.646900   5.555422
    18  H    3.477395   2.443910   2.343036   5.001526   6.183231
    19  O    2.064978   2.988505   3.353078   4.554225   4.428074
    20  H    2.333506   3.105746   3.420234   5.144465   5.253718
    21  O    2.604357   4.381420   4.201267   3.727021   2.422233
    22  H    2.630237   4.401001   4.443501   4.456440   3.358993
    23  O    2.583129   4.575933   3.176551   2.356655   2.059335
    24  H    2.569008   5.107177   3.829661   3.185047   2.272675
    25  O    4.802697   4.824862   3.913831   1.419525   2.569156
    26  H    4.621645   5.261392   3.999261   1.922007   2.659776
                   11         12         13         14         15
    11  H    0.000000
    12  H    1.785171   0.000000
    13  H    3.973677   2.549897   0.000000
    14  H    4.008519   2.313766   1.775372   0.000000
    15  O    2.086974   2.085580   3.480183   4.031442   0.000000
    16  H    2.333062   2.350951   4.100633   4.331955   0.955862
    17  O    2.635100   3.358788   3.912634   4.944984   2.730483
    18  H    2.744342   3.469681   4.153257   5.217355   2.240365
    19  O    2.648760   3.441715   4.424439   4.679074   4.219417
    20  H    2.709312   3.816969   4.828791   5.312634   4.101310
    21  O    4.431635   4.162186   4.191375   3.974182   5.745721
    22  H    4.238239   4.365644   4.781797   4.633811   5.782101
    23  O    5.236933   4.313144   2.600584   3.309559   5.496176
    24  H    5.619346   4.904549   3.498819   4.031045   6.142630
    25  O    5.713945   4.094921   2.065434   2.024496   5.395529
    26  H    6.154447   4.671558   2.371173   2.797692   5.846454
                   16         17         18         19         20
    16  H    0.000000
    17  O    3.584802   0.000000
    18  H    3.062462   0.960968   0.000000
    19  O    4.809208   2.670048   3.497449   0.000000
    20  H    4.729987   2.152282   2.957843   0.962105   0.000000
    21  O    6.306399   4.698422   5.536440   2.652534   3.551679
    22  H    6.328508   4.503095   5.373985   2.099572   2.976273
    23  O    6.238663   4.621260   5.289426   4.193642   4.758095
    24  H    6.891973   4.953794   5.729470   4.127337   4.730199
    25  O    5.856804   5.898460   6.209822   5.896638   6.492691
    26  H    6.418816   5.959990   6.340948   5.999102   6.563056
                   21         22         23         24         25
    21  O    0.000000
    22  H    0.962631   0.000000
    23  O    2.881185   3.637222   0.000000
    24  H    2.495319   3.219844   0.960187   0.000000
    25  O    4.712283   5.555323   2.808886   3.638508   0.000000
    26  H    4.705807   5.567917   2.340162   3.145416   0.960527
                   26
    26  H    0.000000
 Stoichiometry    C6H14O6
 Framework group  C1[X(C6H14O6)]
 Deg. of freedom    72
 Full point group                 C1      NOp   1
 Largest Abelian subgroup         C1      NOp   1
 Largest concise Abelian subgroup C1      NOp   1
                         Standard orientation:                         
 ---------------------------------------------------------------------
 Center     Atomic      Atomic             Coordinates (Angstroms)
 Number     Number       Type             X           Y           Z
 ---------------------------------------------------------------------
      1          6           0        0.538251    1.023848    0.287711
      2          6           0       -0.672678    0.955463   -0.629628
      3          6           0        1.326802   -0.253149    0.496769
      4          6           0       -1.828014    0.091621   -0.156470
      5          1           0       -0.359254    0.639820   -1.630579
      6          1           0        0.220430    1.390174    1.265939
      7          6           0        1.777483   -0.917855   -0.783466
      8          1           0        0.749499   -0.965491    1.089837
      9          6           0       -1.628163   -1.401447   -0.283322
     10          1           0       -2.693492    0.356882   -0.770814
     11          1           0        2.388251   -0.215465   -1.354715
     12          1           0        0.919242   -1.229296   -1.386241
     13          1           0       -0.837554   -1.747944    0.387639
     14          1           0       -1.354710   -1.649437   -1.307882
     15          8           0        2.545765   -2.048859   -0.370177
     16          1           0        2.893102   -2.483783   -1.147268
     17          8           0        2.475365    0.144770    1.254192
     18          1           0        3.059190   -0.618214    1.275693
     19          8           0        1.390016    2.008868   -0.319439
     20          1           0        2.202635    1.998731    0.195530
     21          8           0       -1.219090    2.277868   -0.714581
     22          1           0       -0.464268    2.869379   -0.798350
     23          8           0       -2.141358    0.345322    1.213090
     24          1           0       -2.346249    1.281273    1.276129
     25          8           0       -2.836979   -2.090108   -0.001257
     26          1           0       -3.168647   -1.720403    0.820892
 ---------------------------------------------------------------------
 Rotational constants (GHZ):           1.0641630           0.6739801           0.4890319
 Standard basis: def2TZVPP (5D, 7F)
 There are   642 symmetry adapted cartesian basis functions of A   symmetry.
 There are   568 symmetry adapted basis functions of A   symmetry.
   568 basis functions,   850 primitive gaussians,   642 cartesian basis functions
    49 alpha electrons       49 beta electrons
       nuclear repulsion energy       835.7909189342 Hartrees.
 NAtoms=   26 NActive=   26 NUniq=   26 SFac= 1.00D+00 NAtFMM=   60 NAOKFM=F Big=F
 Integral buffers will be    131072 words long.
 Raffenetti 2 integral format.
 Two-electron integral symmetry is turned on.
 Nuclear repulsion after empirical dispersion term =      835.7711847299 Hartrees.
 One-electron integrals computed using PRISM.
   1 Symmetry operations used in ECPInt.
 ECPInt:  NShTT=   23436 NPrTT=   62434 LenC2=   22106 LenP2D=   46101.
 LDataN:  DoStor=T MaxTD1= 6 Len=  172
 NBasis=   568 RedAO= T EigKep=  5.77D-05  NBF=   568
[...]
 02337,0.00093001,-0.00021363,0.00007786,0.00001057,-0.00001084,-0.0001
 6346,-0.00029280,-0.00015379,0.00933075,0.00108502,-0.00160627,0.00133
 325,0.64566957,0.00611353,-0.10860416,0.06618426,0.00577953,-0.0026226
 4,0.00453611,0.00013754,0.00688682,-0.00209755,-0.00045805,-0.00051238
 ,-0.00049470,0.00118229,0.00153775,-0.00057591,0.01328795,-0.01553484,
 0.03904573,-0.00209261,-0.00213554,0.00200685,0.00125357,0.00025848,-0
 .00243091,0.00010183,-0.00042383,-0.00045888,0.00022022,-0.00006563,0.
 00031962,0.00021219,0.00215793,-0.00151374,-0.00029429,0.00019605,-0.0
 0085884,-0.00010192,-0.00010414,0.00010350,0.00016112,0.00012156,0.000
 05643,0.00042574,0.00123866,-0.00184850,-0.00000120,0.00030266,0.00065
 269,0.00063561,0.00323239,-0.00288187,-0.00016287,-0.00001652,0.000016
 01,-0.08588660,0.13214343,-0.00035673,0.06222304,-0.17219446,-0.008503
 99,0.00672043,-0.01315674,-0.01133782,0.02145958,-0.05008536,-0.000071
 73,-0.00097099,0.00221357,0.00062699,-0.00047045,0.00049484,-0.0042679
 5,0.01392657,-0.01248951,-0.00032757,0.00316535,0.00135519,0.00500351,
 -0.00460367,-0.00540117,0.00107100,-0.00046075,0.00018677,-0.00063043,
 0.00051912,-0.00055530,-0.00004328,-0.00089212,-0.00099822,0.00003497,
 0.00002297,-0.00048559,-0.00014168,-0.00005338,0.00049037,-0.00003428,
 -0.00003501,0.00000746,0.00093383,-0.00178780,-0.00069209,-0.00000050,
 0.00001862,0.00010380,0.00001468,0.00033357,-0.00014920,-0.00132651,0.
 00090569,0.00016551,0.01512687,-0.11481694,0.28517839,-0.01360829,0.00
 166947,-0.00374380,-0.00056064,0.00207263,-0.00129433,0.00305309,-0.00
 044882,0.00130848,-0.00044441,-0.00017981,0.00026531,0.00037218,0.0000
 8066,0.00003209,0.00067095,-0.00076672,0.00137117,-0.00022819,-0.00043
 338,-0.00071317,-0.00126597,0.00027097,0.00017012,-0.00004130,0.000016
 23,-0.00012197,0.00002807,0.00003154,-0.00013413,-0.00003320,-0.000421
 93,-0.00016215,-0.00007468,-0.00021274,0.00005012,-0.00001768,-0.00000
 202,0.00000536,-0.00001001,-0.00000828,-0.00000472,-0.00063290,0.00034
 205,0.00047183,-0.00003007,-0.00000169,0.00000386,-0.00208656,-0.00059
 941,0.00012447,-0.00036450,0.00050364,-0.00017379,-0.51737908,0.054662
 17,0.00388386,0.53199866,0.02231380,-0.00317040,0.00340786,0.00034773,
 -0.00168702,0.00142834,-0.00063762,0.00215053,-0.00026832,0.00075808,0
 .00046914,0.00005456,0.00000862,0.00009520,0.00008841,0.00084059,-0.00
 057204,0.00000474,0.00017974,0.00029982,-0.00105300,0.00013082,-0.0002
 2062,0.00016458,-0.00003575,0.00004986,0.00002448,-0.00003129,-0.00013
 893,0.00013936,-0.00042785,-0.00061360,-0.00004543,0.00009653,-0.00015
 219,0.00034048,0.00002332,0.00003196,-0.00002857,-0.00003402,-0.000020
 47,-0.00000123,-0.00003821,-0.00020545,0.00045934,-0.00008677,-0.00004
 283,-0.00020180,0.00047161,-0.00291262,0.00097314,-0.00026907,0.000134
 33,-0.00099687,0.03236553,-0.01818441,0.01557358,-0.05600715,0.0250072
 6,-0.04030945,0.00564734,-0.00308580,-0.00133874,0.00356870,-0.0076891
 0,-0.00601179,0.00062098,-0.00366134,-0.00180432,-0.00052685,0.0010763
 1,0.00029603,-0.00010235,0.00004444,0.00026836,0.00076380,0.00022547,0
 .00012930,-0.00058528,-0.00042158,0.00050075,0.00003875,0.00088293,-0.
 00030293,0.00023195,0.00037003,-0.00033163,0.00035180,-0.00043903,-0.0
 0025425,-0.00028642,-0.00008616,0.00029004,0.00030464,0.00034337,0.000
 11329,0.00002567,-0.00018874,-0.00003139,-0.00002374,-0.00002830,0.000
 32707,0.00051661,0.00042781,0.00011591,-0.00011683,-0.00007469,-0.0001
 2947,0.00047140,0.00331262,0.00097585,-0.00133384,0.00105104,0.0474708
 4,0.01125885,-0.03664882,-0.00136980,-0.02063639,0.04333918,-0.0202101
 7,0.02165293,0.04097037,-0.09378134,0.02536423,0.00803566,-0.00465952,
 -0.00121692,-0.00636819,0.00415134,-0.00744223,-0.01908137,0.00695903,
 0.00097827,-0.00407278,0.00368906,0.00071150,0.00022069,-0.00097119,-0
 .00105691,-0.00034323,-0.00003333,-0.00016088,0.00051006,-0.00095020,0
 .00334641,-0.00091517,0.00230415,-0.00148884,-0.00074916,-0.00007331,0
 .00001326,-0.00001185,0.00029937,0.00012194,0.00024664,0.00038449,-0.0
 0020458,-0.00075969,-0.00009248,0.00007625,0.00033682,0.00022152,0.001
 00035,0.00068294,-0.00010269,-0.00002066,-0.00000062,-0.00316007,0.002
 19966,0.00293438,-0.00072608,-0.00049389,-0.00016741,-0.00513285,0.003
 47371,0.00283376,0.00121677,0.00058910,0.00226632,0.32899583,0.0054732
 1,-0.00245694,-0.00650801,0.03256428,-0.10366773,-0.04027133,-0.000132
 81,0.00166965,0.00128396,-0.00350926,0.00495842,0.01629086,0.01235320,
 -0.01207059,-0.03860909,0.00167998,0.00173802,0.00070321,-0.00133575,0
 .00016176,0.00012898,0.00018256,0.00000958,-0.00039585,0.00106058,-0.0
 0279055,0.00094398,-0.00106933,0.00078884,-0.00005106,-0.00023228,0.00
 017654,-0.00006613,0.00063057,-0.00003709,0.00056002,-0.00009452,0.000
 08128,0.00012965,0.00038570,0.00054729,0.00034298,0.00099911,-0.000117
 22,-0.00053982,-0.00008885,0.00015478,0.00012429,0.00102096,-0.0000674
 9,-0.00064128,-0.00001856,-0.00002018,-0.00001962,0.00359450,0.0010659
 2,-0.00079410,-0.00044387,0.00002850,-0.00129484,-0.17934113,0.1923807
 8,0.01316784,-0.01005496,-0.02667782,0.04699086,-0.06497014,-0.1870522
 1,0.00033700,0.00127407,0.00464143,0.00545941,-0.01431322,-0.05335453,
 0.00426860,-0.01595461,-0.01747589,-0.00100464,0.00063589,0.00058483,-
 0.00104246,0.00077440,-0.00005729,-0.00028028,0.00009282,0.00032615,-0
 .00119157,0.00583097,0.00148227,0.00194358,-0.00122605,0.00127356,0.00
 001037,-0.00018789,-0.00004687,0.00042913,0.00016227,0.00046974,0.0002
 6707,-0.00025387,-0.00039028,0.00003769,-0.00000525,0.00042773,0.00102
 198,-0.00076180,-0.00054051,-0.00009841,0.00019360,-0.00002551,0.00299
 350,-0.00145770,-0.00065066,0.00034114,0.00015624,0.00012422,-0.005325
 86,0.00198865,0.00413212,-0.00017322,0.00038201,0.00052059,0.16243634,
 -0.03261711,0.54094614,0.00147204,-0.00094208,0.00813145,0.00807077,-0
 .00476507,0.00988737,0.00012127,0.00026732,-0.00061196,-0.00151903,0.0
 0134612,0.00296917,-0.00025869,0.00096133,0.00024144,-0.00032872,0.000
 08602,-0.00022942,0.00039552,0.00019141,0.00024681,0.00022905,-0.00012
 767,-0.00046027,0.00089669,-0.00078245,-0.00010796,0.00027973,0.000101
 77,-0.00016427,0.00008170,0.00017856,0.00004255,-0.00018018,-0.0000619
 0,-0.00022654,-0.00012998,-0.00003930,0.00004741,0.00000021,0.00001583
 ,-0.00004167,-0.00018370,-0.00027987,-0.00029566,0.00004560,0.00000801
 ,0.00004174,-0.00023083,0.00004572,-0.00069979,-0.00013276,0.00011815,
 0.00004056,0.00012264,-0.00017307,-0.00119051,-0.00085999,-0.00044088,
 -0.00135679,-0.21844206,0.12576817,-0.22847588,0.21056539,0.00048553,0
 .00266201,-0.00266037,-0.01049435,0.00546216,-0.01403618,-0.00007357,-
 0.00033851,0.00080548,0.00086283,-0.00111109,-0.00137408,-0.00033828,-
 0.00067214,-0.00168253,-0.00038446,-0.00059819,0.00071712,0.00009497,0
 .00010619,-0.00033160,-0.00012529,0.00005750,0.00019512,-0.00033536,0.
 00039606,-0.00019045,-0.00005682,-0.00004295,-0.00002574,0.00005177,-0
 .00013753,0.00001267,0.00002207,0.00000753,0.00003436,0.00006722,0.000
 01598,0.00001642,-0.00002437,0.00003210,0.00001760,-0.00003293,-0.0000
 9292,0.00014621,0.00000802,-0.00001064,-0.00006936,0.00026321,-0.00027
 352,0.00016903,0.00012493,0.00001212,0.00000079,-0.00058954,-0.0020767
 9,-0.00091349,-0.00008921,-0.00034802,0.00120238,0.13175744,-0.0892062
 6,0.13047308,-0.12167764,0.08516980,0.00074374,0.00107029,-0.00166088,
 -0.02188534,0.01273732,-0.03356449,-0.00021053,0.00008796,-0.00143006,
 0.00137007,-0.00391995,-0.00680739,-0.00044956,0.00018920,0.00060564,0
 .00038907,0.00011181,-0.00009254,-0.00003282,-0.00027423,-0.00008863,0
 .00000724,-0.00004958,0.00010516,-0.00060650,0.00149952,0.00009204,0.0
 0029904,-0.00026126,0.00019049,0.00000825,-0.00004986,-0.00000230,-0.0
 0002650,0.00001662,-0.00001214,0.00009118,-0.00006699,-0.00008321,-0.0
 0004625,-0.00005063,0.00004288,-0.00016557,0.00035419,0.00031169,0.000
 00543,-0.00005002,-0.00000830,-0.00091642,0.00039379,0.00069171,-0.000
 05892,-0.00011697,0.00001368,-0.00226933,0.00050851,-0.00058912,-0.000
 07416,0.00040171,0.00092067,-0.18770666,0.09990313,-0.26563708,0.21160
 218,-0.11234829,0.30682143,-0.00272302,-0.00297677,0.00140952,0.008869
 84,0.00760885,-0.00106930,0.00059541,0.00003190,0.00004054,-0.09838942
 ,-0.05431643,0.02326833,-0.00028802,0.00233729,-0.00235454,0.00159291,
 0.00292146,0.00023213,-0.00066663,-0.00022491,-0.00021194,-0.00008301,
 -0.00020046,-0.00031890,-0.00064209,-0.00455121,-0.00322852,-0.0122772
 1,-0.04188702,0.00249819,0.00004411,0.00007251,0.00001112,0.00015503,0
 .00009154,0.00006184,0.00107654,0.00064904,-0.00157885,0.00088209,0.00
 043001,0.00018043,0.00017697,0.00038161,0.00028125,-0.00006563,0.00000
 766,-0.00001327,-0.00002017,0.00037162,0.00003637,0.00004057,-0.000141
 92,-0.00005252,0.00117973,0.00236624,-0.00106359,0.00035531,-0.0003335
 1,0.00025023,0.00192964,0.00084342,-0.00003920,-0.00030263,-0.00006917
 ,0.00011102,0.11692057,-0.00375586,-0.00026443,-0.00111046,-0.01306222
 ,-0.04394180,0.00207316,-0.00080135,0.00008782,0.00066092,-0.06802217,
 -0.19529320,0.03008895,0.00313612,-0.00282123,0.00589361,0.00153944,-0
 .00037739,0.00051781,-0.00097007,0.00044586,0.00032579,-0.00007395,-0.
 00013733,-0.00001568,-0.01317029,-0.03389116,-0.00296935,-0.01314248,-
 0.01522599,0.00210516,0.00002265,0.00010643,-0.00004072,0.00025040,0.0
 0019251,0.00026619,0.00081455,0.00155577,0.00119174,-0.00041944,-0.000
 32183,-0.00423486,0.00082856,-0.00040492,-0.00060215,-0.00010397,0.000
 14744,0.00006514,0.00127978,-0.00000405,-0.00024970,-0.00013403,-0.000
 07391,0.00008999,0.00144586,0.00037248,0.00084174,-0.00014829,0.000090
 47,0.00004046,0.00037339,0.00395591,-0.00003062,-0.00028784,0.00048645
 ,-0.00051554,0.08642269,0.41080948,-0.00026199,-0.00192043,0.00086165,
 0.01104964,0.02404040,-0.00132434,0.00021981,0.00050865,-0.00142284,0.
 00682759,-0.01074002,-0.09708907,-0.00235060,0.00275410,-0.00331589,0.
 00028711,0.00139857,-0.00020731,-0.00041973,-0.00021174,-0.00003297,-0
 .00024220,-0.00004673,0.00037930,-0.01975106,-0.03844312,-0.00061432,0
 .00380252,0.01299451,0.00280233,0.00014771,-0.00018492,0.00005775,0.00
 001892,0.00015838,-0.00011172,0.00013621,0.00121317,0.00291819,-0.0011
 3676,-0.00312309,-0.00719537,0.00003245,0.00030401,0.00043803,-0.00007
 831,0.00001959,-0.00004810,-0.00006435,0.00014939,0.00068602,-0.000052
 94,-0.00002199,-0.00007161,-0.00040923,0.00108412,-0.00022568,0.000244
 70,-0.00027241,-0.00006238,0.00014033,0.00256071,0.00135013,0.00033460
 ,0.00032080,0.00098487,-0.06424562,0.18068401,0.53580087,0.00048110,0.
 00172216,-0.00034624,0.00131981,0.00060673,0.00055903,-0.00022997,-0.0
 0036408,0.00036876,0.00006177,-0.01139288,-0.01657077,-0.00016042,-0.0
 0018104,0.00009820,-0.00115266,-0.00003166,-0.00007803,0.00018158,0.00
 011994,-0.00004794,0.00010200,-0.00003656,-0.00009711,-0.00153584,-0.0
 0330985,0.00011391,0.00017228,-0.00021457,-0.00102718,0.00000331,0.000
 02662,0.00001053,-0.00003859,-0.00001495,-0.00001970,0.00012060,-0.000
 07940,0.00004385,0.00035954,-0.00029314,-0.00093890,-0.00000481,-0.000
 20266,-0.00014695,0.00001695,0.00000717,-0.00000118,-0.00002865,-0.000
 08859,-0.00014826,-0.00002109,0.00003174,0.00002274,-0.00009098,-0.000
 82153,0.00039260,-0.00010691,0.00016958,0.00003878,-0.00150123,-0.0005
 3034,-0.00010104,0.00014588,0.00054523,-0.00002062,-0.01849633,0.01752
 690,0.06485539,0.02024786,0.00055671,-0.00063936,0.00036546,0.00101265
 ,-0.00275060,-0.00200326,0.00027650,0.00008331,-0.00041549,0.00292659,
 -0.02268940,-0.03839789,-0.00020984,0.00058803,-0.00012149,0.00074447,
 0.00001632,0.00007460,-0.00004858,-0.00018552,-0.00010511,-0.00000944,
 -0.00002027,0.00002491,-0.00323819,-0.00727736,0.00223084,-0.00063007,
 0.00159842,0.00012530,0.00002052,-0.00002950,0.00000578,-0.00003500,0.
 00001122,-0.00003720,0.00006799,0.00019914,0.00047182,-0.00018386,-0.0
 0046502,-0.00175107,-0.00013297,0.00025452,0.00025513,-0.00000074,-0.0
 0003060,-0.00002198,-0.00042983,0.00014732,0.00022632,0.00002561,-0.00
 002896,-0.00003971,-0.00065024,0.00053000,-0.00024317,0.00014294,-0.00
 002764,0.00002791,-0.00017015,0.00192111,-0.00055720,0.00040412,0.0004
 9449,0.00051403,0.00236758,-0.12776829,-0.16902625,-0.00280022,0.15483
 407,0.00033658,0.00006294,-0.00008864,0.00002693,0.00289928,0.00272801
 ,0.00011218,-0.00011833,0.00021403,0.00114427,0.00390941,0.00307656,0.
 00000020,-0.00009793,-0.00076702,-0.00009974,-0.00006782,0.00023062,0.
 00006291,0.00001673,-0.00000865,0.00003109,0.00000416,-0.00010227,-0.0
 0085780,0.00028882,-0.00013369,0.00080371,0.00152339,0.00039059,-0.000
 01608,0.00003310,-0.00000510,-0.00000719,-0.00002885,-0.00000242,-0.00
 017360,0.00016729,0.00037701,0.00002270,0.00035037,0.00004145,-0.00001
 994,-0.00002489,-0.00005176,0.00001273,-0.00000636,0.00000833,-0.00000
 308,-0.00000017,-0.00015884,0.00001487,0.00000038,0.00000861,-0.000017
 84,-0.00003685,-0.00041945,-0.00004354,0.00003262,-0.00003065,0.000180
 55,-0.00183092,-0.00038641,-0.00033375,-0.00030017,-0.00021510,0.04553
 872,-0.21442019,-0.43728228,-0.04750835,0.20824481,0.43189105,0.000268
 27,0.00001725,0.00111041,0.00197182,-0.00243537,0.00094770,0.00039217,
 -0.00104046,0.00145007,-0.00702276,0.00780516,-0.01231496,-0.00004824,
 0.00026565,0.00004213,-0.00001650,0.00000210,-0.00005167,0.00043764,-0
 .00048426,-0.00023448,0.00042679,0.00081681,-0.00090352,-0.14233690,0.
 03266145,-0.06513500,0.00186251,-0.00120523,-0.00086126,-0.00013796,0.
 00018081,-0.00005542,-0.00023140,-0.00018812,0.00007385,-0.02408274,0.
 02791561,-0.02777044,0.00897763,-0.00097947,0.00370636,-0.00032353,0.0
 0040633,0.00021063,0.00004342,-0.00012489,-0.00006483,-0.00134596,0.00
 051080,-0.00091305,0.00019162,-0.00014510,-0.00006487,-0.00005702,0.00
 008125,-0.00077620,0.00006093,0.00002497,0.00024060,-0.00016602,0.0003
 5888,-0.00192067,0.00010906,-0.00000110,-0.00009535,0.00151621,-0.0000
 5372,-0.00002814,-0.00017541,0.00082021,0.00002298,0.23713865,-0.00015
 880,-0.00024165,-0.00045430,-0.00024067,0.00016244,-0.00170193,-0.0005
 1859,0.00009089,-0.00069040,-0.00088704,-0.00123583,0.00283244,-0.0000
 3061,0.00078870,-0.00049548,0.00021948,0.00011637,0.00013073,-0.001426
 02,0.00024019,0.00010388,-0.00035755,-0.00041294,0.00034780,0.06819368
 ,-0.14507901,0.06912858,-0.00093553,0.00038873,0.00053602,0.00032305,-
 0.00008289,0.00010865,0.00041598,0.00038394,0.00011054,0.01377110,-0.0
 0448273,0.00716499,0.02702723,-0.02476668,0.02658792,0.00090737,-0.000
 37373,-0.00034723,-0.00013394,0.00017773,0.00004415,0.00108600,0.00006
 309,0.00053322,-0.00023824,-0.00004077,0.00004336,0.00006793,0.0002107
 8,0.00049345,-0.00004706,-0.00008163,-0.00019085,0.00010309,0.00072516
 ,0.00114267,0.00001324,-0.00001096,-0.00003038,-0.00198893,0.00309802,
 -0.00376743,-0.00037472,0.00104259,-0.00053010,0.06195728,0.64264223,0
 .00159912,0.00027445,-0.00056338,0.00033771,-0.00850256,-0.00183957,0.
 00049007,-0.00023082,-0.00064656,-0.03243435,0.03000966,-0.03547259,0.
 00029351,0.00016770,0.00027371,-0.00006411,0.00001001,-0.00000610,0.00
 031318,-0.00048805,-0.00032509,0.00010860,0.00004654,-0.00004183,-0.06
 744986,0.03369802,-0.12325104,-0.00069142,0.00188433,0.00407803,0.0000
 0625,-0.00004479,0.00003206,0.00002839,-0.00013508,-0.00007920,-0.0054
 7378,-0.00010552,0.00677738,-0.00309355,0.00564082,-0.00208581,-0.0003
 5529,0.00047251,0.00065163,-0.00001198,-0.00006404,-0.00011081,-0.0007
 9980,0.00028448,0.00034458,0.00004530,-0.00005711,-0.00012185,-0.00149
 735,0.00060330,-0.00032576,0.00014882,-0.00002334,-0.00017943,-0.00180
 034,0.00111230,-0.00434884,0.00071433,-0.00019206,-0.00053618,-0.00090
 733,0.00061616,0.00099499,0.00016716,0.00098371,0.00052737,0.14379993,
 -0.03194288,0.18420958,0.00005183,0.00020789,-0.00020009,-0.00020524,-
 0.00041711,0.00013207,-0.00008294,0.00021327,-0.00021660,0.00163315,0.
 00169232,-0.00165090,0.00004819,-0.00014408,0.00015476,-0.00008147,-0.
 00003698,-0.00005601,0.00014252,0.00005503,0.00003348,-0.00002706,0.00
 000251,0.00009407,0.00491101,0.03030374,-0.00108836,-0.00032761,-0.000
 37049,0.00051923,-0.00002685,-0.00004221,-0.00000593,-0.00006802,-0.00
 001706,-0.00003619,-0.00044104,0.00130865,0.00000149,-0.00184417,0.002
 05442,-0.00222278,-0.00007039,-0.00004700,0.00002601,0.00000073,0.0000
 0536,0.00000179,0.00006815,-0.00013038,0.00011135,-0.00001193,0.000055
 68,-0.00001246,-0.00004788,-0.00010235,0.00015071,-0.00001157,0.000022
 08,-0.00004281,-0.00014864,-0.00011844,-0.00005128,0.00003301,0.000008
 86,-0.00006270,-0.00138077,0.00050533,0.00094395,0.00033020,-0.0008267
 6,0.00077049,-0.07745227,-0.16674775,-0.03347323,0.07500903,0.00013986
 ,0.00011965,0.00006687,-0.00013298,-0.00131349,0.00018754,0.00013116,-
 0.00017624,0.00019076,-0.00109419,0.00233419,-0.00071086,0.00007535,-0
 .00001162,0.00012312,-0.00004686,0.00000216,-0.00002989,0.00005775,-0.
 00009527,-0.00002313,0.00008817,0.00011354,-0.00011233,-0.00686430,-0.
 02853564,0.00047452,-0.00009262,-0.00008240,0.00034468,-0.00001091,0.0
 0002868,-0.00000965,-0.00000222,-0.00004856,0.00002247,-0.00073749,0.0
 0057841,-0.00092699,0.00386561,-0.00034758,0.00186316,-0.00008447,0.00
 007676,0.00001818,0.00002258,-0.00002737,-0.00000431,-0.00028824,0.000
 07315,-0.00012641,0.00004343,-0.00001550,-0.00000864,-0.00015995,0.000
 02597,-0.00016181,0.00001809,0.00002081,0.00002615,-0.00016534,0.00007
 049,-0.00071626,0.00007202,0.00001712,-0.00005437,-0.00021312,-0.00082
 309,-0.00043227,-0.00001991,0.00019198,-0.00007072,-0.12716686,-0.4733
 2203,-0.03401773,0.13256544,0.50114590,-0.00039708,0.00021781,0.000097
 64,-0.00020971,0.00041257,-0.00015990,-0.00016209,-0.00001441,0.000335
 90,0.00075655,0.00569522,-0.00104255,0.00005221,-0.00043075,0.00024196
 ,-0.00017137,-0.00006041,-0.00007668,0.00011491,0.00012693,0.00013925,
 0.00001522,0.00006810,-0.00000587,0.00552210,0.02978151,-0.00064559,0.
 00003918,-0.00019011,-0.00054951,-0.00003721,0.00003236,-0.00002516,-0
 .00000868,-0.00004443,0.00001563,-0.00048479,-0.00062387,0.00041268,-0
 .00299108,0.00314733,-0.00298273,0.00001252,-0.00012765,-0.00020511,0.
 00001576,0.00000052,0.00002849,0.00014975,-0.00010762,-0.00022470,0.00
 000739,0.00001816,0.00004915,0.00046109,-0.00034995,0.00008848,-0.0000
 7144,0.00005216,0.00008158,0.00018161,-0.00044490,0.00036500,-0.000105
 15,0.00001325,-0.00005283,0.00116390,-0.00127157,0.00172973,0.00038131
 ,-0.00083077,0.00015863,-0.04041481,-0.06915740,-0.02795527,0.03617992
 ,0.03408792,0.03018181\\0.00000764,0.00001992,0.00000351,-0.00001274,-
 0.00001527,-0.00000070,0.00002237,-0.00000061,-0.00000527,0.00000166,0
 .00001109,0.00001567,-0.00000078,0.00001425,-0.00000184,-0.00000034,-0
 .00001243,-0.00000548,0.00001076,-0.00002722,0.00000983,-0.00000365,0.
 00000012,-0.00000292,0.00001223,0.00000591,0.00001622,0.00000114,0.000
 00312,-0.00001061,-0.00000275,0.00000344,0.00000192,0.00000007,0.00000
 208,-0.00000385,0.00000390,-0.00000037,0.00000087,0.00000017,0.0000081
 8,0.00000168,-0.00000872,-0.00001016,-0.00000737,0.00000262,0.00001310
 ,-0.00000297,-0.00001705,0.00000409,-0.00000317,-0.00000640,0.00000473
 ,0.00001106,0.00003822,-0.00000995,-0.00001677,-0.00001297,-0.00000675
 ,0.00001766,-0.00003825,-0.00000115,0.00000919,0.00001065,0.00000272,-
 0.00000649,0.00000252,-0.00000032,0.00000032,-0.00000143,-0.00001022,-
 0.00000692,-0.00000892,0.00001396,-0.00001253,0.00000007,-0.00001225,-
 0.00000102\\\@
 The archive entry for this job was punched.


0EVERYBODY IS IGNORANT, ONLY ON DIFFERENT SUBJECTS.
0          WILL ROGERS
 Job cpu time:       0 days 10 hours 39 minutes 58.6 seconds.
 Elapsed time:       0 days  0 hours 40 minutes 12.7 seconds.
 File lengths (MBytes):  RWF=    704 Int=      0 D2E=      0 Chk=     27 Scr=      1
 Normal termination of Gaussian 16 at Wed Oct 11 15:21:35 2023.
