 Entering Gaussian System, Link 0=/opt/software/gaussian/g16.c01/g16
 Initial command:
 /opt/software/gaussian/g16.c01/l1.exe "/scratch/arhender/13209962/Gau-22968.inp" -scrdir="/scratch/arhender/13209962/"
 Entering Link 1 = /opt/software/gaussian/g16.c01/l1.exe PID=     22971.
  
 Copyright (c) 1988-2019, Gaussian, Inc.  All Rights Reserved.
  
 This is part of the Gaussian(R) 16 program.  It is based on
 the Gaussian(R) 09 system (copyright 2009, Gaussian, Inc.),
 the Gaussian(R) 03 system (copyright 2003, Gaussian, Inc.),
 the Gaussian(R) 98 system (copyright 1998, Gaussian, Inc.),
 the Gaussian(R) 94 system (copyright 1995, Gaussian, Inc.),
 the Gaussian 92(TM) system (copyright 1992, Gaussian, Inc.),
 the Gaussian 90(TM) system (copyright 1990, Gaussian, Inc.),
 the Gaussian 88(TM) system (copyright 1988, Gaussian, Inc.),
 the Gaussian 86(TM) system (copyright 1986, Carnegie Mellon
 University), and the Gaussian 82(TM) system (copyright 1983,
 Carnegie Mellon University). Gaussian is a federally registered
 trademark of Gaussian, Inc.
  
 This software contains proprietary and confidential information,
 including trade secrets, belonging to Gaussian, Inc.
  
 This software is provided under written license and may be
 used, copied, transmitted, or stored only in accord with that
 written license.
  
 The following legend is applicable only to US Government
 contracts under FAR:
  
                    RESTRICTED RIGHTS LEGEND
  
 Use, reproduction and disclosure by the US Government is
 subject to restrictions as set forth in subparagraphs (a)
 and (c) of the Commercial Computer Software - Restricted
 Rights clause in FAR 52.227-19.
  
 Gaussian, Inc.
 340 Quinnipiac St., Bldg. 40, Wallingford CT 06492
  
  
 ---------------------------------------------------------------
 Warning -- This program may not be used in any manner that
 competes with the business of Gaussian, Inc. or will provide
 assistance to any competitor of Gaussian, Inc.  The licensee
 of this program is prohibited from giving any competitor of
 Gaussian, Inc. access to this program.  By using this program,
 the user acknowledges that Gaussian, Inc. is engaged in the
 business of creating and licensing software in the field of
 computational chemistry and represents and warrants to the
 licensee that it is not a competitor of Gaussian, Inc. and that
 it will not use this program in any manner prohibited above.
 ---------------------------------------------------------------
  

 Cite this work as:
 Gaussian 16, Revision C.01,
 M. J. Frisch, G. W. Trucks, H. B. Schlegel, G. E. Scuseria, 
 M. A. Robb, J. R. Cheeseman, G. Scalmani, V. Barone, 
 G. A. Petersson, H. Nakatsuji, X. Li, M. Caricato, A. V. Marenich, 
 J. Bloino, B. G. Janesko, R. Gomperts, B. Mennucci, H. P. Hratchian, 
 J. V. Ortiz, A. F. Izmaylov, J. L. Sonnenberg, D. Williams-Young, 
 F. Ding, F. Lipparini, F. Egidi, J. Goings, B. Peng, A. Petrone, 
 T. Henderson, D. Ranasinghe, V. G. Zakrzewski, J. Gao, N. Rega, 
 G. Zheng, W. Liang, M. Hada, M. Ehara, K. Toyota, R. Fukuda, 
 J. Hasegawa, M. Ishida, T. Nakajima, Y. Honda, O. Kitao, H. Nakai, 
 T. Vreven, K. Throssell, J. A. Montgomery, Jr., J. E. Peralta, 
 F. Ogliaro, M. J. Bearpark, J. J. Heyd, E. N. Brothers, K. N. Kudin, 
 V. N. Staroverov, T. A. Keith, R. Kobayashi, J. Normand, 
 K. Raghavachari, A. P. Rendell, J. C. Burant, S. S. Iyengar, 
 J. Tomasi, M. Cossi, J. M. Millam, M. Klene, C. Adamo, R. Cammi, 
 J. W. Ochterski, R. L. Martin, K. Morokuma, O. Farkas, 
 J. B. Foresman, and D. J. Fox, Gaussian, Inc., Wallingford CT, 2019.
 
 ******************************************
 Gaussian 16:  ES64L-G16RevC.01  3-Jul-2019
                27-Sep-2023 
 ******************************************
 %chk=MannitolConformerOpt_24.chk
 %mem=8GB
 %nprocs=16
 Will use up to   16 processors via shared memory.
 ---------------------------------------------
 # opt freq wb97xd/def2tzvpp geom=connectivity
 ---------------------------------------------
 1/18=20,19=15,26=3,38=1,57=2/1,3;
 2/9=110,12=2,17=6,18=5,40=1/2;
 3/5=44,7=202,11=2,25=1,30=1,71=1,74=-58/1,2,3;
 4//1;
 5/5=2,38=5/2;
 6/7=2,8=2,9=2,10=2,28=1/1;
 7//1,2,3,16;
 1/18=20,19=15,26=3/3(2);
 2/9=110/2;
 99//99;
 2/9=110/2;
 3/5=44,7=202,11=2,25=1,30=1,71=1,74=-58/1,2,3;
 4/5=5,16=3,69=1/1;
 5/5=2,38=5/2;
 7//1,2,3,16;
 1/18=20,19=15,26=3/3(-5);
 2/9=110/2;
 6/7=2,8=2,9=2,10=2,19=2,28=1/1;
 99/9=1/99;
 --------------------------------
 Mannitol Conformer Optimziations
 --------------------------------
 Symbolic Z-matrix:
 Charge =  0 Multiplicity = 1
 C                     0.        0.        0. 
 C                     1.5477    0.        0. 
 C                    -0.6688    0.6112   -1.2559 
 C                     2.1812   -0.7525    1.191 
 H                     1.925     1.0261    0. 
 H                    -0.372     0.5201    0.8888 
 C                    -0.4192    2.1074   -1.4565 
 H                    -1.7511    0.4557   -1.171 
 C                     1.7227   -0.2611    2.5643 
 H                     3.2729   -0.6798    1.1215 
 H                    -0.7018    2.6713   -0.5624 
 H                    -1.0116    2.4802   -2.2988 
 H                     0.6649   -0.4778    2.7391 
 H                     1.8943    0.8125    2.6822 
 O                     0.9446    2.3836   -1.7475 
 H                     1.1399    1.9466   -2.598 
 O                    -0.2658   -0.1141   -2.4297 
 H                     0.7034   -0.2658   -2.3455 
 O                    -0.4418   -1.3745    0.0989 
 H                    -0.5505   -1.6805   -0.8278 
 O                     2.0024   -0.6378   -1.2168 
 H                     2.2594   -1.5492   -0.9561 
 O                     1.8985   -2.163     1.0801 
 H                     0.9221   -2.2382    0.9815 
 O                     2.455    -0.9453    3.581 
 H                     2.4926   -1.8816    3.3019 
 

 GradGradGradGradGradGradGradGradGradGradGradGradGradGradGradGradGradGrad
 Berny optimization.
 Initialization pass.
                           ----------------------------
                           !    Initial Parameters    !
                           ! (Angstroms and Degrees)  !
 --------------------------                            --------------------------
 ! Name  Definition              Value          Derivative Info.                !
 --------------------------------------------------------------------------------
 ! R1    R(1,2)                  1.5477         estimate D2E/DX2                !
 ! R2    R(1,3)                  1.5486         estimate D2E/DX2                !
 ! R3    R(1,6)                  1.0949         estimate D2E/DX2                !
 ! R4    R(1,19)                 1.4471         estimate D2E/DX2                !
 ! R5    R(2,4)                  1.5447         estimate D2E/DX2                !
 ! R6    R(2,5)                  1.0933         estimate D2E/DX2                !
 ! R7    R(2,21)                 1.4471         estimate D2E/DX2                !
 ! R8    R(3,7)                  1.5301         estimate D2E/DX2                !
 ! R9    R(3,8)                  1.0967         estimate D2E/DX2                !
 ! R10   R(3,17)                 1.4375         estimate D2E/DX2                !
 ! R11   R(4,9)                  1.5289         estimate D2E/DX2                !
 ! R12   R(4,10)                 1.0963         estimate D2E/DX2                !
 ! R13   R(4,23)                 1.4428         estimate D2E/DX2                !
 ! R14   R(7,11)                 1.0942         estimate D2E/DX2                !
 ! R15   R(7,12)                 1.0952         estimate D2E/DX2                !
 ! R16   R(7,15)                 1.4216         estimate D2E/DX2                !
 ! R17   R(9,13)                 1.0938         estimate D2E/DX2                !
 ! R18   R(9,14)                 1.0936         estimate D2E/DX2                !
 ! R19   R(9,25)                 1.4276         estimate D2E/DX2                !
 ! R20   R(15,16)                0.9759         estimate D2E/DX2                !
 ! R21   R(17,18)                0.9846         estimate D2E/DX2                !
 ! R22   R(19,20)                0.9819         estimate D2E/DX2                !
 ! R23   R(21,22)                0.9822         estimate D2E/DX2                !
 ! R24   R(23,24)                0.9842         estimate D2E/DX2                !
 ! R25   R(25,26)                0.9777         estimate D2E/DX2                !
 ! A1    A(2,1,3)              115.5866         estimate D2E/DX2                !
 ! A2    A(2,1,6)              109.8617         estimate D2E/DX2                !
 ! A3    A(2,1,19)             107.7757         estimate D2E/DX2                !
 ! A4    A(3,1,6)              108.9119         estimate D2E/DX2                !
 ! A5    A(3,1,19)             107.3643         estimate D2E/DX2                !
 ! A6    A(6,1,19)             106.9758         estimate D2E/DX2                !
 ! A7    A(1,2,4)              114.2121         estimate D2E/DX2                !
 ! A8    A(1,2,5)              110.1886         estimate D2E/DX2                !
 ! A9    A(1,2,21)             108.3132         estimate D2E/DX2                !
 ! A10   A(4,2,5)              108.4023         estimate D2E/DX2                !
 ! A11   A(4,2,21)             107.7429         estimate D2E/DX2                !
 ! A12   A(5,2,21)             107.7716         estimate D2E/DX2                !
 ! A13   A(1,3,7)              114.9492         estimate D2E/DX2                !
 ! A14   A(1,3,8)              107.9062         estimate D2E/DX2                !
 ! A15   A(1,3,17)             109.9999         estimate D2E/DX2                !
 ! A16   A(7,3,8)              108.0462         estimate D2E/DX2                !
 ! A17   A(7,3,17)             109.9139         estimate D2E/DX2                !
 ! A18   A(8,3,17)             105.5659         estimate D2E/DX2                !
 ! A19   A(2,4,9)              114.3926         estimate D2E/DX2                !
 ! A20   A(2,4,10)             109.0991         estimate D2E/DX2                !
 ! A21   A(2,4,23)             109.6711         estimate D2E/DX2                !
 ! A22   A(9,4,10)             109.5266         estimate D2E/DX2                !
 ! A23   A(9,4,23)             108.9342         estimate D2E/DX2                !
 ! A24   A(10,4,23)            104.7774         estimate D2E/DX2                !
 ! A25   A(3,7,11)             110.774          estimate D2E/DX2                !
 ! A26   A(3,7,12)             110.2099         estimate D2E/DX2                !
 ! A27   A(3,7,15)             111.9206         estimate D2E/DX2                !
 ! A28   A(11,7,12)            108.2598         estimate D2E/DX2                !
 ! A29   A(11,7,15)            108.3555         estimate D2E/DX2                !
 ! A30   A(12,7,15)            107.1791         estimate D2E/DX2                !
 ! A31   A(4,9,13)             111.7076         estimate D2E/DX2                !
 ! A32   A(4,9,14)             111.4261         estimate D2E/DX2                !
 ! A33   A(4,9,25)             109.3789         estimate D2E/DX2                !
 ! A34   A(13,9,14)            109.2084         estimate D2E/DX2                !
 ! A35   A(13,9,25)            106.6966         estimate D2E/DX2                !
 ! A36   A(14,9,25)            108.254          estimate D2E/DX2                !
 ! A37   A(7,15,16)            106.4615         estimate D2E/DX2                !
 ! A38   A(3,17,18)            106.4918         estimate D2E/DX2                !
 ! A39   A(1,19,20)            105.3837         estimate D2E/DX2                !
 ! A40   A(2,21,22)            105.546          estimate D2E/DX2                !
 ! A41   A(4,23,24)            106.0673         estimate D2E/DX2                !
 ! A42   A(9,25,26)            105.985          estimate D2E/DX2                !
 ! D1    D(3,1,2,4)           -173.6649         estimate D2E/DX2                !
 ! D2    D(3,1,2,5)             64.0495         estimate D2E/DX2                !
 ! D3    D(3,1,2,21)           -53.6123         estimate D2E/DX2                !
 ! D4    D(6,1,2,4)             62.6205         estimate D2E/DX2                !
 ! D5    D(6,1,2,5)            -59.6651         estimate D2E/DX2                !
 ! D6    D(6,1,2,21)          -177.3269         estimate D2E/DX2                !
 ! D7    D(19,1,2,4)           -53.5989         estimate D2E/DX2                !
 ! D8    D(19,1,2,5)          -175.8845         estimate D2E/DX2                !
 ! D9    D(19,1,2,21)           66.4537         estimate D2E/DX2                !
 ! D10   D(2,1,3,7)            -65.0235         estimate D2E/DX2                !
 ! D11   D(2,1,3,8)            174.354          estimate D2E/DX2                !
 ! D12   D(2,1,3,17)            59.6641         estimate D2E/DX2                !
 ! D13   D(6,1,3,7)             59.1873         estimate D2E/DX2                !
 ! D14   D(6,1,3,8)            -61.4352         estimate D2E/DX2                !
 ! D15   D(6,1,3,17)          -176.1252         estimate D2E/DX2                !
 ! D16   D(19,1,3,7)           174.6865         estimate D2E/DX2                !
 ! D17   D(19,1,3,8)            54.064          estimate D2E/DX2                !
 ! D18   D(19,1,3,17)          -60.626          estimate D2E/DX2                !
 ! D19   D(2,1,19,20)          -91.8544         estimate D2E/DX2                !
 ! D20   D(3,1,19,20)           33.2756         estimate D2E/DX2                !
 ! D21   D(6,1,19,20)          150.0525         estimate D2E/DX2                !
 ! D22   D(1,2,4,9)            -55.6018         estimate D2E/DX2                !
 ! D23   D(1,2,4,10)          -178.6539         estimate D2E/DX2                !
 ! D24   D(1,2,4,23)            67.114          estimate D2E/DX2                !
 ! D25   D(5,2,4,9)             67.6554         estimate D2E/DX2                !
 ! D26   D(5,2,4,10)           -55.3967         estimate D2E/DX2                !
 ! D27   D(5,2,4,23)          -169.6289         estimate D2E/DX2                !
 ! D28   D(21,2,4,9)          -175.9731         estimate D2E/DX2                !
 ! D29   D(21,2,4,10)           60.9748         estimate D2E/DX2                !
 ! D30   D(21,2,4,23)          -53.2573         estimate D2E/DX2                !
 ! D31   D(1,2,21,22)         -101.1873         estimate D2E/DX2                !
 ! D32   D(4,2,21,22)           22.8318         estimate D2E/DX2                !
 ! D33   D(5,2,21,22)          139.6151         estimate D2E/DX2                !
 ! D34   D(1,3,7,11)           -54.0777         estimate D2E/DX2                !
 ! D35   D(1,3,7,12)          -173.8626         estimate D2E/DX2                !
 ! D36   D(1,3,7,15)            66.9673         estimate D2E/DX2                !
 ! D37   D(8,3,7,11)            66.468          estimate D2E/DX2                !
 ! D38   D(8,3,7,12)           -53.3169         estimate D2E/DX2                !
 ! D39   D(8,3,7,15)          -172.487          estimate D2E/DX2                !
 ! D40   D(17,3,7,11)         -178.8104         estimate D2E/DX2                !
 ! D41   D(17,3,7,12)           61.4047         estimate D2E/DX2                !
 ! D42   D(17,3,7,15)          -57.7654         estimate D2E/DX2                !
 ! D43   D(1,3,17,18)          -43.6122         estimate D2E/DX2                !
 ! D44   D(7,3,17,18)           83.9258         estimate D2E/DX2                !
 ! D45   D(8,3,17,18)         -159.7823         estimate D2E/DX2                !
 ! D46   D(2,4,9,13)            67.0724         estimate D2E/DX2                !
 ! D47   D(2,4,9,14)           -55.3822         estimate D2E/DX2                !
 ! D48   D(2,4,9,25)          -175.0338         estimate D2E/DX2                !
 ! D49   D(10,4,9,13)         -170.1068         estimate D2E/DX2                !
 ! D50   D(10,4,9,14)           67.4386         estimate D2E/DX2                !
 ! D51   D(10,4,9,25)          -52.2129         estimate D2E/DX2                !
 ! D52   D(23,4,9,13)          -56.0421         estimate D2E/DX2                !
 ! D53   D(23,4,9,14)         -178.4968         estimate D2E/DX2                !
 ! D54   D(23,4,9,25)           61.8517         estimate D2E/DX2                !
 ! D55   D(2,4,23,24)          -53.3578         estimate D2E/DX2                !
 ! D56   D(9,4,23,24)           72.5372         estimate D2E/DX2                !
 ! D57   D(10,4,23,24)        -170.3371         estimate D2E/DX2                !
 ! D58   D(3,7,15,16)           63.516          estimate D2E/DX2                !
 ! D59   D(11,7,15,16)        -174.0493         estimate D2E/DX2                !
 ! D60   D(12,7,15,16)         -57.4266         estimate D2E/DX2                !
 ! D61   D(4,9,25,26)          -42.6428         estimate D2E/DX2                !
 ! D62   D(13,9,25,26)          78.3444         estimate D2E/DX2                !
 ! D63   D(14,9,25,26)        -164.2285         estimate D2E/DX2                !
 --------------------------------------------------------------------------------
 Trust Radius=3.00D-01 FncErr=1.00D-07 GrdErr=1.00D-06 EigMax=2.50D+02 EigMin=1.00D-04
 Number of steps in this run=    140 maximum allowed number of steps=    156.
 GradGradGradGradGradGradGradGradGradGradGradGradGradGradGradGradGradGrad

                          Input orientation:                          
 ---------------------------------------------------------------------
 Center     Atomic      Atomic             Coordinates (Angstroms)
 Number     Number       Type             X           Y           Z
 ---------------------------------------------------------------------
      1          6           0        0.000000    0.000000    0.000000
      2          6           0        1.547700    0.000000    0.000000
      3          6           0       -0.668800    0.611200   -1.255900
      4          6           0        2.181200   -0.752500    1.191000
      5          1           0        1.925000    1.026100    0.000000
      6          1           0       -0.372000    0.520100    0.888800
      7          6           0       -0.419200    2.107400   -1.456500
      8          1           0       -1.751100    0.455700   -1.171000
      9          6           0        1.722700   -0.261100    2.564300
     10          1           0        3.272900   -0.679800    1.121500
     11          1           0       -0.701800    2.671300   -0.562400
     12          1           0       -1.011600    2.480200   -2.298800
     13          1           0        0.664900   -0.477800    2.739100
     14          1           0        1.894300    0.812500    2.682200
     15          8           0        0.944600    2.383600   -1.747500
     16          1           0        1.139900    1.946600   -2.598000
     17          8           0       -0.265800   -0.114100   -2.429700
     18          1           0        0.703400   -0.265800   -2.345500
     19          8           0       -0.441800   -1.374500    0.098900
     20          1           0       -0.550500   -1.680500   -0.827800
     21          8           0        2.002400   -0.637800   -1.216800
     22          1           0        2.259400   -1.549200   -0.956100
     23          8           0        1.898500   -2.163000    1.080100
     24          1           0        0.922100   -2.238200    0.981500
     25          8           0        2.455000   -0.945300    3.581000
     26          1           0        2.492600   -1.881600    3.301900
 ---------------------------------------------------------------------
                    Distance matrix (angstroms):
                    1          2          3          4          5
     1  C    0.000000
     2  C    1.547700   0.000000
     3  C    1.548594   2.619871   0.000000
     4  C    2.596608   1.544688   3.996185   0.000000
     5  H    2.181400   1.093269   2.911567   2.155815   0.000000
     6  H    1.094922   2.178467   2.167055   2.868739   2.514401
     7  C    2.595815   3.229740   1.530083   4.685122   2.964098
     8  H    2.155285   3.530012   1.096705   4.743604   3.900040
     9  C    3.100242   2.583492   4.590654   1.528937   2.876359
    10  H    3.525871   2.167073   4.780765   1.096323   2.446363
    11  H    2.818627   3.537285   2.173946   4.807131   3.150088
    12  H    3.529760   4.240977   2.167559   5.729138   4.002812
    13  H    2.858855   2.917241   4.350253   2.184317   3.369308
    14  H    3.382710   2.823913   4.703045   2.180645   2.690867
    15  O    3.102833   3.016461   2.446657   4.472034   2.420278
    16  H    3.440673   3.271874   2.618381   4.767176   2.865887
    17  O    2.446857   3.034014   1.437455   4.416428   3.464549
    18  H    2.463086   2.506963   1.959411   3.863625   2.943244
    19  O    1.447142   2.420153   2.414543   2.908556   3.372596
    20  H    1.952533   2.812788   2.334342   3.521210   3.760191
    21  O    2.428373   1.447115   2.949040   2.417153   2.062803
    22  H    2.901558   1.954652   3.651241   2.291481   2.767331
    23  O    3.074002   2.442999   4.443435   1.442820   3.367147
    24  H    2.612116   2.522748   3.956767   1.958706   3.553140
    25  O    4.443442   3.813181   5.964597   2.413346   4.121999
    26  H    4.544889   3.916095   6.081286   2.414070   4.436151
                    6          7          8          9         10
     6  H    0.000000
     7  C    2.832346   0.000000
     8  H    2.479686   2.140930   0.000000
     9  C    2.793804   5.134624   5.151073   0.000000
    10  H    3.844373   5.295864   5.637862   2.158727   0.000000
    11  H    2.615800   1.094194   2.525927   4.924776   5.464763
    12  H    3.796297   1.095165   2.432569   6.216178   6.327795
    13  H    2.344051   5.045948   4.690134   1.093826   3.075565
    14  H    2.904806   4.915067   5.316333   1.093601   2.561890
    15  O    3.486566   1.421590   3.363919   5.117763   4.799642
    16  H    4.059374   1.938987   3.552041   5.644726   5.028155
    17  O    3.380226   2.430167   2.028574   5.377339   5.045140
    18  H    3.497831   2.771756   2.815064   5.014492   4.335183
    19  O    2.053856   3.813582   2.583901   3.464523   3.915011
    20  H    2.796644   3.841964   2.474384   4.323017   4.406763
    21  O    3.378174   3.668477   3.909808   3.810099   2.661500
    22  H    3.822293   4.560266   4.488866   3.786881   2.469709
    23  O    3.520056   5.481094   5.024403   2.418880   2.022516
    24  H    3.048197   5.160152   4.363067   2.656151   2.823911
    25  O    4.169804   6.554114   6.498891   1.427611   2.605492
    26  H    4.449399   6.858066   6.593845   1.939799   2.609087
                   11         12         13         14         15
    11  H    0.000000
    12  H    1.774142   0.000000
    13  H    4.762835   6.077899   0.000000
    14  H    4.552176   6.002986   1.783125   0.000000
    15  O    2.048870   2.034694   5.328735   4.795052   0.000000
    16  H    2.839140   2.236784   5.881154   5.453055   0.975941
    17  O    3.381621   2.702544   5.264501   5.626379   2.858141
    18  H    3.712222   3.237888   5.089163   5.278138   2.726738
    19  O    4.107726   4.575188   2.999919   4.112636   4.410738
    20  H    4.362510   4.437103   3.955561   4.950979   4.426972
    21  O    4.323318   4.469546   4.178953   4.161401   3.244910
    22  H    5.170718   5.360816   4.164713   4.352947   4.221603
    23  O    5.729731   6.437776   2.667199   3.379400   5.438457
    24  H    5.396653   6.063239   2.500863   3.625510   5.367400
    25  O    6.341368   7.636977   2.032685   2.052337   6.461872
    26  H    6.772437   7.916600   2.372316   2.828456   6.788569
                   16         17         18         19         20
    16  H    0.000000
    17  O    2.500160   0.000000
    18  H    2.269141   0.984607   0.000000
    19  O    4.561222   2.830795   2.918183   0.000000
    20  H    4.375719   2.258483   2.424264   0.981949   0.000000
    21  O    3.054626   2.624904   1.760610   2.871917   2.784931
    22  H    4.021161   3.256938   2.449221   2.905172   2.815890
    23  O    5.567109   4.604442   4.094187   2.657346   3.141734
    24  H    5.511153   4.190369   3.873902   1.839887   2.398572
    25  O    6.947850   6.649974   6.217172   4.549800   5.386192
    26  H    7.161964   6.601823   6.140454   4.373450   5.133743
                   21         22         23         24         25
    21  O    0.000000
    22  H    0.982173   0.000000
    23  O    2.759127   2.157107   0.000000
    24  H    2.925893   2.453036   0.984243   0.000000
    25  O    4.828901   4.581291   2.836721   3.283104   0.000000
    26  H    4.712323   4.277316   2.317010   2.824516   0.977736
                   26
    26  H    0.000000
 Stoichiometry    C6H14O6
 Framework group  C1[X(C6H14O6)]
 Deg. of freedom    72
 Full point group                 C1      NOp   1
 Largest Abelian subgroup         C1      NOp   1
 Largest concise Abelian subgroup C1      NOp   1
                         Standard orientation:                         
 ---------------------------------------------------------------------
 Center     Atomic      Atomic             Coordinates (Angstroms)
 Number     Number       Type             X           Y           Z
 ---------------------------------------------------------------------
      1          6           0        0.444905   -0.141698   -0.797476
      2          6           0       -0.189666    0.260517    0.555638
      3          6           0        1.991155   -0.225568   -0.812376
      4          6           0       -1.732338    0.185213    0.579155
      5          1           0        0.110446    1.276439    0.825956
      6          1           0        0.119461    0.550143   -1.581246
      7          6           0        2.711898    1.104720   -0.584305
      8          1           0        2.298307   -0.615054   -1.790497
      9          6           0       -2.421252    1.005123   -0.512080
     10          1           0       -2.092320    0.508676    1.562877
     11          1           0        2.364988    1.860901   -1.295011
     12          1           0        3.791458    0.977884   -0.717911
     13          1           0       -2.222934    0.599958   -1.508557
     14          1           0       -2.109729    2.052961   -0.481179
     15          8           0        2.507118    1.600368    0.732250
     16          1           0        2.911314    0.950872    1.338255
     17          8           0        2.440121   -1.196569    0.147761
     18          1           0        1.908381   -1.049768    0.963330
     19          8           0       -0.062023   -1.450062   -1.151631
     20          1           0        0.585622   -2.089094   -0.782283
     21          8           0        0.311163   -0.634417    1.576621
     22          1           0       -0.405993   -1.288074    1.728555
     23          8           0       -2.153216   -1.190316    0.467299
     24          1           0       -1.707616   -1.547192   -0.334457
     25          8           0       -3.835217    0.953194   -0.322144
     26          1           0       -4.043158    0.023910   -0.100424
 ---------------------------------------------------------------------
 Rotational constants (GHZ):           1.5904427           0.5326157           0.4976522
 Standard basis: def2TZVPP (5D, 7F)
 There are   642 symmetry adapted cartesian basis functions of A   symmetry.
 There are   568 symmetry adapted basis functions of A   symmetry.
   568 basis functions,   850 primitive gaussians,   642 cartesian basis functions
    49 alpha electrons       49 beta electrons
       nuclear repulsion energy       842.9125272475 Hartrees.
 NAtoms=   26 NActive=   26 NUniq=   26 SFac= 1.00D+00 NAtFMM=   60 NAOKFM=F Big=F
 Integral buffers will be    131072 words long.
 Raffenetti 2 integral format.
 Two-electron integral symmetry is turned on.
 Nuclear repulsion after empirical dispersion term =      842.8927822826 Hartrees.
 One-electron integrals computed using PRISM.
   1 Symmetry operations used in ECPInt.
 ECPInt:  NShTT=   23436 NPrTT=   62434 LenC2=   22018 LenP2D=   45985.
 LDataN:  DoStor=T MaxTD1= 6 Len=  172
 NBasis=   568 RedAO= T EigKep=  4.36D-05  NBF=   568
 NBsUse=   568 1.00D-06 EigRej= -1.00D+00 NBFU=   568
 ExpMin= 9.52D-02 ExpMax= 2.70D+04 ExpMxC= 9.22D+02 IAcc=3 IRadAn=         5 AccDes= 0.00D+00
 Harris functional with IExCor= 4639 and IRadAn=       5 diagonalized for initial guess.
 HarFok:  IExCor= 4639 AccDes= 0.00D+00 IRadAn=         5 IDoV= 1 UseB2=F ITyADJ=14
 ICtDFT=  3500011 ScaDFX=  1.000000  1.000000  1.000000  1.000000
 FoFCou: FMM=F IPFlag=           0 FMFlag=      100000 FMFlg1=           0
         NFxFlg=           0 DoJE=T BraDBF=F KetDBF=T FulRan=T
         wScrn=  0.000000 ICntrl=       500 IOpCl=  0 I1Cent=   200000004 NGrid=           0
         NMat0=    1 NMatS0=      1 NMatT0=    0 NMatD0=    1 NMtDS0=    0 NMtDT0=    0
 Petite list used in FoFCou.
 Requested convergence on RMS density matrix=1.00D-08 within 128 cycles.
 Requested convergence on MAX density matrix=1.00D-06.
 Requested convergence on             energy=1.00D-06.
 No special actions if energy rises.
 Integral accuracy reduced to 1.0D-05 until final iterations.
 Initial convergence to 1.0D-05 achieved.  Increase integral accuracy.
 SCF Done:  E(RwB97XD) =  -688.475371375     A.U. after   13 cycles
            NFock= 13  Conv=0.86D-08     -V/T= 2.0050

 **********************************************************************

            Population analysis using the SCF Density.

 **********************************************************************

 Orbital symmetries:
       Occupied  (A) (A) (A) (A) (A) (A) (A) (A) (A) (A) (A) (A)
                 (A) (A) (A) (A) (A) (A) (A) (A) (A) (A) (A) (A)
                 (A) (A) (A) (A) (A) (A) (A) (A) (A) (A) (A) (A)
                 (A) (A) (A) (A) (A) (A) (A) (A) (A) (A) (A) (A)
                 (A)
       Virtual   (A) (A) (A) (A) (A) (A) (A) (A) (A) (A) (A) (A)
                 (A) (A) (A) (A) (A) (A) (A) (A) (A) (A) (A) (A)
                 (A) (A) (A) (A) (A) (A) (A) (A) (A) (A) (A) (A)
                 (A) (A) (A) (A) (A) (A) (A) (A) (A) (A) (A) (A)
                 (A) (A) (A) (A) (A) (A) (A) (A) (A) (A) (A) (A)
                 (A) (A) (A) (A) (A) (A) (A) (A) (A) (A) (A) (A)
                 (A) (A) (A) (A) (A) (A) (A) (A) (A) (A) (A) (A)
                 (A) (A) (A) (A) (A) (A) (A) (A) (A) (A) (A) (A)
                 (A) (A) (A) (A) (A) (A) (A) (A) (A) (A) (A) (A)
                 (A) (A) (A) (A) (A) (A) (A) (A) (A) (A) (A) (A)
                 (A) (A) (A) (A) (A) (A) (A) (A) (A) (A) (A) (A)
                 (A) (A) (A) (A) (A) (A) (A) (A) (A) (A) (A) (A)
                 (A) (A) (A) (A) (A) (A) (A) (A) (A) (A) (A) (A)
                 (A) (A) (A) (A) (A) (A) (A) (A) (A) (A) (A) (A)
                 (A) (A) (A) (A) (A) (A) (A) (A) (A) (A) (A) (A)
                 (A) (A) (A) (A) (A) (A) (A) (A) (A) (A) (A) (A)
                 (A) (A) (A) (A) (A) (A) (A) (A) (A) (A) (A) (A)
                 (A) (A) (A) (A) (A) (A) (A) (A) (A) (A) (A) (A)
                 (A) (A) (A) (A) (A) (A) (A) (A) (A) (A) (A) (A)
                 (A) (A) (A) (A) (A) (A) (A) (A) (A) (A) (A) (A)
                 (A) (A) (A) (A) (A) (A) (A) (A) (A) (A) (A) (A)
                 (A) (A) (A) (A) (A) (A) (A) (A) (A) (A) (A) (A)
                 (A) (A) (A) (A) (A) (A) (A) (A) (A) (A) (A) (A)
                 (A) (A) (A) (A) (A) (A) (A) (A) (A) (A) (A) (A)
                 (A) (A) (A) (A) (A) (A) (A) (A) (A) (A) (A) (A)
                 (A) (A) (A) (A) (A) (A) (A) (A) (A) (A) (A) (A)
                 (A) (A) (A) (A) (A) (A) (A) (A) (A) (A) (A) (A)
                 (A) (A) (A) (A) (A) (A) (A) (A) (A) (A) (A) (A)
                 (A) (A) (A) (A) (A) (A) (A) (A) (A) (A) (A) (A)
                 (A) (A) (A) (A) (A) (A) (A) (A) (A) (A) (A) (A)
                 (A) (A) (A) (A) (A) (A) (A) (A) (A) (A) (A) (A)
                 (A) (A) (A) (A) (A) (A) (A) (A) (A) (A) (A) (A)
                 (A) (A) (A) (A) (A) (A) (A) (A) (A) (A) (A) (A)
                 (A) (A) (A) (A) (A) (A) (A) (A) (A) (A) (A) (A)
                 (A) (A) (A) (A) (A) (A) (A) (A) (A) (A) (A) (A)
                 (A) (A) (A) (A) (A) (A) (A) (A) (A) (A) (A) (A)
                 (A) (A) (A) (A) (A) (A) (A) (A) (A) (A) (A) (A)
                 (A) (A) (A) (A) (A) (A) (A) (A) (A) (A) (A) (A)
                 (A) (A) (A) (A) (A) (A) (A) (A) (A) (A) (A) (A)
                 (A) (A) (A) (A) (A) (A) (A) (A) (A) (A) (A) (A)
                 (A) (A) (A) (A) (A) (A) (A) (A) (A) (A) (A) (A)
                 (A) (A) (A) (A) (A) (A) (A) (A) (A) (A) (A) (A)
                 (A) (A) (A) (A) (A) (A) (A) (A) (A) (A) (A) (A)
                 (A) (A) (A)
 The electronic state is 1-A.
 Alpha  occ. eigenvalues --  -19.27836 -19.27738 -19.26233 -19.26078 -19.25674
 Alpha  occ. eigenvalues --  -19.24755 -10.36358 -10.35735 -10.35543 -10.35368
 Alpha  occ. eigenvalues --  -10.34359 -10.33934  -1.17322  -1.14511  -1.13711
 Alpha  occ. eigenvalues --   -1.13125  -1.11610  -1.10778  -0.89626  -0.85942
 Alpha  occ. eigenvalues --   -0.80822  -0.75776  -0.72895  -0.69981  -0.65350
 Alpha  occ. eigenvalues --   -0.61570  -0.61180  -0.60573  -0.59850  -0.57749
 Alpha  occ. eigenvalues --   -0.56931  -0.56307  -0.54287  -0.52569  -0.51847
 Alpha  occ. eigenvalues --   -0.51028  -0.49688  -0.48696  -0.47130  -0.45122
 Alpha  occ. eigenvalues --   -0.44169  -0.43109  -0.41406  -0.41029  -0.39757
 Alpha  occ. eigenvalues --   -0.39015  -0.37291  -0.36281  -0.35284
 Alpha virt. eigenvalues --    0.08974   0.10547   0.11524   0.12773   0.13558
 Alpha virt. eigenvalues --    0.13996   0.14886   0.16744   0.17597   0.17646
 Alpha virt. eigenvalues --    0.18371   0.18644   0.19960   0.20903   0.21463
 Alpha virt. eigenvalues --    0.21842   0.23481   0.24320   0.25153   0.26021
 Alpha virt. eigenvalues --    0.27212   0.29774   0.30447   0.31232   0.32961
 Alpha virt. eigenvalues --    0.34221   0.35189   0.36272   0.36445   0.37139
 Alpha virt. eigenvalues --    0.38330   0.39188   0.39352   0.40271   0.40334
 Alpha virt. eigenvalues --    0.41001   0.41810   0.43515   0.44000   0.44636
 Alpha virt. eigenvalues --    0.45286   0.45714   0.46048   0.46736   0.46921
 Alpha virt. eigenvalues --    0.47655   0.48350   0.49008   0.49452   0.50090
 Alpha virt. eigenvalues --    0.50564   0.51674   0.52272   0.53065   0.54292
 Alpha virt. eigenvalues --    0.54658   0.55975   0.57219   0.57816   0.59081
 Alpha virt. eigenvalues --    0.60131   0.60675   0.61251   0.61872   0.62486
 Alpha virt. eigenvalues --    0.64413   0.65518   0.66296   0.66944   0.68249
 Alpha virt. eigenvalues --    0.69658   0.71562   0.71915   0.72542   0.73475
 Alpha virt. eigenvalues --    0.74214   0.77056   0.77413   0.78313   0.79965
 Alpha virt. eigenvalues --    0.80620   0.81870   0.82973   0.84055   0.86650
 Alpha virt. eigenvalues --    0.87494   0.88328   0.88487   0.89561   0.90429
 Alpha virt. eigenvalues --    0.92385   0.93055   0.94522   0.95271   0.96140
 Alpha virt. eigenvalues --    0.97675   0.98853   0.99629   1.00250   1.02221
 Alpha virt. eigenvalues --    1.02528   1.03883   1.05179   1.06440   1.07626
 Alpha virt. eigenvalues --    1.08854   1.09653   1.11078   1.11306   1.13194
 Alpha virt. eigenvalues --    1.13660   1.14840   1.17636   1.18724   1.19391
 Alpha virt. eigenvalues --    1.20620   1.21359   1.21864   1.22186   1.24530
 Alpha virt. eigenvalues --    1.25161   1.26818   1.28423   1.28724   1.29650
 Alpha virt. eigenvalues --    1.31859   1.32527   1.33290   1.33939   1.35245
 Alpha virt. eigenvalues --    1.36307   1.37716   1.38015   1.39528   1.41137
 Alpha virt. eigenvalues --    1.42176   1.43341   1.44308   1.44940   1.46478
 Alpha virt. eigenvalues --    1.47774   1.48676   1.50770   1.51241   1.52041
 Alpha virt. eigenvalues --    1.52738   1.54399   1.54881   1.56045   1.57116
 Alpha virt. eigenvalues --    1.58853   1.60152   1.61447   1.61955   1.62963
 Alpha virt. eigenvalues --    1.64068   1.65714   1.68649   1.71228   1.72602
 Alpha virt. eigenvalues --    1.75848   1.76322   1.79287   1.80256   1.82847
 Alpha virt. eigenvalues --    1.85288   1.86947   1.88824   1.89852   1.92450
 Alpha virt. eigenvalues --    1.93648   1.95275   1.97183   1.98792   1.99280
 Alpha virt. eigenvalues --    2.00412   2.01476   2.02020   2.03463   2.05126
 Alpha virt. eigenvalues --    2.06504   2.07654   2.08454   2.11148   2.11890
 Alpha virt. eigenvalues --    2.12959   2.15249   2.17035   2.17456   2.17737
 Alpha virt. eigenvalues --    2.21074   2.21864   2.22699   2.24246   2.25511
 Alpha virt. eigenvalues --    2.27121   2.28005   2.30063   2.31317   2.31806
 Alpha virt. eigenvalues --    2.34298   2.36117   2.38003   2.39468   2.42246
 Alpha virt. eigenvalues --    2.43978   2.46131   2.46337   2.50746   2.51079
 Alpha virt. eigenvalues --    2.57942   2.59753   2.60516   2.62704   2.65539
 Alpha virt. eigenvalues --    2.67302   2.67674   2.68517   2.70204   2.71741
 Alpha virt. eigenvalues --    2.72426   2.73646   2.74324   2.75508   2.76872
 Alpha virt. eigenvalues --    2.78239   2.79868   2.80643   2.81218   2.83049
 Alpha virt. eigenvalues --    2.85419   2.86532   2.87496   2.89686   2.90754
 Alpha virt. eigenvalues --    2.91904   2.93972   2.94388   2.95985   2.98505
 Alpha virt. eigenvalues --    2.98802   3.02288   3.04379   3.04459   3.05241
 Alpha virt. eigenvalues --    3.07273   3.08228   3.09151   3.10020   3.10247
 Alpha virt. eigenvalues --    3.11322   3.13533   3.15522   3.15604   3.16615
 Alpha virt. eigenvalues --    3.17047   3.19062   3.19422   3.20861   3.22592
 Alpha virt. eigenvalues --    3.23128   3.23241   3.24819   3.25969   3.26598
 Alpha virt. eigenvalues --    3.27683   3.29577   3.30287   3.30861   3.32119
 Alpha virt. eigenvalues --    3.32504   3.33332   3.34866   3.36581   3.37463
 Alpha virt. eigenvalues --    3.38271   3.39533   3.41053   3.42154   3.43172
 Alpha virt. eigenvalues --    3.43923   3.44793   3.45715   3.46873   3.48432
 Alpha virt. eigenvalues --    3.50708   3.51599   3.52874   3.53059   3.54386
 Alpha virt. eigenvalues --    3.55075   3.55962   3.56570   3.58048   3.60401
 Alpha virt. eigenvalues --    3.60844   3.62437   3.63052   3.63746   3.66798
 Alpha virt. eigenvalues --    3.67167   3.68563   3.69879   3.70861   3.71709
 Alpha virt. eigenvalues --    3.72830   3.73846   3.75572   3.76470   3.77083
 Alpha virt. eigenvalues --    3.78076   3.79291   3.80538   3.81282   3.81501
 Alpha virt. eigenvalues --    3.82741   3.85068   3.85477   3.86267   3.87954
 Alpha virt. eigenvalues --    3.88314   3.91875   3.92971   3.94479   3.94968
 Alpha virt. eigenvalues --    3.96344   3.97390   3.98463   3.98841   3.99749
 Alpha virt. eigenvalues --    4.01431   4.02719   4.04550   4.04854   4.05718
 Alpha virt. eigenvalues --    4.07465   4.08267   4.09161   4.09549   4.12403
 Alpha virt. eigenvalues --    4.13170   4.14258   4.16288   4.17321   4.17573
 Alpha virt. eigenvalues --    4.17991   4.19591   4.20604   4.22078   4.22296
 Alpha virt. eigenvalues --    4.25197   4.26320   4.27999   4.28342   4.29309
 Alpha virt. eigenvalues --    4.30382   4.31302   4.32567   4.33273   4.34182
 Alpha virt. eigenvalues --    4.35530   4.36392   4.37472   4.40167   4.40473
 Alpha virt. eigenvalues --    4.42275   4.42758   4.44367   4.45524   4.45846
 Alpha virt. eigenvalues --    4.47533   4.48653   4.50311   4.51755   4.52268
 Alpha virt. eigenvalues --    4.54778   4.56199   4.59367   4.62291   4.63194
 Alpha virt. eigenvalues --    4.65221   4.65624   4.69288   4.70799   4.73119
 Alpha virt. eigenvalues --    4.74924   4.76804   4.77606   4.79595   4.81561
 Alpha virt. eigenvalues --    4.82970   4.85867   4.86693   4.88886   4.89081
 Alpha virt. eigenvalues --    4.91629   4.94729   4.95392   4.95800   4.96370
 Alpha virt. eigenvalues --    4.99034   5.00917   5.01617   5.02381   5.04118
 Alpha virt. eigenvalues --    5.04747   5.06311   5.08659   5.10619   5.11272
 Alpha virt. eigenvalues --    5.13003   5.13458   5.15993   5.17906   5.18590
 Alpha virt. eigenvalues --    5.20293   5.22108   5.25638   5.28138   5.29682
 Alpha virt. eigenvalues --    5.31075   5.33376   5.35070   5.36225   5.41350
 Alpha virt. eigenvalues --    5.42901   5.49035   5.55519   5.57186   5.59127
 Alpha virt. eigenvalues --    5.61475   5.63265   5.64314   5.65715   5.66892
 Alpha virt. eigenvalues --    5.67304   5.68662   5.69866   5.72623   5.73175
 Alpha virt. eigenvalues --    5.73994   5.75992   5.76518   5.77669   5.82609
 Alpha virt. eigenvalues --    5.84476   5.86566   5.89035   5.94731   5.96472
 Alpha virt. eigenvalues --    5.99498   6.00752   6.02386   6.10047   6.13165
 Alpha virt. eigenvalues --    6.14778   6.16406   6.17919   6.21911   6.53206
 Alpha virt. eigenvalues --    6.54270   6.54517   6.55394   6.55974   6.58487
 Alpha virt. eigenvalues --    6.68236   6.71269   6.71890   6.73346   6.77058
 Alpha virt. eigenvalues --    6.77958   6.78413   6.78985   6.80314   6.81131
 Alpha virt. eigenvalues --    6.85299   6.85953   6.87253   6.88638   6.90239
 Alpha virt. eigenvalues --    6.93225   6.97350   7.00097   7.01111   7.02226
 Alpha virt. eigenvalues --    7.03698   7.03995   7.04629   7.06051   7.15553
 Alpha virt. eigenvalues --    7.18472   7.21194   7.25179   7.25551   7.29506
 Alpha virt. eigenvalues --    7.37936   7.40516   7.43792   7.45308   7.47650
 Alpha virt. eigenvalues --    7.50317   7.55338   7.57117   7.61915   7.64147
 Alpha virt. eigenvalues --    7.70325   7.73023  23.09401  23.13385  23.15510
 Alpha virt. eigenvalues --   23.22019  23.43859  23.47701  44.08431  44.11709
 Alpha virt. eigenvalues --   44.22498  44.30559  44.35925  44.40363
          Condensed to atoms (all electrons):
               1          2          3          4          5          6
     1  C    4.970742   0.188102   0.324495   0.006764  -0.032571   0.406329
     2  C    0.188102   5.059542  -0.010288   0.255465   0.423857  -0.032418
     3  C    0.324495  -0.010288   4.849799   0.001877  -0.007563  -0.013586
     4  C    0.006764   0.255465   0.001877   4.880605  -0.030984  -0.015043
     5  H   -0.032571   0.423857  -0.007563  -0.030984   0.532482   0.008215
     6  H    0.406329  -0.032418  -0.013586  -0.015043   0.008215   0.571277
     7  C   -0.026924   0.008751   0.293109   0.000558  -0.004303  -0.006537
     8  H   -0.057134   0.008824   0.430496   0.000258  -0.000661  -0.005012
     9  C    0.020027  -0.051121   0.000349   0.360774  -0.003965   0.004495
    10  H    0.010386  -0.044590   0.000586   0.428777  -0.005985  -0.000500
    11  H    0.000841  -0.002613  -0.036833  -0.000309  -0.000847   0.000235
    12  H    0.007602   0.001608  -0.049840   0.000055   0.000705  -0.000609
    13  H    0.018194  -0.013630   0.001892  -0.013137  -0.000484  -0.006019
    14  H   -0.012748   0.014374  -0.001038  -0.046603   0.001637   0.000340
    15  O   -0.031528   0.017967  -0.031457   0.002119   0.017168  -0.000812
    16  H   -0.005068   0.000762   0.001099  -0.000166  -0.002829  -0.000258
    17  O   -0.018405  -0.014836   0.250003   0.001566   0.000547   0.004214
    18  H   -0.004770  -0.005041  -0.031924   0.000087  -0.000431  -0.000147
    19  O    0.224907  -0.038472  -0.031239  -0.018459   0.004103  -0.019283
    20  H   -0.050301   0.013148  -0.015117  -0.006641   0.000464   0.007584
    21  O   -0.034916   0.219691  -0.020251  -0.036335  -0.014896   0.004207
    22  H    0.011678  -0.055559  -0.001601  -0.016448   0.005263   0.000206
    23  O   -0.012607  -0.018048   0.000523   0.211575   0.003461   0.000815
    24  H   -0.008412  -0.000240   0.000055  -0.036749  -0.000124  -0.000458
    25  O   -0.001593   0.010356  -0.000048  -0.034167  -0.000114  -0.000176
    26  H   -0.001152   0.003405  -0.000027  -0.019822  -0.000025  -0.000058
               7          8          9         10         11         12
     1  C   -0.026924  -0.057134   0.020027   0.010386   0.000841   0.007602
     2  C    0.008751   0.008824  -0.051121  -0.044590  -0.002613   0.001608
     3  C    0.293109   0.430496   0.000349   0.000586  -0.036833  -0.049840
     4  C    0.000558   0.000258   0.360774   0.428777  -0.000309   0.000055
     5  H   -0.004303  -0.000661  -0.003965  -0.005985  -0.000847   0.000705
     6  H   -0.006537  -0.005012   0.004495  -0.000500   0.000235  -0.000609
     7  C    4.743594  -0.021467  -0.000505   0.000133   0.398971   0.439172
     8  H   -0.021467   0.574711   0.000002   0.000019   0.003415  -0.003095
     9  C   -0.000505   0.000002   4.667891  -0.032281  -0.000122   0.000006
    10  H    0.000133   0.000019  -0.032281   0.559852  -0.000004  -0.000001
    11  H    0.398971   0.003415  -0.000122  -0.000004   0.613020  -0.029007
    12  H    0.439172  -0.003095   0.000006  -0.000001  -0.029007   0.582000
    13  H    0.000103   0.000028   0.390367   0.008066   0.000000   0.000002
    14  H    0.000161  -0.000005   0.411846  -0.005914   0.000040  -0.000003
    15  O    0.249230   0.004442   0.000183  -0.000022  -0.032036  -0.037711
    16  H   -0.037417   0.000731  -0.000013   0.000001   0.010419  -0.009548
    17  O   -0.042777  -0.033383   0.000129  -0.000012   0.004332   0.001530
    18  H   -0.006706   0.006136  -0.000088   0.000008  -0.000026   0.000064
    19  O    0.003439   0.004222  -0.005576  -0.001573   0.000078  -0.000243
    20  H    0.002262  -0.004313   0.000746  -0.000032  -0.000164  -0.000153
    21  O   -0.001678  -0.001465   0.002932   0.001894   0.000193  -0.000018
    22  H   -0.000143   0.000094   0.002070  -0.002317   0.000009  -0.000004
    23  O    0.000080   0.000032  -0.035691  -0.037071   0.000001  -0.000001
    24  H   -0.000070   0.000041   0.002907   0.005567   0.000009   0.000004
    25  O    0.000004  -0.000000   0.287044   0.009761  -0.000000   0.000000
    26  H    0.000001  -0.000000  -0.039556  -0.002484  -0.000000   0.000000
              13         14         15         16         17         18
     1  C    0.018194  -0.012748  -0.031528  -0.005068  -0.018405  -0.004770
     2  C   -0.013630   0.014374   0.017967   0.000762  -0.014836  -0.005041
     3  C    0.001892  -0.001038  -0.031457   0.001099   0.250003  -0.031924
     4  C   -0.013137  -0.046603   0.002119  -0.000166   0.001566   0.000087
     5  H   -0.000484   0.001637   0.017168  -0.002829   0.000547  -0.000431
     6  H   -0.006019   0.000340  -0.000812  -0.000258   0.004214  -0.000147
     7  C    0.000103   0.000161   0.249230  -0.037417  -0.042777  -0.006706
     8  H    0.000028  -0.000005   0.004442   0.000731  -0.033383   0.006136
     9  C    0.390367   0.411846   0.000183  -0.000013   0.000129  -0.000088
    10  H    0.008066  -0.005914  -0.000022   0.000001  -0.000012   0.000008
    11  H    0.000000   0.000040  -0.032036   0.010419   0.004332  -0.000026
    12  H    0.000002  -0.000003  -0.037711  -0.009548   0.001530   0.000064
    13  H    0.638094  -0.041549  -0.000013   0.000001  -0.000034   0.000014
    14  H   -0.041549   0.622305  -0.000045   0.000001   0.000004   0.000004
    15  O   -0.000013  -0.000045   7.887875   0.318183  -0.004007   0.001201
    16  H    0.000001   0.000001   0.318183   0.520566   0.011571   0.002630
    17  O   -0.000034   0.000004  -0.004007   0.011571   7.943028   0.337887
    18  H    0.000014   0.000004   0.001201   0.002630   0.337887   0.437145
    19  O    0.001717   0.000421  -0.000004   0.000064  -0.013284   0.000418
    20  H   -0.000384   0.000006  -0.000090  -0.000138   0.030833  -0.001835
    21  O   -0.000078  -0.000217  -0.002521   0.001679  -0.031483   0.047346
    22  H   -0.000011  -0.000256   0.000014  -0.000020   0.001269  -0.001978
    23  O   -0.005380   0.005635  -0.000015   0.000002  -0.000045  -0.000345
    24  H    0.000069   0.000759   0.000018   0.000005  -0.000364   0.000099
    25  O   -0.047739  -0.032065   0.000000   0.000000   0.000000   0.000001
    26  H   -0.005593   0.010332   0.000000  -0.000000   0.000000   0.000001
              19         20         21         22         23         24
     1  C    0.224907  -0.050301  -0.034916   0.011678  -0.012607  -0.008412
     2  C   -0.038472   0.013148   0.219691  -0.055559  -0.018048  -0.000240
     3  C   -0.031239  -0.015117  -0.020251  -0.001601   0.000523   0.000055
     4  C   -0.018459  -0.006641  -0.036335  -0.016448   0.211575  -0.036749
     5  H    0.004103   0.000464  -0.014896   0.005263   0.003461  -0.000124
     6  H   -0.019283   0.007584   0.004207   0.000206   0.000815  -0.000458
     7  C    0.003439   0.002262  -0.001678  -0.000143   0.000080  -0.000070
     8  H    0.004222  -0.004313  -0.001465   0.000094   0.000032   0.000041
     9  C   -0.005576   0.000746   0.002932   0.002070  -0.035691   0.002907
    10  H   -0.001573  -0.000032   0.001894  -0.002317  -0.037071   0.005567
    11  H    0.000078  -0.000164   0.000193   0.000009   0.000001   0.000009
    12  H   -0.000243  -0.000153  -0.000018  -0.000004  -0.000001   0.000004
    13  H    0.001717  -0.000384  -0.000078  -0.000011  -0.005380   0.000069
    14  H    0.000421   0.000006  -0.000217  -0.000256   0.005635   0.000759
    15  O   -0.000004  -0.000090  -0.002521   0.000014  -0.000015   0.000018
    16  H    0.000064  -0.000138   0.001679  -0.000020   0.000002   0.000005
    17  O   -0.013284   0.030833  -0.031483   0.001269  -0.000045  -0.000364
    18  H    0.000418  -0.001835   0.047346  -0.001978  -0.000345   0.000099
    19  O    7.933662   0.329561   0.004319   0.002108  -0.027796   0.042167
    20  H    0.329561   0.484173   0.004331   0.000005   0.001827  -0.002127
    21  O    0.004319   0.004331   7.941536   0.335063  -0.015802   0.000940
    22  H    0.002108   0.000005   0.335063   0.472981   0.037101  -0.002515
    23  O   -0.027796   0.001827  -0.015802   0.037101   7.992191   0.325041
    24  H    0.042167  -0.002127   0.000940  -0.002515   0.325041   0.444405
    25  O    0.000046   0.000001  -0.000144  -0.000091  -0.010229   0.000154
    26  H    0.000131  -0.000005  -0.000035  -0.000169   0.022631   0.000401
              25         26
     1  C   -0.001593  -0.001152
     2  C    0.010356   0.003405
     3  C   -0.000048  -0.000027
     4  C   -0.034167  -0.019822
     5  H   -0.000114  -0.000025
     6  H   -0.000176  -0.000058
     7  C    0.000004   0.000001
     8  H   -0.000000  -0.000000
     9  C    0.287044  -0.039556
    10  H    0.009761  -0.002484
    11  H   -0.000000  -0.000000
    12  H    0.000000   0.000000
    13  H   -0.047739  -0.005593
    14  H   -0.032065   0.010332
    15  O    0.000000   0.000000
    16  H    0.000000  -0.000000
    17  O    0.000000   0.000000
    18  H    0.000001   0.000001
    19  O    0.000046   0.000131
    20  H    0.000001  -0.000005
    21  O   -0.000144  -0.000035
    22  H   -0.000091  -0.000169
    23  O   -0.010229   0.022631
    24  H    0.000154   0.000401
    25  O    7.863510   0.318371
    26  H    0.318371   0.516514
 Mulliken charges:
               1
     1  C    0.108063
     2  C    0.061006
     3  C    0.096528
     4  C    0.124383
     5  H    0.107881
     6  H    0.093000
     7  C    0.008958
     8  H    0.093084
     9  C    0.017149
    10  H    0.107734
    11  H    0.070398
    12  H    0.097484
    13  H    0.075505
    14  H    0.072577
    15  O   -0.358138
    16  H    0.187743
    17  O   -0.428283
    18  H    0.220249
    19  O   -0.395434
    20  H    0.206360
    21  O   -0.404292
    22  H    0.213251
    23  O   -0.437885
    24  H    0.228421
    25  O   -0.362882
    26  H    0.197140
 Sum of Mulliken charges =  -0.00000
 Mulliken charges with hydrogens summed into heavy atoms:
               1
     1  C    0.201063
     2  C    0.168886
     3  C    0.189612
     4  C    0.232117
     7  C    0.176840
     9  C    0.165230
    15  O   -0.170395
    17  O   -0.208033
    19  O   -0.189074
    21  O   -0.191041
    23  O   -0.209464
    25  O   -0.165742
 Electronic spatial extent (au):  <R**2>=           2408.1769
 Charge=              0.0000 electrons
 Dipole moment (field-independent basis, Debye):
    X=              1.7577    Y=             -0.3630    Z=             -0.8045  Tot=              1.9668
 Quadrupole moment (field-independent basis, Debye-Ang):
   XX=            -83.0855   YY=            -75.2936   ZZ=            -70.5842
   XY=              4.3169   XZ=             -2.9137   YZ=             -2.5837
 Traceless Quadrupole moment (field-independent basis, Debye-Ang):
   XX=             -6.7644   YY=              1.0275   ZZ=              5.7369
   XY=              4.3169   XZ=             -2.9137   YZ=             -2.5837
 Octapole moment (field-independent basis, Debye-Ang**2):
  XXX=             44.4689  YYY=            -21.5295  ZZZ=              9.6726  XYY=             -5.4732
  XXY=            -18.5690  XXZ=              4.5690  XZZ=              7.1890  YZZ=             -1.5091
  YYZ=             -1.8951  XYZ=             -7.4064
 Hexadecapole moment (field-independent basis, Debye-Ang**3):
 XXXX=          -2156.0393 YYYY=           -503.2810 ZZZZ=           -376.9649 XXXY=            149.3540
 XXXZ=             -8.4601 YYYX=            -15.3613 YYYZ=             -8.9540 ZZZX=              9.5331
 ZZZY=             -7.8261 XXYY=           -501.5252 XXZZ=           -373.2811 YYZZ=           -146.2904
 XXYZ=             12.5205 YYXZ=             -7.5214 ZZXY=             -0.1501
 N-N= 8.428927822826D+02 E-N=-3.302471349618D+03  KE= 6.850791414990D+02
   1 Symmetry operations used in ECPInt.
 ECPInt:  NShTT=   23436 NPrTT=   62434 LenC2=   22018 LenP2D=   45985.
 LDataN:  DoStor=T MaxTD1= 7 Len=  274
 Calling FoFJK, ICntrl=      2127 FMM=F ISym2X=0 I1Cent= 0 IOpClX= 0 NMat=1 NMatS=1 NMatT=0.
 ***** Axes restored to original set *****
 -------------------------------------------------------------------
 Center     Atomic                   Forces (Hartrees/Bohr)
 Number     Number              X              Y              Z
 -------------------------------------------------------------------
      1        6          -0.000250373   -0.011029071   -0.003551398
      2        6           0.003141816   -0.004262414   -0.004639464
      3        6           0.007940171   -0.001702775   -0.008609530
      4        6          -0.017072982   -0.009019269   -0.002385065
      5        1          -0.002542041   -0.002151612   -0.002345319
      6        1           0.000934692   -0.001347418   -0.001952891
      7        6           0.007854472   -0.000143018   -0.005223453
      8        1           0.003043473    0.000111667    0.002343450
      9        6           0.010788793   -0.011624268    0.008449791
     10        1          -0.004111704    0.002692241    0.000553692
     11        1           0.003149544   -0.000866118   -0.001236750
     12        1          -0.005870427   -0.004106323    0.003712985
     13        1          -0.003226437    0.003411470   -0.007032338
     14        1           0.000843454   -0.002326003    0.000656888
     15        8          -0.000397231   -0.006852819   -0.010181099
     16        1          -0.002463023    0.008620306    0.015272156
     17        8           0.005308049    0.004711025    0.009505432
     18        1          -0.015365170   -0.001183950    0.000623900
     19        8          -0.007050542    0.006560960   -0.017907608
     20        1           0.002514916    0.005017759    0.017710756
     21        8           0.009967742   -0.009246369    0.017768574
     22        1          -0.006770251    0.015980054   -0.005908965
     23        8          -0.004480936    0.007545894    0.001588454
     24        1           0.015794900    0.002505730   -0.000845797
     25        8          -0.000049482   -0.007593856   -0.011269631
     26        1          -0.001631421    0.016298175    0.004903231
 -------------------------------------------------------------------
 Cartesian Forces:  Max     0.017907608 RMS     0.007665599

 GradGradGradGradGradGradGradGradGradGradGradGradGradGradGradGradGradGrad
 Berny optimization.
 FormGI is forming the generalized inverse of G from B-inverse, IUseBI=4.
 Internal  Forces:  Max     0.018555903 RMS     0.005373579
 Search for a local minimum.
 Step number   1 out of a maximum of  140
 All quantities printed in internal units (Hartrees-Bohrs-Radians)
 Mixed Optimization -- RFO/linear search
 Second derivative matrix not updated -- first step.
 ITU=  0
     Eigenvalues ---    0.00230   0.00230   0.00230   0.00368   0.00383
     Eigenvalues ---    0.01068   0.01069   0.01125   0.01196   0.01327
     Eigenvalues ---    0.01406   0.03782   0.03808   0.03877   0.03957
     Eigenvalues ---    0.04656   0.04656   0.04735   0.04761   0.04891
     Eigenvalues ---    0.05172   0.05547   0.05692   0.07576   0.07688
     Eigenvalues ---    0.07745   0.07809   0.11527   0.11701   0.13732
     Eigenvalues ---    0.13930   0.16000   0.16000   0.16000   0.16000
     Eigenvalues ---    0.16000   0.16000   0.16940   0.17176   0.17265
     Eigenvalues ---    0.17570   0.19465   0.19522   0.19847   0.20111
     Eigenvalues ---    0.22024   0.22049   0.27771   0.27848   0.28108
     Eigenvalues ---    0.29416   0.29522   0.34049   0.34092   0.34222
     Eigenvalues ---    0.34250   0.34332   0.34374   0.34400   0.34438
     Eigenvalues ---    0.38622   0.38625   0.39201   0.39937   0.41335
     Eigenvalues ---    0.42222   0.50500   0.50570   0.50965   0.51008
     Eigenvalues ---    0.51827   0.52181
 RFO step:  Lambda=-1.97506948D-02 EMin= 2.30000000D-03
 Linear search not attempted -- first point.
 Iteration  1 RMS(Cart)=  0.13768305 RMS(Int)=  0.00763056
 Iteration  2 RMS(Cart)=  0.01029662 RMS(Int)=  0.00054770
 Iteration  3 RMS(Cart)=  0.00003902 RMS(Int)=  0.00054715
 Iteration  4 RMS(Cart)=  0.00000001 RMS(Int)=  0.00054715
 Variable       Old X    -DE/DX   Delta X   Delta X   Delta X     New X
                                 (Linear)    (Quad)   (Total)
    R1        2.92473   0.00065   0.00000   0.00219   0.00219   2.92692
    R2        2.92642  -0.00697   0.00000  -0.02344  -0.02344   2.90298
    R3        2.06910  -0.00254   0.00000  -0.00702  -0.00702   2.06208
    R4        2.73470  -0.00963   0.00000  -0.02371  -0.02371   2.71099
    R5        2.91904  -0.00636   0.00000  -0.02114  -0.02114   2.89789
    R6        2.06598  -0.00290   0.00000  -0.00795  -0.00795   2.05802
    R7        2.73465  -0.01194   0.00000  -0.02940  -0.02940   2.70525
    R8        2.89144  -0.00321   0.00000  -0.01024  -0.01024   2.88120
    R9        2.07247  -0.00284   0.00000  -0.00788  -0.00788   2.06459
   R10        2.71640  -0.01287   0.00000  -0.03071  -0.03071   2.68569
   R11        2.88927  -0.00646   0.00000  -0.02051  -0.02051   2.86877
   R12        2.07175  -0.00395   0.00000  -0.01095  -0.01095   2.06080
   R13        2.72653  -0.01210   0.00000  -0.02939  -0.02939   2.69714
   R14        2.06773  -0.00227   0.00000  -0.00625  -0.00625   2.06147
   R15        2.06956  -0.00108   0.00000  -0.00298  -0.00298   2.06659
   R16        2.68642  -0.00344   0.00000  -0.00779  -0.00779   2.67862
   R17        2.06703   0.00132   0.00000   0.00363   0.00363   2.07067
   R18        2.06661  -0.00208   0.00000  -0.00572  -0.00572   2.06089
   R19        2.69779  -0.00957   0.00000  -0.02209  -0.02209   2.67570
   R20        1.84426  -0.01766   0.00000  -0.03261  -0.03261   1.81165
   R21        1.86064  -0.01489   0.00000  -0.02837  -0.02837   1.83227
   R22        1.85562  -0.01856   0.00000  -0.03502  -0.03502   1.82059
   R23        1.85604  -0.01817   0.00000  -0.03432  -0.03432   1.82172
   R24        1.85995  -0.01578   0.00000  -0.03003  -0.03003   1.82992
   R25        1.84765  -0.01707   0.00000  -0.03173  -0.03173   1.81592
    A1        2.01737   0.00216   0.00000   0.02182   0.01997   2.03734
    A2        1.91745  -0.00508   0.00000  -0.04993  -0.04939   1.86805
    A3        1.88104   0.00952   0.00000   0.07842   0.07778   1.95882
    A4        1.90087  -0.00009   0.00000  -0.03153  -0.03188   1.86899
    A5        1.87386  -0.00540   0.00000  -0.00156  -0.00438   1.86948
    A6        1.86708  -0.00124   0.00000  -0.01739  -0.01643   1.85065
    A7        1.99338   0.00061   0.00000   0.01330   0.01212   2.00549
    A8        1.92315  -0.00515   0.00000  -0.04921  -0.04874   1.87441
    A9        1.89042   0.00908   0.00000   0.06875   0.06856   1.95899
   A10        1.89198   0.00178   0.00000  -0.01019  -0.01050   1.88147
   A11        1.88047  -0.00481   0.00000  -0.00383  -0.00559   1.87487
   A12        1.88097  -0.00166   0.00000  -0.01968  -0.01881   1.86215
   A13        2.00624  -0.00248   0.00000  -0.00143  -0.00236   2.00389
   A14        1.88332  -0.00150   0.00000  -0.03071  -0.03070   1.85262
   A15        1.91986   0.00232   0.00000   0.02570   0.02516   1.94502
   A16        1.88576   0.00074   0.00000  -0.00725  -0.00735   1.87842
   A17        1.91836   0.00305   0.00000   0.03281   0.03232   1.95068
   A18        1.84247  -0.00230   0.00000  -0.02346  -0.02307   1.81941
   A19        1.99653  -0.00242   0.00000  -0.00088  -0.00198   1.99455
   A20        1.90414  -0.00077   0.00000  -0.02231  -0.02232   1.88182
   A21        1.91412   0.00366   0.00000   0.03616   0.03565   1.94977
   A22        1.91160  -0.00014   0.00000  -0.01909  -0.01918   1.89242
   A23        1.90126   0.00214   0.00000   0.02851   0.02786   1.92912
   A24        1.82871  -0.00248   0.00000  -0.02451  -0.02395   1.80476
   A25        1.93337  -0.00048   0.00000  -0.01158  -0.01173   1.92164
   A26        1.92353  -0.00704   0.00000  -0.03550  -0.03638   1.88714
   A27        1.95338   0.00667   0.00000   0.03137   0.03132   1.98471
   A28        1.88949   0.00133   0.00000  -0.00381  -0.00417   1.88532
   A29        1.89116  -0.00493   0.00000  -0.03234  -0.03200   1.85916
   A30        1.87063   0.00449   0.00000   0.05287   0.05312   1.92375
   A31        1.94967  -0.00586   0.00000  -0.03194  -0.03268   1.91699
   A32        1.94475  -0.00021   0.00000  -0.01182  -0.01210   1.93265
   A33        1.90902   0.00345   0.00000   0.01901   0.01900   1.92802
   A34        1.90605   0.00073   0.00000  -0.00736  -0.00787   1.89818
   A35        1.86221   0.00532   0.00000   0.05694   0.05720   1.91940
   A36        1.88939  -0.00314   0.00000  -0.02174  -0.02155   1.86784
   A37        1.85810   0.00229   0.00000   0.01273   0.01273   1.87084
   A38        1.85863   0.00001   0.00000   0.00007   0.00007   1.85871
   A39        1.83929   0.00115   0.00000   0.00642   0.00642   1.84571
   A40        1.84212   0.00129   0.00000   0.00715   0.00715   1.84928
   A41        1.85122  -0.00215   0.00000  -0.01199  -0.01199   1.83924
   A42        1.84979  -0.00087   0.00000  -0.00486  -0.00486   1.84492
    D1       -3.03102  -0.00209   0.00000  -0.08057  -0.08158  -3.11261
    D2        1.11788  -0.00093   0.00000  -0.03915  -0.04017   1.07771
    D3       -0.93571  -0.00136   0.00000  -0.02801  -0.02788  -0.96360
    D4        1.09293   0.00055   0.00000  -0.01397  -0.01481   1.07812
    D5       -1.04135   0.00171   0.00000   0.02744   0.02661  -1.01474
    D6       -3.09494   0.00128   0.00000   0.03859   0.03889  -3.05605
    D7       -0.93548  -0.00059   0.00000  -0.01050  -0.00979  -0.94527
    D8       -3.06976   0.00057   0.00000   0.03091   0.03163  -3.03813
    D9        1.15984   0.00014   0.00000   0.04206   0.04391   1.20375
   D10       -1.13487   0.00493   0.00000   0.11872   0.11858  -1.01629
   D11        3.04305   0.00670   0.00000   0.15142   0.15107  -3.08907
   D12        1.04133   0.00903   0.00000   0.18267   0.18253   1.22387
   D13        1.03301  -0.00031   0.00000   0.04272   0.04264   1.07566
   D14       -1.07225   0.00145   0.00000   0.07542   0.07513  -0.99712
   D15       -3.07396   0.00379   0.00000   0.10666   0.10660  -2.96737
   D16        3.04885  -0.00467   0.00000   0.00541   0.00583   3.05469
   D17        0.94359  -0.00291   0.00000   0.03811   0.03832   0.98191
   D18       -1.05812  -0.00057   0.00000   0.06935   0.06978  -0.98834
   D19       -1.60316  -0.00186   0.00000  -0.02024  -0.02056  -1.62372
   D20        0.58077   0.00325   0.00000   0.05296   0.05340   0.63417
   D21        2.61891  -0.00019   0.00000   0.00681   0.00669   2.62560
   D22       -0.97043   0.00417   0.00000   0.09880   0.09865  -0.87178
   D23       -3.11810   0.00665   0.00000   0.14145   0.14119  -2.97690
   D24        1.17136   0.00805   0.00000   0.16334   0.16335   1.33472
   D25        1.18081  -0.00074   0.00000   0.03648   0.03636   1.21717
   D26       -0.96686   0.00174   0.00000   0.07913   0.07891  -0.88795
   D27       -2.96058   0.00314   0.00000   0.10101   0.10107  -2.85951
   D28       -3.07131  -0.00431   0.00000   0.00598   0.00619  -3.06512
   D29        1.06421  -0.00183   0.00000   0.04864   0.04873   1.11295
   D30       -0.92952  -0.00043   0.00000   0.07052   0.07090  -0.85862
   D31       -1.76605  -0.00038   0.00000   0.01697   0.01672  -1.74933
   D32        0.39849   0.00293   0.00000   0.07270   0.07299   0.47148
   D33        2.43674   0.00165   0.00000   0.04852   0.04848   2.48522
   D34       -0.94383   0.00222   0.00000   0.04847   0.04875  -0.89508
   D35       -3.03448   0.00543   0.00000   0.08364   0.08335  -2.95113
   D36        1.16880   0.00016   0.00000   0.02057   0.02077   1.18957
   D37        1.16008  -0.00078   0.00000   0.00286   0.00309   1.16318
   D38       -0.93056   0.00243   0.00000   0.03803   0.03769  -0.89287
   D39       -3.01047  -0.00284   0.00000  -0.02504  -0.02489  -3.03536
   D40       -3.12083  -0.00149   0.00000  -0.01171  -0.01157  -3.13240
   D41        1.07171   0.00171   0.00000   0.02345   0.02302   1.09474
   D42       -1.00820  -0.00355   0.00000  -0.03961  -0.03956  -1.04775
   D43       -0.76118   0.00152   0.00000   0.04967   0.04918  -0.71199
   D44        1.46478   0.00227   0.00000   0.09093   0.09151   1.55630
   D45       -2.78873   0.00339   0.00000   0.08580   0.08571  -2.70301
   D46        1.17063  -0.00076   0.00000  -0.01414  -0.01384   1.15680
   D47       -0.96660   0.00266   0.00000   0.02685   0.02662  -0.93998
   D48       -3.05492   0.00445   0.00000   0.04893   0.04880  -3.00612
   D49       -2.96892  -0.00360   0.00000  -0.05866  -0.05825  -3.02717
   D50        1.17703  -0.00019   0.00000  -0.01767  -0.01779   1.15924
   D51       -0.91129   0.00161   0.00000   0.00441   0.00439  -0.90690
   D52       -0.97812  -0.00547   0.00000  -0.08253  -0.08228  -1.06040
   D53       -3.11536  -0.00205   0.00000  -0.04154  -0.04182   3.12601
   D54        1.07952  -0.00026   0.00000  -0.01946  -0.01964   1.05987
   D55       -0.93127   0.00102   0.00000   0.02638   0.02576  -0.90551
   D56        1.26601   0.00195   0.00000   0.06961   0.07022   1.33624
   D57       -2.97294   0.00150   0.00000   0.04821   0.04822  -2.92473
   D58        1.10856  -0.00048   0.00000   0.01493   0.01572   1.12428
   D59       -3.03773  -0.00014   0.00000  -0.00152  -0.00134  -3.03907
   D60       -1.00228   0.00125   0.00000   0.00527   0.00430  -0.99798
   D61       -0.74426   0.00011   0.00000  -0.02275  -0.02331  -0.76756
   D62        1.36737  -0.00184   0.00000  -0.01677  -0.01609   1.35128
   D63       -2.86633   0.00021   0.00000  -0.00642  -0.00655  -2.87287
         Item               Value     Threshold  Converged?
 Maximum Force            0.018556     0.000450     NO 
 RMS     Force            0.005374     0.000300     NO 
 Maximum Displacement     0.527479     0.001800     NO 
 RMS     Displacement     0.137956     0.001200     NO 
 Predicted change in Energy=-1.295727D-02
 GradGradGradGradGradGradGradGradGradGradGradGradGradGradGradGradGradGrad

                          Input orientation:                          
 ---------------------------------------------------------------------
 Center     Atomic      Atomic             Coordinates (Angstroms)
 Number     Number       Type             X           Y           Z
 ---------------------------------------------------------------------
      1          6           0        0.003121   -0.024662   -0.023266
      2          6           0        1.551827   -0.022175   -0.001700
      3          6           0       -0.672177    0.642388   -1.231115
      4          6           0        2.182086   -0.733405    1.201855
      5          1           0        1.875500    1.017469    0.018974
      6          1           0       -0.329779    0.511692    0.866809
      7          6           0       -0.308642    2.108485   -1.438503
      8          1           0       -1.747457    0.591382   -1.044545
      9          6           0        1.617902   -0.306399    2.544966
     10          1           0        3.251421   -0.519631    1.193440
     11          1           0       -0.452086    2.665111   -0.511347
     12          1           0       -0.985371    2.523711   -2.190543
     13          1           0        0.569935   -0.616625    2.623634
     14          1           0        1.672586    0.776717    2.659962
     15          8           0        1.039370    2.312209   -1.826541
     16          1           0        1.151190    1.904712   -2.687073
     17          8           0       -0.486395   -0.119401   -2.416437
     18          1           0        0.429483   -0.437155   -2.398776
     19          8           0       -0.539122   -1.348348    0.085775
     20          1           0       -0.670404   -1.652540   -0.818881
     21          8           0        2.111146   -0.603556   -1.184290
     22          1           0        2.361936   -1.502912   -0.944330
     23          8           0        2.127355   -2.152987    1.064430
     24          1           0        1.201230   -2.356490    0.867989
     25          8           0        2.370895   -0.873854    3.601292
     26          1           0        2.518446   -1.790238    3.352520
 ---------------------------------------------------------------------
                    Distance matrix (angstroms):
                    1          2          3          4          5
     1  C    0.000000
     2  C    1.548858   0.000000
     3  C    1.536191   2.626652   0.000000
     4  C    2.598293   1.533499   3.994868   0.000000
     5  H    2.143274   1.089060   2.862529   2.135126   0.000000
     6  H    1.091206   2.140038   2.129695   2.823471   2.416173
     7  C    2.578838   3.172611   1.524667   4.609941   2.843419
     8  H    2.118265   3.514151   1.092536   4.716215   3.799795
     9  C    3.046755   2.563329   4.517018   1.518086   2.863498
    10  H    3.503829   2.136455   4.756404   1.090527   2.373858
    11  H    2.771338   3.390710   2.158221   4.628589   2.900624
    12  H    3.488325   4.208318   2.134940   5.670093   3.916033
    13  H    2.770881   2.865286   4.241114   2.152702   3.340512
    14  H    3.260220   2.781592   4.544936   2.160124   2.659690
    15  O    3.128351   3.006993   2.464189   4.444407   2.404453
    16  H    3.483736   3.329360   2.652913   4.811047   2.938455
    17  O    2.444558   3.161449   1.421205   4.537602   3.578023
    18  H    2.448465   2.679149   1.934554   4.015461   3.170554
    19  O    1.434595   2.477591   2.390593   3.004790   3.381117
    20  H    1.933035   2.874750   2.331659   3.614538   3.783197
    21  O    2.475249   1.431559   3.049829   2.390728   2.032509
    22  H    2.932165   1.933238   3.726983   2.287050   2.741696
    23  O    3.197689   2.451168   4.573951   1.427267   3.347865
    24  H    2.768975   2.515612   4.112075   1.925603   3.543877
    25  O    4.411905   3.791804   5.908591   2.410948   4.081118
    26  H    4.565091   3.912952   6.091589   2.419792   4.405579
                    6          7          8          9         10
     6  H    0.000000
     7  C    2.804399   0.000000
     8  H    2.381058   2.127673   0.000000
     9  C    2.697953   5.040959   5.001625   0.000000
    10  H    3.741030   5.148608   5.588534   2.130839   0.000000
    11  H    2.559587   1.090884   2.502526   4.738752   5.173475
    12  H    3.718255   1.093590   2.372336   6.100131   6.218012
    13  H    2.273548   4.969817   4.503901   1.095749   3.040598
    14  H    2.700945   4.743025   5.045237   1.090576   2.514742
    15  O    3.517181   1.417466   3.367367   5.128537   4.693909
    16  H    4.094368   1.931725   3.581185   5.699217   5.034560
    17  O    3.347015   2.439554   1.994386   5.392454   5.211781
    18  H    3.484370   2.819083   2.762408   5.086259   4.568824
    19  O    2.028198   3.785002   2.549559   3.433079   4.035085
    20  H    2.764322   3.828852   2.499230   4.285314   4.551224
    21  O    3.377706   3.643509   4.041809   3.773452   2.638346
    22  H    3.818924   4.518670   4.613374   3.763033   2.515568
    23  O    3.630024   5.509890   5.195527   2.421036   1.986963
    24  H    3.251224   5.247439   4.587209   2.681183   2.771868
    25  O    4.085435   6.440016   6.378993   1.415920   2.588156
    26  H    4.426063   6.793112   6.572993   1.914393   2.610234
                   11         12         13         14         15
    11  H    0.000000
    12  H    1.767509   0.000000
    13  H    4.652142   5.954577   0.000000
    14  H    4.258809   5.800355   1.777235   0.000000
    15  O    2.019583   2.068043   5.348131   4.784079   0.000000
    16  H    2.807577   2.279165   5.907505   5.489537   0.958683
    17  O    3.374026   2.699267   5.173527   5.588743   2.930642
    18  H    3.736791   3.288145   5.027578   5.348796   2.873746
    19  O    4.058569   4.513713   2.864638   4.004247   4.421342
    20  H    4.334091   4.407009   3.802956   4.846983   4.433728
    21  O    4.207991   4.514505   4.108015   4.108012   3.172204
    22  H    5.047634   5.382490   4.089883   4.320050   4.133114
    23  O    5.687763   6.492720   2.686462   3.366853   5.429494
    24  H    5.463743   6.160535   2.551069   3.640100   5.392907
    25  O    6.116150   7.506885   2.065294   2.024383   6.433144
    26  H    6.603307   7.849359   2.388585   2.790049   6.770555
                   16         17         18         19         20
    16  H    0.000000
    17  O    2.617625   0.000000
    18  H    2.467451   0.969593   0.000000
    19  O    4.596547   2.788217   2.818060   0.000000
    20  H    4.411620   2.221837   2.276616   0.963416   0.000000
    21  O    3.077545   2.915443   2.081023   3.031781   2.995148
    22  H    4.014345   3.492018   2.643034   3.082392   3.038621
    23  O    5.611737   4.804539   4.221450   2.952169   3.409511
    24  H    5.549668   4.317418   3.866677   2.158016   2.616121
    25  O    6.982238   6.704205   6.321440   4.588268   5.421604
    26  H    7.211015   6.715775   6.266738   4.496178   5.252459
                   21         22         23         24         25
    21  O    0.000000
    22  H    0.964012   0.000000
    23  O    2.730886   2.124321   0.000000
    24  H    2.848258   2.315239   0.968354   0.000000
    25  O    4.800242   4.588951   2.851519   3.322239   0.000000
    26  H    4.707096   4.309289   2.349446   2.868553   0.960946
                   26
    26  H    0.000000
 Stoichiometry    C6H14O6
 Framework group  C1[X(C6H14O6)]
 Deg. of freedom    72
 Full point group                 C1      NOp   1
 Largest Abelian subgroup         C1      NOp   1
 Largest concise Abelian subgroup C1      NOp   1
                         Standard orientation:                         
 ---------------------------------------------------------------------
 Center     Atomic      Atomic             Coordinates (Angstroms)
 Number     Number       Type             X           Y           Z
 ---------------------------------------------------------------------
      1          6           0        0.454098   -0.234647   -0.766603
      2          6           0       -0.206532    0.283287    0.535040
      3          6           0        1.989744   -0.240446   -0.807113
      4          6           0       -1.739190    0.233573    0.545412
      5          1           0        0.093727    1.322487    0.661365
      6          1           0        0.114460    0.412581   -1.576833
      7          6           0        2.640804    1.120421   -0.586273
      8          1           0        2.266012   -0.580848   -1.807832
      9          6           0       -2.391999    0.849227   -0.679087
     10          1           0       -2.084630    0.772842    1.428083
     11          1           0        2.201503    1.859586   -1.257599
     12          1           0        3.703541    1.032503   -0.828758
     13          1           0       -2.153462    0.253038   -1.566962
     14          1           0       -2.036278    1.868299   -0.835004
     15          8           0        2.478314    1.623441    0.728937
     16          1           0        2.942307    1.027625    1.319519
     17          8           0        2.528582   -1.229347    0.059808
     18          1           0        1.995352   -1.205953    0.869271
     19          8           0        0.017819   -1.558148   -1.107287
     20          1           0        0.663089   -2.155626   -0.713820
     21          8           0        0.253022   -0.421252    1.693399
     22          1           0       -0.433597   -1.065045    1.901735
     23          8           0       -2.223083   -1.092339    0.757299
     24          1           0       -1.769118   -1.639541    0.099884
     25          8           0       -3.795675    0.921852   -0.508065
     26          1           0       -4.056275    0.075915   -0.134040
 ---------------------------------------------------------------------
 Rotational constants (GHZ):           1.5374822           0.5267017           0.5003524
 Standard basis: def2TZVPP (5D, 7F)
 There are   642 symmetry adapted cartesian basis functions of A   symmetry.
 There are   568 symmetry adapted basis functions of A   symmetry.
   568 basis functions,   850 primitive gaussians,   642 cartesian basis functions
    49 alpha electrons       49 beta electrons
       nuclear repulsion energy       839.8638459128 Hartrees.
 NAtoms=   26 NActive=   26 NUniq=   26 SFac= 1.00D+00 NAtFMM=   60 NAOKFM=F Big=F
 Integral buffers will be    131072 words long.
 Raffenetti 2 integral format.
 Two-electron integral symmetry is turned on.
 Nuclear repulsion after empirical dispersion term =      839.8439833781 Hartrees.
 One-electron integrals computed using PRISM.
   1 Symmetry operations used in ECPInt.
 ECPInt:  NShTT=   23436 NPrTT=   62434 LenC2=   22020 LenP2D=   45943.
 LDataN:  DoStor=T MaxTD1= 6 Len=  172
[...]
 24,-0.00010326,0.00344379,0.00030466,-0.00082762,-0.00189141,0.0007970
 6,-0.00125349,0.11928524,-0.04327616,-0.19109282,0.03203577,-0.0116005
 3,-0.02353805,-0.00212928,-0.01178797,-0.04528711,0.00459741,0.0009019
 1,-0.00698904,0.00144695,-0.00359146,0.00169706,-0.00029664,-0.0108547
 3,-0.02963862,0.00098041,0.00620967,0.00245499,0.00642345,-0.00065310,
 0.00125389,-0.00191704,-0.00002608,-0.00019722,0.00054788,-0.00008913,
 0.00117432,-0.00038254,-0.00007082,0.00112034,-0.00030673,-0.00046060,
 -0.00283499,0.00083264,0.00005286,-0.00033416,-0.00005710,0.00017605,0
 .00057339,0.00047152,-0.00237974,-0.00057995,0.00114845,0.00019534,-0.
 00019803,-0.00047336,0.00019884,0.00581176,-0.00185181,-0.00044211,-0.
 00147389,0.00075804,0.11702155,0.36177047,-0.00923590,-0.01559321,-0.0
 9662380,0.00306180,-0.00198752,0.00115042,0.01024822,0.03100673,-0.007
 23555,0.00154892,0.00189378,-0.00029674,-0.00060659,0.00035670,0.00116
 188,-0.01245668,-0.02792641,0.00657825,-0.00446197,-0.00051195,-0.0045
 5032,0.00113573,-0.00054330,0.00131579,0.00142714,-0.00081331,-0.00012
 382,0.00000695,-0.00034409,0.00016115,0.00001752,0.00048004,0.00042792
 ,0.00025014,0.00182253,-0.00004310,-0.00080173,-0.00022079,-0.00007011
 ,-0.00026805,-0.00002623,0.00001562,0.00144371,0.00027355,0.00023534,-
 0.00040707,-0.00035731,0.00019780,0.00202633,0.00838172,-0.00117213,-0
 .00192648,-0.00021756,-0.00015330,0.09171371,0.11455551,0.55416626,-0.
 00461038,-0.00674889,-0.01234029,-0.00074101,-0.00406174,-0.00247315,0
 .00347188,0.00004196,-0.00067144,0.00015710,-0.00050836,0.00002433,-0.
 00066488,0.00021649,0.00042660,-0.00011297,0.00175932,0.00077864,-0.00
 013582,0.00045217,0.00009048,-0.00081394,0.00079386,0.00013034,0.00016
 095,0.00003419,-0.00009770,0.00001841,0.00010248,-0.00001719,0.0000430
 9,-0.00001459,-0.00000588,-0.00002892,0.00002381,-0.00004314,-0.000125
 31,-0.00003092,-0.00001323,-0.00003922,0.00000495,0.00004922,-0.000500
 14,-0.00014723,0.00005596,0.00008227,-0.00012757,0.00002792,-0.0027985
 6,0.00216418,-0.00062246,-0.00025076,-0.00227440,0.00195178,-0.0228416
 1,-0.04038535,-0.07546603,0.03089912,-0.00847125,-0.02215834,-0.039777
 24,-0.00043865,-0.00162437,-0.00055144,0.00031890,-0.00333951,-0.00249
 994,-0.00013000,0.00014804,-0.00003450,-0.00025174,0.00023261,0.000072
 03,-0.00291276,-0.00615728,0.00106767,-0.00059896,-0.00066095,-0.00072
 024,0.00066371,-0.00057553,0.00048231,-0.00031176,-0.00007294,-0.00005
 067,0.00004193,-0.00008952,0.00003456,0.00002453,0.00026938,0.00018777
 ,0.00004467,0.00032634,0.00000195,0.00015526,-0.00007679,-0.00010057,0
 .00010272,0.00004796,-0.00000182,0.00077054,0.00060104,-0.00005093,-0.
 00029159,-0.00028496,0.00014787,0.00124008,0.00345162,-0.00163295,-0.0
 0184093,-0.00006487,0.00078813,-0.03592355,-0.08505826,-0.11169153,0.0
 4661839,0.11365779,0.00149649,-0.00155738,0.00389365,-0.00019126,0.002
 24717,0.00066166,-0.00039645,0.00750470,0.00409675,-0.00016212,-0.0004
 3396,-0.00036897,0.00089126,-0.00000792,-0.00003226,-0.00059523,0.0014
 3326,0.00066748,-0.00012390,-0.00070419,-0.00154885,0.00037995,-0.0003
 5405,0.00002656,0.00008727,0.00002602,-0.00014617,0.00008144,0.0000476
 7,0.00007691,-0.00010935,-0.00058391,0.00002013,0.00001737,0.00047649,
 -0.00007765,-0.00002668,-0.00002048,0.00000965,-0.00004170,0.00002934,
 0.00002525,0.00012808,-0.00009410,-0.00035183,0.00030483,0.00044948,0.
 00007666,-0.00190607,-0.00548034,0.00061752,0.00303646,0.00120616,-0.0
 0047132,-0.09062919,-0.15661103,-0.45723929,0.08851921,0.15233141,0.45
 236746,-0.01420268,0.02100012,0.03987156,-0.08462780,0.02318605,0.0485
 8132,0.00400023,-0.00312411,-0.00289281,0.00473276,-0.00434016,-0.0062
 0998,0.00411504,0.00278288,-0.00016880,-0.00839824,-0.00005316,-0.0001
 9288,-0.00152555,-0.00046287,0.00074020,0.00023059,-0.00000134,0.00063
 421,-0.00046462,0.00192341,-0.00099394,0.00243970,-0.00107318,0.001165
 02,0.00022253,0.00006359,0.00004705,0.00016404,0.00007670,-0.00012484,
 0.00068618,0.00006859,-0.00083821,-0.00025692,-0.00012376,-0.00000537,
 0.00158296,0.00068571,-0.00049581,-0.00089967,-0.00030466,0.00013248,-
 0.01253653,0.00533842,-0.00824072,-0.00449457,-0.00113460,0.00455750,0
 .00303609,0.00036564,-0.00049229,0.00113343,0.00056459,-0.00022991,0.1
 3546160,0.00310378,-0.00696708,-0.01099973,0.03257556,-0.11237102,-0.0
 6032811,-0.00159035,-0.00019871,-0.00167582,-0.00260304,-0.00264813,0.
 00464195,0.01712381,-0.01420752,-0.03692171,0.00219781,0.00128695,0.00
 024086,-0.00093822,0.00003907,0.00014343,0.00010124,0.00006871,0.00021
 044,0.00131989,-0.00028703,0.00140724,-0.00050406,0.00025162,0.0001115
 6,-0.00005865,0.00029519,-0.00003533,0.00014047,-0.00002919,0.00019371
 ,-0.00003071,-0.00001884,-0.00017363,-0.00004535,0.00065888,0.00080656
 ,0.00102163,-0.00163577,0.00021154,-0.00023668,0.00053536,-0.00074008,
 0.00330088,0.00472999,0.00282692,0.00085799,-0.00661490,-0.00092230,0.
 00007641,0.00644494,0.00281757,0.00192784,0.00012091,-0.00029726,-0.16
 063302,0.58371143,0.01212024,-0.01085252,-0.01361337,0.03187370,-0.015
 13417,-0.17280769,0.00059933,-0.00213048,-0.00787324,0.01810113,-0.019
 13642,-0.05223682,0.00358852,-0.00689452,-0.00893721,0.00242529,-0.000
 03687,0.00119936,0.00074420,0.00032925,0.00027425,0.00002271,0.0002340
 3,0.00139838,-0.00581583,0.00739140,0.00202370,0.00071540,-0.00116875,
 0.00228046,-0.00006921,0.00062215,0.00023343,-0.00011300,-0.00035656,0
 .00020910,0.00078897,-0.00015283,-0.00045974,-0.00020925,-0.00020452,0
 .00055235,-0.00085768,0.00089351,0.00106890,0.00043550,-0.00106367,0.0
 0010656,-0.01375271,0.00602597,0.00262434,0.00643558,-0.00407685,0.001
 85990,-0.00054979,0.00163936,0.00376243,0.00096936,0.00066393,-0.00161
 415,-0.04764825,-0.04127248,0.31812700,-0.00091074,0.00420685,0.002285
 93,-0.00557542,0.01464250,-0.00041286,0.00016508,0.00011173,0.00030894
 ,0.00351188,0.00064539,-0.00051339,-0.00008578,-0.00145635,-0.00110824
 ,-0.00065805,-0.00046839,0.00000054,0.00009383,0.00000124,-0.00003352,
 0.00001842,-0.00001830,-0.00005934,-0.00030399,-0.00013663,-0.00003304
 ,-0.00063932,-0.00048035,-0.00050376,-0.00003019,-0.00002846,-0.000020
 63,0.00000747,-0.00002294,0.00003974,-0.00012669,0.00005066,0.00023456
 ,0.00001698,0.00003266,0.00000256,-0.00001259,-0.00011149,0.00009759,0
 .00000037,0.00012013,-0.00008656,-0.00102364,-0.00127633,-0.00045907,0
 .00016210,0.00258919,-0.00019349,0.00121812,-0.00171194,-0.00103219,-0
 .00170103,0.00018618,-0.00011352,-0.03306968,0.10362508,-0.01006499,0.
 04289417,0.00032063,0.00096388,0.00084254,0.00457520,-0.02158674,-0.00
 372400,0.00029547,-0.00056140,-0.00023040,0.00013665,0.00443925,0.0033
 2630,0.00208222,-0.00023253,-0.00215903,-0.00070522,0.00005685,0.00022
 430,0.00017113,-0.00012529,0.00003515,-0.00012879,0.00007425,-0.000022
 84,0.00005869,-0.00221483,-0.00075849,-0.00055185,-0.00021841,-0.00067
 077,-0.00000606,0.00003420,0.00003429,-0.00003200,0.00001052,-0.000024
 74,-0.00019285,0.00015398,0.00023374,0.00007307,-0.00009475,-0.0004475
 2,-0.00018635,0.00037194,-0.00005465,0.00007818,-0.00024549,0.00012750
 ,-0.00218672,0.00033361,-0.00041949,0.00249531,-0.00019715,0.00165868,
 0.00000696,-0.00117017,0.00035938,-0.00006388,0.00048780,-0.00006195,0
 .11385980,-0.45609954,0.08571363,-0.11923567,0.47752910,0.00022549,-0.
 00209638,-0.00197387,0.00987134,-0.03891915,0.00418544,-0.00009652,0.0
 0018585,0.00013247,0.00013901,-0.00806032,-0.00524351,0.00219112,-0.00
 240429,-0.00552333,0.00078047,0.00016389,-0.00001592,0.00016036,-0.000
 02801,-0.00021610,0.00002081,-0.00002511,-0.00003896,0.00031712,0.0002
 0809,-0.00001421,-0.00028857,0.00027637,-0.00029495,-0.00004711,-0.000
 00786,0.00000414,-0.00003515,0.00002818,0.00001922,-0.00008675,-0.0000
 4230,0.00012627,-0.00000356,0.00038314,0.00048703,-0.00021876,0.000444
 15,0.00002677,0.00011972,-0.00022585,0.00027547,-0.00100062,-0.0009037
 1,-0.00069068,0.00053498,0.00261523,0.00051355,-0.00054828,0.00136377,
 -0.00044877,-0.00025276,0.00019878,0.00033795,-0.02379142,0.12856358,-
 0.07052920,0.01132558,-0.08372471,0.07376770,-0.00245138,-0.00645260,0
 .00180735,0.00601490,0.01446826,0.00454574,0.00102787,0.00071366,-0.00
 007389,-0.10148234,-0.03120158,-0.00773027,-0.00027403,0.00126637,-0.0
 0250376,0.00011249,0.00050499,-0.00001308,-0.00040727,-0.00024961,-0.0
 0023303,0.00031170,-0.00017132,0.00027422,0.00290472,0.01404303,0.0014
 2787,-0.00120276,-0.04215049,-0.00500398,0.00001421,-0.00004031,0.0000
 1737,0.00002562,0.00015198,-0.00005594,0.00271753,0.00072758,-0.002349
 90,0.00073536,0.00104862,0.00277924,0.00042435,0.00026967,-0.00027414,
 -0.00015372,-0.00002834,0.00003841,0.00047118,0.00053547,-0.00052867,-
 0.00071448,-0.00007991,-0.00005438,-0.01036164,0.00827490,-0.00679261,
 -0.00058806,0.00132496,0.00094784,0.00375353,-0.00191369,0.00129652,-0
 .00352423,0.00053048,-0.00175759,0.58018651,-0.00501526,-0.00354792,0.
 00031331,-0.00212554,-0.04538154,-0.00027381,0.00057178,0.00057216,-0.
 00103574,0.01071124,-0.21089417,-0.01493450,0.00351663,-0.00050926,0.0
 0500084,-0.00011872,0.00030874,0.00013463,-0.00098663,0.00017780,-0.00
 018737,0.00040685,-0.00001427,0.00032487,-0.00141017,-0.03955213,-0.00
 602823,-0.00606638,-0.02190175,-0.00307170,-0.00006483,0.00012473,-0.0
 0002968,0.00016402,-0.00000447,0.00009546,0.00074111,0.00196242,0.0012
 0760,0.00176191,-0.00016549,-0.00561069,0.00087981,-0.00092373,0.00109
 284,0.00004094,0.00005044,-0.00025702,0.00016789,0.00072347,0.00066488
 ,-0.00035839,-0.00038334,-0.00041685,0.00410754,0.00648035,0.00094440,
 0.00094435,-0.00095741,0.00038039,0.00092934,0.00210111,-0.00103308,-0
 .00071799,-0.00192717,0.00092898,0.08399342,0.36709527,0.00102929,-0.0
 0258697,0.00065669,0.00547266,0.02413857,-0.00423602,0.00062661,-0.000
 44612,-0.00043820,-0.00106026,-0.01975877,-0.06591663,-0.00235520,0.00
 218145,-0.00338655,-0.00071725,0.00055941,0.00010934,0.00064358,-0.000
 25788,-0.00019719,-0.00009497,-0.00002759,0.00004775,-0.00544923,-0.03
 872907,-0.00660775,-0.00118630,-0.00292033,0.00187968,-0.00001325,0.00
 005549,0.00009260,-0.00012303,0.00005151,-0.00004500,-0.00102910,0.001
 47853,0.00265034,0.00170640,-0.00232232,-0.00694507,-0.00062406,0.0010
 2655,-0.00044600,0.00008839,-0.00038706,0.00030805,-0.00108642,0.00068
 581,0.00004107,0.00127385,-0.00032052,0.00093370,-0.00720690,0.0038069
 5,0.00100358,0.00114463,-0.00025674,0.00051651,-0.00166409,0.01260754,
 -0.00006044,-0.00269035,-0.00272961,0.00614604,0.06539403,0.03826476,0
 .08660581,0.00467496,0.00692078,0.00071948,0.00209739,0.00040190,-0.00
 001948,-0.00080278,-0.00133615,-0.00031770,-0.00558390,-0.00595418,0.0
 0024676,-0.00091118,0.00029279,-0.00054449,-0.00017764,-0.00063753,-0.
 00014409,0.00084675,0.00028820,0.00042820,-0.00030320,0.00013252,-0.00
 023091,0.00295048,0.00181452,-0.00072192,0.00216474,0.00049291,0.00004
 935,-0.00000721,0.00003320,-0.00001232,-0.00008578,-0.00024539,0.00007
 892,-0.00070315,-0.00027155,0.00003143,-0.00024537,0.00046187,0.000950
 45,-0.00073665,-0.00003952,-0.00000844,0.00015632,0.00001255,-0.000008
 26,-0.00072095,-0.00057462,0.00069246,0.00099392,-0.00001256,0.0001283
 7,-0.00359098,-0.00549320,0.00155069,-0.00002022,-0.00103885,-0.001370
 64,-0.00160276,0.00175562,-0.00066483,-0.00033263,-0.00170106,0.002728
 21,-0.47792442,-0.09066347,-0.05512635,0.48091670,0.00143443,-0.004544
 13,0.00148589,-0.00088374,0.00000795,0.00162366,0.00010200,-0.00001411
 ,0.00032755,-0.04842943,-0.01678956,-0.00568318,0.00032491,0.00035967,
 -0.00049793,-0.00000872,0.00007621,0.00005448,-0.00010343,-0.00019426,
 -0.00007739,0.00002275,-0.00000674,-0.00001772,-0.00129585,0.00081617,
 -0.00064089,-0.00007709,-0.00743253,-0.00098801,0.00001598,-0.00003153
 ,0.00001715,-0.00000440,0.00009802,-0.00006370,0.00099948,-0.00001298,
 -0.00092375,0.00045336,0.00021981,0.00029051,0.00011522,0.00027777,-0.
 00019773,-0.00005003,-0.00009064,0.00009822,0.00004128,0.00021174,-0.0
 0062535,-0.00005411,0.00001096,0.00026883,-0.00381168,-0.00110965,-0.0
 0283035,-0.00071440,0.00178044,0.00006793,0.00051927,-0.00004569,-0.00
 006055,-0.00059449,0.00027534,0.00071095,-0.04374752,-0.05727011,-0.01
 013666,0.09503894,0.08349697,0.00106544,0.00415357,0.00023955,0.001610
 88,0.00138563,0.00193486,-0.00024345,-0.00028677,-0.00002997,-0.004832
 78,-0.00236578,-0.00015785,-0.00038475,-0.00028624,-0.00012406,0.00018
 612,-0.00066458,-0.00012812,0.00018678,0.00020366,0.00018214,-0.000049
 77,0.00003519,-0.00005810,-0.00301488,-0.00020199,0.00010669,0.0006322
 2,0.00057428,0.00072046,-0.00000835,-0.00001614,-0.00003449,-0.0000057
 9,-0.00010970,0.00005660,0.00104419,-0.00040595,-0.00022250,0.00067475
 ,0.00050395,0.00023592,-0.00017296,-0.00027835,0.00008018,0.00004620,0
 .00013501,-0.00008730,0.00004382,-0.00057695,0.00017836,0.00003855,0.0
 0030879,-0.00028545,0.00297276,-0.00544963,-0.00209134,-0.00227055,0.0
 0121682,-0.00156453,-0.00130982,-0.00070015,-0.00143473,0.00315254,0.0
 0101621,-0.00070167,-0.05137904,-0.01527008,-0.01936556,0.05255341,0.0
 1727272,0.02354985,-0.00071923,0.00068468,0.00130962,0.00069296,0.0008
 1477,0.00216127,0.00054390,-0.00037288,0.00028402,0.00408131,-0.000213
 81,0.00007190,-0.00006822,-0.00003153,-0.00018212,0.00062633,-0.000735
 83,-0.00030676,-0.00027056,-0.00012675,0.00012206,0.00004871,-0.000022
 99,0.00006525,-0.12219869,0.02868007,-0.08195043,0.00296851,-0.0009062
 6,-0.00156264,0.00002566,-0.00008374,-0.00001066,0.00002061,0.00005682
 ,-0.00007269,-0.02127144,0.02084967,-0.03527434,0.00043059,0.00523944,
 -0.00375930,0.00026637,0.00017246,-0.00018846,-0.00007891,-0.00006761,
 0.00006576,0.00007045,0.00005151,-0.00082493,-0.00020849,0.00001641,0.
 00011955,0.00027448,-0.00038606,-0.00069013,0.00000206,0.00018406,0.00
 003348,0.00068125,-0.00047681,-0.00041557,-0.00023351,0.00021562,-0.00
 015305,0.00223454,-0.00030679,0.00092246,-0.00090981,0.00053388,0.0008
 7121,0.15122146,-0.00010407,-0.00108262,-0.00058964,0.00015224,0.00041
 148,-0.00151985,-0.00010405,0.00016267,-0.00030111,-0.00045003,-0.0021
 0210,0.00248957,-0.00007734,0.00059349,-0.00053868,-0.00047352,0.00022
 720,0.00006550,0.00001188,0.00001184,-0.00015727,0.00003785,-0.0000190
 5,0.00003498,0.05022504,-0.12349595,0.06610140,-0.00043298,-0.00018844
 ,-0.00022667,-0.00005662,0.00008427,0.00000714,0.00001385,-0.00000968,
 0.00007573,0.00601354,0.00585289,0.00062631,0.02529567,-0.01745905,0.0
 3417618,-0.00000507,-0.00007868,0.00017625,0.00003513,0.00003732,-0.00
 006006,0.00003006,0.00013349,0.00044585,-0.00000579,-0.00003386,-0.000
 11878,0.00002816,0.00102006,0.00020697,-0.00002479,-0.00007203,0.00000
 879,-0.00011792,0.00109795,0.00108976,0.00003587,-0.00044069,0.0004745
 8,-0.00139818,0.00456114,-0.00484279,0.00068921,-0.00035149,0.00017666
 ,-0.09576833,0.63299221,0.00132311,0.00085566,-0.00023824,0.00437646,-
 0.00706922,-0.00142680,-0.00020918,-0.00052484,0.00050049,-0.02820584,
 0.02445497,-0.04590242,0.00014168,0.00005777,0.00028864,0.00009949,-0.
 00013382,0.00007407,0.00018869,-0.00031533,0.00001773,-0.00022650,0.00
 010578,-0.00019194,-0.07007580,0.02275383,-0.16573528,-0.00145873,0.00
 098661,0.00350779,0.00003578,-0.00004027,0.00004934,-0.00005348,0.0000
 8876,-0.00011330,-0.01357199,0.00449874,-0.00612348,-0.00131074,0.0043
 7253,-0.00068038,-0.00017620,0.00061096,-0.00037279,-0.00000288,-0.000
 26016,0.00022625,-0.00051752,0.00028072,-0.00061507,0.00074698,-0.0001
 9980,0.00062737,-0.00107742,-0.00064481,-0.00025635,0.00026057,0.00020
 192,0.00011665,-0.00075619,0.00003557,-0.00666730,-0.00017373,0.001090
 65,0.00056196,-0.00100168,0.00035691,0.00272595,0.00029034,0.00077641,
 -0.00076640,0.12693912,0.03333478,0.27771729,0.00011333,0.00031113,-0.
 00023233,-0.00018342,-0.00019912,0.00016747,-0.00006503,-0.00002724,-0
 .00001656,0.00225588,0.00050484,-0.00055751,-0.00000430,-0.00001922,0.
 00007348,-0.00001067,0.00003136,-0.00003518,0.00006646,0.00002326,-0.0
 0000763,-0.00002411,0.00001191,-0.00002452,-0.00387673,0.02693945,0.00
 111100,-0.00037614,-0.00034469,0.00041751,-0.00000131,0.00000810,0.000
 00256,-0.00000572,-0.00001217,0.00000658,-0.00051004,0.00116088,0.0000
 9341,-0.00141761,0.00046002,-0.00210484,-0.00006804,-0.00003233,0.0000
 3294,0.00002066,0.00001163,-0.00001065,-0.00003892,-0.00004059,0.00008
 680,0.00004787,0.00000467,-0.00001566,-0.00011085,-0.00018776,0.000206
 85,0.00000452,-0.00003048,-0.00002766,-0.00016090,-0.00009743,0.000044
 68,0.00013909,0.00009104,-0.00013405,-0.00185016,-0.00110266,0.0021248
 7,-0.00014262,0.00017338,-0.00140671,-0.01823036,0.01645017,-0.0155843
 4,0.02442914,0.00012975,0.00035931,-0.00009357,0.00008681,-0.00126803,
 0.00021235,-0.00004125,-0.00009518,0.00011710,-0.00078235,0.00220188,-
 0.00166000,0.00007023,-0.00001680,0.00014774,0.00007068,-0.00008399,-0
 .00000621,0.00001471,-0.00003698,0.00002022,-0.00003211,0.00001894,-0.
 00003289,0.00160407,-0.02201652,-0.00171581,-0.00025977,-0.00011182,0.
 00051233,0.00000637,-0.00001251,0.00000192,-0.00000619,0.00001129,-0.0
 0001795,-0.00078612,0.00069749,-0.00111585,0.00280026,0.00059035,0.002
 42612,-0.00001321,0.00005642,-0.00004872,-0.00000131,-0.00002692,0.000
 02954,-0.00005458,-0.00000932,-0.00014380,0.00007696,-0.00000436,0.000
 07963,-0.00004264,-0.00029961,-0.00003534,0.00001810,0.00006884,-0.000
 00223,0.00000467,-0.00021869,-0.00102870,0.00001184,0.00038344,-0.0001
 0785,-0.00041985,-0.00072487,0.00086587,-0.00036693,0.00026238,-0.0003
 7018,0.04199999,-0.50185238,-0.08567433,-0.04408815,0.52212767,-0.0002
 9262,0.00038321,0.00034447,-0.00034999,0.00002993,0.00008110,0.0000502
 6,0.00007241,-0.00008398,0.00010139,0.00581970,-0.00129953,0.00008701,
 -0.00022704,0.00022247,0.00014096,-0.00010084,-0.00005091,-0.00008016,
 0.00010073,0.00005006,0.00006268,-0.00002062,0.00004804,-0.00535208,0.
 03816603,0.00165674,0.00025988,-0.00010673,-0.00036392,-0.00000124,-0.
 00000902,-0.00002141,0.00002017,-0.00003345,0.00002495,-0.00065975,-0.
 00042860,0.00012096,-0.00316574,0.00276034,-0.00446672,0.00008468,-0.0
 0020985,0.00009502,-0.00001149,0.00008686,-0.00007089,0.00017603,-0.00
 016549,0.00008227,-0.00022800,0.00009042,-0.00020382,0.00077693,-0.000
 48815,0.00012818,-0.00015523,-0.00002659,-0.00009577,0.00032600,-0.000
 75187,0.00051372,0.00005068,0.00036584,-0.00089284,0.00122336,-0.00156
 111,0.00392732,-0.00127863,-0.00025110,-0.00023254,-0.00757461,-0.1311
 3559,-0.05732376,0.01578950,0.08764059,0.05781081\\-0.00000427,0.00000
 475,-0.00001808,0.,-0.00000034,0.00003385,-0.00000838,0.00001750,0.000
 00586,0.00000741,0.00002756,0.00000160,-0.00000463,-0.00000342,-0.0000
 0265,0.00000877,0.00000070,0.00000217,-0.00000117,-0.00000012,-0.00000
 569,0.00000643,0.00000826,0.00000367,-0.00002075,0.00001394,-0.0000354
 4,-0.00000206,-0.00000238,-0.00000980,-0.00000193,-0.00000766,0.000002
 24,0.00000233,0.00000170,0.00000118,0.00000457,-0.00000866,-0.00000235
 ,0.00000455,-0.00000910,0.00000607,-0.00000294,-0.00001066,0.00000402,
 -0.00000295,0.00000741,0.00000385,0.00000016,-0.00001369,-0.00000366,-
 0.00000471,0.00001184,-0.00000717,0.00001317,-0.00001247,0.00000384,-0
 .00000420,0.00000449,0.00000896,0.00000989,-0.00000845,-0.00000268,-0.
 00000302,0.00000560,-0.00000110,-0.00001448,-0.00001620,-0.00000252,0.
 00000107,-0.00000467,-0.00000481,0.00002098,-0.00000425,0.00001958,-0.
 00000381,-0.00000167,-0.00000094\\\@
 The archive entry for this job was punched.


 HE THAT FOLLOWS NATURE IS NEVER LOST.

                             -- BACON
 Job cpu time:       0 days  9 hours 39 minutes  5.7 seconds.
 Elapsed time:       0 days  0 hours 36 minutes 35.3 seconds.
 File lengths (MBytes):  RWF=    704 Int=      0 D2E=      0 Chk=     27 Scr=      1
 Normal termination of Gaussian 16 at Wed Sep 27 12:22:49 2023.
