 Entering Gaussian System, Link 0=/opt/software/gaussian/g16.c01/g16
 Initial command:
 /opt/software/gaussian/g16.c01/l1.exe "/scratch/arhender/13209929/Gau-53220.inp" -scrdir="/scratch/arhender/13209929/"
 Entering Link 1 = /opt/software/gaussian/g16.c01/l1.exe PID=     53221.
  
 Copyright (c) 1988-2019, Gaussian, Inc.  All Rights Reserved.
  
 This is part of the Gaussian(R) 16 program.  It is based on
 the Gaussian(R) 09 system (copyright 2009, Gaussian, Inc.),
 the Gaussian(R) 03 system (copyright 2003, Gaussian, Inc.),
 the Gaussian(R) 98 system (copyright 1998, Gaussian, Inc.),
 the Gaussian(R) 94 system (copyright 1995, Gaussian, Inc.),
 the Gaussian 92(TM) system (copyright 1992, Gaussian, Inc.),
 the Gaussian 90(TM) system (copyright 1990, Gaussian, Inc.),
 the Gaussian 88(TM) system (copyright 1988, Gaussian, Inc.),
 the Gaussian 86(TM) system (copyright 1986, Carnegie Mellon
 University), and the Gaussian 82(TM) system (copyright 1983,
 Carnegie Mellon University). Gaussian is a federally registered
 trademark of Gaussian, Inc.
  
 This software contains proprietary and confidential information,
 including trade secrets, belonging to Gaussian, Inc.
  
 This software is provided under written license and may be
 used, copied, transmitted, or stored only in accord with that
 written license.
  
 The following legend is applicable only to US Government
 contracts under FAR:
  
                    RESTRICTED RIGHTS LEGEND
  
 Use, reproduction and disclosure by the US Government is
 subject to restrictions as set forth in subparagraphs (a)
 and (c) of the Commercial Computer Software - Restricted
 Rights clause in FAR 52.227-19.
  
 Gaussian, Inc.
 340 Quinnipiac St., Bldg. 40, Wallingford CT 06492
  
  
 ---------------------------------------------------------------
 Warning -- This program may not be used in any manner that
 competes with the business of Gaussian, Inc. or will provide
 assistance to any competitor of Gaussian, Inc.  The licensee
 of this program is prohibited from giving any competitor of
 Gaussian, Inc. access to this program.  By using this program,
 the user acknowledges that Gaussian, Inc. is engaged in the
 business of creating and licensing software in the field of
 computational chemistry and represents and warrants to the
 licensee that it is not a competitor of Gaussian, Inc. and that
 it will not use this program in any manner prohibited above.
 ---------------------------------------------------------------
  

 Cite this work as:
 Gaussian 16, Revision C.01,
 M. J. Frisch, G. W. Trucks, H. B. Schlegel, G. E. Scuseria, 
 M. A. Robb, J. R. Cheeseman, G. Scalmani, V. Barone, 
 G. A. Petersson, H. Nakatsuji, X. Li, M. Caricato, A. V. Marenich, 
 J. Bloino, B. G. Janesko, R. Gomperts, B. Mennucci, H. P. Hratchian, 
 J. V. Ortiz, A. F. Izmaylov, J. L. Sonnenberg, D. Williams-Young, 
 F. Ding, F. Lipparini, F. Egidi, J. Goings, B. Peng, A. Petrone, 
 T. Henderson, D. Ranasinghe, V. G. Zakrzewski, J. Gao, N. Rega, 
 G. Zheng, W. Liang, M. Hada, M. Ehara, K. Toyota, R. Fukuda, 
 J. Hasegawa, M. Ishida, T. Nakajima, Y. Honda, O. Kitao, H. Nakai, 
 T. Vreven, K. Throssell, J. A. Montgomery, Jr., J. E. Peralta, 
 F. Ogliaro, M. J. Bearpark, J. J. Heyd, E. N. Brothers, K. N. Kudin, 
 V. N. Staroverov, T. A. Keith, R. Kobayashi, J. Normand, 
 K. Raghavachari, A. P. Rendell, J. C. Burant, S. S. Iyengar, 
 J. Tomasi, M. Cossi, J. M. Millam, M. Klene, C. Adamo, R. Cammi, 
 J. W. Ochterski, R. L. Martin, K. Morokuma, O. Farkas, 
 J. B. Foresman, and D. J. Fox, Gaussian, Inc., Wallingford CT, 2019.
 
 ******************************************
 Gaussian 16:  ES64L-G16RevC.01  3-Jul-2019
                27-Sep-2023 
 ******************************************
 %chk=MannitolConformerOpt_19.chk
 %mem=8GB
 %nprocs=16
 Will use up to   16 processors via shared memory.
 ---------------------------------------------
 # opt freq wb97xd/def2tzvpp geom=connectivity
 ---------------------------------------------
 1/18=20,19=15,26=3,38=1,57=2/1,3;
 2/9=110,12=2,17=6,18=5,40=1/2;
 3/5=44,7=202,11=2,25=1,30=1,71=1,74=-58/1,2,3;
 4//1;
 5/5=2,38=5/2;
 6/7=2,8=2,9=2,10=2,28=1/1;
 7//1,2,3,16;
 1/18=20,19=15,26=3/3(2);
 2/9=110/2;
 99//99;
 2/9=110/2;
 3/5=44,7=202,11=2,25=1,30=1,71=1,74=-58/1,2,3;
 4/5=5,16=3,69=1/1;
 5/5=2,38=5/2;
 7//1,2,3,16;
 1/18=20,19=15,26=3/3(-5);
 2/9=110/2;
 6/7=2,8=2,9=2,10=2,19=2,28=1/1;
 99/9=1/99;
 --------------------------------
 Mannitol Conformer Optimziations
 --------------------------------
 Symbolic Z-matrix:
 Charge =  0 Multiplicity = 1
 C                     0.        0.        0. 
 C                     1.5435    0.        0. 
 C                    -0.6399    0.9433   -1.0348 
 C                     2.1536   -0.7757    1.1851 
 H                     1.925     1.0269    0. 
 H                    -0.3745    0.3005    0.9848 
 C                    -0.3256    0.6441   -2.5039 
 H                    -0.3786    1.9838   -0.8121 
 C                     1.9843   -0.0705    2.5329 
 H                     3.2186   -0.9591    0.9974 
 H                     0.7267    0.8099   -2.7434 
 H                    -0.6048   -0.3784   -2.7757 
 H                     0.9307    0.0415    2.8023 
 H                     2.4735    0.9079    2.5326 
 O                    -1.0968    1.5253   -3.3301 
 H                    -1.9737    1.5749   -2.8986 
 O                    -2.0767    0.8471   -0.8869 
 H                    -2.2533   -0.1149   -0.8158 
 O                    -0.5136   -1.3277   -0.2297 
 H                    -0.0103   -1.9215    0.3731 
 O                     2.0101   -0.6306   -1.2022 
 H                     1.6593   -1.5439   -1.1805 
 O                     1.5443   -2.0812    1.2729 
 H                     1.9312   -2.4682    2.0885 
 O                     2.5875   -0.8915    3.536 
 H                     2.5097   -0.4138    4.3818 
 

 GradGradGradGradGradGradGradGradGradGradGradGradGradGradGradGradGradGrad
 Berny optimization.
 Initialization pass.
                           ----------------------------
                           !    Initial Parameters    !
                           ! (Angstroms and Degrees)  !
 --------------------------                            --------------------------
 ! Name  Definition              Value          Derivative Info.                !
 --------------------------------------------------------------------------------
 ! R1    R(1,2)                  1.5435         estimate D2E/DX2                !
 ! R2    R(1,3)                  1.5395         estimate D2E/DX2                !
 ! R3    R(1,6)                  1.0956         estimate D2E/DX2                !
 ! R4    R(1,19)                 1.442          estimate D2E/DX2                !
 ! R5    R(2,4)                  1.5422         estimate D2E/DX2                !
 ! R6    R(2,5)                  1.0955         estimate D2E/DX2                !
 ! R7    R(2,21)                 1.4355         estimate D2E/DX2                !
 ! R8    R(3,7)                  1.5318         estimate D2E/DX2                !
 ! R9    R(3,8)                  1.0957         estimate D2E/DX2                !
 ! R10   R(3,17)                 1.4476         estimate D2E/DX2                !
 ! R11   R(4,9)                  1.5305         estimate D2E/DX2                !
 ! R12   R(4,10)                 1.0969         estimate D2E/DX2                !
 ! R13   R(4,23)                 1.4434         estimate D2E/DX2                !
 ! R14   R(7,11)                 1.0919         estimate D2E/DX2                !
 ! R15   R(7,12)                 1.0942         estimate D2E/DX2                !
 ! R16   R(7,15)                 1.4331         estimate D2E/DX2                !
 ! R17   R(9,13)                 1.0932         estimate D2E/DX2                !
 ! R18   R(9,14)                 1.0939         estimate D2E/DX2                !
 ! R19   R(9,25)                 1.4297         estimate D2E/DX2                !
 ! R20   R(15,16)                0.9786         estimate D2E/DX2                !
 ! R21   R(17,18)                0.9807         estimate D2E/DX2                !
 ! R22   R(19,20)                0.9845         estimate D2E/DX2                !
 ! R23   R(21,22)                0.9786         estimate D2E/DX2                !
 ! R24   R(23,24)                0.9822         estimate D2E/DX2                !
 ! R25   R(25,26)                0.9745         estimate D2E/DX2                !
 ! A1    A(2,1,3)              114.5603         estimate D2E/DX2                !
 ! A2    A(2,1,6)              109.9875         estimate D2E/DX2                !
 ! A3    A(2,1,19)             110.8654         estimate D2E/DX2                !
 ! A4    A(3,1,6)              107.1001         estimate D2E/DX2                !
 ! A5    A(3,1,19)             108.0018         estimate D2E/DX2                !
 ! A6    A(6,1,19)             105.9007         estimate D2E/DX2                !
 ! A7    A(1,2,4)              113.3036         estimate D2E/DX2                !
 ! A8    A(1,2,5)              110.3804         estimate D2E/DX2                !
 ! A9    A(1,2,21)             108.9682         estimate D2E/DX2                !
 ! A10   A(4,2,5)              109.4951         estimate D2E/DX2                !
 ! A11   A(4,2,21)             107.0984         estimate D2E/DX2                !
 ! A12   A(5,2,21)             107.3732         estimate D2E/DX2                !
 ! A13   A(1,3,7)              116.0827         estimate D2E/DX2                !
 ! A14   A(1,3,8)              110.2505         estimate D2E/DX2                !
 ! A15   A(1,3,17)             107.6474         estimate D2E/DX2                !
 ! A16   A(7,3,8)              109.3586         estimate D2E/DX2                !
 ! A17   A(7,3,17)             106.7773         estimate D2E/DX2                !
 ! A18   A(8,3,17)             106.2033         estimate D2E/DX2                !
 ! A19   A(2,4,9)              113.6525         estimate D2E/DX2                !
 ! A20   A(2,4,10)             109.6768         estimate D2E/DX2                !
 ! A21   A(2,4,23)             109.5534         estimate D2E/DX2                !
 ! A22   A(9,4,10)             109.5809         estimate D2E/DX2                !
 ! A23   A(9,4,23)             108.4504         estimate D2E/DX2                !
 ! A24   A(10,4,23)            105.608          estimate D2E/DX2                !
 ! A25   A(3,7,11)             112.2374         estimate D2E/DX2                !
 ! A26   A(3,7,12)             111.6159         estimate D2E/DX2                !
 ! A27   A(3,7,15)             108.8067         estimate D2E/DX2                !
 ! A28   A(11,7,12)            109.4704         estimate D2E/DX2                !
 ! A29   A(11,7,15)            107.3853         estimate D2E/DX2                !
 ! A30   A(12,7,15)            107.1016         estimate D2E/DX2                !
 ! A31   A(4,9,13)             111.7654         estimate D2E/DX2                !
 ! A32   A(4,9,14)             111.2477         estimate D2E/DX2                !
 ! A33   A(4,9,25)             107.8537         estimate D2E/DX2                !
 ! A34   A(13,9,14)            109.8422         estimate D2E/DX2                !
 ! A35   A(13,9,25)            107.0099         estimate D2E/DX2                !
 ! A36   A(14,9,25)            108.9733         estimate D2E/DX2                !
 ! A37   A(7,15,16)            105.0209         estimate D2E/DX2                !
 ! A38   A(3,17,18)            104.5568         estimate D2E/DX2                !
 ! A39   A(1,19,20)            106.0049         estimate D2E/DX2                !
 ! A40   A(2,21,22)            105.9554         estimate D2E/DX2                !
 ! A41   A(4,23,24)            103.9227         estimate D2E/DX2                !
 ! A42   A(9,25,26)            107.0841         estimate D2E/DX2                !
 ! D1    D(3,1,2,4)            170.8549         estimate D2E/DX2                !
 ! D2    D(3,1,2,5)             47.6484         estimate D2E/DX2                !
 ! D3    D(3,1,2,21)           -70.0303         estimate D2E/DX2                !
 ! D4    D(6,1,2,4)             50.1755         estimate D2E/DX2                !
 ! D5    D(6,1,2,5)            -73.0311         estimate D2E/DX2                !
 ! D6    D(6,1,2,21)           169.2902         estimate D2E/DX2                !
 ! D7    D(19,1,2,4)           -66.6088         estimate D2E/DX2                !
 ! D8    D(19,1,2,5)           170.1846         estimate D2E/DX2                !
 ! D9    D(19,1,2,21)           52.5059         estimate D2E/DX2                !
 ! D10   D(2,1,3,7)             61.6487         estimate D2E/DX2                !
 ! D11   D(2,1,3,8)            -63.3794         estimate D2E/DX2                !
 ! D12   D(2,1,3,17)          -178.8144         estimate D2E/DX2                !
 ! D13   D(6,1,3,7)           -176.0892         estimate D2E/DX2                !
 ! D14   D(6,1,3,8)             58.8827         estimate D2E/DX2                !
 ! D15   D(6,1,3,17)           -56.5523         estimate D2E/DX2                !
 ! D16   D(19,1,3,7)           -62.4255         estimate D2E/DX2                !
 ! D17   D(19,1,3,8)           172.5464         estimate D2E/DX2                !
 ! D18   D(19,1,3,17)           57.1114         estimate D2E/DX2                !
 ! D19   D(2,1,19,20)           47.2743         estimate D2E/DX2                !
 ! D20   D(3,1,19,20)          173.5437         estimate D2E/DX2                !
 ! D21   D(6,1,19,20)          -71.9969         estimate D2E/DX2                !
 ! D22   D(1,2,4,9)            -71.3285         estimate D2E/DX2                !
 ! D23   D(1,2,4,10)           165.6345         estimate D2E/DX2                !
 ! D24   D(1,2,4,23)            50.1521         estimate D2E/DX2                !
 ! D25   D(5,2,4,9)             52.3641         estimate D2E/DX2                !
 ! D26   D(5,2,4,10)           -70.6729         estimate D2E/DX2                !
 ! D27   D(5,2,4,23)           173.8447         estimate D2E/DX2                !
 ! D28   D(21,2,4,9)           168.4873         estimate D2E/DX2                !
 ! D29   D(21,2,4,10)           45.4502         estimate D2E/DX2                !
 ! D30   D(21,2,4,23)          -70.0321         estimate D2E/DX2                !
 ! D31   D(1,2,21,22)          -60.4942         estimate D2E/DX2                !
 ! D32   D(4,2,21,22)           62.4204         estimate D2E/DX2                !
 ! D33   D(5,2,21,22)          179.9425         estimate D2E/DX2                !
 ! D34   D(1,3,7,11)           -66.8757         estimate D2E/DX2                !
 ! D35   D(1,3,7,12)            56.4469         estimate D2E/DX2                !
 ! D36   D(1,3,7,15)           174.4226         estimate D2E/DX2                !
 ! D37   D(8,3,7,11)            58.6068         estimate D2E/DX2                !
 ! D38   D(8,3,7,12)          -178.0706         estimate D2E/DX2                !
 ! D39   D(8,3,7,15)           -60.0949         estimate D2E/DX2                !
 ! D40   D(17,3,7,11)          173.1162         estimate D2E/DX2                !
 ! D41   D(17,3,7,12)          -63.5612         estimate D2E/DX2                !
 ! D42   D(17,3,7,15)           54.4145         estimate D2E/DX2                !
 ! D43   D(1,3,17,18)          -45.0924         estimate D2E/DX2                !
 ! D44   D(7,3,17,18)           80.2038         estimate D2E/DX2                !
 ! D45   D(8,3,17,18)         -163.1714         estimate D2E/DX2                !
 ! D46   D(2,4,9,13)            62.5471         estimate D2E/DX2                !
 ! D47   D(2,4,9,14)           -60.6412         estimate D2E/DX2                !
 ! D48   D(2,4,9,25)           179.9043         estimate D2E/DX2                !
 ! D49   D(10,4,9,13)         -174.3633         estimate D2E/DX2                !
 ! D50   D(10,4,9,14)           62.4484         estimate D2E/DX2                !
 ! D51   D(10,4,9,25)          -57.0061         estimate D2E/DX2                !
 ! D52   D(23,4,9,13)          -59.5464         estimate D2E/DX2                !
 ! D53   D(23,4,9,14)          177.2653         estimate D2E/DX2                !
 ! D54   D(23,4,9,25)           57.8108         estimate D2E/DX2                !
 ! D55   D(2,4,23,24)         -175.3337         estimate D2E/DX2                !
 ! D56   D(9,4,23,24)          -50.7711         estimate D2E/DX2                !
 ! D57   D(10,4,23,24)          66.6177         estimate D2E/DX2                !
 ! D58   D(3,7,15,16)          -40.017          estimate D2E/DX2                !
 ! D59   D(11,7,15,16)        -161.7226         estimate D2E/DX2                !
 ! D60   D(12,7,15,16)          80.7763         estimate D2E/DX2                !
 ! D61   D(4,9,25,26)          177.4551         estimate D2E/DX2                !
 ! D62   D(13,9,25,26)         -62.152          estimate D2E/DX2                !
 ! D63   D(14,9,25,26)          56.5679         estimate D2E/DX2                !
 --------------------------------------------------------------------------------
 Trust Radius=3.00D-01 FncErr=1.00D-07 GrdErr=1.00D-06 EigMax=2.50D+02 EigMin=1.00D-04
 Number of steps in this run=    140 maximum allowed number of steps=    156.
 GradGradGradGradGradGradGradGradGradGradGradGradGradGradGradGradGradGrad

                          Input orientation:                          
 ---------------------------------------------------------------------
 Center     Atomic      Atomic             Coordinates (Angstroms)
 Number     Number       Type             X           Y           Z
 ---------------------------------------------------------------------
      1          6           0        0.000000    0.000000    0.000000
      2          6           0        1.543500    0.000000    0.000000
      3          6           0       -0.639900    0.943300   -1.034800
      4          6           0        2.153600   -0.775700    1.185100
      5          1           0        1.925000    1.026900    0.000000
      6          1           0       -0.374500    0.300500    0.984800
      7          6           0       -0.325600    0.644100   -2.503900
      8          1           0       -0.378600    1.983800   -0.812100
      9          6           0        1.984300   -0.070500    2.532900
     10          1           0        3.218600   -0.959100    0.997400
     11          1           0        0.726700    0.809900   -2.743400
     12          1           0       -0.604800   -0.378400   -2.775700
     13          1           0        0.930700    0.041500    2.802300
     14          1           0        2.473500    0.907900    2.532600
     15          8           0       -1.096800    1.525300   -3.330100
     16          1           0       -1.973700    1.574900   -2.898600
     17          8           0       -2.076700    0.847100   -0.886900
     18          1           0       -2.253300   -0.114900   -0.815800
     19          8           0       -0.513600   -1.327700   -0.229700
     20          1           0       -0.010300   -1.921500    0.373100
     21          8           0        2.010100   -0.630600   -1.202200
     22          1           0        1.659300   -1.543900   -1.180500
     23          8           0        1.544300   -2.081200    1.272900
     24          1           0        1.931200   -2.468200    2.088500
     25          8           0        2.587500   -0.891500    3.536000
     26          1           0        2.509700   -0.413800    4.381800
 ---------------------------------------------------------------------
                    Distance matrix (angstroms):
                    1          2          3          4          5
     1  C    0.000000
     2  C    1.543500   0.000000
     3  C    1.539512   2.593812   0.000000
     4  C    2.577628   1.542204   3.960626   0.000000
     5  H    2.181776   1.095475   2.767040   2.169352   0.000000
     6  H    1.095619   2.176891   2.135981   2.754926   2.604839
     7  C    2.605839   3.190284   1.531849   4.665939   3.388400
     8  H    2.176765   2.879138   1.095679   4.244489   2.623306
     9  C    3.218385   2.571936   4.543424   1.530534   2.761048
    10  H    3.503436   2.172703   4.757834   1.096855   2.571459
    11  H    2.951317   2.974785   2.191964   4.470267   3.001542
    12  H    2.865917   3.530282   2.186059   4.842990   4.009896
    13  H    2.953102   2.868821   4.243037   2.186009   3.132496
    14  H    3.654661   2.846620   4.735067   2.180046   2.594046
    15  O    3.823490   4.515229   2.411614   6.020526   4.524295
    16  H    3.844175   4.822125   2.377329   6.263907   4.888972
    17  O    2.411815   3.822305   1.447592   4.982178   4.102746
    18  H    2.399186   3.885154   1.941857   4.884775   4.407656
    19  O    1.441990   2.459108   2.412795   3.069254   3.397598
    20  H    1.957415   2.499132   3.253561   2.579664   3.546499
    21  O    2.425581   1.435499   3.086695   2.396007   2.049349
    22  H    2.555481   1.946951   3.390238   2.535848   2.841336
    23  O    2.887305   2.439604   4.386777   1.443359   3.380162
    24  H    3.766082   3.256402   5.291870   1.931360   4.071559
    25  O    4.471378   3.793152   5.888532   2.393410   4.077065
    26  H    5.066557   4.506101   6.411026   3.236768   4.649480
                    6          7          8          9         10
     6  H    0.000000
     7  C    3.505921   0.000000
     8  H    2.462187   2.158655   0.000000
     9  C    2.845732   5.587096   4.581754   0.000000
    10  H    3.807508   5.233613   4.987464   2.161219   0.000000
    11  H    3.920664   1.091872   2.515879   5.495089   4.830374
    12  H    3.828225   1.094228   3.080078   5.914345   5.402951
    13  H    2.252540   5.486089   4.307050   1.093249   3.081128
    14  H    3.297836   5.768092   4.525379   1.093884   2.529368
    15  O    4.543150   1.433133   2.658262   6.812821   6.597134
    16  H    4.388887   1.933497   2.658012   6.919125   6.968497
    17  O    2.588343   2.392122   2.044805   5.387833   5.903655
    18  H    2.635262   2.672413   2.814082   5.401205   5.825981
    19  O    2.036024   3.015846   3.365033   3.930905   3.946005
    20  H    2.333260   3.867667   4.097769   3.474099   3.426625
    21  O    3.366932   2.962225   3.562745   3.776950   2.531131
    22  H    3.496667   3.237060   4.090651   4.008226   2.741652
    23  O    3.072017   5.018765   4.956712   2.413320   2.034279
    24  H    3.768303   5.989131   5.793873   2.439114   2.263908
    25  O    4.086922   6.879289   5.997589   1.429721   2.616744
    26  H    4.513141   7.521366   6.408382   1.952519   3.500579
                   11         12         13         14         15
    11  H    0.000000
    12  H    1.784935   0.000000
    13  H    5.602396   5.800703   0.000000
    14  H    5.558515   6.269653   1.789866   0.000000
    15  O    2.044790   2.042914   6.627122   6.891986   0.000000
    16  H    2.810956   2.388383   6.579294   7.051270   0.978573
    17  O    3.362592   2.689964   4.827385   5.692187   2.718342
    18  H    3.667601   2.574528   4.822133   5.882222   3.217057
    19  O    3.525105   2.718750   3.626808   4.642303   4.253494
    20  H    4.209072   3.556618   3.261880   4.340300   5.174418
    21  O    2.469302   3.062223   4.201529   4.065766   4.339204
    22  H    2.975361   3.004863   4.348223   4.523423   4.651543
    23  O    5.015735   4.889716   2.687271   3.374163   6.416374
    24  H    5.961880   5.870179   2.794478   3.448096   7.380925
    25  O    6.766698   7.091658   2.038085   2.063407   8.158328
    26  H    7.446140   7.805842   2.279333   2.273267   8.731572
                   16         17         18         19         20
    16  H    0.000000
    17  O    2.141784   0.000000
    18  H    2.696601   0.980656   0.000000
    19  O    4.204760   2.757707   2.200217   0.000000
    20  H    5.175304   3.677330   3.115820   0.984519   0.000000
    21  O    4.859287   4.357172   4.311825   2.792985   2.868799
    22  H    5.086990   4.445310   4.181326   2.381650   2.311670
    23  O    6.568470   5.133353   4.759282   2.657164   1.803310
    24  H    7.514391   5.992285   5.610973   3.556942   2.647810
    25  O    8.263882   6.658794   6.555503   4.897713   4.220593
    26  H    8.778384   7.098178   7.056242   5.589409   4.969229
                   21         22         23         24         25
    21  O    0.000000
    22  H    0.978595   0.000000
    23  O    2.906429   2.514177   0.000000
    24  H    3.769842   3.408023   0.982173   0.000000
    25  O    4.780376   4.851036   2.761390   2.238743   0.000000
    26  H    5.610495   5.739293   3.657524   3.132802   0.974488
                   26
    26  H    0.000000
 Stoichiometry    C6H14O6
 Framework group  C1[X(C6H14O6)]
 Deg. of freedom    72
 Full point group                 C1      NOp   1
 Largest Abelian subgroup         C1      NOp   1
 Largest concise Abelian subgroup C1      NOp   1
                         Standard orientation:                         
 ---------------------------------------------------------------------
 Center     Atomic      Atomic             Coordinates (Angstroms)
 Number     Number       Type             X           Y           Z
 ---------------------------------------------------------------------
      1          6           0        0.356756   -0.496825    0.064718
      2          6           0       -0.490741    0.646327   -0.533064
      3          6           0        1.805196   -0.557907   -0.453345
      4          6           0       -1.986871    0.549959   -0.171536
      5          1           0       -0.378959    0.674637   -1.622453
      6          1           0       -0.106842   -1.463737   -0.160093
      7          6           0        2.677595    0.666614   -0.160036
      8          1           0        1.814636   -0.761095   -1.529978
      9          6           0       -2.717864   -0.591917   -0.881677
     10          1           0       -2.483541    1.501375   -0.397853
     11          1           0        2.337288    1.554526   -0.696681
     12          1           0        2.721668    0.882758    0.911726
     13          1           0       -2.313110   -1.568246   -0.602127
     14          1           0       -2.680158   -0.471647   -1.968276
     15          8           0        4.017033    0.393362   -0.590279
     16          1           0        4.179615   -0.537905   -0.337466
     17          8           0        2.449388   -1.690603    0.177163
     18          1           0        2.190300   -1.627639    1.120877
     19          8           0        0.401426   -0.405020    1.503089
     20          1           0       -0.527866   -0.261789    1.794942
     21          8           0       -0.012493    1.898973   -0.020411
     22          1           0       -0.122411    1.851720    0.950842
     23          8           0       -2.128777    0.367066    1.253139
     24          1           0       -3.094385    0.239965    1.380065
     25          8           0       -4.083325   -0.568494   -0.458511
     26          1           0       -4.546671   -1.272708   -0.947408
 ---------------------------------------------------------------------
 Rotational constants (GHZ):           1.9003573           0.4373628           0.4175741
 Standard basis: def2TZVPP (5D, 7F)
 There are   642 symmetry adapted cartesian basis functions of A   symmetry.
 There are   568 symmetry adapted basis functions of A   symmetry.
   568 basis functions,   850 primitive gaussians,   642 cartesian basis functions
    49 alpha electrons       49 beta electrons
       nuclear repulsion energy       821.1536887441 Hartrees.
 NAtoms=   26 NActive=   26 NUniq=   26 SFac= 1.00D+00 NAtFMM=   60 NAOKFM=F Big=F
 Integral buffers will be    131072 words long.
 Raffenetti 2 integral format.
 Two-electron integral symmetry is turned on.
 Nuclear repulsion after empirical dispersion term =      821.1354345581 Hartrees.
 One-electron integrals computed using PRISM.
   1 Symmetry operations used in ECPInt.
 ECPInt:  NShTT=   23436 NPrTT=   62434 LenC2=   21640 LenP2D=   44965.
 LDataN:  DoStor=T MaxTD1= 6 Len=  172
 NBasis=   568 RedAO= T EigKep=  4.62D-05  NBF=   568
 NBsUse=   568 1.00D-06 EigRej= -1.00D+00 NBFU=   568
 ExpMin= 9.52D-02 ExpMax= 2.70D+04 ExpMxC= 9.22D+02 IAcc=3 IRadAn=         5 AccDes= 0.00D+00
 Harris functional with IExCor= 4639 and IRadAn=       5 diagonalized for initial guess.
 HarFok:  IExCor= 4639 AccDes= 0.00D+00 IRadAn=         5 IDoV= 1 UseB2=F ITyADJ=14
 ICtDFT=  3500011 ScaDFX=  1.000000  1.000000  1.000000  1.000000
 FoFCou: FMM=F IPFlag=           0 FMFlag=      100000 FMFlg1=           0
         NFxFlg=           0 DoJE=T BraDBF=F KetDBF=T FulRan=T
         wScrn=  0.000000 ICntrl=       500 IOpCl=  0 I1Cent=   200000004 NGrid=           0
         NMat0=    1 NMatS0=      1 NMatT0=    0 NMatD0=    1 NMtDS0=    0 NMtDT0=    0
 Petite list used in FoFCou.
 Requested convergence on RMS density matrix=1.00D-08 within 128 cycles.
 Requested convergence on MAX density matrix=1.00D-06.
 Requested convergence on             energy=1.00D-06.
 No special actions if energy rises.
 Integral accuracy reduced to 1.0D-05 until final iterations.
 Initial convergence to 1.0D-05 achieved.  Increase integral accuracy.
 SCF Done:  E(RwB97XD) =  -688.468224883     A.U. after   14 cycles
            NFock= 14  Conv=0.18D-08     -V/T= 2.0050

 **********************************************************************

            Population analysis using the SCF Density.

 **********************************************************************

 Orbital symmetries:
       Occupied  (A) (A) (A) (A) (A) (A) (A) (A) (A) (A) (A) (A)
                 (A) (A) (A) (A) (A) (A) (A) (A) (A) (A) (A) (A)
                 (A) (A) (A) (A) (A) (A) (A) (A) (A) (A) (A) (A)
                 (A) (A) (A) (A) (A) (A) (A) (A) (A) (A) (A) (A)
                 (A)
       Virtual   (A) (A) (A) (A) (A) (A) (A) (A) (A) (A) (A) (A)
                 (A) (A) (A) (A) (A) (A) (A) (A) (A) (A) (A) (A)
                 (A) (A) (A) (A) (A) (A) (A) (A) (A) (A) (A) (A)
                 (A) (A) (A) (A) (A) (A) (A) (A) (A) (A) (A) (A)
                 (A) (A) (A) (A) (A) (A) (A) (A) (A) (A) (A) (A)
                 (A) (A) (A) (A) (A) (A) (A) (A) (A) (A) (A) (A)
                 (A) (A) (A) (A) (A) (A) (A) (A) (A) (A) (A) (A)
                 (A) (A) (A) (A) (A) (A) (A) (A) (A) (A) (A) (A)
                 (A) (A) (A) (A) (A) (A) (A) (A) (A) (A) (A) (A)
                 (A) (A) (A) (A) (A) (A) (A) (A) (A) (A) (A) (A)
                 (A) (A) (A) (A) (A) (A) (A) (A) (A) (A) (A) (A)
                 (A) (A) (A) (A) (A) (A) (A) (A) (A) (A) (A) (A)
                 (A) (A) (A) (A) (A) (A) (A) (A) (A) (A) (A) (A)
                 (A) (A) (A) (A) (A) (A) (A) (A) (A) (A) (A) (A)
                 (A) (A) (A) (A) (A) (A) (A) (A) (A) (A) (A) (A)
                 (A) (A) (A) (A) (A) (A) (A) (A) (A) (A) (A) (A)
                 (A) (A) (A) (A) (A) (A) (A) (A) (A) (A) (A) (A)
                 (A) (A) (A) (A) (A) (A) (A) (A) (A) (A) (A) (A)
                 (A) (A) (A) (A) (A) (A) (A) (A) (A) (A) (A) (A)
                 (A) (A) (A) (A) (A) (A) (A) (A) (A) (A) (A) (A)
                 (A) (A) (A) (A) (A) (A) (A) (A) (A) (A) (A) (A)
                 (A) (A) (A) (A) (A) (A) (A) (A) (A) (A) (A) (A)
                 (A) (A) (A) (A) (A) (A) (A) (A) (A) (A) (A) (A)
                 (A) (A) (A) (A) (A) (A) (A) (A) (A) (A) (A) (A)
                 (A) (A) (A) (A) (A) (A) (A) (A) (A) (A) (A) (A)
                 (A) (A) (A) (A) (A) (A) (A) (A) (A) (A) (A) (A)
                 (A) (A) (A) (A) (A) (A) (A) (A) (A) (A) (A) (A)
                 (A) (A) (A) (A) (A) (A) (A) (A) (A) (A) (A) (A)
                 (A) (A) (A) (A) (A) (A) (A) (A) (A) (A) (A) (A)
                 (A) (A) (A) (A) (A) (A) (A) (A) (A) (A) (A) (A)
                 (A) (A) (A) (A) (A) (A) (A) (A) (A) (A) (A) (A)
                 (A) (A) (A) (A) (A) (A) (A) (A) (A) (A) (A) (A)
                 (A) (A) (A) (A) (A) (A) (A) (A) (A) (A) (A) (A)
                 (A) (A) (A) (A) (A) (A) (A) (A) (A) (A) (A) (A)
                 (A) (A) (A) (A) (A) (A) (A) (A) (A) (A) (A) (A)
                 (A) (A) (A) (A) (A) (A) (A) (A) (A) (A) (A) (A)
                 (A) (A) (A) (A) (A) (A) (A) (A) (A) (A) (A) (A)
                 (A) (A) (A) (A) (A) (A) (A) (A) (A) (A) (A) (A)
                 (A) (A) (A) (A) (A) (A) (A) (A) (A) (A) (A) (A)
                 (A) (A) (A) (A) (A) (A) (A) (A) (A) (A) (A) (A)
                 (A) (A) (A) (A) (A) (A) (A) (A) (A) (A) (A) (A)
                 (A) (A) (A) (A) (A) (A) (A) (A) (A) (A) (A) (A)
                 (A) (A) (A) (A) (A) (A) (A) (A) (A) (A) (A) (A)
                 (A) (A) (A)
 The electronic state is 1-A.
 Alpha  occ. eigenvalues --  -19.28677 -19.28361 -19.25907 -19.25555 -19.25214
 Alpha  occ. eigenvalues --  -19.22439 -10.36526 -10.36261 -10.35979 -10.35133
 Alpha  occ. eigenvalues --  -10.34115 -10.31203  -1.17236  -1.15108  -1.13721
 Alpha  occ. eigenvalues --   -1.12651  -1.11087  -1.08780  -0.89798  -0.85617
 Alpha  occ. eigenvalues --   -0.80021  -0.75610  -0.71177  -0.69109  -0.66644
 Alpha  occ. eigenvalues --   -0.63028  -0.61307  -0.59180  -0.58729  -0.57930
 Alpha  occ. eigenvalues --   -0.56105  -0.54734  -0.53912  -0.53086  -0.52236
 Alpha  occ. eigenvalues --   -0.50664  -0.48902  -0.47763  -0.47139  -0.44485
 Alpha  occ. eigenvalues --   -0.43539  -0.42559  -0.40995  -0.39818  -0.39343
 Alpha  occ. eigenvalues --   -0.38431  -0.37218  -0.36309  -0.33643
 Alpha virt. eigenvalues --    0.07472   0.10559   0.10806   0.12495   0.13684
 Alpha virt. eigenvalues --    0.14054   0.14772   0.17147   0.17343   0.17873
 Alpha virt. eigenvalues --    0.18574   0.19874   0.20399   0.20968   0.21597
 Alpha virt. eigenvalues --    0.22449   0.23383   0.24327   0.25248   0.26840
 Alpha virt. eigenvalues --    0.28130   0.28492   0.30333   0.30945   0.33313
 Alpha virt. eigenvalues --    0.33975   0.35208   0.36712   0.37161   0.37332
 Alpha virt. eigenvalues --    0.38286   0.39344   0.39871   0.40752   0.41201
 Alpha virt. eigenvalues --    0.41623   0.42431   0.42540   0.43951   0.44323
 Alpha virt. eigenvalues --    0.45586   0.46040   0.46714   0.46798   0.47301
 Alpha virt. eigenvalues --    0.48592   0.49120   0.49385   0.50529   0.51105
 Alpha virt. eigenvalues --    0.51917   0.52503   0.53576   0.54353   0.54499
 Alpha virt. eigenvalues --    0.55025   0.56524   0.57503   0.58695   0.58876
 Alpha virt. eigenvalues --    0.60052   0.60698   0.61447   0.62469   0.63592
 Alpha virt. eigenvalues --    0.63803   0.64862   0.65577   0.67072   0.68542
 Alpha virt. eigenvalues --    0.69023   0.70452   0.71672   0.72526   0.72891
 Alpha virt. eigenvalues --    0.73813   0.76124   0.77166   0.78392   0.79006
 Alpha virt. eigenvalues --    0.79703   0.80837   0.82829   0.83914   0.86022
 Alpha virt. eigenvalues --    0.86560   0.87591   0.88838   0.89160   0.90552
 Alpha virt. eigenvalues --    0.91427   0.91750   0.92893   0.94766   0.95807
 Alpha virt. eigenvalues --    0.96511   0.97421   0.98839   0.99439   1.00833
 Alpha virt. eigenvalues --    1.01150   1.03209   1.05101   1.05827   1.07274
 Alpha virt. eigenvalues --    1.07809   1.08621   1.10277   1.10884   1.13022
 Alpha virt. eigenvalues --    1.14157   1.14735   1.15183   1.15651   1.16702
 Alpha virt. eigenvalues --    1.19326   1.20025   1.21605   1.23129   1.24108
 Alpha virt. eigenvalues --    1.25270   1.26474   1.27489   1.28822   1.30258
 Alpha virt. eigenvalues --    1.31076   1.31352   1.32506   1.32984   1.35617
 Alpha virt. eigenvalues --    1.35919   1.36408   1.37724   1.38605   1.40322
 Alpha virt. eigenvalues --    1.41141   1.42114   1.43365   1.44412   1.45949
 Alpha virt. eigenvalues --    1.46564   1.47749   1.49313   1.49732   1.51298
 Alpha virt. eigenvalues --    1.52188   1.54075   1.54264   1.55418   1.55733
 Alpha virt. eigenvalues --    1.57939   1.60863   1.62242   1.63053   1.64850
 Alpha virt. eigenvalues --    1.66362   1.66913   1.69922   1.71654   1.73479
 Alpha virt. eigenvalues --    1.74706   1.75630   1.77103   1.79328   1.83740
 Alpha virt. eigenvalues --    1.85690   1.87043   1.89175   1.91650   1.92729
 Alpha virt. eigenvalues --    1.94282   1.94625   1.94994   1.98201   1.99978
 Alpha virt. eigenvalues --    2.00852   2.01993   2.02327   2.04161   2.04711
 Alpha virt. eigenvalues --    2.05769   2.06916   2.08940   2.10047   2.10955
 Alpha virt. eigenvalues --    2.11315   2.12983   2.14904   2.16171   2.16635
 Alpha virt. eigenvalues --    2.17981   2.20236   2.20979   2.22657   2.25857
 Alpha virt. eigenvalues --    2.28228   2.29169   2.29545   2.31041   2.31942
 Alpha virt. eigenvalues --    2.33117   2.35479   2.37253   2.37454   2.40090
 Alpha virt. eigenvalues --    2.43681   2.45385   2.46449   2.50051   2.51477
 Alpha virt. eigenvalues --    2.54618   2.55917   2.60336   2.61211   2.61854
 Alpha virt. eigenvalues --    2.66144   2.66835   2.67502   2.69080   2.69660
 Alpha virt. eigenvalues --    2.70722   2.73131   2.74312   2.75486   2.77698
 Alpha virt. eigenvalues --    2.78600   2.79737   2.80888   2.82193   2.83611
 Alpha virt. eigenvalues --    2.85134   2.86213   2.86830   2.88660   2.91086
 Alpha virt. eigenvalues --    2.92194   2.93422   2.94294   2.96825   2.98160
 Alpha virt. eigenvalues --    2.99143   3.00836   3.02408   3.02648   3.03869
 Alpha virt. eigenvalues --    3.04699   3.05668   3.06575   3.10248   3.10378
 Alpha virt. eigenvalues --    3.13111   3.13500   3.14451   3.16067   3.16478
 Alpha virt. eigenvalues --    3.17305   3.18601   3.19131   3.19310   3.21195
 Alpha virt. eigenvalues --    3.21562   3.23532   3.24394   3.24943   3.26542
 Alpha virt. eigenvalues --    3.27106   3.28267   3.28838   3.30805   3.32035
 Alpha virt. eigenvalues --    3.32741   3.33922   3.34605   3.35739   3.37022
 Alpha virt. eigenvalues --    3.37420   3.38862   3.39301   3.40299   3.41044
 Alpha virt. eigenvalues --    3.42357   3.43498   3.44543   3.45034   3.46772
 Alpha virt. eigenvalues --    3.48225   3.49536   3.50628   3.51530   3.52902
 Alpha virt. eigenvalues --    3.54712   3.55174   3.57524   3.57707   3.58636
 Alpha virt. eigenvalues --    3.60077   3.60975   3.63316   3.63735   3.65421
 Alpha virt. eigenvalues --    3.66359   3.68859   3.69274   3.70598   3.71524
 Alpha virt. eigenvalues --    3.72613   3.74654   3.75996   3.76433   3.77237
 Alpha virt. eigenvalues --    3.78077   3.80931   3.82879   3.83316   3.83759
 Alpha virt. eigenvalues --    3.84985   3.86212   3.87226   3.88659   3.89326
 Alpha virt. eigenvalues --    3.90690   3.92014   3.92772   3.93214   3.94526
 Alpha virt. eigenvalues --    3.95303   3.95911   3.98793   3.99695   4.00899
 Alpha virt. eigenvalues --    4.01683   4.02490   4.03283   4.03820   4.05536
 Alpha virt. eigenvalues --    4.06976   4.08297   4.09399   4.10580   4.10845
 Alpha virt. eigenvalues --    4.11945   4.13446   4.14218   4.15318   4.16925
 Alpha virt. eigenvalues --    4.17021   4.18134   4.19510   4.19977   4.22176
 Alpha virt. eigenvalues --    4.22988   4.24767   4.25337   4.26430   4.27191
 Alpha virt. eigenvalues --    4.28004   4.29721   4.30677   4.32530   4.33415
 Alpha virt. eigenvalues --    4.33831   4.35782   4.37298   4.38498   4.39371
 Alpha virt. eigenvalues --    4.40650   4.42643   4.43634   4.46013   4.48406
 Alpha virt. eigenvalues --    4.50306   4.50764   4.51922   4.54412   4.55285
 Alpha virt. eigenvalues --    4.57457   4.58534   4.59622   4.60356   4.61437
 Alpha virt. eigenvalues --    4.63115   4.65029   4.65985   4.67781   4.70127
 Alpha virt. eigenvalues --    4.72408   4.74545   4.76171   4.77190   4.78998
 Alpha virt. eigenvalues --    4.79660   4.81477   4.83289   4.84519   4.88973
 Alpha virt. eigenvalues --    4.89402   4.93645   4.94124   4.95686   4.97224
 Alpha virt. eigenvalues --    4.99298   5.00815   5.02326   5.03525   5.04087
 Alpha virt. eigenvalues --    5.06415   5.08574   5.09179   5.09722   5.09975
 Alpha virt. eigenvalues --    5.14713   5.15945   5.18143   5.19822   5.20530
 Alpha virt. eigenvalues --    5.20919   5.22691   5.25336   5.25648   5.29673
 Alpha virt. eigenvalues --    5.31221   5.33715   5.34912   5.40609   5.44934
 Alpha virt. eigenvalues --    5.46021   5.48486   5.54658   5.54723   5.55795
 Alpha virt. eigenvalues --    5.58791   5.63163   5.63533   5.65213   5.66068
 Alpha virt. eigenvalues --    5.66567   5.68220   5.69872   5.70853   5.72120
 Alpha virt. eigenvalues --    5.74013   5.77707   5.79788   5.81436   5.82762
 Alpha virt. eigenvalues --    5.85619   5.86937   5.89399   5.93790   5.95479
 Alpha virt. eigenvalues --    5.99829   6.01340   6.02429   6.10694   6.11901
 Alpha virt. eigenvalues --    6.14165   6.15082   6.17333   6.20482   6.52439
 Alpha virt. eigenvalues --    6.52973   6.53682   6.54836   6.56103   6.56566
 Alpha virt. eigenvalues --    6.69453   6.71989   6.73108   6.74173   6.76036
 Alpha virt. eigenvalues --    6.76780   6.77622   6.79779   6.80438   6.80572
 Alpha virt. eigenvalues --    6.81438   6.84191   6.86222   6.87686   6.88498
 Alpha virt. eigenvalues --    6.90068   6.91752   6.93941   6.98188   6.99984
 Alpha virt. eigenvalues --    7.01364   7.03933   7.06428   7.07574   7.13883
 Alpha virt. eigenvalues --    7.19587   7.20476   7.22743   7.22780   7.24768
 Alpha virt. eigenvalues --    7.40149   7.43271   7.45218   7.45443   7.46184
 Alpha virt. eigenvalues --    7.48025   7.49848   7.53865   7.56684   7.61903
 Alpha virt. eigenvalues --    7.66353   7.70750  23.07503  23.15468  23.19007
 Alpha virt. eigenvalues --   23.23254  23.42217  23.48318  44.09833  44.12998
 Alpha virt. eigenvalues --   44.21644  44.24395  44.35386  44.40255
          Condensed to atoms (all electrons):
               1          2          3          4          5          6
     1  C    5.151263   0.154629   0.162715   0.016822  -0.040878   0.414311
     2  C    0.154629   5.003988   0.032915   0.210261   0.397561  -0.035390
     3  C    0.162715   0.032915   4.890681  -0.017957  -0.000144  -0.039629
     4  C    0.016822   0.210261  -0.017957   5.021255  -0.011173   0.003268
     5  H   -0.040878   0.397561  -0.000144  -0.011173   0.575112   0.005992
     6  H    0.414311  -0.035390  -0.039629   0.003268   0.005992   0.598665
     7  C   -0.042175   0.014662   0.375970   0.001567  -0.000713   0.008891
     8  H    0.027136  -0.023108   0.374791   0.000406   0.001979  -0.005760
     9  C    0.005784  -0.024010   0.004452   0.252086  -0.009431  -0.008547
    10  H    0.008937  -0.030446  -0.000125   0.416378  -0.002324  -0.000132
    11  H   -0.029492   0.007745   0.001742  -0.000911  -0.000080  -0.001329
    12  H    0.039677  -0.012865  -0.056303   0.000323   0.000186   0.000367
    13  H    0.001881   0.006053   0.000476  -0.030486   0.000420   0.000022
    14  H   -0.002448   0.004595   0.000517  -0.053246   0.001629   0.000274
    15  O    0.013465  -0.000810  -0.042532   0.000008  -0.000004  -0.000437
    16  H   -0.001180  -0.000026  -0.016116  -0.000001   0.000011  -0.000255
    17  O   -0.036688   0.006765   0.256704  -0.000093   0.000151   0.008662
    18  H   -0.011373   0.001723  -0.050189  -0.000303   0.000012  -0.003050
    19  O    0.224988  -0.028925  -0.044721  -0.001598   0.004287  -0.034526
    20  H   -0.020751  -0.004220   0.005553  -0.004704  -0.000441  -0.006320
    21  O   -0.034416   0.235354  -0.013229  -0.010046  -0.020922   0.003971
    22  H   -0.010509  -0.054934  -0.003135   0.006588   0.008648   0.001673
    23  O    0.004044  -0.050577   0.001311   0.204859   0.002497   0.000883
    24  H    0.000507   0.007596  -0.000003  -0.028782  -0.000370  -0.000174
    25  O   -0.000021   0.007724  -0.000022  -0.065495  -0.000004  -0.000231
    26  H    0.000113  -0.001885  -0.000005   0.008791  -0.000003  -0.000029
               7          8          9         10         11         12
     1  C   -0.042175   0.027136   0.005784   0.008937  -0.029492   0.039677
     2  C    0.014662  -0.023108  -0.024010  -0.030446   0.007745  -0.012865
     3  C    0.375970   0.374791   0.004452  -0.000125   0.001742  -0.056303
     4  C    0.001567   0.000406   0.252086   0.416378  -0.000911   0.000323
     5  H   -0.000713   0.001979  -0.009431  -0.002324  -0.000080   0.000186
     6  H    0.008891  -0.005760  -0.008547  -0.000132  -0.001329   0.000367
     7  C    4.673059  -0.050905  -0.000301  -0.000143   0.390665   0.397439
     8  H   -0.050905   0.608203  -0.000299   0.000054  -0.004399   0.009871
     9  C   -0.000301  -0.000299   4.765863  -0.018839   0.000064  -0.000042
    10  H   -0.000143   0.000054  -0.018839   0.545064   0.000025   0.000015
    11  H    0.390665  -0.004399   0.000064   0.000025   0.613154  -0.034605
    12  H    0.397439   0.009871  -0.000042   0.000015  -0.034605   0.632116
    13  H   -0.000114   0.000203   0.418450   0.007054   0.000005   0.000007
    14  H    0.000037  -0.000085   0.442646  -0.007391  -0.000002  -0.000001
    15  O    0.291460   0.010700  -0.000004  -0.000000  -0.033860  -0.049165
    16  H   -0.043995  -0.001767   0.000000  -0.000000   0.010166  -0.005342
    17  O   -0.053045  -0.027719  -0.000067   0.000009   0.005850  -0.002719
    18  H    0.004484   0.007679   0.000015   0.000003   0.000492   0.000677
    19  O   -0.014158   0.001895  -0.002755  -0.000513   0.001351   0.008762
    20  H    0.000491  -0.000298   0.000590   0.000893  -0.000034  -0.000379
    21  O    0.008564  -0.000321   0.005447   0.005696   0.003578   0.000295
    22  H    0.001372   0.000067  -0.000196  -0.002806  -0.001683   0.000636
    23  O   -0.000169  -0.000002  -0.016337  -0.027683  -0.000012   0.000026
    24  H    0.000021  -0.000002  -0.006417  -0.007047   0.000002  -0.000002
    25  O    0.000001  -0.000000   0.272031   0.005252   0.000000  -0.000000
    26  H   -0.000000   0.000000  -0.023898   0.000043  -0.000000  -0.000000
              13         14         15         16         17         18
     1  C    0.001881  -0.002448   0.013465  -0.001180  -0.036688  -0.011373
     2  C    0.006053   0.004595  -0.000810  -0.000026   0.006765   0.001723
     3  C    0.000476   0.000517  -0.042532  -0.016116   0.256704  -0.050189
     4  C   -0.030486  -0.053246   0.000008  -0.000001  -0.000093  -0.000303
     5  H    0.000420   0.001629  -0.000004   0.000011   0.000151   0.000012
     6  H    0.000022   0.000274  -0.000437  -0.000255   0.008662  -0.003050
     7  C   -0.000114   0.000037   0.291460  -0.043995  -0.053045   0.004484
     8  H    0.000203  -0.000085   0.010700  -0.001767  -0.027719   0.007679
     9  C    0.418450   0.442646  -0.000004   0.000000  -0.000067   0.000015
    10  H    0.007054  -0.007391  -0.000000  -0.000000   0.000009   0.000003
    11  H    0.000005  -0.000002  -0.033860   0.010166   0.005850   0.000492
    12  H    0.000007  -0.000001  -0.049165  -0.005342  -0.002719   0.000677
    13  H    0.592066  -0.040355   0.000001   0.000000  -0.000030   0.000017
    14  H   -0.040355   0.610505  -0.000000   0.000000  -0.000001  -0.000001
    15  O    0.000001  -0.000000   7.886827   0.319761  -0.018308   0.000216
    16  H    0.000000   0.000000   0.319761   0.512146   0.031261  -0.000852
    17  O   -0.000030  -0.000001  -0.018308   0.031261   7.914322   0.322737
    18  H    0.000017  -0.000001   0.000216  -0.000852   0.322737   0.497699
    19  O    0.000258  -0.000017   0.000101   0.000068  -0.007890   0.022045
    20  H    0.000515   0.000025   0.000006   0.000005   0.000015  -0.000486
    21  O   -0.000022  -0.000039   0.000349   0.000006   0.000035  -0.000012
    22  H   -0.000009  -0.000035  -0.000019  -0.000001   0.000021  -0.000022
    23  O   -0.001643   0.005470  -0.000000   0.000000  -0.000005   0.000025
    24  H   -0.001816   0.001389   0.000000   0.000000  -0.000001  -0.000003
    25  O   -0.048291  -0.043638  -0.000000  -0.000000  -0.000000  -0.000000
    26  H   -0.005683  -0.005849  -0.000000  -0.000000   0.000000   0.000000
              19         20         21         22         23         24
     1  C    0.224988  -0.020751  -0.034416  -0.010509   0.004044   0.000507
     2  C   -0.028925  -0.004220   0.235354  -0.054934  -0.050577   0.007596
     3  C   -0.044721   0.005553  -0.013229  -0.003135   0.001311  -0.000003
     4  C   -0.001598  -0.004704  -0.010046   0.006588   0.204859  -0.028782
     5  H    0.004287  -0.000441  -0.020922   0.008648   0.002497  -0.000370
     6  H   -0.034526  -0.006320   0.003971   0.001673   0.000883  -0.000174
     7  C   -0.014158   0.000491   0.008564   0.001372  -0.000169   0.000021
     8  H    0.001895  -0.000298  -0.000321   0.000067  -0.000002  -0.000002
     9  C   -0.002755   0.000590   0.005447  -0.000196  -0.016337  -0.006417
    10  H   -0.000513   0.000893   0.005696  -0.002806  -0.027683  -0.007047
    11  H    0.001351  -0.000034   0.003578  -0.001683  -0.000012   0.000002
    12  H    0.008762  -0.000379   0.000295   0.000636   0.000026  -0.000002
    13  H    0.000258   0.000515  -0.000022  -0.000009  -0.001643  -0.001816
    14  H   -0.000017   0.000025  -0.000039  -0.000035   0.005470   0.001389
    15  O    0.000101   0.000006   0.000349  -0.000019  -0.000000   0.000000
    16  H    0.000068   0.000005   0.000006  -0.000001   0.000000   0.000000
    17  O   -0.007890   0.000015   0.000035   0.000021  -0.000005  -0.000001
    18  H    0.022045  -0.000486  -0.000012  -0.000022   0.000025  -0.000003
    19  O    7.973034   0.340897  -0.007589   0.019490  -0.029397   0.001159
    20  H    0.340897   0.432118   0.000420  -0.000725   0.044461  -0.002180
    21  O   -0.007589   0.000420   7.867073   0.323506  -0.004171  -0.000308
    22  H    0.019490  -0.000725   0.323506   0.510378   0.008182  -0.000336
    23  O   -0.029397   0.044461  -0.004171   0.008182   7.933518   0.323274
    24  H    0.001159  -0.002180  -0.000308  -0.000336   0.323274   0.485579
    25  O   -0.000018  -0.000030  -0.000053  -0.000007  -0.008565   0.022170
    26  H    0.000001   0.000001   0.000016   0.000003  -0.000094  -0.001337
              25         26
     1  C   -0.000021   0.000113
     2  C    0.007724  -0.001885
     3  C   -0.000022  -0.000005
     4  C   -0.065495   0.008791
     5  H   -0.000004  -0.000003
     6  H   -0.000231  -0.000029
     7  C    0.000001  -0.000000
     8  H   -0.000000   0.000000
     9  C    0.272031  -0.023898
    10  H    0.005252   0.000043
    11  H    0.000000  -0.000000
    12  H   -0.000000  -0.000000
    13  H   -0.048291  -0.005683
    14  H   -0.043638  -0.005849
    15  O   -0.000000  -0.000000
    16  H   -0.000000  -0.000000
    17  O   -0.000000   0.000000
    18  H   -0.000000   0.000000
    19  O   -0.000018   0.000001
    20  H   -0.000030   0.000001
    21  O   -0.000053   0.000016
    22  H   -0.000007   0.000003
    23  O   -0.008565  -0.000094
    24  H    0.022170  -0.001337
    25  O    7.887452   0.325145
    26  H    0.325145   0.519012
 Mulliken charges:
               1
     1  C    0.003662
     2  C    0.175623
     3  C    0.176283
     4  C    0.082184
     5  H    0.088001
     6  H    0.088831
     7  C    0.037036
     8  H    0.071682
     9  C   -0.056287
    10  H    0.108028
    11  H    0.071568
    12  H    0.071027
    13  H    0.101022
    14  H    0.086018
    15  O   -0.377757
    16  H    0.196111
    17  O   -0.399965
    18  H    0.208466
    19  O   -0.426228
    20  H    0.214579
    21  O   -0.363180
    22  H    0.193853
    23  O   -0.389894
    24  H    0.207078
    25  O   -0.353400
    26  H    0.185658
 Sum of Mulliken charges =  -0.00000
 Mulliken charges with hydrogens summed into heavy atoms:
               1
     1  C    0.092492
     2  C    0.263625
     3  C    0.247966
     4  C    0.190212
     7  C    0.179631
     9  C    0.130753
    15  O   -0.181646
    17  O   -0.191499
    19  O   -0.211649
    21  O   -0.169327
    23  O   -0.182816
    25  O   -0.167742
 Electronic spatial extent (au):  <R**2>=           2738.5519
 Charge=              0.0000 electrons
 Dipole moment (field-independent basis, Debye):
    X=             -6.0686    Y=             -1.9713    Z=             -0.7890  Tot=              6.4293
 Quadrupole moment (field-independent basis, Debye-Ang):
   XX=            -77.8373   YY=            -75.6394   ZZ=            -68.0703
   XY=              3.0710   XZ=              7.3601   YZ=              3.3993
 Traceless Quadrupole moment (field-independent basis, Debye-Ang):
   XX=             -3.9883   YY=             -1.7904   ZZ=              5.7787
   XY=              3.0710   XZ=              7.3601   YZ=              3.3993
 Octapole moment (field-independent basis, Debye-Ang**2):
  XXX=            -97.3269  YYY=             -4.8101  ZZZ=              5.3743  XYY=            -20.0942
  XXY=            -40.4808  XXZ=              8.6616  XZZ=            -13.6425  YZZ=             -2.2981
  YYZ=              6.1526  XYZ=             -8.2533
 Hexadecapole moment (field-independent basis, Debye-Ang**3):
 XXXX=          -2598.2416 YYYY=           -477.1425 ZZZZ=           -311.4746 XXXY=             22.1353
 XXXZ=            127.4763 YYYX=             34.5585 YYYZ=              8.1207 ZZZX=              2.2522
 ZZZY=              1.5915 XXYY=           -459.8422 XXZZ=           -432.9172 YYZZ=           -116.0174
 XXYZ=             48.4867 YYXZ=             19.0959 ZZXY=              0.9363
 N-N= 8.211354345581D+02 E-N=-3.259318298686D+03  KE= 6.850486352799D+02
   1 Symmetry operations used in ECPInt.
 ECPInt:  NShTT=   23436 NPrTT=   62434 LenC2=   21640 LenP2D=   44965.
 LDataN:  DoStor=T MaxTD1= 7 Len=  274
 Calling FoFJK, ICntrl=      2127 FMM=F ISym2X=0 I1Cent= 0 IOpClX= 0 NMat=1 NMatS=1 NMatT=0.
 ***** Axes restored to original set *****
 -------------------------------------------------------------------
 Center     Atomic                   Forces (Hartrees/Bohr)
 Number     Number              X              Y              Z
 -------------------------------------------------------------------
      1        6          -0.003843247   -0.008081261    0.002192299
      2        6           0.001599809   -0.022957897   -0.012227223
      3        6          -0.012147942   -0.013925063   -0.000532255
      4        6          -0.006281218    0.000260772    0.012200344
      5        1          -0.000600411   -0.003581175   -0.000378768
      6        1           0.002785712    0.006030151   -0.000376830
      7        6          -0.007669195    0.012134257   -0.010578256
      8        1          -0.000382224   -0.003538436    0.000253992
      9        6           0.004643581   -0.004551312    0.006045709
     10        1          -0.001696067    0.008533094   -0.001434075
     11        1          -0.003379295   -0.001179025    0.001546356
     12        1           0.004920197   -0.002654330    0.006829983
     13        1          -0.001880885    0.003034096   -0.006941859
     14        1          -0.001704324    0.000933071   -0.004867466
     15        8          -0.007580523   -0.000988005    0.015124643
     16        1           0.014806449   -0.001620881   -0.008529860
     17        8           0.010598053   -0.014811344    0.003473936
     18        1           0.001635970    0.017777298   -0.001301550
     19        8           0.014828551    0.003407734    0.004866448
     20        1          -0.012487163    0.010655195   -0.008723252
     21        8          -0.005338805   -0.006658078    0.011336700
     22        1           0.005115924    0.017820113   -0.002912780
     23        8           0.014045657    0.001733310    0.017877874
     24        1          -0.011688791    0.004232485   -0.017299832
     25        8          -0.000458170    0.010232133    0.009109727
     26        1           0.002158354   -0.012236901   -0.014754007
 -------------------------------------------------------------------
 Cartesian Forces:  Max     0.022957897 RMS     0.008737256

 GradGradGradGradGradGradGradGradGradGradGradGradGradGradGradGradGradGrad
 Berny optimization.
 FormGI is forming the generalized inverse of G from B-inverse, IUseBI=4.
 Internal  Forces:  Max     0.020638003 RMS     0.005596250
 Search for a local minimum.
 Step number   1 out of a maximum of  140
 All quantities printed in internal units (Hartrees-Bohrs-Radians)
 Mixed Optimization -- RFO/linear search
 Second derivative matrix not updated -- first step.
 ITU=  0
     Eigenvalues ---    0.00230   0.00230   0.00243   0.00345   0.00362
     Eigenvalues ---    0.01062   0.01118   0.01136   0.01222   0.01253
     Eigenvalues ---    0.01299   0.03732   0.03852   0.03976   0.04001
     Eigenvalues ---    0.04597   0.04710   0.04789   0.04826   0.05201
     Eigenvalues ---    0.05342   0.05459   0.05562   0.07563   0.07638
     Eigenvalues ---    0.07662   0.07974   0.11345   0.11495   0.13604
     Eigenvalues ---    0.13678   0.16000   0.16000   0.16000   0.16000
     Eigenvalues ---    0.16000   0.16000   0.16710   0.17011   0.17232
     Eigenvalues ---    0.17299   0.19384   0.19492   0.19727   0.19941
     Eigenvalues ---    0.22018   0.22024   0.28211   0.28325   0.28562
     Eigenvalues ---    0.29253   0.29374   0.34032   0.34164   0.34171
     Eigenvalues ---    0.34187   0.34329   0.34368   0.34440   0.34597
     Eigenvalues ---    0.38562   0.39128   0.39314   0.40209   0.40542
     Eigenvalues ---    0.41029   0.50517   0.50965   0.51258   0.51659
     Eigenvalues ---    0.51663   0.52470
 RFO step:  Lambda=-1.70933693D-02 EMin= 2.30000000D-03
 Linear search not attempted -- first point.
 Iteration  1 RMS(Cart)=  0.06679464 RMS(Int)=  0.00221838
 Iteration  2 RMS(Cart)=  0.00316117 RMS(Int)=  0.00055960
 Iteration  3 RMS(Cart)=  0.00000390 RMS(Int)=  0.00055959
 Iteration  4 RMS(Cart)=  0.00000000 RMS(Int)=  0.00055959
 Variable       Old X    -DE/DX   Delta X   Delta X   Delta X     New X
                                 (Linear)    (Quad)   (Total)
    R1        2.91679  -0.00209   0.00000  -0.00700  -0.00700   2.90980
    R2        2.90926  -0.00995   0.00000  -0.03288  -0.03288   2.87638
    R3        2.07042   0.00036   0.00000   0.00101   0.00101   2.07143
    R4        2.72497  -0.01317   0.00000  -0.03210  -0.03210   2.69287
    R5        2.91434  -0.00730   0.00000  -0.02431  -0.02431   2.89004
    R6        2.07015  -0.00357   0.00000  -0.00994  -0.00994   2.06021
    R7        2.71270  -0.01203   0.00000  -0.02870  -0.02870   2.68400
    R8        2.89477  -0.00510   0.00000  -0.01646  -0.01646   2.87832
    R9        2.07053  -0.00340   0.00000  -0.00948  -0.00948   2.06106
   R10        2.73555  -0.01212   0.00000  -0.03009  -0.03009   2.70546
   R11        2.89229  -0.01154   0.00000  -0.03713  -0.03713   2.85516
   R12        2.07276  -0.00283   0.00000  -0.00791  -0.00791   2.06484
   R13        2.72755  -0.00635   0.00000  -0.01556  -0.01556   2.71199
   R14        2.06334  -0.00377   0.00000  -0.01039  -0.01039   2.05295
   R15        2.06779  -0.00047   0.00000  -0.00131  -0.00131   2.06648
   R16        2.70823  -0.00929   0.00000  -0.02200  -0.02200   2.68623
   R17        2.06594   0.00041   0.00000   0.00114   0.00114   2.06709
   R18        2.06714   0.00007   0.00000   0.00020   0.00020   2.06734
   R19        2.70178  -0.00209   0.00000  -0.00489  -0.00489   2.69689
   R20        1.84924  -0.01711   0.00000  -0.03206  -0.03206   1.81717
   R21        1.85317  -0.01783   0.00000  -0.03366  -0.03366   1.81951
   R22        1.86047  -0.01815   0.00000  -0.03476  -0.03476   1.82571
   R23        1.84928  -0.01853   0.00000  -0.03472  -0.03472   1.81456
   R24        1.85604  -0.02064   0.00000  -0.03918  -0.03918   1.81686
   R25        1.84152  -0.01898   0.00000  -0.03502  -0.03502   1.80649
    A1        1.99945   0.00112   0.00000  -0.00472  -0.00468   1.99477
    A2        1.91964  -0.00196   0.00000  -0.01116  -0.01206   1.90759
    A3        1.93497   0.00477   0.00000   0.03057   0.03030   1.96527
    A4        1.86925  -0.00105   0.00000  -0.02601  -0.02601   1.84324
    A5        1.88499  -0.00606   0.00000  -0.03210  -0.03187   1.85311
    A6        1.84832   0.00314   0.00000   0.04567   0.04524   1.89356
    A7        1.97752   0.00020   0.00000   0.01766   0.01497   1.99249
    A8        1.92650  -0.00139   0.00000  -0.03344  -0.03320   1.89330
    A9        1.90185   0.00340   0.00000   0.04924   0.04718   1.94904
   A10        1.91105  -0.00253   0.00000  -0.04476  -0.04448   1.86657
   A11        1.86922   0.00326   0.00000   0.04742   0.04528   1.91450
   A12        1.87402  -0.00294   0.00000  -0.03582  -0.03446   1.83956
   A13        2.02603   0.00033   0.00000   0.00875   0.00832   2.03434
   A14        1.92423  -0.00065   0.00000  -0.01964  -0.01967   1.90456
   A15        1.87880  -0.00127   0.00000   0.00510   0.00450   1.88330
   A16        1.90867  -0.00097   0.00000  -0.01257  -0.01245   1.89621
   A17        1.86361   0.00378   0.00000   0.03452   0.03429   1.89791
   A18        1.85360  -0.00122   0.00000  -0.01616  -0.01604   1.83756
   A19        1.98361   0.00267   0.00000   0.00622   0.00608   1.98969
   A20        1.91422  -0.00279   0.00000  -0.03476  -0.03488   1.87934
   A21        1.91207  -0.00253   0.00000  -0.00831  -0.00829   1.90377
   A22        1.91255  -0.00153   0.00000  -0.01541  -0.01590   1.89665
   A23        1.89282   0.00086   0.00000   0.01353   0.01352   1.90634
   A24        1.84321   0.00342   0.00000   0.04204   0.04209   1.88530
   A25        1.95891  -0.00078   0.00000  -0.01727  -0.01771   1.94120
   A26        1.94807  -0.00529   0.00000  -0.03367  -0.03439   1.91367
   A27        1.89904   0.00081   0.00000   0.00988   0.00997   1.90901
   A28        1.91062   0.00027   0.00000  -0.01285  -0.01396   1.89666
   A29        1.87423  -0.00057   0.00000  -0.00235  -0.00228   1.87195
   A30        1.86927   0.00610   0.00000   0.06164   0.06188   1.93115
   A31        1.95067  -0.00290   0.00000  -0.03100  -0.03077   1.91991
   A32        1.94164  -0.00079   0.00000  -0.02069  -0.02062   1.92101
   A33        1.88240  -0.01122   0.00000  -0.04369  -0.04346   1.83894
   A34        1.91711  -0.00020   0.00000  -0.00388  -0.00587   1.91123
   A35        1.86768   0.00884   0.00000   0.06138   0.06051   1.92819
   A36        1.90194   0.00675   0.00000   0.04258   0.04167   1.94361
   A37        1.83296   0.00074   0.00000   0.00420   0.00420   1.83716
   A38        1.82486   0.00295   0.00000   0.01668   0.01668   1.84154
   A39        1.85013   0.00200   0.00000   0.01127   0.01127   1.86141
   A40        1.84927   0.00263   0.00000   0.01485   0.01485   1.86412
   A41        1.81379   0.00960   0.00000   0.05421   0.05421   1.86800
   A42        1.86897   0.00609   0.00000   0.03438   0.03438   1.90336
    D1        2.98198  -0.00344   0.00000  -0.08278  -0.08293   2.89905
    D2        0.83162   0.00077   0.00000  -0.01167  -0.01173   0.81989
    D3       -1.22226   0.00312   0.00000   0.02184   0.02236  -1.19990
    D4        0.87573  -0.00139   0.00000  -0.03735  -0.03770   0.83803
    D5       -1.27463   0.00283   0.00000   0.03377   0.03350  -1.24113
    D6        2.95467   0.00517   0.00000   0.06727   0.06759   3.02226
    D7       -1.16254  -0.00690   0.00000  -0.10490  -0.10516  -1.26770
    D8        2.97028  -0.00269   0.00000  -0.03379  -0.03396   2.93632
    D9        0.91640  -0.00034   0.00000  -0.00028   0.00013   0.91653
   D10        1.07597  -0.00045   0.00000  -0.01901  -0.01896   1.05701
   D11       -1.10618   0.00117   0.00000   0.00806   0.00808  -1.09810
   D12       -3.12090   0.00368   0.00000   0.03479   0.03477  -3.08613
   D13       -3.07334  -0.00300   0.00000  -0.05546  -0.05550  -3.12884
   D14        1.02770  -0.00138   0.00000  -0.02839  -0.02845   0.99924
   D15       -0.98702   0.00113   0.00000  -0.00166  -0.00177  -0.98879
   D16       -1.08953  -0.00278   0.00000  -0.03079  -0.03071  -1.12024
   D17        3.01150  -0.00116   0.00000  -0.00373  -0.00366   3.00784
   D18        0.99678   0.00135   0.00000   0.02301   0.02303   1.01981
   D19        0.82509   0.00288   0.00000   0.09377   0.09451   0.91960
   D20        3.02891   0.00325   0.00000   0.08581   0.08603   3.11494
   D21       -1.25658   0.00078   0.00000   0.06338   0.06242  -1.19416
   D22       -1.24492   0.00284   0.00000   0.06571   0.06597  -1.17895
   D23        2.89087   0.00503   0.00000   0.10760   0.10774   2.99861
   D24        0.87532   0.00392   0.00000   0.08134   0.08149   0.95681
   D25        0.91393  -0.00073   0.00000   0.00103   0.00134   0.91527
   D26       -1.23348   0.00147   0.00000   0.04292   0.04311  -1.19036
   D27        3.03416   0.00036   0.00000   0.01666   0.01687   3.05103
   D28        2.94066  -0.00373   0.00000  -0.03848  -0.03882   2.90183
   D29        0.79326  -0.00153   0.00000   0.00341   0.00295   0.79620
   D30       -1.22229  -0.00264   0.00000  -0.02285  -0.02330  -1.24559
   D31       -1.05582  -0.00034   0.00000   0.01543   0.01422  -1.04160
   D32        1.08944   0.00388   0.00000   0.09466   0.09584   1.18528
   D33        3.14059   0.00111   0.00000   0.04857   0.04860  -3.09400
   D34       -1.16720   0.00176   0.00000   0.02126   0.02109  -1.14611
   D35        0.98518  -0.00243   0.00000  -0.03367  -0.03312   0.95206
   D36        3.04425   0.00242   0.00000   0.02829   0.02832   3.07257
   D37        1.02288   0.00031   0.00000  -0.00933  -0.00959   1.01330
   D38       -3.10792  -0.00388   0.00000  -0.06425  -0.06380   3.11146
   D39       -1.04885   0.00097   0.00000  -0.00229  -0.00236  -1.05121
   D40        3.02145   0.00039   0.00000  -0.01631  -0.01679   3.00466
   D41       -1.10935  -0.00381   0.00000  -0.07124  -0.07101  -1.18036
   D42        0.94971   0.00105   0.00000  -0.00928  -0.00956   0.94015
   D43       -0.78701  -0.00140   0.00000  -0.02422  -0.02435  -0.81137
   D44        1.39982   0.00052   0.00000   0.01019   0.01040   1.41022
   D45       -2.84788   0.00061   0.00000   0.00439   0.00432  -2.84355
   D46        1.09165  -0.00122   0.00000  -0.01485  -0.01482   1.07683
   D47       -1.05839   0.00173   0.00000   0.02782   0.02777  -1.03062
   D48        3.13992   0.00098   0.00000   0.01534   0.01534  -3.12793
   D49       -3.04321  -0.00411   0.00000  -0.06732  -0.06721  -3.11042
   D50        1.08993  -0.00116   0.00000  -0.02465  -0.02462   1.06531
   D51       -0.99494  -0.00191   0.00000  -0.03713  -0.03705  -1.03199
   D52       -1.03928  -0.00039   0.00000  -0.01821  -0.01824  -1.05752
   D53        3.09386   0.00256   0.00000   0.02446   0.02435   3.11821
   D54        1.00899   0.00181   0.00000   0.01198   0.01192   1.02091
   D55       -3.06015  -0.00099   0.00000   0.01179   0.01170  -3.04845
   D56       -0.88612   0.00126   0.00000   0.02308   0.02282  -0.86331
   D57        1.16270   0.00168   0.00000   0.03367   0.03403   1.19673
   D58       -0.69843  -0.00025   0.00000  -0.03166  -0.03204  -0.73046
   D59       -2.82259   0.00056   0.00000  -0.01518  -0.01509  -2.83768
   D60        1.40981  -0.00260   0.00000  -0.03064  -0.03036   1.37945
   D61        3.09718   0.00092   0.00000   0.02001   0.02016   3.11734
   D62       -1.08476  -0.00373   0.00000  -0.00648  -0.00819  -1.09295
   D63        0.98730   0.00461   0.00000   0.04614   0.04770   1.03499
         Item               Value     Threshold  Converged?
 Maximum Force            0.020638     0.000450     NO 
 RMS     Force            0.005596     0.000300     NO 
 Maximum Displacement     0.295429     0.001800     NO 
 RMS     Displacement     0.067026     0.001200     NO 
 Predicted change in Energy=-1.010766D-02
 GradGradGradGradGradGradGradGradGradGradGradGradGradGradGradGradGradGrad

                          Input orientation:                          
 ---------------------------------------------------------------------
 Center     Atomic      Atomic             Coordinates (Angstroms)
 Number     Number       Type             X           Y           Z
 ---------------------------------------------------------------------
      1          6           0       -0.009163   -0.057628   -0.002153
      2          6           0        1.530476   -0.076915   -0.012905
      3          6           0       -0.630394    0.902358   -1.006809
      4          6           0        2.156279   -0.770664    1.197867
      5          1           0        1.888972    0.952669   -0.009655
      6          1           0       -0.360389    0.276350    0.981032
      7          6           0       -0.313625    0.650450   -2.475193
      8          1           0       -0.335205    1.922010   -0.756362
      9          6           0        1.945142   -0.038716    2.502643
     10          1           0        3.230037   -0.854811    1.013788
     11          1           0        0.741777    0.804201   -2.681811
     12          1           0       -0.575177   -0.378711   -2.736413
     13          1           0        0.876208    0.029985    2.724401
     14          1           0        2.370994    0.967158    2.441926
     15          8           0       -1.039168    1.571429   -3.278949
     16          1           0       -1.915944    1.614018   -2.886348
     17          8           0       -2.050628    0.866363   -0.829858
     18          1           0       -2.280221   -0.067327   -0.779096
     19          8           0       -0.574801   -1.337100   -0.273525
     20          1           0       -0.166634   -1.957035    0.344925
     21          8           0        2.039503   -0.649739   -1.208751
     22          1           0        1.699195   -1.546505   -1.253794
     23          8           0        1.619430   -2.097043    1.307859
     24          1           0        1.965777   -2.474398    2.121501
     25          8           0        2.610228   -0.826062    3.489786
     26          1           0        2.527533   -0.396137    4.339595
 ---------------------------------------------------------------------
                    Distance matrix (angstroms):
                    1          2          3          4          5
     1  C    0.000000
     2  C    1.539798   0.000000
     3  C    1.522115   2.572194   0.000000
     4  C    2.576356   1.529341   3.927486   0.000000
     5  H    2.150273   1.090218   2.709991   2.121189   0.000000
     6  H    1.096154   2.165197   2.101500   2.734387   2.549214
     7  C    2.590366   3.161112   1.523139   4.648802   3.319886
     8  H    2.143386   2.833584   1.090665   4.156561   2.538535
     9  C    3.177055   2.549782   4.453680   1.510884   2.701415
    10  H    3.487127   2.132540   4.698231   1.092667   2.472423
    11  H    2.913285   2.919156   2.167515   4.419606   2.911789
    12  H    2.810630   3.455771   2.153072   4.805521   3.908940
    13  H    2.868041   2.816441   4.117379   2.147074   3.058121
    14  H    3.562143   2.796919   4.572341   2.147979   2.498561
    15  O    3.801595   4.470700   2.403616   5.978140   4.432285
    16  H    3.840416   4.795180   2.385743   6.241035   4.815613
    17  O    2.388814   3.792294   1.431667   4.948696   4.025000
    18  H    2.400300   3.886973   1.927193   4.907708   4.360574
    19  O    1.425003   2.467424   2.357110   3.153512   3.373847
    20  H    1.937268   2.557944   3.196621   2.744250   3.580171
    21  O    2.450205   1.420311   3.094856   2.412482   2.007038
    22  H    2.588793   1.930794   3.388941   2.611799   2.798172
    23  O    2.920216   2.415212   4.406337   1.435126   3.333053
    24  H    3.775060   3.239305   5.284781   1.947331   4.036399
    25  O    4.432307   3.741113   5.805896   2.337100   3.991264
    26  H    5.039861   4.476637   6.343708   3.185680   4.598154
                    6          7          8          9         10
     6  H    0.000000
     7  C    3.476727   0.000000
     8  H    2.393193   2.138156   0.000000
     9  C    2.780296   5.509613   4.434586   0.000000
    10  H    3.764539   5.195800   4.853362   2.129239   0.000000
    11  H    3.861323   1.086372   2.473205   5.388615   4.754073
    12  H    3.780825   1.093535   3.044915   5.823686   5.363798
    13  H    2.151558   5.369959   4.142825   1.093854   3.041311
    14  H    3.173623   5.611198   4.297011   1.093992   2.469232
    15  O    4.503933   1.421492   2.642331   6.702648   6.522295
    16  H    4.377869   1.914403   2.670288   6.832331   6.912836
    17  O    2.546438   2.402274   2.015556   5.281185   5.852084
    18  H    2.627151   2.694337   2.782278   5.350171   5.847863
    19  O    2.055019   2.977567   3.303382   3.967748   4.045561
    20  H    2.330275   3.843651   4.035869   3.577051   3.633131
    21  O    3.378205   2.971797   3.529559   3.762539   2.529645
    22  H    3.543887   3.220229   4.051768   4.055211   2.822028
    23  O    3.107973   5.059338   4.922845   2.402147   2.055157
    24  H    3.778668   6.007491   5.736290   2.465410   2.334190
    25  O    4.041500   6.805143   5.852970   1.427131   2.552559
    26  H    4.480209   7.457134   6.287913   1.959928   3.429998
                   11         12         13         14         15
    11  H    0.000000
    12  H    1.771053   0.000000
    13  H    5.463023   5.665161   0.000000
    14  H    5.378995   6.107904   1.786748   0.000000
    15  O    2.029034   2.076699   6.487290   6.687508   0.000000
    16  H    2.785879   2.406472   6.464193   6.869263   0.961606
    17  O    3.351286   2.713322   4.679600   5.501406   2.741936
    18  H    3.675916   2.614427   4.716674   5.751430   3.236510
    19  O    3.481147   2.642788   3.600265   4.621795   4.208058
    20  H    4.196518   3.486066   3.270730   4.403166   5.132625
    21  O    2.442936   3.040355   4.157519   4.006456   4.324063
    22  H    2.912336   2.955448   4.357598   4.519752   4.617510
    23  O    5.010485   4.911731   2.661432   3.352654   6.447064
    24  H    5.942995   5.869215   2.796888   3.480112   7.386696
    25  O    6.651126   7.008030   2.079773   2.090665   8.054926
    26  H    7.343697   7.726384   2.348894   2.341842   8.639148
                   16         17         18         19         20
    16  H    0.000000
    17  O    2.192323   0.000000
    18  H    2.720318   0.962843   0.000000
    19  O    4.163485   2.709763   2.185494   0.000000
    20  H    5.123830   3.591813   3.049864   0.966127   0.000000
    21  O    4.856387   4.378503   4.379934   2.860367   2.998328
    22  H    5.071822   4.479154   4.271892   2.485123   2.491136
    23  O    6.622856   5.178893   4.866458   2.809438   2.033929
    24  H    7.540654   6.000226   5.677672   3.672075   2.823307
    25  O    8.191173   6.576260   6.535712   4.956620   4.345137
    26  H    8.717767   7.019737   7.030193   5.638330   5.064812
                   21         22         23         24         25
    21  O    0.000000
    22  H    0.960223   0.000000
    23  O    2.933339   2.621358   0.000000
    24  H    3.798078   3.510650   0.961440   0.000000
    25  O    4.736356   4.883704   2.712541   2.237081   0.000000
    26  H    5.575539   5.770224   3.592932   3.091065   0.955954
                   26
    26  H    0.000000
 Stoichiometry    C6H14O6
 Framework group  C1[X(C6H14O6)]
 Deg. of freedom    72
 Full point group                 C1      NOp   1
 Largest Abelian subgroup         C1      NOp   1
 Largest concise Abelian subgroup C1      NOp   1
                         Standard orientation:                         
 ---------------------------------------------------------------------
 Center     Atomic      Atomic             Coordinates (Angstroms)
 Number     Number       Type             X           Y           Z
 ---------------------------------------------------------------------
      1          6           0        0.356837   -0.488418    0.129711
      2          6           0       -0.492785    0.652486   -0.459745
      3          6           0        1.777592   -0.555537   -0.412309
      4          6           0       -1.991204    0.525221   -0.181487
      5          1           0       -0.369479    0.651008   -1.542966
      6          1           0       -0.101928   -1.450724   -0.125350
      7          6           0        2.655450    0.666355   -0.175042
      8          1           0        1.742157   -0.756699   -1.483676
      9          6           0       -2.650193   -0.638417   -0.884658
     10          1           0       -2.469816    1.450193   -0.512062
     11          1           0        2.279278    1.531447   -0.713850
     12          1           0        2.677590    0.901399    0.892704
     13          1           0       -2.208171   -1.579660   -0.545253
     14          1           0       -2.522287   -0.544141   -1.967048
     15          8           0        3.966702    0.406063   -0.658268
     16          1           0        4.162431   -0.495257   -0.386244
     17          8           0        2.415571   -1.699517    0.165589
     18          1           0        2.209484   -1.661973    1.105368
     19          8           0        0.476240   -0.406217    1.547322
     20          1           0       -0.421725   -0.338630    1.897311
     21          8           0       -0.032519    1.925409   -0.029506
     22          1           0       -0.091840    1.932719    0.928855
     23          8           0       -2.196609    0.400156    1.233346
     24          1           0       -3.134529    0.237578    1.368406
     25          8           0       -4.027351   -0.572089   -0.516227
     26          1           0       -4.501618   -1.277843   -0.953070
 ---------------------------------------------------------------------
 Rotational constants (GHZ):           1.8592072           0.4439756           0.4233216
 Standard basis: def2TZVPP (5D, 7F)
 There are   642 symmetry adapted cartesian basis functions of A   symmetry.
 There are   568 symmetry adapted basis functions of A   symmetry.
   568 basis functions,   850 primitive gaussians,   642 cartesian basis functions
    49 alpha electrons       49 beta electrons
       nuclear repulsion energy       824.2474377429 Hartrees.
 NAtoms=   26 NActive=   26 NUniq=   26 SFac= 1.00D+00 NAtFMM=   60 NAOKFM=F Big=F
 Integral buffers will be    131072 words long.
 Raffenetti 2 integral format.
 Two-electron integral symmetry is turned on.
 Nuclear repulsion after empirical dispersion term =      824.2289360109 Hartrees.
 One-electron integrals computed using PRISM.
   1 Symmetry operations used in ECPInt.
 ECPInt:  NShTT=   23436 NPrTT=   62434 LenC2=   21681 LenP2D=   45072.
 LDataN:  DoStor=T MaxTD1= 6 Len=  172
[...]
 9209,0.00058664,0.00289858,0.00563735,-0.00141439,0.00144187,-0.000719
 71,0.00236959,0.16563348,-0.04629618,-0.19017515,-0.05573175,-0.014058
 49,-0.02217329,-0.00666306,-0.00965386,-0.04511279,-0.00876920,-0.0021
 5780,-0.00599481,0.00368122,-0.00290679,0.00131387,-0.00032855,-0.0081
 6688,-0.02404542,-0.01226397,-0.00006606,0.00111793,-0.00222709,0.0033
 8106,-0.00282177,0.00442917,0.00126870,-0.00035544,0.00048893,-0.00002
 205,0.00115328,-0.00081113,0.00009302,-0.00035836,-0.00002489,0.000005
 02,-0.00046825,0.00142393,-0.00044225,0.00013439,0.00052744,0.00004470
 ,0.00044417,0.00036579,0.00077788,0.00001534,0.00203380,-0.00043689,-0
 .00010382,-0.00067359,-0.00053838,-0.00031333,0.00028100,-0.00078051,-
 0.00094494,0.00027674,-0.02146180,0.50535528,-0.02662253,-0.01785517,-
 0.10741957,0.00102068,-0.00962571,-0.00309679,0.00680278,0.02247400,0.
 01051269,0.00177115,0.00191727,-0.00071255,-0.00090905,0.00063221,0.00
 058150,-0.01486161,-0.03704535,-0.00650313,0.00137397,-0.00191955,-0.0
 0022517,-0.00263850,0.00403671,-0.00228657,0.00059473,-0.00067343,-0.0
 0006674,-0.00050910,-0.00037812,0.00022758,0.00003646,0.00028471,-0.00
 002642,0.00018924,0.00180745,0.00035918,-0.00040449,0.00034657,0.00049
 410,-0.00027825,-0.00010744,-0.00010986,-0.00048258,0.00101527,0.00019
 826,0.00016347,-0.00012482,-0.00005642,0.00030911,0.00120921,0.0021518
 4,0.00147065,-0.00043638,-0.00148148,0.16011033,-0.16219123,0.38452713
 ,0.00482480,-0.00954208,0.01025730,0.00047132,-0.00258322,0.00114728,-
 0.00177378,-0.00186450,-0.00124883,-0.00309736,-0.00483929,0.00114319,
 -0.00019056,0.00037139,-0.00033085,0.00013440,-0.00048715,-0.00137420,
 0.00028068,0.00019135,-0.00020515,0.00036797,-0.00055268,0.00025522,0.
 00079293,0.00008888,-0.00042960,0.00042732,0.00058771,-0.00021047,-0.0
 0005927,-0.00012017,0.00006620,-0.00004139,-0.00007453,-0.00005987,-0.
 00020716,0.00006034,0.00018059,0.00004430,0.00033035,0.00034266,-0.000
 03491,-0.00017969,0.00023121,-0.00003000,0.00004107,-0.00007503,0.0000
 6736,0.00123425,0.00036944,0.00107035,-0.00032917,-0.00051533,-0.06283
 701,0.09558996,-0.11909394,0.06010065,0.01021966,-0.03464727,0.0283523
 8,-0.00163506,0.00063907,0.00045052,-0.00313270,-0.00613864,-0.0034528
 5,-0.00181824,0.00097394,-0.00192606,0.00063755,0.00004947,-0.00012963
 ,0.00131851,0.00166067,0.00025899,-0.00006877,-0.00020897,-0.00052329,
 0.00082102,-0.00083732,0.00103197,-0.00055476,-0.00025408,-0.00010740,
 0.00002767,-0.00027148,0.00010582,0.00003568,0.00006293,0.00004798,0.0
 0000178,0.00021319,0.00030026,0.00012351,-0.00009884,-0.00015158,0.000
 05688,-0.00013239,-0.00012976,-0.00011439,0.00048673,-0.00016955,0.000
 03504,-0.00009597,0.00009593,-0.00093244,0.00126937,-0.00038787,0.0008
 5829,-0.00045834,0.00014956,0.07274714,-0.22544408,0.18996913,-0.08101
 644,0.26722781,0.00408508,-0.00977166,0.00934667,-0.00023593,0.0000770
 6,0.00189710,-0.00101940,-0.00347632,-0.00085959,-0.00139509,-0.004897
 34,0.00254775,-0.00057781,-0.00002251,-0.00034356,0.00018324,-0.002109
 73,0.00005320,0.00000639,-0.00014649,-0.00049884,0.00040864,-0.0008380
 0,0.00062016,0.00017832,0.00034513,-0.00006223,0.00060761,0.00107279,-
 0.00033535,0.00001603,0.00008037,0.00001911,-0.00001427,0.00019502,0.0
 0023596,-0.00001863,-0.00015432,0.00003588,0.00016547,0.00029566,0.000
 25290,0.00007059,0.00002945,0.00033755,-0.00004705,0.00003088,-0.00013
 704,0.00009138,-0.00069598,0.00011663,-0.00059408,0.00054846,-0.000384
 17,-0.11284864,0.23293804,-0.27646162,0.10677930,-0.21823939,0.2706531
 3,-0.01941222,0.01687900,0.03934827,-0.10565496,-0.00488506,0.03707397
 ,0.00256301,-0.00151149,0.00108184,0.00467509,-0.00426799,-0.00414216,
 0.00656821,-0.00298196,-0.00878762,-0.00838750,-0.00035376,-0.00045948
 ,-0.00006387,0.00099396,-0.00076806,-0.00031424,0.00023993,0.00004729,
 0.00023372,0.00090063,-0.00185960,0.00273951,-0.00137827,0.00025307,-0
 .00177512,0.00062949,-0.00075359,0.00021263,0.00050600,0.00013510,0.00
 028045,-0.00036317,-0.00058486,0.00010539,0.00028121,0.00027966,-0.001
 10788,0.00082914,-0.00073462,0.00009497,0.00004969,0.00017142,-0.00113
 650,0.00045138,-0.00131265,0.00060072,0.00003796,0.00045573,-0.0025945
 9,0.00151222,0.00528441,-0.00168642,0.00112367,-0.00055995,0.33376250,
 0.00371338,-0.00710650,-0.01079647,0.02610512,-0.11272327,-0.07551917,
 -0.00182496,0.00003694,-0.00028541,-0.00213655,0.00540029,0.00186945,0
 .01543920,-0.01537250,-0.03621525,0.00157228,0.00125399,0.00067613,-0.
 00126185,-0.00227713,0.00083768,0.00001531,0.00053291,-0.00003420,-0.0
 0033577,-0.00046741,0.00138187,-0.00134459,0.00054797,-0.00046951,0.00
 243378,-0.00070092,0.00037439,0.00017668,0.00030939,0.00033908,-0.0001
 0055,0.00006973,0.00043839,0.00032352,0.00051276,0.00025700,0.00156619
 ,0.00009687,0.00032407,0.00001077,-0.00020327,0.00010791,0.00142024,0.
 00063078,0.00026925,0.00022485,-0.00048033,0.00013320,-0.00775104,0.00
 462393,0.00550883,0.00093389,-0.00003708,-0.00122677,0.21047604,0.4185
 7435,0.01302230,-0.00885534,-0.01521613,0.06487611,-0.05085238,-0.1834
 0150,0.00031270,0.00133302,-0.00224037,0.01277384,-0.02533054,-0.04832
 844,0.00470795,-0.01206816,-0.01013270,0.00191598,0.00022672,0.0015441
 4,0.00232337,0.00029311,-0.00152016,-0.00023173,0.00052325,0.00024970,
 -0.00201843,0.00775982,-0.00067235,0.00185325,-0.00139515,0.00268238,-
 0.00267937,-0.00067122,-0.00078813,0.00085178,0.00078753,0.00050201,0.
 00043017,-0.00015411,-0.00014979,-0.00010966,-0.00023269,0.00008526,-0
 .00244922,0.00117497,0.00115821,-0.00005676,0.00024148,-0.00070923,0.0
 0069626,-0.00050802,0.00233513,-0.00006635,-0.00013037,-0.00059537,-0.
 00278198,-0.00120735,0.00438189,-0.00085176,0.00007470,-0.00101561,-0.
 02985325,0.18910449,0.30805179,-0.00032307,0.00680009,0.00429447,0.010
 97763,0.01426059,0.00458185,-0.00037081,0.00035531,-0.00005485,0.00007
 466,0.00027277,-0.00019438,-0.00169629,0.00325488,0.00353116,-0.000014
 13,-0.00122549,-0.00079480,0.00021890,0.00154720,-0.00016964,0.0001770
 6,-0.00044750,0.00002327,0.00024610,-0.00040256,-0.00015752,-0.0002392
 6,-0.00018933,-0.00029978,-0.00005233,-0.00021947,0.00009823,-0.000369
 52,-0.00020857,-0.00071268,-0.00010586,0.00010854,0.00016540,-0.000081
 06,-0.00003630,-0.00002769,0.00008511,-0.00082779,0.00036745,-0.000116
 56,0.00012253,-0.00011727,-0.00008251,-0.00056014,0.00005815,-0.000645
 62,0.00051044,-0.00020881,0.00367835,-0.00157723,-0.00444450,0.0004396
 1,-0.00129920,0.00226751,-0.21172852,-0.25013874,-0.06282784,0.2012182
 4,-0.00082068,0.00095560,0.00013661,-0.00885871,-0.02041793,-0.0089108
 7,0.00096328,-0.00080696,-0.00038153,-0.00013382,0.00187915,0.00126626
 ,0.00136751,-0.00103071,-0.00427280,-0.00115232,-0.00075264,0.00001814
 ,0.00080866,-0.00087382,0.00020277,-0.00005715,0.00012600,0.00015975,-
 0.00009093,-0.00042541,0.00008297,-0.00007459,0.00006881,-0.00007744,-
 0.00030665,-0.00062839,0.00003027,0.00045711,0.00039110,0.00030945,0.0
 0000526,-0.00002250,-0.00000195,0.00005054,-0.00000826,-0.00003060,-0.
 00081116,0.00072051,-0.00014993,0.00008503,0.00006070,-0.00005911,-0.0
 0084166,0.00000236,0.00010083,0.00004893,0.00027813,-0.00006061,0.0003
 1888,-0.00224104,0.00093979,-0.00134374,0.00061004,0.00147821,-0.21957
 581,-0.29882748,-0.10108790,0.23008340,0.32174586,0.00056426,-0.003731
 27,0.00033857,-0.02028814,-0.03313586,-0.01449387,-0.00006148,-0.00039
 783,0.00076337,-0.00095113,-0.00306100,-0.00258676,0.00163570,-0.00036
 649,-0.00306829,-0.00041063,0.00016197,0.00006619,-0.00017582,0.001413
 66,0.00035214,0.00000145,0.00004837,-0.00025893,-0.00012888,0.00038465
 ,-0.00045469,0.00016572,-0.00001111,-0.00017931,0.00023082,0.00035981,
 0.00015799,-0.00079183,-0.00042106,-0.00038722,0.00000279,-0.00001190,
 0.00008267,0.00005499,0.00016551,0.00013521,0.00040857,-0.00072553,-0.
 00038575,-0.00006339,-0.00001434,0.00022513,0.00000364,0.00043811,-0.0
 0068438,0.00031429,-0.00027337,0.00040650,-0.00441885,0.00287792,0.000
 41911,0.00237120,0.00048471,-0.00185044,-0.03303207,-0.07540409,-0.052
 19963,0.05406273,0.11004689,0.07314053,-0.00320913,-0.00315485,0.00105
 996,0.00826978,0.00872742,-0.00159221,0.00065401,-0.00001366,-0.000662
 73,-0.11834706,-0.05708712,-0.01118580,-0.00061369,0.00174521,-0.00249
 164,0.00053501,-0.00009724,-0.00075223,-0.00033490,-0.00003505,0.00018
 766,-0.00009835,0.00019444,-0.00009353,-0.00215881,-0.01087359,-0.0010
 7156,-0.01743948,-0.04162317,0.00789038,0.00005832,0.00012772,-0.00005
 398,-0.00002369,0.00003726,0.00012897,0.00184375,-0.00043873,-0.002078
 29,0.00183145,-0.00002597,-0.00088482,0.00002922,0.00026104,-0.0003844
 5,0.00004514,-0.00008635,0.00013336,0.00046702,0.00033004,-0.00010660,
 0.00041341,-0.00037173,0.00025343,-0.00272326,0.00548146,-0.00683020,-
 0.00110157,0.00139948,0.00185048,0.00167676,0.00022622,0.00097674,-0.0
 0112062,-0.00018446,0.00039664,0.19996759,-0.00314685,-0.00158841,-0.0
 0156680,-0.00984842,-0.02784279,0.00541380,-0.00098557,0.00036405,-0.0
 0000270,-0.07486583,-0.17203505,0.00316528,0.00134272,-0.00072534,0.00
 351397,0.00007362,0.00001182,0.00054133,-0.00017724,-0.00011494,-0.000
 32791,-0.00014102,0.00034147,-0.00004539,-0.02367767,-0.04405726,0.005
 30675,-0.01275041,-0.00820725,0.00431635,0.00006881,0.00007704,-0.0001
 9640,0.00006677,0.00009927,0.00009790,0.00072370,0.00214066,0.00170762
 ,-0.00039421,-0.00328901,-0.00723305,0.00029344,-0.00008061,0.00036781
 ,-0.00008043,-0.00002069,-0.00008404,0.00086764,0.00023976,0.00016471,
 -0.00006518,-0.00022222,0.00002514,0.00332926,0.00446586,0.00104550,0.
 00114321,-0.00440537,0.00342036,0.00043511,0.00409671,0.00177185,-0.00
 013505,-0.00076187,0.00068829,0.07801167,0.32568359,0.00186252,-0.0039
 6182,0.00027487,0.01817321,0.03606380,-0.00532854,0.00066806,0.0000684
 0,0.00024287,0.01118441,0.04169629,-0.09481676,-0.00261623,0.00341705,
 -0.00579465,-0.00062559,0.00053633,0.00033174,0.00038762,-0.00033072,0
 .00027184,-0.00001804,0.00000453,-0.00011907,-0.01596530,-0.02084648,0
 .00286168,0.00614939,0.00970893,0.00165963,-0.00005070,-0.00007426,0.0
 0017729,-0.00004224,0.00004308,0.00011267,-0.00034407,0.00134481,0.002
 26004,-0.00029570,-0.00374398,-0.00438316,-0.00036925,0.00037647,-0.00
 030658,0.00008477,-0.00006343,0.00006129,-0.00058182,0.00023903,0.0000
 3475,0.00051841,-0.00027038,-0.00000125,-0.00906134,0.00284539,-0.0059
 5856,0.00131742,0.00323951,-0.00285253,-0.00068711,-0.00092441,0.00128
 475,0.00026507,-0.00021193,0.00059691,0.14957800,-0.18423897,0.5383380
 7,0.00003846,-0.00099534,-0.00043698,-0.00202777,-0.00241567,-0.000462
 31,-0.00000418,-0.00000281,0.00009572,0.00544904,-0.00954611,0.0206329
 8,0.00055660,-0.00038627,0.00047535,0.00009578,0.00009779,0.00010631,-
 0.00001249,-0.00002197,-0.00000637,-0.00001300,0.00005584,-0.00001452,
 0.00186732,-0.00187153,0.00038201,-0.00065028,-0.00092816,0.00098492,0
 .00000806,0.00000483,-0.00000511,0.00000744,0.00000835,0.00002509,-0.0
 0037425,0.00058302,-0.00015343,-0.00038887,0.00009421,-0.00040839,-0.0
 0000442,0.00000995,0.00002001,0.00000460,-0.00000046,-0.00001038,-0.00
 007199,0.00006404,0.00006360,0.00010875,-0.00004202,-0.00004346,-0.001
 51498,0.00093545,-0.00146429,0.00197886,0.00093827,0.00048635,0.000060
 82,0.00023042,-0.00000576,-0.00011563,-0.00004315,-0.00001351,-0.07010
 845,0.03925485,-0.15631355,0.06717358,-0.00079967,-0.00006469,-0.00013
 342,-0.00392839,-0.00687441,-0.00038700,0.00004858,-0.00005994,-0.0000
 2680,0.00986074,-0.01769623,0.03645174,0.00065307,-0.00082762,0.001645
 26,0.00022085,0.00001380,-0.00011814,-0.00005249,-0.00000394,0.0000703
 5,-0.00001932,0.00002138,0.00000656,0.00113006,-0.00346116,0.00292686,
 -0.00036928,0.00071859,0.00001588,0.00000464,0.00000407,-0.00002020,0.
 00000911,0.00000071,0.00000411,-0.00010552,-0.00016009,-0.00035269,0.0
 0019798,0.00086809,0.00044257,-0.00003156,0.00004891,-0.00012415,0.000
 02039,-0.00000566,0.00004852,-0.00006921,0.00007737,-0.00009724,0.0001
 1449,-0.00003318,0.00005519,-0.00107382,0.00068208,-0.00093357,0.00168
 449,0.00005200,0.00060823,0.00003237,0.00075603,-0.00032720,-0.0000719
 8,0.00002066,0.00034476,0.01860747,-0.07843548,0.12263645,-0.02724608,
 0.10157520,-0.00011863,-0.00019852,0.00027612,0.00162033,0.00014503,0.
 00032832,-0.00011046,0.00018264,-0.00000648,-0.00098236,0.00613730,-0.
 00696942,-0.00026432,-0.00041480,0.00004235,-0.00005950,0.00005651,0.0
 0000191,-0.00002326,0.00003499,-0.00007826,0.00000863,-0.00002523,0.00
 001128,-0.00042344,-0.00394725,0.00360132,-0.00085830,-0.00081715,-0.0
 0001281,0.00000608,0.00002267,-0.00001950,-0.00000477,-0.00001439,-0.0
 0001621,-0.00008336,0.00027063,-0.00033247,-0.00029661,0.00043389,-0.0
 0111097,0.00009225,-0.00011218,0.00011144,-0.00002434,0.00002096,-0.00
 002069,0.00023138,-0.00008221,0.00004410,-0.00008660,0.00003073,-0.000
 01705,0.00032553,-0.00048583,0.00075094,-0.00043275,0.00022213,-0.0011
 1708,-0.00005209,-0.00026211,0.00028797,-0.00010379,0.00002177,-0.0000
 2947,-0.13423297,0.15989763,-0.42951460,0.13542417,-0.16286970,0.43553
 545,-0.00042267,0.00037771,0.00121875,0.00027922,0.00039644,0.00125968
 ,0.00037641,-0.00016150,-0.00004292,0.00133509,-0.00318943,-0.00276199
 ,-0.00011896,0.00025962,0.00009479,0.00067574,-0.00005735,-0.00050299,
 -0.00010490,-0.00002790,0.00021736,0.00000281,-0.00006169,0.00004558,-
 0.09096666,0.04617513,-0.02700687,0.00081170,-0.00129685,-0.00057653,0
 .00000628,0.00000373,0.00001150,0.00000084,-0.00000906,-0.00002171,-0.
 00930733,0.02321598,-0.03346756,0.01224317,-0.00309216,0.00804610,-0.0
 0009798,0.00016568,-0.00033623,0.00004735,-0.00003624,0.00011399,-0.00
 017271,0.00004848,-0.00027062,0.00011485,-0.00000953,0.00012842,0.0000
 7382,-0.00059423,-0.00071890,-0.00003343,0.00024151,0.00019663,0.00046
 590,-0.00004675,-0.00029667,-0.00013009,0.00008779,0.00015684,0.001749
 40,0.00045299,-0.00266658,-0.00227721,0.00077923,0.00026441,0.11552148
 ,0.00007179,-0.00062855,-0.00063769,0.00056143,-0.00332802,-0.00226354
 ,-0.00035122,-0.00015660,0.00000979,-0.00896087,0.00705642,-0.01311533
 ,0.00011470,0.00069513,-0.00069491,-0.00040772,-0.00005533,0.00034202,
 0.00002223,-0.00002642,-0.00009895,-0.00004096,0.00015841,-0.00003619,
 0.04303003,-0.13559644,0.04221531,-0.00034836,0.00123703,0.00106084,0.
 00001679,-0.00002186,-0.00002926,0.00002246,0.00004159,0.00005959,0.00
 890758,-0.00875039,0.01739867,0.01613317,-0.01742229,0.03208550,0.0000
 5576,0.00001513,0.00015260,-0.00003549,-0.00001136,-0.00005485,0.00017
 988,0.00016377,0.00006426,-0.00000876,-0.00007030,0.00000728,-0.000017
 10,0.00119610,0.00012277,0.00055018,-0.00022061,0.00042007,-0.00015434
 ,0.00069586,-0.00088931,0.00003226,-0.00003595,0.00007627,-0.00048682,
 0.00373628,-0.00601006,-0.00020826,0.00159550,0.00131779,-0.12630613,0
 .30216099,0.00086789,0.00109846,-0.00043788,0.00125071,-0.00699351,0.0
 0108617,0.00050723,-0.00056556,0.00022570,-0.02095643,0.02278527,-0.04
 640487,0.00036007,-0.00033096,0.00075868,0.00026378,0.00000900,-0.0001
 8792,0.00021980,-0.00018279,0.00042499,0.00003126,-0.00008356,0.000005
 52,-0.05220617,0.07874090,-0.17069539,0.00040775,0.00114961,0.00253673
 ,-0.00004844,-0.00012284,0.00012290,0.00000953,0.00002123,-0.00000423,
 -0.00847082,0.00545281,-0.00423679,-0.00478262,0.01441904,-0.01465292,
 -0.00043690,0.00041261,-0.00054898,0.00011375,-0.00006135,0.00014065,-
 0.00109316,0.00019587,-0.00034532,0.00032179,0.00001066,0.00009671,-0.
 00114281,-0.00090649,-0.00042109,0.00048709,0.00048170,-0.00007538,-0.
 00046967,-0.00053971,-0.00525508,0.00037960,0.00040897,-0.00000083,-0.
 00078072,0.00106530,-0.00075096,0.00081072,0.00080219,-0.00131901,-0.0
 1279055,0.11621022,0.65076321,0.00026969,-0.00013811,-0.00015245,0.000
 64777,-0.00070578,-0.00029734,-0.00000207,0.00003010,0.00002474,-0.001
 89914,0.00166506,-0.00286321,0.00005453,-0.00000593,0.00003544,-0.0001
 1409,0.00002765,0.00007655,0.00004479,-0.00000328,-0.00003582,0.000003
 65,0.00000811,-0.00001214,0.00035993,-0.00709313,-0.01771675,0.0002093
 9,-0.00000735,-0.00010342,-0.00000829,-0.00001445,0.00000832,0.0000026
 6,0.00000520,0.00000710,0.00036154,-0.00065653,-0.00085098,0.00022599,
 0.00043539,0.00078069,-0.00001200,-0.00001788,0.00006638,-0.00000226,0
 .00000809,-0.00003236,-0.00004887,-0.00001370,0.00009131,-0.00000008,0
 .00000163,-0.00004792,-0.00014443,0.00006993,0.00013097,0.00009232,-0.
 00001368,-0.00008218,-0.00017786,0.00007292,-0.00051168,0.00007621,0.0
 0001844,-0.00003393,-0.00026183,0.00020408,-0.00055135,0.00021423,0.00
 040386,0.00018477,-0.03007214,0.06762779,0.09714733,0.03018035,0.00000
 640,-0.00005378,-0.00003265,-0.00018038,0.00070764,0.00043510,0.000006
 86,0.00005567,0.00001604,0.00103743,-0.00384075,0.00251552,-0.00004060
 ,0.00007161,-0.00003048,-0.00002018,0.00001550,-0.00000010,-0.00000227
 ,0.00000512,-0.00001004,-0.00000177,-0.00001035,0.00000026,-0.00289940
 ,0.00835874,0.02738493,-0.00017350,-0.00003937,0.00003559,-0.00000096,
 0.00000746,-0.00000094,-0.00000309,-0.00000604,-0.00000547,0.00084769,
 0.00028062,0.00036068,-0.00028341,-0.00038014,0.00135563,0.00000918,-0
 .00002754,0.00001012,0.00000116,0.00000836,0.00000111,0.00000288,-0.00
 002803,0.00001635,0.00000155,0.00000734,-0.00001400,-0.00005481,0.0000
 5025,-0.00001866,0.00012557,0.00000523,0.00003877,0.00009407,0.0000573
 8,0.00041881,-0.00000867,-0.00002598,0.00006294,-0.00067068,0.00052976
 ,-0.00154363,0.00143078,0.00118802,0.00043470,0.06268456,-0.15242810,-
 0.23347708,-0.06190842,0.14549138,0.00007544,0.00002365,-0.00028842,0.
 00023643,-0.00144707,-0.00032333,-0.00016210,0.00000210,0.00002128,-0.
 00308092,0.00443717,-0.00468776,0.00006836,0.00005210,-0.00002566,-0.0
 0017374,0.00001533,0.00010330,0.00000536,0.00001854,-0.00007237,-0.000
 00627,0.00003042,-0.00000692,0.00761459,-0.01702191,-0.02632720,-0.000
 04148,0.00033440,0.00057183,0.00000426,-0.00000299,-0.00001209,0.00000
 430,0.00000569,0.00000769,-0.00034864,-0.00100685,0.00237185,0.0007607
 6,-0.00042284,0.00054593,0.00005087,-0.00005249,0.00010662,-0.00002166
 ,0.00001073,-0.00003360,0.00009967,0.00000130,0.00005632,-0.00004951,0
 .00000781,-0.00002701,0.00011903,0.00011476,0.00022176,-0.00012033,-0.
 00004793,-0.00012259,-0.00007396,0.00005538,-0.00033873,0.00001864,0.0
 0004197,-0.00010475,0.00074610,0.00118565,0.00131828,-0.00016919,-0.00
 066855,-0.00042718,0.06970610,-0.18771288,-0.41082463,-0.07526209,0.20
 204651,0.43829737\\0.00002121,-0.00003812,-0.00001010,-0.00002323,0.00
 000375,-0.00000809,-0.00000535,0.00000521,-0.00000220,-0.00000789,-0.0
 0000500,0.00001211,0.00000363,0.00000502,-0.00000048,-0.00000684,0.000
 00534,0.00000433,-0.00001605,0.00001935,-0.00000943,-0.00000046,0.0000
 0251,-0.00000236,0.00001346,-0.00000951,0.00000531,0.00000426,-0.00000
 154,-0.00000973,0.00000388,-0.00000265,0.00000080,-0.00000094,-0.00000
 530,-0.00000269,-0.00000104,0.00000342,0.00000162,-0.00000102,0.000003
 01,-0.00000128,0.00000975,-0.00001178,0.00001136,-0.00000463,-0.000000
 34,-0.00000224,-0.00000104,0.00000907,0.00000072,0.00000110,-0.0000059
 6,0.00000011,-0.00000412,0.00002669,0.00000811,0.00000316,-0.00000100,
 0.00000075,0.00000742,-0.00000490,0.00001070,-0.00000324,0.00000270,-0
 .00000347,0.00002029,-0.00000775,-0.00002058,-0.00000538,0.00000531,0.
 00001987,-0.00001394,-0.00000353,-0.00000649,0.00000700,0.00000600,0.0
 0000335\\\@
 The archive entry for this job was punched.


 NOTHING PUZZLES ME MORE THAN TIME AND SPACE; AND YET NOTHING TROUBLES ME LESS
                                                          -- CHARLES LAMB (1810)
 Job cpu time:       0 days 10 hours  4 minutes 46.4 seconds.
 Elapsed time:       0 days  0 hours 38 minutes 48.3 seconds.
 File lengths (MBytes):  RWF=    704 Int=      0 D2E=      0 Chk=     27 Scr=      1
 Normal termination of Gaussian 16 at Wed Sep 27 12:35:05 2023.
