 Entering Gaussian System, Link 0=/opt/software/gaussian/g16.c01/g16
 Initial command:
 /opt/software/gaussian/g16.c01/l1.exe "/scratch/arhender/13209911/Gau-138680.inp" -scrdir="/scratch/arhender/13209911/"
 Entering Link 1 = /opt/software/gaussian/g16.c01/l1.exe PID=    138740.
  
 Copyright (c) 1988-2019, Gaussian, Inc.  All Rights Reserved.
  
 This is part of the Gaussian(R) 16 program.  It is based on
 the Gaussian(R) 09 system (copyright 2009, Gaussian, Inc.),
 the Gaussian(R) 03 system (copyright 2003, Gaussian, Inc.),
 the Gaussian(R) 98 system (copyright 1998, Gaussian, Inc.),
 the Gaussian(R) 94 system (copyright 1995, Gaussian, Inc.),
 the Gaussian 92(TM) system (copyright 1992, Gaussian, Inc.),
 the Gaussian 90(TM) system (copyright 1990, Gaussian, Inc.),
 the Gaussian 88(TM) system (copyright 1988, Gaussian, Inc.),
 the Gaussian 86(TM) system (copyright 1986, Carnegie Mellon
 University), and the Gaussian 82(TM) system (copyright 1983,
 Carnegie Mellon University). Gaussian is a federally registered
 trademark of Gaussian, Inc.
  
 This software contains proprietary and confidential information,
 including trade secrets, belonging to Gaussian, Inc.
  
 This software is provided under written license and may be
 used, copied, transmitted, or stored only in accord with that
 written license.
  
 The following legend is applicable only to US Government
 contracts under FAR:
  
                    RESTRICTED RIGHTS LEGEND
  
 Use, reproduction and disclosure by the US Government is
 subject to restrictions as set forth in subparagraphs (a)
 and (c) of the Commercial Computer Software - Restricted
 Rights clause in FAR 52.227-19.
  
 Gaussian, Inc.
 340 Quinnipiac St., Bldg. 40, Wallingford CT 06492
  
  
 ---------------------------------------------------------------
 Warning -- This program may not be used in any manner that
 competes with the business of Gaussian, Inc. or will provide
 assistance to any competitor of Gaussian, Inc.  The licensee
 of this program is prohibited from giving any competitor of
 Gaussian, Inc. access to this program.  By using this program,
 the user acknowledges that Gaussian, Inc. is engaged in the
 business of creating and licensing software in the field of
 computational chemistry and represents and warrants to the
 licensee that it is not a competitor of Gaussian, Inc. and that
 it will not use this program in any manner prohibited above.
 ---------------------------------------------------------------
  

 Cite this work as:
 Gaussian 16, Revision C.01,
 M. J. Frisch, G. W. Trucks, H. B. Schlegel, G. E. Scuseria, 
 M. A. Robb, J. R. Cheeseman, G. Scalmani, V. Barone, 
 G. A. Petersson, H. Nakatsuji, X. Li, M. Caricato, A. V. Marenich, 
 J. Bloino, B. G. Janesko, R. Gomperts, B. Mennucci, H. P. Hratchian, 
 J. V. Ortiz, A. F. Izmaylov, J. L. Sonnenberg, D. Williams-Young, 
 F. Ding, F. Lipparini, F. Egidi, J. Goings, B. Peng, A. Petrone, 
 T. Henderson, D. Ranasinghe, V. G. Zakrzewski, J. Gao, N. Rega, 
 G. Zheng, W. Liang, M. Hada, M. Ehara, K. Toyota, R. Fukuda, 
 J. Hasegawa, M. Ishida, T. Nakajima, Y. Honda, O. Kitao, H. Nakai, 
 T. Vreven, K. Throssell, J. A. Montgomery, Jr., J. E. Peralta, 
 F. Ogliaro, M. J. Bearpark, J. J. Heyd, E. N. Brothers, K. N. Kudin, 
 V. N. Staroverov, T. A. Keith, R. Kobayashi, J. Normand, 
 K. Raghavachari, A. P. Rendell, J. C. Burant, S. S. Iyengar, 
 J. Tomasi, M. Cossi, J. M. Millam, M. Klene, C. Adamo, R. Cammi, 
 J. W. Ochterski, R. L. Martin, K. Morokuma, O. Farkas, 
 J. B. Foresman, and D. J. Fox, Gaussian, Inc., Wallingford CT, 2019.
 
 ******************************************
 Gaussian 16:  ES64L-G16RevC.01  3-Jul-2019
                27-Sep-2023 
 ******************************************
 %chk=MannitolConformerOpt_8.chk
 %mem=8GB
 %nprocs=16
 Will use up to   16 processors via shared memory.
 ---------------------------------------------
 # opt freq wb97xd/def2tzvpp geom=connectivity
 ---------------------------------------------
 1/18=20,19=15,26=3,38=1,57=2/1,3;
 2/9=110,12=2,17=6,18=5,40=1/2;
 3/5=44,7=202,11=2,25=1,30=1,71=1,74=-58/1,2,3;
 4//1;
 5/5=2,38=5/2;
 6/7=2,8=2,9=2,10=2,28=1/1;
 7//1,2,3,16;
 1/18=20,19=15,26=3/3(2);
 2/9=110/2;
 99//99;
 2/9=110/2;
 3/5=44,7=202,11=2,25=1,30=1,71=1,74=-58/1,2,3;
 4/5=5,16=3,69=1/1;
 5/5=2,38=5/2;
 7//1,2,3,16;
 1/18=20,19=15,26=3/3(-5);
 2/9=110/2;
 6/7=2,8=2,9=2,10=2,19=2,28=1/1;
 99/9=1/99;
 --------------------------------
 Mannitol Conformer Optimziations
 --------------------------------
 Symbolic Z-matrix:
 Charge =  0 Multiplicity = 1
 C                     0.        0.        0. 
 C                     1.5414    0.        0. 
 C                    -0.6158    0.6213    1.259 
 C                     2.2445   -0.786     1.1221 
 H                     1.9031    1.0363    0. 
 H                    -0.3647   -1.0253   -0.1314 
 C                    -2.1344    0.7946    1.1352 
 H                    -0.1679    1.6016    1.4612 
 C                     1.8449   -2.2669    1.203 
 H                     2.0858   -0.299     2.088 
 H                    -2.6215   -0.1605    0.9139 
 H                    -2.3981    1.5308    0.3703 
 H                     0.7678   -2.418     1.3043 
 H                     2.3374   -2.7354    2.0612 
 O                    -2.6328    1.2449    2.4015 
 H                    -3.5846    1.4125    2.2778 
 O                    -0.3554   -0.2046    2.4022 
 H                    -0.9775    0.1296    3.0846 
 O                    -0.4333    0.7267   -1.1639 
 H                     0.1542    0.4174   -1.8852 
 O                     1.9638   -0.5404   -1.2802 
 H                     2.9396   -0.4399   -1.2668 
 O                     3.6636   -0.7176    0.8432 
 H                     3.937    -1.6267    0.6015 
 O                     2.3113   -2.9609    0.0417 
 H                     1.9479   -2.4886   -0.7358 
 

 GradGradGradGradGradGradGradGradGradGradGradGradGradGradGradGradGradGrad
 Berny optimization.
 Initialization pass.
                           ----------------------------
                           !    Initial Parameters    !
                           ! (Angstroms and Degrees)  !
 --------------------------                            --------------------------
 ! Name  Definition              Value          Derivative Info.                !
 --------------------------------------------------------------------------------
 ! R1    R(1,2)                  1.5414         estimate D2E/DX2                !
 ! R2    R(1,3)                  1.5331         estimate D2E/DX2                !
 ! R3    R(1,6)                  1.0961         estimate D2E/DX2                !
 ! R4    R(1,19)                 1.4389         estimate D2E/DX2                !
 ! R5    R(2,4)                  1.5399         estimate D2E/DX2                !
 ! R6    R(2,5)                  1.0976         estimate D2E/DX2                !
 ! R7    R(2,21)                 1.4524         estimate D2E/DX2                !
 ! R8    R(3,7)                  1.5335         estimate D2E/DX2                !
 ! R9    R(3,8)                  1.0966         estimate D2E/DX2                !
 ! R10   R(3,17)                 1.4342         estimate D2E/DX2                !
 ! R11   R(4,9)                  1.536          estimate D2E/DX2                !
 ! R12   R(4,10)                 1.0933         estimate D2E/DX2                !
 ! R13   R(4,23)                 1.4479         estimate D2E/DX2                !
 ! R14   R(7,11)                 1.0947         estimate D2E/DX2                !
 ! R15   R(7,12)                 1.0939         estimate D2E/DX2                !
 ! R16   R(7,15)                 1.4334         estimate D2E/DX2                !
 ! R17   R(9,13)                 1.0924         estimate D2E/DX2                !
 ! R18   R(9,14)                 1.0948         estimate D2E/DX2                !
 ! R19   R(9,25)                 1.431          estimate D2E/DX2                !
 ! R20   R(15,16)                0.9743         estimate D2E/DX2                !
 ! R21   R(17,18)                0.982          estimate D2E/DX2                !
 ! R22   R(19,20)                0.9804         estimate D2E/DX2                !
 ! R23   R(21,22)                0.9811         estimate D2E/DX2                !
 ! R24   R(23,24)                0.9796         estimate D2E/DX2                !
 ! R25   R(25,26)                0.9796         estimate D2E/DX2                !
 ! A1    A(2,1,3)              113.6831         estimate D2E/DX2                !
 ! A2    A(2,1,6)              109.4336         estimate D2E/DX2                !
 ! A3    A(2,1,19)             107.5253         estimate D2E/DX2                !
 ! A4    A(3,1,6)              110.1133         estimate D2E/DX2                !
 ! A5    A(3,1,19)             109.7939         estimate D2E/DX2                !
 ! A6    A(6,1,19)             105.9763         estimate D2E/DX2                !
 ! A7    A(1,2,4)              117.1674         estimate D2E/DX2                !
 ! A8    A(1,2,5)              109.2405         estimate D2E/DX2                !
 ! A9    A(1,2,21)             106.908          estimate D2E/DX2                !
 ! A10   A(4,2,5)              109.357          estimate D2E/DX2                !
 ! A11   A(4,2,21)             108.6385         estimate D2E/DX2                !
 ! A12   A(5,2,21)             104.8008         estimate D2E/DX2                !
 ! A13   A(1,3,7)              112.1656         estimate D2E/DX2                !
 ! A14   A(1,3,8)              110.4661         estimate D2E/DX2                !
 ! A15   A(1,3,17)             110.3835         estimate D2E/DX2                !
 ! A16   A(7,3,8)              108.5632         estimate D2E/DX2                !
 ! A17   A(7,3,17)             108.0137         estimate D2E/DX2                !
 ! A18   A(8,3,17)             107.0776         estimate D2E/DX2                !
 ! A19   A(2,4,9)              114.3124         estimate D2E/DX2                !
 ! A20   A(2,4,10)             110.4954         estimate D2E/DX2                !
 ! A21   A(2,4,23)             106.4418         estimate D2E/DX2                !
 ! A22   A(9,4,10)             110.1919         estimate D2E/DX2                !
 ! A23   A(9,4,23)             108.1003         estimate D2E/DX2                !
 ! A24   A(10,4,23)            106.9424         estimate D2E/DX2                !
 ! A25   A(3,7,11)             110.9993         estimate D2E/DX2                !
 ! A26   A(3,7,12)             111.7921         estimate D2E/DX2                !
 ! A27   A(3,7,15)             107.9696         estimate D2E/DX2                !
 ! A28   A(11,7,12)            109.7886         estimate D2E/DX2                !
 ! A29   A(11,7,15)            107.3343         estimate D2E/DX2                !
 ! A30   A(12,7,15)            108.8131         estimate D2E/DX2                !
 ! A31   A(4,9,13)             113.2517         estimate D2E/DX2                !
 ! A32   A(4,9,14)             109.6845         estimate D2E/DX2                !
 ! A33   A(4,9,25)             109.8795         estimate D2E/DX2                !
 ! A34   A(13,9,14)            108.161          estimate D2E/DX2                !
 ! A35   A(13,9,25)            109.2412         estimate D2E/DX2                !
 ! A36   A(14,9,25)            106.3793         estimate D2E/DX2                !
 ! A37   A(7,15,16)            106.3522         estimate D2E/DX2                !
 ! A38   A(3,17,18)            104.0583         estimate D2E/DX2                !
 ! A39   A(1,19,20)            104.7934         estimate D2E/DX2                !
 ! A40   A(2,21,22)            103.8347         estimate D2E/DX2                !
 ! A41   A(4,23,24)            106.0951         estimate D2E/DX2                !
 ! A42   A(9,25,26)            106.8202         estimate D2E/DX2                !
 ! D1    D(3,1,2,4)             61.2759         estimate D2E/DX2                !
 ! D2    D(3,1,2,5)            -63.7343         estimate D2E/DX2                !
 ! D3    D(3,1,2,21)          -176.6199         estimate D2E/DX2                !
 ! D4    D(6,1,2,4)            -62.2929         estimate D2E/DX2                !
 ! D5    D(6,1,2,5)            172.6969         estimate D2E/DX2                !
 ! D6    D(6,1,2,21)            59.8113         estimate D2E/DX2                !
 ! D7    D(19,1,2,4)          -176.9691         estimate D2E/DX2                !
 ! D8    D(19,1,2,5)            58.0207         estimate D2E/DX2                !
 ! D9    D(19,1,2,21)          -54.8649         estimate D2E/DX2                !
 ! D10   D(2,1,3,7)            171.4884         estimate D2E/DX2                !
 ! D11   D(2,1,3,8)             50.226          estimate D2E/DX2                !
 ! D12   D(2,1,3,17)           -68.0073         estimate D2E/DX2                !
 ! D13   D(6,1,3,7)            -65.3135         estimate D2E/DX2                !
 ! D14   D(6,1,3,8)            173.4241         estimate D2E/DX2                !
 ! D15   D(6,1,3,17)            55.1907         estimate D2E/DX2                !
 ! D16   D(19,1,3,7)            51.0025         estimate D2E/DX2                !
 ! D17   D(19,1,3,8)           -70.2599         estimate D2E/DX2                !
 ! D18   D(19,1,3,17)          171.5067         estimate D2E/DX2                !
 ! D19   D(2,1,19,20)           42.8293         estimate D2E/DX2                !
 ! D20   D(3,1,19,20)          166.9772         estimate D2E/DX2                !
 ! D21   D(6,1,19,20)          -74.1287         estimate D2E/DX2                !
 ! D22   D(1,2,4,9)             56.4454         estimate D2E/DX2                !
 ! D23   D(1,2,4,10)           -68.5298         estimate D2E/DX2                !
 ! D24   D(1,2,4,23)           175.7055         estimate D2E/DX2                !
 ! D25   D(5,2,4,9)           -178.6027         estimate D2E/DX2                !
 ! D26   D(5,2,4,10)            56.4221         estimate D2E/DX2                !
 ! D27   D(5,2,4,23)           -59.3427         estimate D2E/DX2                !
 ! D28   D(21,2,4,9)           -64.759          estimate D2E/DX2                !
 ! D29   D(21,2,4,10)          170.2658         estimate D2E/DX2                !
 ! D30   D(21,2,4,23)           54.5011         estimate D2E/DX2                !
 ! D31   D(1,2,21,22)          174.7371         estimate D2E/DX2                !
 ! D32   D(4,2,21,22)          -57.9505         estimate D2E/DX2                !
 ! D33   D(5,2,21,22)           58.8524         estimate D2E/DX2                !
 ! D34   D(1,3,7,11)            56.5906         estimate D2E/DX2                !
 ! D35   D(1,3,7,12)           -66.3666         estimate D2E/DX2                !
 ! D36   D(1,3,7,15)           173.9779         estimate D2E/DX2                !
 ! D37   D(8,3,7,11)           178.9405         estimate D2E/DX2                !
 ! D38   D(8,3,7,12)            55.9833         estimate D2E/DX2                !
 ! D39   D(8,3,7,15)           -63.6722         estimate D2E/DX2                !
 ! D40   D(17,3,7,11)          -65.2771         estimate D2E/DX2                !
 ! D41   D(17,3,7,12)          171.7657         estimate D2E/DX2                !
 ! D42   D(17,3,7,15)           52.1102         estimate D2E/DX2                !
 ! D43   D(1,3,17,18)         -165.0277         estimate D2E/DX2                !
 ! D44   D(7,3,17,18)          -42.0671         estimate D2E/DX2                !
 ! D45   D(8,3,17,18)           74.683          estimate D2E/DX2                !
 ! D46   D(2,4,9,13)           -55.4737         estimate D2E/DX2                !
 ! D47   D(2,4,9,14)          -176.4049         estimate D2E/DX2                !
 ! D48   D(2,4,9,25)            66.9904         estimate D2E/DX2                !
 ! D49   D(10,4,9,13)           69.662          estimate D2E/DX2                !
 ! D50   D(10,4,9,14)          -51.2693         estimate D2E/DX2                !
 ! D51   D(10,4,9,25)         -167.874          estimate D2E/DX2                !
 ! D52   D(23,4,9,13)         -173.7953         estimate D2E/DX2                !
 ! D53   D(23,4,9,14)           65.2734         estimate D2E/DX2                !
 ! D54   D(23,4,9,25)          -51.3313         estimate D2E/DX2                !
 ! D55   D(2,4,23,24)         -111.8429         estimate D2E/DX2                !
 ! D56   D(9,4,23,24)           11.3919         estimate D2E/DX2                !
 ! D57   D(10,4,23,24)         130.0239         estimate D2E/DX2                !
 ! D58   D(3,7,15,16)          175.7576         estimate D2E/DX2                !
 ! D59   D(11,7,15,16)         -64.514          estimate D2E/DX2                !
 ! D60   D(12,7,15,16)          54.2373         estimate D2E/DX2                !
 ! D61   D(4,9,25,26)          -55.6032         estimate D2E/DX2                !
 ! D62   D(13,9,25,26)          69.2052         estimate D2E/DX2                !
 ! D63   D(14,9,25,26)        -174.2636         estimate D2E/DX2                !
 --------------------------------------------------------------------------------
 Trust Radius=3.00D-01 FncErr=1.00D-07 GrdErr=1.00D-06 EigMax=2.50D+02 EigMin=1.00D-04
 Number of steps in this run=    140 maximum allowed number of steps=    156.
 GradGradGradGradGradGradGradGradGradGradGradGradGradGradGradGradGradGrad

                          Input orientation:                          
 ---------------------------------------------------------------------
 Center     Atomic      Atomic             Coordinates (Angstroms)
 Number     Number       Type             X           Y           Z
 ---------------------------------------------------------------------
      1          6           0        0.000000    0.000000    0.000000
      2          6           0        1.541400    0.000000    0.000000
      3          6           0       -0.615800    0.621300    1.259000
      4          6           0        2.244500   -0.786000    1.122100
      5          1           0        1.903100    1.036300    0.000000
      6          1           0       -0.364700   -1.025300   -0.131400
      7          6           0       -2.134400    0.794600    1.135200
      8          1           0       -0.167900    1.601600    1.461200
      9          6           0        1.844900   -2.266900    1.203000
     10          1           0        2.085800   -0.299000    2.088000
     11          1           0       -2.621500   -0.160500    0.913900
     12          1           0       -2.398100    1.530800    0.370300
     13          1           0        0.767800   -2.418000    1.304300
     14          1           0        2.337400   -2.735400    2.061200
     15          8           0       -2.632800    1.244900    2.401500
     16          1           0       -3.584600    1.412500    2.277800
     17          8           0       -0.355400   -0.204600    2.402200
     18          1           0       -0.977500    0.129600    3.084600
     19          8           0       -0.433300    0.726700   -1.163900
     20          1           0        0.154200    0.417400   -1.885200
     21          8           0        1.963800   -0.540400   -1.280200
     22          1           0        2.939600   -0.439900   -1.266800
     23          8           0        3.663600   -0.717600    0.843200
     24          1           0        3.937000   -1.626700    0.601500
     25          8           0        2.311300   -2.960900    0.041700
     26          1           0        1.947900   -2.488600   -0.735800
 ---------------------------------------------------------------------
                    Distance matrix (angstroms):
                    1          2          3          4          5
     1  C    0.000000
     2  C    1.541400   0.000000
     3  C    1.533070   2.573831   0.000000
     4  C    2.629579   1.539888   3.190698   0.000000
     5  H    2.166958   1.097609   2.846430   2.167127   0.000000
     6  H    1.096135   2.168346   2.169690   2.904557   3.067634
     7  C    2.544746   3.928304   1.533462   4.655452   4.201012
     8  H    2.174493   2.760785   1.096580   3.411055   2.596866
     9  C    3.160649   2.584213   3.794717   1.535998   3.515925
    10  H    2.966430   2.178421   2.972009   1.093306   2.485186
    11  H    2.780870   4.265057   2.180169   4.910453   4.768600
    12  H    2.869034   4.242656   2.189423   5.242757   4.345339
    13  H    2.852620   2.854186   3.339722   2.208453   3.862938
    14  H    4.146613   3.516330   4.542285   2.165802   4.320056
    15  O    3.774734   4.974025   2.400515   5.435943   5.136643
    16  H    4.475811   5.784411   3.236931   6.336202   5.953549
    17  O    2.436952   3.067617   1.434164   2.955700   3.522956
    18  H    3.238373   3.984521   1.924944   3.882140   4.316795
    19  O    1.438925   2.404620   2.432048   3.832058   2.628551
    20  H    1.937003   2.377504   3.243527   3.855046   2.644932
    21  O    2.405713   1.452366   3.801502   2.431081   2.031891
    22  H    3.231028   1.937333   4.488505   2.511930   2.204151
    23  O    3.827258   2.393673   4.503200   1.447863   2.624216
    24  H    4.302084   2.957508   5.119941   1.960193   3.404427
    25  O    3.756431   3.059643   4.783502   2.429386   4.018205
    26  H    3.244818   2.626742   4.497028   2.537442   3.601157
                    6          7          8          9         10
     6  H    0.000000
     7  C    2.836926   0.000000
     8  H    3.078264   2.150499   0.000000
     9  C    2.864354   5.021176   4.368446   0.000000
    10  H    3.384996   4.462497   3.014021   2.171149   0.000000
    11  H    2.633188   1.094740   3.069965   4.946638   4.853490
    12  H    3.304552   1.093892   2.483720   5.754908   5.138484
    13  H    2.298566   4.332685   4.130053   1.092354   2.615621
    14  H    3.877278   5.771947   5.044412   1.094786   2.449503
    15  O    4.088235   1.433418   2.662167   5.815405   4.974645
    16  H    4.702645   1.946899   3.518016   6.646251   5.926103
    17  O    2.663224   2.401777   2.045237   3.245379   2.463146
    18  H    3.471595   2.362372   2.336164   4.153260   3.249726
    19  O    2.034764   2.860806   2.779755   4.444553   4.239431
    20  H    2.329475   3.808252   3.564333   4.427292   4.475559
    21  O    2.641360   4.940812   4.080145   3.026751   3.379043
    22  H    3.542630   5.747962   4.611536   3.261320   3.464608
    23  O    4.155927   5.999068   4.521173   2.416083   2.052853
    24  H    4.404934   6.558157   5.292562   2.269040   2.720186
    25  O    3.307187   5.921467   5.383105   1.431008   3.365101
    26  H    2.802618   5.562842   5.102270   1.954151   3.575921
                   11         12         13         14         15
    11  H    0.000000
    12  H    1.790504   0.000000
    13  H    4.090975   5.146679   0.000000
    14  H    5.704130   6.594283   1.771238   0.000000
    15  O    2.046517   2.064606   5.117105   6.376635   0.000000
    16  H    2.293930   2.249518   5.879100   7.233400   0.974328
    17  O    2.711492   3.363459   2.714056   3.711119   2.699556
    18  H    2.738400   3.368811   3.564520   4.499348   2.109630
    19  O    3.145250   2.619310   4.174181   5.483082   4.221186
    20  H    3.984149   3.583459   4.311486   5.502780   5.179568
    21  O    5.097389   5.102959   3.411076   4.015290   6.153937
    22  H    5.979912   5.920709   3.903863   4.087487   6.880888
    23  O    6.310138   6.482526   3.389636   2.704413   6.776751
    24  H    6.727649   7.082143   3.341244   2.432830   7.392453
    25  O    5.738945   6.516272   2.066710   2.032218   6.906630
    26  H    5.387112   6.022188   2.357886   2.834754   6.690627
                   16         17         18         19         20
    16  H    0.000000
    17  O    3.613616   0.000000
    18  H    3.015581   0.982022   0.000000
    19  O    4.716600   3.686524   4.324631   0.000000
    20  H    5.683258   4.362153   5.105143   0.980355   0.000000
    21  O    6.874440   4.364805   5.305810   2.713882   2.134961
    22  H    7.652500   4.936998   5.882405   3.570434   2.979234
    23  O    7.689721   4.341199   5.223163   4.785294   4.587840
    24  H    8.283790   4.867195   5.779506   5.268268   4.967051
    25  O    7.673878   4.503381   5.443036   4.752336   4.447351
    26  H    7.410055   4.513191   5.477992   4.023871   3.603237
                   21         22         23         24         25
    21  O    0.000000
    22  H    0.981053   0.000000
    23  O    2.725720   2.247975   0.000000
    24  H    2.935023   2.427724   0.979607   0.000000
    25  O    2.779747   2.909016   2.739254   2.176319   0.000000
    26  H    2.022896   2.337221   2.928021   2.547108   0.979609
                   26
    26  H    0.000000
 Stoichiometry    C6H14O6
 Framework group  C1[X(C6H14O6)]
 Deg. of freedom    72
 Full point group                 C1      NOp   1
 Largest Abelian subgroup         C1      NOp   1
 Largest concise Abelian subgroup C1      NOp   1
                         Standard orientation:                         
 ---------------------------------------------------------------------
 Center     Atomic      Atomic             Coordinates (Angstroms)
 Number     Number       Type             X           Y           Z
 ---------------------------------------------------------------------
      1          6           0        0.514490    0.782822    0.213581
      2          6           0       -0.803185    0.671862   -0.578464
      3          6           0        1.637310   -0.107542   -0.331242
      4          6           0       -1.482488   -0.709371   -0.623154
      5          1           0       -0.640699    1.030692   -1.602956
      6          1           0        0.326845    0.549928    1.268124
      7          6           0        2.983537    0.180737    0.344091
      8          1           0        1.750984    0.037112   -1.412278
      9          6           0       -1.794789   -1.305479    0.757575
     10          1           0       -0.884560   -1.411199   -1.210722
     11          1           0        2.910086    0.065945    1.430315
     12          1           0        3.353524    1.181190    0.101597
     13          1           0       -0.917566   -1.377831    1.404477
     14          1           0       -2.215280   -2.309349    0.639299
     15          8           0        3.929982   -0.788342   -0.124752
     16          1           0        4.789107   -0.543074    0.263915
     17          8           0        1.323547   -1.491257   -0.122169
     18          1           0        2.177449   -1.954043   -0.267249
     19          8           0        0.925749    2.161303    0.179525
     20          1           0        0.103069    2.671837    0.333308
     21          8           0       -1.729134    1.625818    0.006303
     22          1           0       -2.514221    1.580493   -0.580255
     23          8           0       -2.733952   -0.527951   -1.328301
     24          1           0       -3.441665   -0.661522   -0.664275
     25          8           0       -2.798648   -0.521800    1.410182
     26          1           0       -2.466688    0.399485    1.436069
 ---------------------------------------------------------------------
 Rotational constants (GHZ):           1.5186025           0.5189278           0.4526859
 Standard basis: def2TZVPP (5D, 7F)
 There are   642 symmetry adapted cartesian basis functions of A   symmetry.
 There are   568 symmetry adapted basis functions of A   symmetry.
   568 basis functions,   850 primitive gaussians,   642 cartesian basis functions
    49 alpha electrons       49 beta electrons
       nuclear repulsion energy       828.3057147829 Hartrees.
 NAtoms=   26 NActive=   26 NUniq=   26 SFac= 1.00D+00 NAtFMM=   60 NAOKFM=F Big=F
 Integral buffers will be    131072 words long.
 Raffenetti 2 integral format.
 Two-electron integral symmetry is turned on.
 Nuclear repulsion after empirical dispersion term =      828.2870387264 Hartrees.
 One-electron integrals computed using PRISM.
   1 Symmetry operations used in ECPInt.
 ECPInt:  NShTT=   23436 NPrTT=   62434 LenC2=   21787 LenP2D=   45325.
 LDataN:  DoStor=T MaxTD1= 6 Len=  172
 NBasis=   568 RedAO= T EigKep=  4.64D-05  NBF=   568
 NBsUse=   568 1.00D-06 EigRej= -1.00D+00 NBFU=   568
 ExpMin= 9.52D-02 ExpMax= 2.70D+04 ExpMxC= 9.22D+02 IAcc=3 IRadAn=         5 AccDes= 0.00D+00
 Harris functional with IExCor= 4639 and IRadAn=       5 diagonalized for initial guess.
 HarFok:  IExCor= 4639 AccDes= 0.00D+00 IRadAn=         5 IDoV= 1 UseB2=F ITyADJ=14
 ICtDFT=  3500011 ScaDFX=  1.000000  1.000000  1.000000  1.000000
 FoFCou: FMM=F IPFlag=           0 FMFlag=      100000 FMFlg1=           0
         NFxFlg=           0 DoJE=T BraDBF=F KetDBF=T FulRan=T
         wScrn=  0.000000 ICntrl=       500 IOpCl=  0 I1Cent=   200000004 NGrid=           0
         NMat0=    1 NMatS0=      1 NMatT0=    0 NMatD0=    1 NMtDS0=    0 NMtDT0=    0
 Petite list used in FoFCou.
 Requested convergence on RMS density matrix=1.00D-08 within 128 cycles.
 Requested convergence on MAX density matrix=1.00D-06.
 Requested convergence on             energy=1.00D-06.
 No special actions if energy rises.
 Integral accuracy reduced to 1.0D-05 until final iterations.
 Initial convergence to 1.0D-05 achieved.  Increase integral accuracy.
 SCF Done:  E(RwB97XD) =  -688.469788240     A.U. after   14 cycles
            NFock= 14  Conv=0.17D-08     -V/T= 2.0050

 **********************************************************************

            Population analysis using the SCF Density.

 **********************************************************************

 Orbital symmetries:
       Occupied  (A) (A) (A) (A) (A) (A) (A) (A) (A) (A) (A) (A)
                 (A) (A) (A) (A) (A) (A) (A) (A) (A) (A) (A) (A)
                 (A) (A) (A) (A) (A) (A) (A) (A) (A) (A) (A) (A)
                 (A) (A) (A) (A) (A) (A) (A) (A) (A) (A) (A) (A)
                 (A)
       Virtual   (A) (A) (A) (A) (A) (A) (A) (A) (A) (A) (A) (A)
                 (A) (A) (A) (A) (A) (A) (A) (A) (A) (A) (A) (A)
                 (A) (A) (A) (A) (A) (A) (A) (A) (A) (A) (A) (A)
                 (A) (A) (A) (A) (A) (A) (A) (A) (A) (A) (A) (A)
                 (A) (A) (A) (A) (A) (A) (A) (A) (A) (A) (A) (A)
                 (A) (A) (A) (A) (A) (A) (A) (A) (A) (A) (A) (A)
                 (A) (A) (A) (A) (A) (A) (A) (A) (A) (A) (A) (A)
                 (A) (A) (A) (A) (A) (A) (A) (A) (A) (A) (A) (A)
                 (A) (A) (A) (A) (A) (A) (A) (A) (A) (A) (A) (A)
                 (A) (A) (A) (A) (A) (A) (A) (A) (A) (A) (A) (A)
                 (A) (A) (A) (A) (A) (A) (A) (A) (A) (A) (A) (A)
                 (A) (A) (A) (A) (A) (A) (A) (A) (A) (A) (A) (A)
                 (A) (A) (A) (A) (A) (A) (A) (A) (A) (A) (A) (A)
                 (A) (A) (A) (A) (A) (A) (A) (A) (A) (A) (A) (A)
                 (A) (A) (A) (A) (A) (A) (A) (A) (A) (A) (A) (A)
                 (A) (A) (A) (A) (A) (A) (A) (A) (A) (A) (A) (A)
                 (A) (A) (A) (A) (A) (A) (A) (A) (A) (A) (A) (A)
                 (A) (A) (A) (A) (A) (A) (A) (A) (A) (A) (A) (A)
                 (A) (A) (A) (A) (A) (A) (A) (A) (A) (A) (A) (A)
                 (A) (A) (A) (A) (A) (A) (A) (A) (A) (A) (A) (A)
                 (A) (A) (A) (A) (A) (A) (A) (A) (A) (A) (A) (A)
                 (A) (A) (A) (A) (A) (A) (A) (A) (A) (A) (A) (A)
                 (A) (A) (A) (A) (A) (A) (A) (A) (A) (A) (A) (A)
                 (A) (A) (A) (A) (A) (A) (A) (A) (A) (A) (A) (A)
                 (A) (A) (A) (A) (A) (A) (A) (A) (A) (A) (A) (A)
                 (A) (A) (A) (A) (A) (A) (A) (A) (A) (A) (A) (A)
                 (A) (A) (A) (A) (A) (A) (A) (A) (A) (A) (A) (A)
                 (A) (A) (A) (A) (A) (A) (A) (A) (A) (A) (A) (A)
                 (A) (A) (A) (A) (A) (A) (A) (A) (A) (A) (A) (A)
                 (A) (A) (A) (A) (A) (A) (A) (A) (A) (A) (A) (A)
                 (A) (A) (A) (A) (A) (A) (A) (A) (A) (A) (A) (A)
                 (A) (A) (A) (A) (A) (A) (A) (A) (A) (A) (A) (A)
                 (A) (A) (A) (A) (A) (A) (A) (A) (A) (A) (A) (A)
                 (A) (A) (A) (A) (A) (A) (A) (A) (A) (A) (A) (A)
                 (A) (A) (A) (A) (A) (A) (A) (A) (A) (A) (A) (A)
                 (A) (A) (A) (A) (A) (A) (A) (A) (A) (A) (A) (A)
                 (A) (A) (A) (A) (A) (A) (A) (A) (A) (A) (A) (A)
                 (A) (A) (A) (A) (A) (A) (A) (A) (A) (A) (A) (A)
                 (A) (A) (A) (A) (A) (A) (A) (A) (A) (A) (A) (A)
                 (A) (A) (A) (A) (A) (A) (A) (A) (A) (A) (A) (A)
                 (A) (A) (A) (A) (A) (A) (A) (A) (A) (A) (A) (A)
                 (A) (A) (A) (A) (A) (A) (A) (A) (A) (A) (A) (A)
                 (A) (A) (A) (A) (A) (A) (A) (A) (A) (A) (A) (A)
                 (A) (A) (A)
 The electronic state is 1-A.
 Alpha  occ. eigenvalues --  -19.27428 -19.26985 -19.25885 -19.25660 -19.25407
 Alpha  occ. eigenvalues --  -19.24772 -10.35486 -10.35263 -10.35092 -10.34158
 Alpha  occ. eigenvalues --  -10.34134 -10.33258  -1.15966  -1.14978  -1.13200
 Alpha  occ. eigenvalues --   -1.12107  -1.11453  -1.10492  -0.89009  -0.85228
 Alpha  occ. eigenvalues --   -0.80194  -0.75406  -0.71160  -0.68093  -0.63948
 Alpha  occ. eigenvalues --   -0.62895  -0.60540  -0.60143  -0.59453  -0.57570
 Alpha  occ. eigenvalues --   -0.56439  -0.55821  -0.53296  -0.52343  -0.51246
 Alpha  occ. eigenvalues --   -0.50257  -0.48495  -0.46442  -0.46038  -0.45627
 Alpha  occ. eigenvalues --   -0.44682  -0.42750  -0.41790  -0.38781  -0.38278
 Alpha  occ. eigenvalues --   -0.38001  -0.36914  -0.36275  -0.35597
 Alpha virt. eigenvalues --    0.08672   0.09744   0.12087   0.13028   0.13319
 Alpha virt. eigenvalues --    0.15677   0.16133   0.16868   0.17391   0.18765
 Alpha virt. eigenvalues --    0.19028   0.19808   0.20403   0.20815   0.21810
 Alpha virt. eigenvalues --    0.22154   0.23602   0.25176   0.25914   0.26478
 Alpha virt. eigenvalues --    0.27598   0.29586   0.30161   0.31404   0.32566
 Alpha virt. eigenvalues --    0.33931   0.36193   0.36552   0.37726   0.38568
 Alpha virt. eigenvalues --    0.38851   0.39028   0.40132   0.40820   0.41464
 Alpha virt. eigenvalues --    0.42416   0.42800   0.43651   0.44146   0.44904
 Alpha virt. eigenvalues --    0.45527   0.46155   0.46639   0.47556   0.47960
 Alpha virt. eigenvalues --    0.48498   0.49343   0.49744   0.50628   0.51298
 Alpha virt. eigenvalues --    0.51665   0.52037   0.52715   0.53856   0.54539
 Alpha virt. eigenvalues --    0.55281   0.55806   0.56993   0.57899   0.59627
 Alpha virt. eigenvalues --    0.60429   0.61534   0.62305   0.63353   0.63987
 Alpha virt. eigenvalues --    0.64799   0.65790   0.66732   0.67970   0.68523
 Alpha virt. eigenvalues --    0.69292   0.70456   0.71929   0.73014   0.73766
 Alpha virt. eigenvalues --    0.75290   0.75567   0.76337   0.77306   0.79202
 Alpha virt. eigenvalues --    0.81042   0.81717   0.82862   0.83707   0.86518
 Alpha virt. eigenvalues --    0.87451   0.88343   0.88493   0.89292   0.90721
 Alpha virt. eigenvalues --    0.91790   0.92916   0.94821   0.94939   0.95988
 Alpha virt. eigenvalues --    0.97061   0.98877   0.99193   1.00611   1.01286
 Alpha virt. eigenvalues --    1.02472   1.03711   1.04792   1.06378   1.08120
 Alpha virt. eigenvalues --    1.08488   1.08946   1.10115   1.11620   1.12952
 Alpha virt. eigenvalues --    1.14325   1.14894   1.16625   1.17770   1.18327
 Alpha virt. eigenvalues --    1.19593   1.20676   1.21923   1.22626   1.23764
 Alpha virt. eigenvalues --    1.25329   1.26807   1.28288   1.28784   1.29512
 Alpha virt. eigenvalues --    1.30816   1.31339   1.32215   1.33707   1.34589
 Alpha virt. eigenvalues --    1.36381   1.37379   1.37945   1.39569   1.40531
 Alpha virt. eigenvalues --    1.42580   1.43133   1.43549   1.45344   1.46036
 Alpha virt. eigenvalues --    1.46859   1.47540   1.49190   1.49980   1.50842
 Alpha virt. eigenvalues --    1.51962   1.52999   1.54536   1.56315   1.57708
 Alpha virt. eigenvalues --    1.58117   1.61107   1.62027   1.63054   1.64456
 Alpha virt. eigenvalues --    1.65737   1.66230   1.69898   1.70354   1.73185
 Alpha virt. eigenvalues --    1.74376   1.76310   1.80260   1.83375   1.85889
 Alpha virt. eigenvalues --    1.86357   1.88525   1.90152   1.92005   1.92319
 Alpha virt. eigenvalues --    1.94712   1.94838   1.97404   1.97792   1.99084
 Alpha virt. eigenvalues --    1.99857   2.01223   2.02760   2.04854   2.05474
 Alpha virt. eigenvalues --    2.06615   2.07191   2.07961   2.08871   2.10513
 Alpha virt. eigenvalues --    2.12316   2.13786   2.14857   2.16293   2.17510
 Alpha virt. eigenvalues --    2.18056   2.20448   2.20933   2.21587   2.24088
 Alpha virt. eigenvalues --    2.25568   2.27492   2.28918   2.30799   2.32326
 Alpha virt. eigenvalues --    2.33882   2.34736   2.37301   2.38966   2.41071
 Alpha virt. eigenvalues --    2.42603   2.45091   2.48660   2.50774   2.54179
 Alpha virt. eigenvalues --    2.56742   2.57504   2.58080   2.63060   2.64842
 Alpha virt. eigenvalues --    2.65742   2.67378   2.69711   2.70644   2.72713
 Alpha virt. eigenvalues --    2.73589   2.75556   2.76193   2.77074   2.78442
 Alpha virt. eigenvalues --    2.79674   2.80552   2.81343   2.82922   2.84820
 Alpha virt. eigenvalues --    2.86409   2.87793   2.87888   2.89340   2.90684
 Alpha virt. eigenvalues --    2.91830   2.94204   2.95670   2.97284   2.97613
 Alpha virt. eigenvalues --    2.98843   2.99182   2.99967   3.03142   3.04283
 Alpha virt. eigenvalues --    3.05451   3.07248   3.07496   3.09323   3.10750
 Alpha virt. eigenvalues --    3.12331   3.13720   3.15220   3.15468   3.15672
 Alpha virt. eigenvalues --    3.16090   3.17232   3.18741   3.19304   3.21421
 Alpha virt. eigenvalues --    3.22979   3.24318   3.25949   3.26750   3.27613
 Alpha virt. eigenvalues --    3.29054   3.30255   3.31029   3.32189   3.32381
 Alpha virt. eigenvalues --    3.33332   3.35066   3.35781   3.37211   3.38027
 Alpha virt. eigenvalues --    3.38422   3.39035   3.40990   3.41332   3.41734
 Alpha virt. eigenvalues --    3.43342   3.44835   3.45206   3.46962   3.47274
 Alpha virt. eigenvalues --    3.48030   3.48870   3.51576   3.52487   3.53335
 Alpha virt. eigenvalues --    3.54428   3.55496   3.56586   3.57712   3.59391
 Alpha virt. eigenvalues --    3.60339   3.62148   3.63154   3.64046   3.65920
 Alpha virt. eigenvalues --    3.67129   3.67711   3.69365   3.69897   3.72296
 Alpha virt. eigenvalues --    3.73119   3.73963   3.75956   3.76885   3.77362
 Alpha virt. eigenvalues --    3.79219   3.80471   3.81596   3.81748   3.82514
 Alpha virt. eigenvalues --    3.83826   3.85961   3.86815   3.88911   3.90171
 Alpha virt. eigenvalues --    3.91378   3.92091   3.93386   3.94647   3.95507
 Alpha virt. eigenvalues --    3.97058   3.98370   3.98949   4.01385   4.01635
 Alpha virt. eigenvalues --    4.02962   4.03145   4.05093   4.05620   4.06605
 Alpha virt. eigenvalues --    4.07226   4.07650   4.09206   4.11072   4.12355
 Alpha virt. eigenvalues --    4.13110   4.15062   4.15693   4.16416   4.16829
 Alpha virt. eigenvalues --    4.18226   4.18870   4.19495   4.20575   4.22326
 Alpha virt. eigenvalues --    4.23572   4.25587   4.26087   4.28348   4.29992
 Alpha virt. eigenvalues --    4.30211   4.31163   4.31872   4.33323   4.33403
 Alpha virt. eigenvalues --    4.34927   4.37428   4.37892   4.38831   4.40154
 Alpha virt. eigenvalues --    4.42092   4.42772   4.43724   4.46538   4.47591
 Alpha virt. eigenvalues --    4.50833   4.50963   4.51734   4.53142   4.54861
 Alpha virt. eigenvalues --    4.56136   4.57506   4.58978   4.61302   4.62736
 Alpha virt. eigenvalues --    4.63519   4.65994   4.67667   4.69182   4.71693
 Alpha virt. eigenvalues --    4.72832   4.74358   4.75610   4.78229   4.79593
 Alpha virt. eigenvalues --    4.81609   4.82632   4.83640   4.87142   4.88200
 Alpha virt. eigenvalues --    4.89545   4.90937   4.93296   4.94682   4.95644
 Alpha virt. eigenvalues --    4.96929   4.98856   5.00491   5.02951   5.03900
 Alpha virt. eigenvalues --    5.05744   5.06657   5.07506   5.10326   5.12417
 Alpha virt. eigenvalues --    5.13082   5.14233   5.16622   5.17379   5.20999
 Alpha virt. eigenvalues --    5.21798   5.25243   5.25872   5.26574   5.29587
 Alpha virt. eigenvalues --    5.31377   5.33130   5.39009   5.41408   5.42939
 Alpha virt. eigenvalues --    5.46249   5.48307   5.52924   5.56655   5.58360
 Alpha virt. eigenvalues --    5.61262   5.63370   5.64056   5.65576   5.66666
 Alpha virt. eigenvalues --    5.68356   5.69569   5.71418   5.72235   5.73622
 Alpha virt. eigenvalues --    5.77054   5.78279   5.80290   5.81803   5.85023
 Alpha virt. eigenvalues --    5.86562   5.88600   5.90376   5.93817   5.96173
 Alpha virt. eigenvalues --    5.97308   6.01415   6.03157   6.12198   6.13841
 Alpha virt. eigenvalues --    6.15639   6.16276   6.20490   6.21489   6.53045
 Alpha virt. eigenvalues --    6.53645   6.53964   6.55768   6.56385   6.59395
 Alpha virt. eigenvalues --    6.70997   6.72463   6.72823   6.74433   6.75811
 Alpha virt. eigenvalues --    6.76152   6.76736   6.78294   6.79190   6.79467
 Alpha virt. eigenvalues --    6.80482   6.82281   6.84808   6.86255   6.88962
 Alpha virt. eigenvalues --    6.91076   6.91597   6.93356   6.95950   6.99350
 Alpha virt. eigenvalues --    7.01795   7.03454   7.04848   7.06380   7.15318
 Alpha virt. eigenvalues --    7.18830   7.21877   7.22908   7.23627   7.25596
 Alpha virt. eigenvalues --    7.37305   7.39883   7.41165   7.42351   7.46475
 Alpha virt. eigenvalues --    7.47592   7.49271   7.56550   7.58433   7.60353
 Alpha virt. eigenvalues --    7.63082   7.63815  23.10747  23.15407  23.21277
 Alpha virt. eigenvalues --   23.25607  23.40201  23.43250  44.10804  44.13291
 Alpha virt. eigenvalues --   44.23844  44.26546  44.30584  44.35290
          Condensed to atoms (all electrons):
               1          2          3          4          5          6
     1  C    5.058924   0.183805   0.152388  -0.044511  -0.023924   0.382667
     2  C    0.183805   5.237111   0.008843   0.163028   0.417723   0.002245
     3  C    0.152388   0.008843   4.987609   0.017350  -0.006800  -0.025733
     4  C   -0.044511   0.163028   0.017350   4.939442  -0.028687  -0.010639
     5  H   -0.023924   0.417723  -0.006800  -0.028687   0.544265   0.007468
     6  H    0.382667   0.002245  -0.025733  -0.010639   0.007468   0.613545
     7  C    0.006592  -0.008657   0.280703   0.000168  -0.000882  -0.015539
     8  H   -0.032270  -0.010350   0.398093   0.001789   0.007377   0.008709
     9  C    0.029226   0.018985  -0.012688   0.274277   0.005410   0.000023
    10  H   -0.002181  -0.049947   0.000134   0.427679  -0.002415  -0.000639
    11  H    0.014772   0.000894  -0.054857  -0.000374   0.000067   0.005687
    12  H   -0.015256  -0.000196  -0.022987   0.000302   0.000133   0.001566
    13  H    0.011003  -0.013945  -0.007102  -0.030509  -0.000362  -0.006077
    14  H   -0.002252   0.010547   0.000516  -0.040109  -0.000210   0.000529
    15  O    0.006255  -0.000238  -0.070948   0.000008   0.000003  -0.000339
    16  H   -0.001141   0.000026   0.010795  -0.000001  -0.000000  -0.000037
    17  O   -0.043961  -0.007003   0.265085  -0.013114  -0.000018   0.004231
    18  H    0.005254   0.002042  -0.032837  -0.002156  -0.000107  -0.000035
    19  O    0.265810  -0.018280  -0.048084   0.009449   0.007495  -0.040920
    20  H   -0.044099  -0.005944   0.010842   0.002771  -0.001660  -0.005840
    21  O   -0.021618   0.173666   0.001887  -0.033185  -0.030452  -0.000875
    22  H    0.013950  -0.062339  -0.000825   0.015731  -0.008042  -0.000552
    23  O    0.011209  -0.086389  -0.000778   0.276311   0.004384  -0.000033
    24  H   -0.001547  -0.007638   0.000041  -0.038514  -0.000656  -0.000119
    25  O   -0.009041  -0.004245   0.001017  -0.028425  -0.000603   0.002242
    26  H   -0.004381   0.002229   0.000820  -0.004567   0.000940   0.002794
               7          8          9         10         11         12
     1  C    0.006592  -0.032270   0.029226  -0.002181   0.014772  -0.015256
     2  C   -0.008657  -0.010350   0.018985  -0.049947   0.000894  -0.000196
     3  C    0.280703   0.398093  -0.012688   0.000134  -0.054857  -0.022987
     4  C    0.000168   0.001789   0.274277   0.427679  -0.000374   0.000302
     5  H   -0.000882   0.007377   0.005410  -0.002415   0.000067   0.000133
     6  H   -0.015539   0.008709   0.000023  -0.000639   0.005687   0.001566
     7  C    4.721643  -0.025493  -0.000204   0.000015   0.419658   0.435089
     8  H   -0.025493   0.627476  -0.000798  -0.002783   0.009886  -0.005225
     9  C   -0.000204  -0.000798   4.767657  -0.027112  -0.000110  -0.000037
    10  H    0.000015  -0.002783  -0.027112   0.567386  -0.000062  -0.000053
    11  H    0.419658   0.009886  -0.000110  -0.000062   0.608936  -0.036299
    12  H    0.435089  -0.005225  -0.000037  -0.000053  -0.036299   0.576687
    13  H   -0.000081   0.000577   0.416611   0.002433   0.000256   0.000055
    14  H   -0.000000  -0.000010   0.417119  -0.006804  -0.000006   0.000000
    15  O    0.279877   0.006280  -0.000018  -0.000021  -0.051348  -0.044553
    16  H   -0.029555  -0.000200   0.000003   0.000005  -0.004934  -0.005523
    17  O   -0.020292  -0.046190  -0.010251   0.017225   0.000162   0.004265
    18  H   -0.008668  -0.004949   0.000714   0.000218  -0.001871   0.001520
    19  O    0.003090   0.003515  -0.000927  -0.000213  -0.000428   0.008783
    20  H   -0.000065  -0.000650  -0.000282  -0.000036  -0.000285  -0.000168
    21  O    0.000066  -0.000125  -0.009954   0.004448  -0.000014  -0.000003
    22  H    0.000066  -0.000071  -0.003076   0.001354  -0.000000   0.000001
    23  O    0.000008  -0.000045  -0.043781  -0.021884   0.000001   0.000000
    24  H   -0.000008   0.000005  -0.017414   0.005440   0.000000   0.000000
    25  O    0.000020   0.000001   0.231677   0.004338  -0.000001  -0.000000
    26  H    0.000001   0.000016  -0.032433  -0.000104  -0.000003  -0.000001
              13         14         15         16         17         18
     1  C    0.011003  -0.002252   0.006255  -0.001141  -0.043961   0.005254
     2  C   -0.013945   0.010547  -0.000238   0.000026  -0.007003   0.002042
     3  C   -0.007102   0.000516  -0.070948   0.010795   0.265085  -0.032837
     4  C   -0.030509  -0.040109   0.000008  -0.000001  -0.013114  -0.002156
     5  H   -0.000362  -0.000210   0.000003  -0.000000  -0.000018  -0.000107
     6  H   -0.006077   0.000529  -0.000339  -0.000037   0.004231  -0.000035
     7  C   -0.000081  -0.000000   0.279877  -0.029555  -0.020292  -0.008668
     8  H    0.000577  -0.000010   0.006280  -0.000200  -0.046190  -0.004949
     9  C    0.416611   0.417119  -0.000018   0.000003  -0.010251   0.000714
    10  H    0.002433  -0.006804  -0.000021   0.000005   0.017225   0.000218
    11  H    0.000256  -0.000006  -0.051348  -0.004934   0.000162  -0.001871
    12  H    0.000055   0.000000  -0.044553  -0.005523   0.004265   0.001520
    13  H    0.593259  -0.024009   0.000012  -0.000001   0.012862  -0.000438
    14  H   -0.024009   0.579945   0.000000   0.000000   0.000214  -0.000025
    15  O    0.000012   0.000000   7.890445   0.327420  -0.013711   0.026697
    16  H   -0.000001   0.000000   0.327420   0.521049   0.000437  -0.001713
    17  O    0.012862   0.000214  -0.013711   0.000437   7.896678   0.327150
    18  H   -0.000438  -0.000025   0.026697  -0.001713   0.327150   0.486801
    19  O    0.000110   0.000005   0.000065   0.000044   0.001816  -0.000170
    20  H   -0.000035   0.000004  -0.000003  -0.000005  -0.000213   0.000037
    21  O    0.000070  -0.000827   0.000000  -0.000000  -0.000087   0.000008
    22  H   -0.000193  -0.000093  -0.000000   0.000000  -0.000013  -0.000003
    23  O    0.004193   0.000534  -0.000000   0.000000   0.000173  -0.000008
    24  H    0.002794  -0.001306  -0.000000  -0.000000  -0.000035   0.000001
    25  O   -0.036294  -0.035664   0.000000  -0.000000   0.000107  -0.000004
    26  H   -0.007431   0.007153   0.000000  -0.000000   0.000067  -0.000002
              19         20         21         22         23         24
     1  C    0.265810  -0.044099  -0.021618   0.013950   0.011209  -0.001547
     2  C   -0.018280  -0.005944   0.173666  -0.062339  -0.086389  -0.007638
     3  C   -0.048084   0.010842   0.001887  -0.000825  -0.000778   0.000041
     4  C    0.009449   0.002771  -0.033185   0.015731   0.276311  -0.038514
     5  H    0.007495  -0.001660  -0.030452  -0.008042   0.004384  -0.000656
     6  H   -0.040920  -0.005840  -0.000875  -0.000552  -0.000033  -0.000119
     7  C    0.003090  -0.000065   0.000066   0.000066   0.000008  -0.000008
     8  H    0.003515  -0.000650  -0.000125  -0.000071  -0.000045   0.000005
     9  C   -0.000927  -0.000282  -0.009954  -0.003076  -0.043781  -0.017414
    10  H   -0.000213  -0.000036   0.004448   0.001354  -0.021884   0.005440
    11  H   -0.000428  -0.000285  -0.000014  -0.000000   0.000001   0.000000
    12  H    0.008783  -0.000168  -0.000003   0.000001   0.000000   0.000000
    13  H    0.000110  -0.000035   0.000070  -0.000193   0.004193   0.002794
    14  H    0.000005   0.000004  -0.000827  -0.000093   0.000534  -0.001306
    15  O    0.000065  -0.000003   0.000000  -0.000000  -0.000000  -0.000000
    16  H    0.000044  -0.000005  -0.000000   0.000000   0.000000  -0.000000
    17  O    0.001816  -0.000213  -0.000087  -0.000013   0.000173  -0.000035
    18  H   -0.000170   0.000037   0.000008  -0.000003  -0.000008   0.000001
    19  O    7.869234   0.330661  -0.014656  -0.000269  -0.000150   0.000019
    20  H    0.330661   0.485633   0.023674  -0.001252  -0.000040   0.000003
    21  O   -0.014656   0.023674   7.993376   0.323895  -0.008367   0.001598
    22  H   -0.000269  -0.001252   0.323895   0.488990   0.030526  -0.000108
    23  O   -0.000150  -0.000040  -0.008367   0.030526   7.924430   0.328123
    24  H    0.000019   0.000003   0.001598  -0.000108   0.328123   0.493212
    25  O    0.000013   0.000022  -0.022854   0.002724  -0.014479   0.032319
    26  H    0.000048   0.000158   0.034911  -0.002727   0.001199  -0.001839
              25         26
     1  C   -0.009041  -0.004381
     2  C   -0.004245   0.002229
     3  C    0.001017   0.000820
     4  C   -0.028425  -0.004567
     5  H   -0.000603   0.000940
     6  H    0.002242   0.002794
     7  C    0.000020   0.000001
     8  H    0.000001   0.000016
     9  C    0.231677  -0.032433
    10  H    0.004338  -0.000104
    11  H   -0.000001  -0.000003
    12  H   -0.000000  -0.000001
    13  H   -0.036294  -0.007431
    14  H   -0.035664   0.007153
    15  O    0.000000   0.000000
    16  H   -0.000000  -0.000000
    17  O    0.000107   0.000067
    18  H   -0.000004  -0.000002
    19  O    0.000013   0.000048
    20  H    0.000022   0.000158
    21  O   -0.022854   0.034911
    22  H    0.002724  -0.002727
    23  O   -0.014479   0.001199
    24  H    0.032319  -0.001839
    25  O    7.951516   0.324040
    26  H    0.324040   0.469653
 Mulliken charges:
               1
     1  C    0.104329
     2  C    0.054026
     3  C    0.147518
     4  C    0.146486
     5  H    0.109553
     6  H    0.075670
     7  C   -0.037551
     8  H    0.065436
     9  C   -0.002617
    10  H    0.083580
    11  H    0.090274
    12  H    0.101903
    13  H    0.082246
    14  H    0.094750
    15  O   -0.355883
    16  H    0.183333
    17  O   -0.375581
    18  H    0.202544
    19  O   -0.376059
    20  H    0.206773
    21  O   -0.414584
    22  H    0.202326
    23  O   -0.405137
    24  H    0.205631
    25  O   -0.398424
    26  H    0.209459
 Sum of Mulliken charges =  -0.00000
 Mulliken charges with hydrogens summed into heavy atoms:
               1
     1  C    0.179998
     2  C    0.163579
     3  C    0.212954
     4  C    0.230066
     7  C    0.154626
     9  C    0.174379
    15  O   -0.172550
    17  O   -0.173037
    19  O   -0.169286
    21  O   -0.212257
    23  O   -0.199506
    25  O   -0.188965
 Electronic spatial extent (au):  <R**2>=           2540.8108
 Charge=             -0.0000 electrons
 Dipole moment (field-independent basis, Debye):
    X=              2.3117    Y=              0.5288    Z=              0.4525  Tot=              2.4142
 Quadrupole moment (field-independent basis, Debye-Ang):
   XX=            -64.1481   YY=            -73.2489   ZZ=            -75.9901
   XY=             -3.3545   XZ=              4.7663   YZ=             -0.2182
 Traceless Quadrupole moment (field-independent basis, Debye-Ang):
   XX=              6.9809   YY=             -2.1199   ZZ=             -4.8611
   XY=             -3.3545   XZ=              4.7663   YZ=             -0.2182
 Octapole moment (field-independent basis, Debye-Ang**2):
  XXX=             71.4454  YYY=             -5.3094  ZZZ=              2.1986  XYY=            -14.3620
  XXY=             10.9650  XXZ=             10.2866  XZZ=             16.1577  YZZ=              7.2005
  YYZ=             -0.5011  XYZ=             -0.3548
 Hexadecapole moment (field-independent basis, Debye-Ang**3):
 XXXX=          -1678.1646 YYYY=           -586.3487 ZZZZ=           -320.8944 XXXY=            -36.4011
 XXXZ=            122.2890 YYYX=            -34.3651 YYYZ=              5.8570 ZZZX=             -3.5564
 ZZZY=              3.8134 XXYY=           -446.9647 XXZZ=           -458.5298 YYZZ=           -155.7592
 XXYZ=             -6.5708 YYXZ=             -2.2896 ZZXY=            -25.3931
 N-N= 8.282870387264D+02 E-N=-3.273778074406D+03  KE= 6.850281341303D+02
   1 Symmetry operations used in ECPInt.
 ECPInt:  NShTT=   23436 NPrTT=   62434 LenC2=   21787 LenP2D=   45325.
 LDataN:  DoStor=T MaxTD1= 7 Len=  274
 Calling FoFJK, ICntrl=      2127 FMM=F ISym2X=0 I1Cent= 0 IOpClX= 0 NMat=1 NMatS=1 NMatT=0.
 ***** Axes restored to original set *****
 -------------------------------------------------------------------
 Center     Atomic                   Forces (Hartrees/Bohr)
 Number     Number              X              Y              Z
 -------------------------------------------------------------------
      1        6           0.006285764    0.002244264   -0.015405977
      2        6           0.003817429   -0.003811636   -0.004557905
      3        6          -0.008494098   -0.000754298    0.009261231
      4        6           0.012318570   -0.002524390   -0.000483386
      5        1          -0.004705728   -0.000633336    0.007096343
      6        1           0.001372393   -0.001812705    0.007445501
      7        6          -0.004367250    0.004031615    0.001569461
      8        1          -0.000523073    0.001313619   -0.005921809
      9        6           0.001402373   -0.002352087   -0.010496224
     10        1          -0.003160284   -0.001521647   -0.003887129
     11        1           0.005040307   -0.001470104   -0.005014428
     12        1           0.004918717   -0.003701981   -0.002156531
     13        1           0.000668364    0.005633340    0.003663098
     14        1          -0.001237183    0.002259017   -0.002370779
     15        8          -0.011436173    0.003106054   -0.006718807
     16        1           0.018423247   -0.002981641    0.006206321
     17        8          -0.013706125    0.009498330    0.000768632
     18        1           0.013102403   -0.008902964   -0.012310020
     19        8           0.012527645   -0.007187526    0.002449844
     20        1          -0.011590743    0.007235402    0.013658974
     21        8           0.008756688    0.005551004    0.008654793
     22        1          -0.018857520   -0.003272848   -0.001317135
     23        8          -0.006731809   -0.015360389   -0.001420088
     24        1          -0.005605254    0.016818170    0.002381994
     25        8          -0.005989867    0.005953424   -0.004503348
     26        1           0.007771207   -0.007356688    0.013407375
 -------------------------------------------------------------------
 Cartesian Forces:  Max     0.018857520 RMS     0.007625968

 GradGradGradGradGradGradGradGradGradGradGradGradGradGradGradGradGradGrad
 Berny optimization.
 FormGI is forming the generalized inverse of G from B-inverse, IUseBI=4.
 Internal  Forces:  Max     0.019884255 RMS     0.005964644
 Search for a local minimum.
 Step number   1 out of a maximum of  140
 All quantities printed in internal units (Hartrees-Bohrs-Radians)
 Mixed Optimization -- RFO/linear search
 Second derivative matrix not updated -- first step.
 ITU=  0
     Eigenvalues ---    0.00230   0.00238   0.00290   0.00323   0.00328
     Eigenvalues ---    0.00999   0.01059   0.01177   0.01240   0.01250
     Eigenvalues ---    0.01282   0.03553   0.03868   0.03970   0.04219
     Eigenvalues ---    0.04611   0.04739   0.04794   0.04888   0.04911
     Eigenvalues ---    0.05284   0.05573   0.05614   0.07420   0.07656
     Eigenvalues ---    0.07734   0.08095   0.11327   0.11546   0.13607
     Eigenvalues ---    0.13790   0.16000   0.16000   0.16000   0.16000
     Eigenvalues ---    0.16000   0.16000   0.16686   0.16814   0.16929
     Eigenvalues ---    0.17580   0.19312   0.19587   0.19659   0.19742
     Eigenvalues ---    0.21996   0.22027   0.28395   0.28529   0.28876
     Eigenvalues ---    0.29106   0.29142   0.33948   0.34063   0.34113
     Eigenvalues ---    0.34265   0.34271   0.34367   0.34433   0.34542
     Eigenvalues ---    0.37937   0.38526   0.39733   0.40397   0.40502
     Eigenvalues ---    0.40845   0.50994   0.51181   0.51316   0.51461
     Eigenvalues ---    0.51461   0.52502
 RFO step:  Lambda=-1.81304313D-02 EMin= 2.30000000D-03
 Linear search not attempted -- first point.
 Iteration  1 RMS(Cart)=  0.08282327 RMS(Int)=  0.00265153
 Iteration  2 RMS(Cart)=  0.00337135 RMS(Int)=  0.00051897
 Iteration  3 RMS(Cart)=  0.00000558 RMS(Int)=  0.00051896
 Iteration  4 RMS(Cart)=  0.00000000 RMS(Int)=  0.00051896
 Variable       Old X    -DE/DX   Delta X   Delta X   Delta X     New X
                                 (Linear)    (Quad)   (Total)
    R1        2.91282  -0.01155   0.00000  -0.03823  -0.03823   2.87460
    R2        2.89708  -0.01289   0.00000  -0.04164  -0.04164   2.85544
    R3        2.07140   0.00035   0.00000   0.00097   0.00097   2.07236
    R4        2.71917  -0.01329   0.00000  -0.03198  -0.03198   2.68719
    R5        2.90997  -0.00375   0.00000  -0.01236  -0.01236   2.89760
    R6        2.07418  -0.00215   0.00000  -0.00601  -0.00601   2.06817
    R7        2.74457  -0.01025   0.00000  -0.02579  -0.02579   2.71878
    R8        2.89782  -0.01208   0.00000  -0.03906  -0.03906   2.85877
    R9        2.07224  -0.00013   0.00000  -0.00037  -0.00037   2.07187
   R10        2.71018  -0.00965   0.00000  -0.02287  -0.02287   2.68731
   R11        2.90262  -0.00469   0.00000  -0.01528  -0.01528   2.88734
   R12        2.06605  -0.00365   0.00000  -0.01008  -0.01008   2.05597
   R13        2.73607  -0.01221   0.00000  -0.03026  -0.03026   2.70580
   R14        2.06876   0.00005   0.00000   0.00015   0.00015   2.06891
   R15        2.06716  -0.00217   0.00000  -0.00600  -0.00600   2.06116
   R16        2.70877  -0.00284   0.00000  -0.00672  -0.00672   2.70205
   R17        2.06425  -0.00110   0.00000  -0.00302  -0.00302   2.06123
   R18        2.06885  -0.00338   0.00000  -0.00937  -0.00937   2.05947
   R19        2.70421  -0.00597   0.00000  -0.01398  -0.01398   2.69023
   R20        1.84121  -0.01930   0.00000  -0.03553  -0.03553   1.80568
   R21        1.85575  -0.01988   0.00000  -0.03765  -0.03765   1.81810
   R22        1.85260  -0.01928   0.00000  -0.03629  -0.03629   1.81632
   R23        1.85392  -0.01911   0.00000  -0.03606  -0.03606   1.81786
   R24        1.85119  -0.01776   0.00000  -0.03334  -0.03334   1.81785
   R25        1.85119  -0.01707   0.00000  -0.03204  -0.03204   1.81915
    A1        1.98414   0.00260   0.00000  -0.00075  -0.00071   1.98343
    A2        1.90998  -0.00195   0.00000  -0.00083  -0.00158   1.90839
    A3        1.87667   0.00464   0.00000   0.02284   0.02215   1.89882
    A4        1.92184  -0.00082   0.00000  -0.01761  -0.01718   1.90466
    A5        1.91626  -0.00901   0.00000  -0.05662  -0.05640   1.85986
    A6        1.84964   0.00481   0.00000   0.05812   0.05751   1.90714
    A7        2.04496   0.00357   0.00000   0.00650   0.00663   2.05158
    A8        1.90661  -0.00091   0.00000  -0.02232  -0.02216   1.88445
    A9        1.86590  -0.00887   0.00000  -0.04516  -0.04503   1.82087
   A10        1.90864  -0.00349   0.00000  -0.01968  -0.02046   1.88818
   A11        1.89610   0.00555   0.00000   0.03328   0.03317   1.92927
   A12        1.82912   0.00434   0.00000   0.05396   0.05363   1.88275
   A13        1.95766  -0.00171   0.00000  -0.01987  -0.01992   1.93774
   A14        1.92800   0.00028   0.00000  -0.01222  -0.01205   1.91595
   A15        1.92656  -0.00582   0.00000  -0.03809  -0.03779   1.88877
   A16        1.89479  -0.00083   0.00000  -0.00057  -0.00144   1.89334
   A17        1.88519   0.00523   0.00000   0.02619   0.02538   1.91058
   A18        1.86886   0.00325   0.00000   0.04907   0.04868   1.91754
   A19        1.99513   0.00447   0.00000   0.02229   0.02187   2.01699
   A20        1.92851  -0.00290   0.00000  -0.03688  -0.03689   1.89162
   A21        1.85776  -0.00224   0.00000   0.00243   0.00178   1.85954
   A22        1.92321  -0.00284   0.00000  -0.02836  -0.02842   1.89479
   A23        1.88671   0.00159   0.00000   0.02507   0.02474   1.91145
   A24        1.86650   0.00200   0.00000   0.01871   0.01898   1.88548
   A25        1.93730  -0.00246   0.00000  -0.02941  -0.02910   1.90820
   A26        1.95114  -0.00119   0.00000  -0.02356  -0.02338   1.92776
   A27        1.88443  -0.01268   0.00000  -0.05038  -0.05017   1.83426
   A28        1.91617  -0.00005   0.00000  -0.00072  -0.00285   1.91332
   A29        1.87334   0.00898   0.00000   0.05992   0.05882   1.93216
   A30        1.89915   0.00789   0.00000   0.04872   0.04759   1.94674
   A31        1.97662  -0.00822   0.00000  -0.04353  -0.04484   1.93178
   A32        1.91436  -0.00169   0.00000  -0.01983  -0.02019   1.89417
   A33        1.91776   0.00926   0.00000   0.04486   0.04491   1.96267
   A34        1.88777   0.00198   0.00000  -0.00518  -0.00617   1.88160
   A35        1.90662   0.00336   0.00000   0.05018   0.05059   1.95721
   A36        1.85667  -0.00463   0.00000  -0.02633  -0.02579   1.83088
   A37        1.85620   0.00686   0.00000   0.03849   0.03849   1.89469
   A38        1.81616   0.00483   0.00000   0.02710   0.02710   1.84326
   A39        1.82899   0.00195   0.00000   0.01096   0.01096   1.83995
   A40        1.81226   0.00279   0.00000   0.01569   0.01569   1.82795
   A41        1.85171  -0.00045   0.00000  -0.00253  -0.00253   1.84918
   A42        1.86436   0.00031   0.00000   0.00174   0.00174   1.86610
    D1        1.06947   0.00017   0.00000  -0.00423  -0.00412   1.06535
    D2       -1.11237   0.00294   0.00000   0.03709   0.03740  -1.07497
    D3       -3.08260   0.00283   0.00000   0.00796   0.00794  -3.07466
    D4       -1.08722   0.00086   0.00000   0.01993   0.01987  -1.06735
    D5        3.01413   0.00364   0.00000   0.06125   0.06139   3.07552
    D6        1.04390   0.00352   0.00000   0.03212   0.03193   1.07583
    D7       -3.08869  -0.00628   0.00000  -0.06021  -0.06033   3.13416
    D8        1.01265  -0.00350   0.00000  -0.01889  -0.01881   0.99384
    D9       -0.95757  -0.00362   0.00000  -0.04802  -0.04828  -1.00585
   D10        2.99304  -0.00056   0.00000  -0.01539  -0.01540   2.97764
   D11        0.87661   0.00147   0.00000   0.00751   0.00771   0.88432
   D12       -1.18695   0.00091   0.00000  -0.02178  -0.02143  -1.20838
   D13       -1.13994  -0.00185   0.00000  -0.03048  -0.03085  -1.17079
   D14        3.02682   0.00017   0.00000  -0.00758  -0.00774   3.01908
   D15        0.96326  -0.00039   0.00000  -0.03686  -0.03688   0.92638
   D16        0.89016  -0.00178   0.00000  -0.00340  -0.00358   0.88658
   D17       -1.22627   0.00024   0.00000   0.01951   0.01953  -1.20674
   D18        2.99336  -0.00032   0.00000  -0.00978  -0.00961   2.98375
   D19        0.74751   0.00018   0.00000   0.00615   0.00692   0.75444
   D20        2.91430   0.00076   0.00000  -0.01538  -0.01487   2.89943
   D21       -1.29379  -0.00221   0.00000  -0.03295  -0.03424  -1.32803
   D22        0.98516  -0.00320   0.00000  -0.03515  -0.03522   0.94993
   D23       -1.19607  -0.00047   0.00000   0.01567   0.01561  -1.18046
   D24        3.06664  -0.00011   0.00000   0.01094   0.01087   3.07750
   D25       -3.11721  -0.00467   0.00000  -0.07782  -0.07763   3.08835
   D26        0.98475  -0.00195   0.00000  -0.02699  -0.02680   0.95795
   D27       -1.03572  -0.00158   0.00000  -0.03173  -0.03154  -1.06727
   D28       -1.13026   0.00159   0.00000  -0.00658  -0.00670  -1.13696
   D29        2.97170   0.00432   0.00000   0.04424   0.04413   3.01583
   D30        0.95122   0.00468   0.00000   0.03951   0.03939   0.99061
   D31        3.04974  -0.00122   0.00000   0.00984   0.00952   3.05926
   D32       -1.01143   0.00092   0.00000   0.00953   0.00859  -1.00284
   D33        1.02717   0.00169   0.00000   0.02994   0.03120   1.05837
   D34        0.98769  -0.00264   0.00000  -0.02412  -0.02430   0.96339
   D35       -1.15832   0.00007   0.00000   0.01504   0.01490  -1.14342
   D36        3.03649  -0.00078   0.00000   0.00158   0.00143   3.03791
   D37        3.12310  -0.00398   0.00000  -0.05297  -0.05299   3.07011
   D38        0.97709  -0.00127   0.00000  -0.01382  -0.01379   0.96330
   D39       -1.11129  -0.00211   0.00000  -0.02727  -0.02726  -1.13855
   D40       -1.13930   0.00218   0.00000   0.01839   0.01853  -1.12078
   D41        2.99788   0.00489   0.00000   0.05755   0.05772   3.05560
   D42        0.90949   0.00405   0.00000   0.04410   0.04425   0.95375
   D43       -2.88028   0.00079   0.00000   0.01942   0.01926  -2.86102
   D44       -0.73421  -0.00157   0.00000  -0.01200  -0.01272  -0.74693
   D45        1.30346   0.00180   0.00000   0.02611   0.02700   1.33047
   D46       -0.96820  -0.00086   0.00000   0.04273   0.04350  -0.92469
   D47       -3.07885   0.00336   0.00000   0.09291   0.09261  -2.98623
   D48        1.16920   0.00458   0.00000   0.11032   0.11029   1.27950
   D49        1.21583  -0.00362   0.00000  -0.01256  -0.01182   1.20401
   D50       -0.89482   0.00060   0.00000   0.03762   0.03729  -0.85753
   D51       -2.92995   0.00181   0.00000   0.05503   0.05496  -2.87499
   D52       -3.03330  -0.00188   0.00000   0.00869   0.00906  -3.02425
   D53        1.13924   0.00234   0.00000   0.05887   0.05817   1.19740
   D54       -0.89590   0.00355   0.00000   0.07628   0.07584  -0.82006
   D55       -1.95203  -0.00155   0.00000   0.01886   0.01877  -1.93326
   D56        0.19883   0.00338   0.00000   0.06113   0.06101   0.25984
   D57        2.26934   0.00194   0.00000   0.05103   0.05124   2.32059
   D58        3.06755   0.00060   0.00000   0.01389   0.01401   3.08156
   D59       -1.12598  -0.00427   0.00000  -0.01531  -0.01727  -1.14325
   D60        0.94662   0.00497   0.00000   0.04383   0.04567   0.99229
   D61       -0.97046   0.00168   0.00000   0.02392   0.02283  -0.94763
   D62        1.20786  -0.00011   0.00000   0.03368   0.03492   1.24278
   D63       -3.04147   0.00141   0.00000   0.03870   0.03855  -3.00292
         Item               Value     Threshold  Converged?
 Maximum Force            0.019884     0.000450     NO 
 RMS     Force            0.005965     0.000300     NO 
 Maximum Displacement     0.285977     0.001800     NO 
 RMS     Displacement     0.082805     0.001200     NO 
 Predicted change in Energy=-1.046855D-02
 GradGradGradGradGradGradGradGradGradGradGradGradGradGradGradGradGradGrad

                          Input orientation:                          
 ---------------------------------------------------------------------
 Center     Atomic      Atomic             Coordinates (Angstroms)
 Number     Number       Type             X           Y           Z
 ---------------------------------------------------------------------
      1          6           0       -0.000023    0.010141   -0.002272
      2          6           0        1.521147    0.008298   -0.003030
      3          6           0       -0.604645    0.605917    1.247811
      4          6           0        2.229875   -0.783578    1.102315
      5          1           0        1.860103    1.047545    0.050355
      6          1           0       -0.364560   -1.017023   -0.123431
      7          6           0       -2.098368    0.789387    1.093946
      8          1           0       -0.153082    1.584706    1.448120
      9          6           0        1.822175   -2.250780    1.227272
     10          1           0        2.041306   -0.289508    2.053115
     11          1           0       -2.554872   -0.167598    0.821153
     12          1           0       -2.313938    1.530893    0.323644
     13          1           0        0.739082   -2.343341    1.317190
     14          1           0        2.267950   -2.658018    2.134555
     15          8           0       -2.555048    1.219285    2.378912
     16          1           0       -3.491143    1.402749    2.323237
     17          8           0       -0.344768   -0.277132    2.331762
     18          1           0       -0.946036   -0.009570    3.033557
     19          8           0       -0.457736    0.802074   -1.091045
     20          1           0        0.098397    0.558163   -1.836054
     21          8           0        1.875925   -0.505852   -1.299057
     22          1           0        2.834883   -0.438683   -1.334786
     23          8           0        3.632871   -0.698517    0.829255
     24          1           0        3.904358   -1.582057    0.562746
     25          8           0        2.343320   -3.051669    0.171979
     26          1           0        2.069126   -2.639933   -0.653848
 ---------------------------------------------------------------------
                    Distance matrix (angstroms):
                    1          2          3          4          5
     1  C    0.000000
     2  C    1.521172   0.000000
     3  C    1.511034   2.537862   0.000000
     4  C    2.612001   1.533346   3.160122   0.000000
     5  H    2.130504   1.094429   2.775594   2.143913   0.000000
     6  H    1.096646   2.149807   2.138195   2.878896   3.040027
     7  C    2.492383   3.861910   1.512794   4.605213   4.101856
     8  H    2.146234   2.719181   1.096385   3.377401   2.509025
     9  C    3.153403   2.589921   3.748412   1.527912   3.502216
    10  H    2.912290   2.141725   2.907122   1.087973   2.414869
    11  H    2.690144   4.162229   2.140969   4.832421   4.643567
    12  H    2.788030   4.139190   2.152057   5.158425   4.210812
    13  H    2.797523   2.807991   3.241688   2.168294   3.789416
    14  H    4.102293   3.498031   4.437498   2.140209   4.270998
    15  O    3.695974   4.873962   2.336597   5.341971   4.994521
    16  H    4.419871   5.699040   3.181721   6.245056   5.824774
    17  O    2.376782   3.002393   1.422063   2.897726   3.438175
    18  H    3.179872   3.912566   1.919443   3.796736   4.229823
    19  O    1.422000   2.393707   2.351660   3.814232   2.595270
    20  H    1.916448   2.384648   3.163348   3.870075   2.627098
    21  O    2.338179   1.438716   3.725022   2.443153   2.057718
    22  H    3.164447   1.923348   4.426211   2.534649   2.253372
    23  O    3.793620   2.377323   4.453457   1.431850   2.607321
    24  H    4.254237   2.920449   5.058424   1.931993   3.369915
    25  O    3.859573   3.173325   4.819320   2.454105   4.129388
    26  H    3.424737   2.781541   4.615289   2.560468   3.759931
                    6          7          8          9         10
     6  H    0.000000
     7  C    2.784101   0.000000
     8  H    3.046882   2.131222   0.000000
     9  C    2.851028   4.962968   4.319881   0.000000
    10  H    3.324879   4.384168   2.948566   2.139304   0.000000
    11  H    2.532041   1.094821   3.038462   4.864475   4.759984
    12  H    3.239109   1.090718   2.436522   5.676709   5.027234
    13  H    2.247784   4.232605   4.030218   1.090753   2.540788
    14  H    3.836857   5.659700   4.932880   1.089826   2.380722
    15  O    4.007622   1.429862   2.601797   5.703307   4.848616
    16  H    4.649409   1.956320   3.455660   6.540700   5.791778
    17  O    2.564333   2.396824   2.069785   3.132223   2.402321
    18  H    3.364469   2.393385   2.384136   3.993580   3.156557
    19  O    2.062540   2.732402   2.674450   4.460101   4.162031
    20  H    2.372471   3.669352   3.450048   4.499504   4.429343
    21  O    2.581310   4.816546   4.004283   3.070831   3.363214
    22  H    3.469624   5.634169   4.557039   3.297486   3.482799
    23  O    4.121712   5.927143   4.464252   2.417966   2.048951
    24  H    4.360477   6.476005   5.222557   2.285667   2.713456
    25  O    3.399950   5.944100   5.418167   1.423608   3.355505
    26  H    2.972878   5.673009   5.215750   1.936759   3.585096
                   11         12         13         14         15
    11  H    0.000000
    12  H    1.786179   0.000000
    13  H    3.978699   5.031675   0.000000
    14  H    5.584517   6.466844   1.761972   0.000000
    15  O    2.085679   2.092692   4.966976   6.193102   0.000000
    16  H    2.366188   2.323920   5.739348   7.049296   0.955527
    17  O    2.679272   3.343520   2.544269   3.540311   2.669612
    18  H    2.740083   3.404087   3.351422   4.260539   2.127807
    19  O    2.999124   2.444997   4.138309   5.459496   4.075952
    20  H    3.824568   3.380808   4.332685   5.551263   5.024321
    21  O    4.923583   4.933198   3.393159   4.071264   6.011412
    22  H    5.811284   5.756733   3.879830   4.157305   6.752168
    23  O    6.210484   6.371063   3.364156   2.721481   6.661062
    24  H    6.617335   6.958077   3.341813   2.511196   7.271170
    25  O    5.721152   6.535513   2.094473   2.003084   6.863353
    26  H    5.446965   6.128828   2.396242   2.795540   6.743455
                   16         17         18         19         20
    16  H    0.000000
    17  O    3.566756   0.000000
    18  H    2.996125   0.962096   0.000000
    19  O    4.606483   3.590690   4.231966   0.000000
    20  H    5.558581   4.273735   5.012612   0.961153   0.000000
    21  O    6.750495   4.262234   5.194353   2.683265   2.140117
    22  H    7.535954   4.855909   5.793264   3.527070   2.955220
    23  O    7.576204   4.272786   5.128351   4.761553   4.601698
    24  H    8.167118   4.784069   5.666035   5.238985   4.981980
    25  O    7.649229   4.425894   5.316283   4.928740   4.701357
    26  H    7.491521   4.508168   5.441228   4.292270   3.938172
                   21         22         23         24         25
    21  O    0.000000
    22  H    0.961971   0.000000
    23  O    2.766530   2.321072   0.000000
    24  H    2.956191   2.460022   0.961964   0.000000
    25  O    2.977178   3.056087   2.762658   2.179288   0.000000
    26  H    2.237839   2.428077   2.900687   2.442801   0.962651
                   26
    26  H    0.000000
 Stoichiometry    C6H14O6
 Framework group  C1[X(C6H14O6)]
 Deg. of freedom    72
 Full point group                 C1      NOp   1
 Largest Abelian subgroup         C1      NOp   1
 Largest concise Abelian subgroup C1      NOp   1
                         Standard orientation:                         
 ---------------------------------------------------------------------
 Center     Atomic      Atomic             Coordinates (Angstroms)
 Number     Number       Type             X           Y           Z
 ---------------------------------------------------------------------
      1          6           0        0.533412    0.768552    0.248601
      2          6           0       -0.765898    0.730637   -0.541536
      3          6           0        1.616192   -0.117042   -0.322832
      4          6           0       -1.485885   -0.618135   -0.658088
      5          1           0       -0.557215    1.094872   -1.552258
      6          1           0        0.336575    0.471781    1.285816
      7          6           0        2.941291    0.135131    0.362052
      8          1           0        1.734404    0.085623   -1.393819
      9          6           0       -1.794754   -1.317169    0.664964
     10          1           0       -0.874754   -1.281863   -1.266092
     11          1           0        2.820766    0.007663    1.442727
     12          1           0        3.294121    1.145060    0.149397
     13          1           0       -0.892881   -1.409911    1.271403
     14          1           0       -2.156253   -2.322434    0.449371
     15          8           0        3.828334   -0.853288   -0.167747
     16          1           0        4.700158   -0.704716    0.194028
     17          8           0        1.231745   -1.472068   -0.126956
     18          1           0        2.031818   -1.989855   -0.258901
     19          8           0        1.043014    2.095956    0.228901
     20          1           0        0.282548    2.663946    0.380215
     21          8           0       -1.607895    1.697532    0.111195
     22          1           0       -2.403189    1.733551   -0.428803
     23          8           0       -2.706532   -0.369054   -1.363901
     24          1           0       -3.412604   -0.490597   -0.721978
     25          8           0       -2.857212   -0.690665    1.375832
     26          1           0       -2.621263    0.237724    1.471330
 ---------------------------------------------------------------------
 Rotational constants (GHZ):           1.5190700           0.5321452           0.4618807
 Standard basis: def2TZVPP (5D, 7F)
 There are   642 symmetry adapted cartesian basis functions of A   symmetry.
 There are   568 symmetry adapted basis functions of A   symmetry.
   568 basis functions,   850 primitive gaussians,   642 cartesian basis functions
    49 alpha electrons       49 beta electrons
       nuclear repulsion energy       835.0001785269 Hartrees.
 NAtoms=   26 NActive=   26 NUniq=   26 SFac= 1.00D+00 NAtFMM=   60 NAOKFM=F Big=F
 Integral buffers will be    131072 words long.
 Raffenetti 2 integral format.
 Two-electron integral symmetry is turned on.
 Nuclear repulsion after empirical dispersion term =      834.9812381517 Hartrees.
 One-electron integrals computed using PRISM.
   1 Symmetry operations used in ECPInt.
 ECPInt:  NShTT=   23436 NPrTT=   62434 LenC2=   21845 LenP2D=   45505.
 LDataN:  DoStor=T MaxTD1= 6 Len=  172
[...]
 0026581,-0.00020667,0.00093097,0.30621674,0.04403951,-0.12750186,0.050
 18654,0.00736550,-0.00542930,0.00919632,-0.00441093,0.00643163,-0.0028
 3960,-0.00024158,0.00192026,-0.00168115,0.00150927,0.00202257,-0.00058
 879,0.01497673,-0.01983992,0.03736341,0.00111025,-0.00101048,0.0008886
 4,-0.00015990,0.00173229,0.00115850,-0.00125114,-0.00004477,0.00053252
 ,0.00010656,-0.00007841,0.00029095,0.00017338,0.00026500,-0.00007502,-
 0.00003472,0.00061940,-0.00114103,0.00066369,0.00042816,-0.00045972,0.
 00051810,0.00009155,0.00001062,-0.00029243,0.00074214,-0.00069789,-0.0
 0010190,-0.00014921,0.00006300,0.00106690,0.00142989,-0.00325995,0.000
 20563,0.00044663,-0.00058842,-0.15796407,0.19692845,-0.04509001,0.0756
 5518,-0.17528666,-0.01251509,0.01246954,-0.02165095,-0.01389374,0.0263
 8131,-0.03349763,0.00043041,-0.00149238,0.00445073,0.00110755,-0.00060
 185,0.00033969,-0.00287900,0.01516832,-0.00830530,0.00085804,-0.000253
 10,0.00015560,-0.00087324,-0.00055571,0.00160318,0.00073306,-0.0006849
 5,-0.00134755,0.00046153,-0.00014088,0.00030519,0.00030582,0.00064739,
 -0.00003343,0.00130931,0.00006329,-0.00218526,-0.00025891,-0.00043435,
 0.00017429,-0.00032000,0.00023156,0.00001574,0.00022480,-0.00008232,-0
 .00056157,-0.00023533,0.00006489,0.00016698,0.00569095,-0.00377473,-0.
 01028805,-0.00157146,0.00138577,-0.00147250,-0.17512233,-0.01231160,0.
 56511412,0.00871696,-0.00390060,-0.01305375,0.00111099,0.00010262,-0.0
 0754883,-0.00208963,0.00185984,-0.00183619,-0.00000372,0.00049364,0.00
 052174,-0.00040776,0.00003509,0.00019834,-0.00022067,0.00097062,-0.000
 05792,-0.00031667,0.00079699,0.00010401,-0.00000537,-0.00015389,0.0000
 9526,0.00054105,0.00011968,-0.00044211,0.00032125,-0.00016474,0.000374
 48,0.00002718,-0.00006165,-0.00008047,0.00005167,-0.00026080,0.0003003
 0,-0.00016307,-0.00014284,0.00006264,-0.00007627,-0.00008881,0.0000563
 8,0.00004776,-0.00024271,0.00008817,0.00001582,0.00002424,0.00003850,0
 .00059150,-0.00005661,-0.00179906,-0.00006539,0.00026329,-0.00024346,-
 0.19161542,0.08908690,0.23991240,0.18349802,-0.01275971,0.00447401,0.0
 2288029,0.00092494,0.00216132,0.00305722,0.00163542,-0.00212072,0.0007
 6225,-0.00013274,-0.00033439,-0.00067934,-0.00035485,-0.00051831,-0.00
 071773,-0.00031553,-0.00078633,0.00131787,0.00038038,-0.00029412,0.000
 05967,-0.00005617,0.00006407,0.00019107,0.00000868,0.00015293,0.000439
 29,-0.00014097,0.00008089,-0.00017282,0.00000360,0.00008654,-0.0000966
 8,-0.00024098,0.00021855,-0.00013636,0.00000153,0.00000655,0.00002994,
 -0.00002564,-0.00005573,-0.00004057,0.00004727,0.00000417,-0.00025761,
 -0.00002218,0.00003111,0.00000175,-0.00028845,0.00016531,0.00130265,0.
 00019378,0.00002441,0.00024880,0.09961016,-0.06002017,-0.11054113,-0.0
 8722540,0.05893905,0.01806950,-0.00735206,-0.03524476,-0.00019297,-0.0
 0093276,-0.00048826,-0.00256674,0.00502165,-0.00245564,0.00002317,0.00
 001286,-0.00150636,-0.00048837,-0.00013797,-0.00021971,0.00046853,-0.0
 0032250,0.00079423,-0.00013761,0.00021964,0.00012200,-0.00009414,-0.00
 016106,0.00020918,0.00009232,0.00019734,0.00028630,-0.00001054,0.00005
 021,0.00003034,0.00009970,0.00001926,-0.00003048,0.00017055,-0.0001304
 9,-0.00007045,0.00004262,0.00002613,-0.00006919,0.00005760,-0.00012307
 ,0.00001795,-0.00027877,0.00005835,0.00050752,0.00006133,-0.00000673,-
 0.00000292,0.00090636,-0.00073602,-0.00136243,-0.00022606,0.00024239,-
 0.00039223,0.20128078,-0.07806670,-0.32256227,-0.22061279,0.08373354,0
 .36161649,-0.02088215,0.02200377,0.04242591,-0.09686958,0.01098179,0.0
 4266333,-0.00889524,0.00061479,-0.00537057,-0.00199534,-0.00352953,-0.
 00877343,0.00505213,0.00111113,-0.00455480,0.00302035,-0.00021384,-0.0
 0007927,0.00153782,0.00052275,0.00210976,-0.00010938,-0.00001696,0.000
 04562,-0.00075120,0.00056526,0.00192629,-0.00048631,0.00159772,-0.0018
 0524,-0.00005997,-0.00014462,-0.00000235,0.00012140,-0.00004328,-0.000
 03260,0.00044074,0.00043429,-0.00034049,-0.00003437,-0.00039602,0.0000
 1294,-0.00195026,0.00043733,0.00100010,0.00003115,0.00008799,0.0002021
 7,0.00075504,-0.00093798,0.00099125,0.00005833,0.00000125,-0.00018052,
 -0.00324257,0.00208953,0.00520898,0.00082898,-0.00127499,0.00209742,0.
 63309075,0.00369998,-0.00119945,-0.00083771,-0.00695821,-0.09194741,-0
 .04401870,0.00005287,-0.00040838,0.00106782,-0.00122820,0.01117048,0.0
 0927938,0.01234822,-0.01040160,-0.03981906,0.00130206,0.00129301,0.000
 75178,-0.00029911,0.00037836,0.00006860,-0.00013569,0.00082095,0.00048
 589,0.00016171,-0.00267101,-0.00696236,0.00188289,-0.00051818,0.002827
 65,0.00019764,0.00003718,0.00000079,-0.00013862,0.00006528,-0.00002810
 ,-0.00033769,0.00009904,0.00040482,-0.00005277,0.00109813,0.00044228,0
 .00031960,-0.00000053,-0.00038220,-0.00007092,-0.00003284,0.00002122,0
 .00000985,0.00086376,-0.00107931,-0.00005105,0.00000286,0.00002160,0.0
 0335903,0.00168655,-0.00226113,-0.00117618,-0.00233189,-0.00091394,0.0
 5547784,0.11775737,0.00876808,-0.00537559,-0.01694831,0.00023746,-0.05
 535967,-0.17701562,0.00128425,0.00023364,0.00197894,0.01293115,-0.0183
 1397,-0.04921057,0.00670420,-0.01297699,-0.01894707,-0.00036487,0.0006
 0374,0.00075530,-0.00076124,0.00010260,-0.00097962,-0.00016168,0.00040
 917,0.00020865,0.00015445,-0.00389916,0.00044807,-0.00567711,0.0054092
 0,-0.00490987,0.00018710,0.00009864,-0.00005070,0.00016377,-0.00020879
 ,0.00004565,0.00010761,0.00046553,0.00005439,-0.00008732,0.00036335,0.
 00039419,0.00093002,-0.00032011,-0.00004539,-0.00004838,-0.00000549,-0
 .00006446,0.00080920,0.00022730,0.00034539,-0.00020911,-0.00004335,0.0
 0019841,-0.00273958,0.00036254,0.00394727,0.00221709,0.00032789,-0.000
 37247,-0.08744325,0.08307002,0.29886483,-0.00065428,0.00210941,0.00178
 338,-0.01251727,-0.00174192,0.00257197,-0.00043917,-0.00015517,-0.0003
 2062,0.00283997,-0.00112117,-0.00133844,0.00108768,-0.00058897,-0.0017
 3867,0.00047961,0.00011015,-0.00004521,0.00001451,0.00009793,0.0002339
 1,-0.00000113,0.00008997,0.00003578,-0.00055677,0.00011654,0.00029170,
 -0.00082598,0.00023056,-0.00029509,0.00000892,-0.00000851,-0.00001139,
 -0.00000985,0.00001225,-0.00000320,-0.00007558,-0.00018549,-0.00000236
 ,0.00005187,0.00017919,-0.00008757,0.00001667,-0.00004432,-0.00011475,
 -0.00001516,0.00000666,0.00002877,0.00004440,0.00005859,-0.00013665,-0
 .00001689,-0.00000092,0.00002772,0.00072935,-0.00022251,0.00042844,-0.
 00040734,-0.00047839,0.00014328,-0.51361710,-0.06812197,0.06262056,0.5
 2600698,0.00085343,-0.00156918,-0.00234520,0.01754195,0.00165138,-0.00
 539730,0.00103502,0.00057943,0.00006690,-0.00132194,0.00031436,0.00059
 865,0.00103564,0.00000719,-0.00008969,0.00006668,0.00019830,-0.0000543
 8,-0.00001461,-0.00005642,-0.00029144,-0.00005568,-0.00005868,0.000066
 39,-0.00059100,0.00056474,0.00125460,0.00006991,-0.00004070,-0.0002544
 9,-0.00002453,0.00000483,0.00000383,0.00001298,-0.00001180,0.00000771,
 0.00019574,-0.00002752,-0.00023521,0.00007125,-0.00010126,-0.00016408,
 0.00014130,-0.00006411,-0.00000782,0.00000684,0.00000030,-0.00003154,0
 .00005521,-0.00020358,0.00009204,0.00000268,0.00001297,0.00000666,0.00
 061365,-0.00045344,-0.00069037,-0.00063763,0.00053706,-0.00041729,-0.0
 8869995,-0.02565690,-0.00228159,0.06997568,0.02789101,0.00054668,-0.00
 262077,-0.00761605,0.04189098,0.00435899,-0.00805497,0.00192224,-0.000
 12283,0.00105654,0.00492741,0.00078073,-0.00268047,-0.00027310,-0.0009
 6240,0.00089647,-0.00036383,0.00013729,0.00000460,-0.00018376,-0.00015
 200,-0.00051437,-0.00001970,-0.00001449,0.00001673,0.00008055,0.000547
 08,-0.00024919,-0.00024015,-0.00023000,0.00040011,0.00001226,0.0000211
 1,0.00000336,0.00000886,-0.00001238,0.00001619,-0.00021304,-0.00032389
 ,-0.00001948,0.00002697,0.00002375,-0.00001404,0.00021102,-0.00000277,
 -0.00003363,0.00002640,-0.00003567,-0.00005218,-0.00039416,0.00021877,
 -0.00005142,0.00003692,-0.00000408,-0.00000819,-0.00175792,0.00113319,
 0.00077269,0.00096659,-0.00143041,0.00065898,0.01985746,-0.01204048,-0
 .04020471,-0.06438900,0.01006522,0.05113897,0.00549486,0.00305980,-0.0
 0445166,-0.05123935,0.00167083,0.00111726,0.00064450,-0.00097622,-0.00
 023139,-0.21160551,-0.03303633,0.02393374,0.00182062,-0.00010500,0.000
 91637,-0.00021647,-0.00026214,0.00021967,0.00057212,-0.00013365,-0.000
 16672,0.00003264,0.00013539,0.00004848,-0.03752780,-0.00723741,0.00719
 350,-0.02159365,-0.00046635,0.00663434,0.00001248,-0.00001840,0.000047
 89,-0.00003211,0.00004099,-0.00003370,0.00070054,-0.00558705,-0.000175
 32,0.00157138,0.00049426,0.00064135,-0.00078900,0.00042811,0.00055300,
 0.00010675,-0.00003597,-0.00006747,-0.00142465,0.00023980,0.00060446,0
 .00006069,-0.00001932,-0.00041351,-0.00466494,0.00181169,-0.00345733,-
 0.00019354,0.00022909,0.00112003,0.00311124,-0.00069566,0.00135662,-0.
 00195817,0.00009093,-0.00104956,0.38952467,-0.00147325,-0.00122266,0.0
 0304647,0.02206890,0.00405929,-0.00523345,-0.00061600,0.00005064,0.000
 49191,0.01557949,-0.09599746,-0.01338667,-0.00017425,0.00221118,-0.001
 84650,0.00092736,0.00044607,0.00007072,-0.00023010,-0.00002348,-0.0000
 0013,-0.00009909,0.00015835,-0.00004839,-0.03895921,-0.00566497,0.0047
 2619,0.01879149,0.00438235,-0.00103474,0.00006219,0.00003084,0.0000053
 4,-0.00001606,0.00001872,-0.00000033,-0.00180563,-0.00736533,-0.000099
 60,0.00017994,0.00260873,-0.00055071,0.00027203,-0.00002790,-0.0001918
 7,-0.00002930,-0.00003847,0.00001920,0.00113302,0.00059826,-0.00064915
 ,0.00009886,-0.00001972,0.00014960,0.00194694,-0.00013476,0.00114024,-
 0.00018286,-0.00016233,-0.00033519,-0.00010242,0.00227452,0.00046950,-
 0.00059276,-0.00153600,-0.00105112,-0.09807868,0.51714006,0.00087718,0
 .00209883,-0.00244746,-0.01911003,-0.00124189,-0.00183323,-0.00062328,
 0.00076771,-0.00171925,0.03651335,-0.00160133,-0.07050385,0.00038382,-
 0.00078895,0.00090687,-0.00009704,-0.00022269,-0.00001282,0.00019220,-
 0.00007638,0.00007326,-0.00009839,-0.00003107,0.00010507,0.01139554,-0
 .00230562,-0.00378997,0.03082437,0.00326977,0.00215683,0.00001164,0.00
 001668,-0.00001369,0.00014507,-0.00009707,0.00000246,0.00045191,0.0021
 3082,0.00177410,-0.00016898,-0.00188123,0.00064512,-0.00010030,-0.0000
 3216,0.00031883,-0.00000377,0.00001816,0.00002728,0.00158252,-0.000567
 71,0.00057608,0.00005816,-0.00000102,0.00017729,-0.00196286,0.00040152
 ,0.00004114,0.00068974,-0.00026941,0.00047533,-0.00937334,0.00201732,0
 .00334184,0.00150764,-0.00140091,0.00550569,-0.09415821,0.16866044,0.1
 2588511,0.00026145,0.00049982,-0.00072520,-0.00451808,0.00068739,0.002
 39735,0.00015478,-0.00004475,0.00007507,-0.02162184,0.03905086,0.01759
 339,0.00008087,-0.00030337,0.00020772,-0.00018269,-0.00011878,-0.00001
 250,-0.00006333,0.00006868,0.00003399,0.00002472,-0.00003205,0.0000048
 5,-0.00312869,0.00078049,0.00477109,-0.00456428,-0.00059054,-0.0004723
 9,-0.00001182,-0.00000509,-0.00000970,-0.00000702,-0.00000733,0.000001
 57,0.00060936,0.00083516,-0.00002772,-0.00008153,-0.00051565,-0.000104
 84,0.00008849,-0.00006815,-0.00008513,-0.00001618,0.00001711,0.0000086
 4,-0.00019690,-0.00014175,0.00004228,-0.00006813,-0.00000503,-0.000001
 76,-0.00017932,-0.00013743,-0.00017587,-0.00017351,0.00013272,-0.00005
 592,0.00123894,-0.00135899,-0.00000171,0.00018939,0.00093004,-0.001384
 70,-0.07683309,0.08846896,0.04621956,0.10663350,0.00036838,0.00071071,
 -0.00023202,-0.00005261,-0.00104465,-0.00025716,0.00001186,-0.00002870
 ,-0.00012037,0.00045919,0.00421952,0.00136345,-0.00003623,0.00008028,0
 .00003299,-0.00011994,-0.00013471,-0.00003322,0.00008733,0.00000882,0.
 00001967,0.00001418,-0.00005736,-0.00001019,-0.00778723,0.00160745,0.0
 0380828,-0.00212465,-0.00018223,0.00151661,-0.00002449,-0.00001426,-0.
 00000153,0.00000622,-0.00000591,-0.00000399,0.00049311,-0.00097378,-0.
 00088447,0.00012443,-0.00000423,0.00010606,-0.00010741,0.00000953,0.00
 006715,0.00001177,0.00001559,-0.00000601,-0.00029343,-0.00019376,0.000
 09184,0.00000369,0.00001163,-0.00003971,-0.00051049,-0.00002575,-0.000
 09243,0.00022952,-0.00001942,0.00011184,-0.00114618,-0.00036370,-0.000
 64861,0.00107127,-0.00070268,0.00184955,0.13544395,-0.41941847,-0.1664
 8276,-0.12984084,0.41613765,0.00012961,-0.00016646,-0.00081136,-0.0040
 5462,0.00124132,0.00205536,0.00012166,0.00000161,-0.00004423,0.0067253
 4,-0.00704176,-0.00738410,0.00011740,-0.00035233,0.00000129,-0.0001085
 3,-0.00001068,0.00005240,-0.00002075,0.00000156,0.00000313,0.00000138,
 0.00001560,0.00000727,-0.00042299,-0.00043691,0.00409616,0.00421837,0.
 00003615,-0.00053986,0.00000550,-0.00000076,0.00000238,0.00000022,0.00
 000417,-0.00000165,-0.00018650,-0.00082996,-0.00110264,0.00036082,0.00
 068165,-0.00105128,0.00003073,-0.00000736,-0.00003255,-0.00000111,-0.0
 0000535,0.00000734,0.00025739,0.00003921,-0.00006844,0.00004319,-0.000
 01486,0.00004938,-0.00032707,0.00017353,-0.00048460,-0.00024681,0.0001
 4483,0.00006032,0.00115370,-0.00140631,-0.00075936,-0.00113327,0.00219
 773,-0.00135608,0.05935640,-0.15495554,-0.06539765,-0.06588984,0.15969
 894,0.07600149,-0.00063051,-0.00148697,0.00051764,-0.00035347,-0.00030
 741,0.00073821,0.00020307,-0.00074231,0.00077257,-0.00469941,-0.002083
 79,0.00211588,0.00001374,0.00026614,-0.00019319,0.00060110,0.00021840,
 0.00022974,0.00004189,-0.00008128,-0.00016949,0.00000437,0.00028060,-0
 .00005304,-0.09953248,0.04605193,0.02631819,0.00069218,-0.00078168,-0.
 00018936,0.00007620,0.00001513,0.00004078,-0.00006450,0.00006530,-0.00
 000241,-0.00679421,0.02377316,0.03403889,0.00799017,-0.00704576,-0.007
 03662,-0.00015816,0.00021150,0.00006002,0.00003699,-0.00005418,-0.0000
 4229,-0.00042949,0.00138453,0.00020149,0.00003691,0.00017206,-0.000175
 66,0.00043537,0.00064264,-0.00047718,-0.00032727,-0.00005259,0.0000330
 3,0.00321526,0.00006890,-0.00090368,-0.00052669,0.00170533,-0.00064084
 ,0.00543600,-0.00718941,-0.00630387,0.00363158,0.00386417,0.00212993,0
 .18024323,-0.00131272,-0.00057837,-0.00004010,-0.00077275,0.00306747,-
 0.00032366,-0.00023808,0.00039808,-0.00013002,0.01346694,-0.02775770,-
 0.04153641,-0.00001261,0.00016842,0.00012173,0.00029963,0.00020462,-0.
 00012717,-0.00029909,0.00000905,0.00001176,-0.00006696,0.00012956,0.00
 008707,0.04352395,-0.11865420,-0.03642111,-0.00309438,-0.00794399,0.00
 168209,0.00006741,0.00005344,-0.00001482,0.00002741,-0.00002337,0.0000
 0879,0.00534037,-0.00039217,-0.00539969,-0.00465509,0.00783685,0.00467
 635,0.00042121,-0.00011241,-0.00019691,-0.00005663,-0.00002957,0.00003
 507,0.00093425,0.00004559,-0.00015989,-0.00014592,-0.00013782,0.000173
 49,0.00109372,-0.00007665,0.00050941,-0.00064230,-0.00002796,-0.000374
 52,0.00214028,-0.00701772,0.00583936,0.00055608,0.00019851,-0.00094108
 ,0.00286503,-0.00093528,-0.00365387,0.00223246,-0.00082004,0.00208245,
 -0.15257336,0.26687555,-0.00058672,0.00050963,-0.00024027,0.00045190,-
 0.00215102,-0.00679459,-0.00042348,0.00107360,-0.00143760,0.00438085,-
 0.01472943,-0.00983005,0.00034725,-0.00039559,0.00153946,0.00008458,-0
 .00002963,-0.00038003,-0.00001608,-0.00003393,0.00007756,-0.00005270,-
 0.00015009,0.00019941,0.05347261,-0.07130282,-0.17699636,-0.00049594,-
 0.00140453,0.00186086,-0.00000623,0.00003777,-0.00004382,0.00012603,-0
 .00010172,0.00001473,0.01009665,-0.00936912,-0.01014952,0.01637229,-0.
 02337616,-0.03494587,0.00017044,-0.00016271,0.00013153,-0.00004282,0.0
 0002830,0.00003357,0.00083000,-0.00117779,0.00057881,-0.00018485,-0.00
 005155,0.00010282,0.00001919,-0.00034149,0.00120589,0.00053048,-0.0004
 0147,-0.00012397,-0.00244029,0.00888567,0.00365674,-0.00052639,-0.0013
 0557,-0.00021532,0.00063288,-0.00055456,0.00380571,-0.00114629,0.00148
 573,-0.00290302,0.07994789,-0.07001730,0.60151484,0.00079985,0.0014435
 9,-0.00029726,0.00063012,0.00068671,0.00002786,-0.00018458,-0.00024303
 ,0.00028241,0.00167453,0.00062731,-0.00061143,-0.00017835,0.00002463,-
 0.00003177,-0.00063169,-0.00048982,0.00011805,-0.00006394,0.00010383,0
 .00008888,0.00005157,-0.00011625,-0.00014272,0.00502750,-0.00558889,0.
 01754364,-0.00006812,0.00020139,0.00006614,-0.00004274,-0.00002549,-0.
 00000429,-0.00001622,-0.00000336,-0.00000235,0.00007489,-0.00043055,0.
 00145326,-0.00023709,0.00137836,0.00243938,0.00005530,-0.00007805,-0.0
 0011552,-0.00001232,0.00002563,0.00000974,-0.00013683,-0.00003599,-0.0
 0020879,0.00001078,0.00000026,0.00002875,-0.00035141,-0.00054965,0.000
 19821,0.00031444,0.00020103,-0.00000231,-0.00360867,0.00174449,-0.0000
 7363,0.00015203,-0.00305891,0.00039542,-0.00101023,0.00001984,0.001147
 38,-0.00126668,-0.00014559,-0.00226015,-0.08914189,0.09090116,-0.16154
 125,0.08815974,0.00064005,0.00042657,0.00016714,0.00214997,-0.00394756
 ,-0.00525632,-0.00022123,0.00026108,-0.00078270,-0.00101348,0.00068145
 ,-0.00260378,-0.00010731,0.00043126,0.00079452,-0.00002492,0.00003151,
 -0.00007559,0.00027755,0.00000109,0.00005719,-0.00001234,-0.00008597,0
 .00003598,-0.00777233,0.00827340,-0.02460973,0.00029803,-0.00023290,0.
 00061114,-0.00003835,-0.00002680,-0.00000143,0.00004635,-0.00002953,-0
 .00000235,0.00074590,-0.00016121,0.00008900,0.00149457,-0.00180821,-0.
 00431512,-0.00029401,0.00004078,0.00024441,0.00002825,0.00002761,-0.00
 000095,-0.00010309,-0.00040848,0.00039047,0.00004202,0.00002149,-0.000
 04569,-0.00087277,0.00002021,0.00020003,0.00095460,-0.00027460,0.00031
 709,-0.00155995,0.00500213,0.00145083,-0.00135220,-0.00147782,0.000808
 70,0.00014234,-0.00143217,0.00127282,-0.00053396,0.00118845,-0.0010904
 7,0.09367897,-0.11447991,0.18503577,-0.08659265,0.10795813,0.00014829,
 -0.00057297,0.00014115,-0.00088322,-0.00192474,0.00301822,0.00020032,-
 0.00024601,0.00033387,-0.00074142,-0.00102520,0.00170723,0.00008410,-0
 .00002786,-0.00078154,0.00026162,-0.00000073,0.00014366,0.00000847,-0.
 00000959,-0.00001883,0.00000711,0.00006101,-0.00000917,-0.01237146,0.0
 1206827,-0.03467323,0.00037360,0.00094784,0.00002875,0.00001114,-0.000
 00853,0.00001547,-0.00003255,0.00003559,-0.00000370,-0.00005321,0.0013
 2358,0.00128034,0.00330338,-0.00378936,-0.00239010,-0.00004729,0.00005
 362,-0.00003605,0.00001080,-0.00001260,-0.00000666,-0.00024279,0.00030
 978,-0.00008226,0.00003273,0.00003301,-0.00004414,-0.00010818,0.000290
 10,-0.00061673,-0.00023472,0.00024648,0.00012249,0.00070122,0.00040445
 ,-0.00473153,0.00046943,0.00060713,0.00059977,-0.00017112,0.00115835,-
 0.00010009,-0.00126197,-0.00133965,-0.00039969,-0.13095662,0.14410899,
 -0.37066151,0.14149232,-0.15269097,0.40716429\\0.00001323,-0.00000953,
 0.00001127,0.00000662,0.00000068,0.00001701,-0.00001509,0.00001485,0.0
 0000031,0.00001535,0.00000670,-0.00003051,0.00000584,0.00000268,-0.000
 00112,0.00000264,-0.00000975,-0.00000412,0.00000141,-0.00001401,-0.000
 01076,0.00000586,-0.00000029,-0.00000048,0.00000382,0.00000823,0.00001
 363,-0.00000866,0.00000484,0.00000941,-0.00000659,0.00000272,0.0000071
 2,-0.00000441,0.00000459,0.00000391,-0.00000497,-0.00000377,-0.0000047
 3,-0.00000246,-0.00000212,0.00000155,0.00001830,0.00000383,-0.00000495
 ,-0.00000920,-0.00000098,-0.00000844,0.00000734,-0.00001241,-0.0000074
 8,-0.00000126,0.00000929,0.00000477,0.00000728,0.00002071,0.00000655,-
 0.00000560,-0.00001228,-0.00000914,-0.00001286,-0.00001583,0.00000769,
 -0.00000223,0.00000732,-0.00000059,-0.00001450,0.00000657,0.00001220,0
 .00000341,-0.00000788,-0.00000561,0.00000255,-0.00000354,-0.00000077,-
 0.00000583,-0.00000060,-0.00000673\\\@
 The archive entry for this job was punched.


 THERE IS NOTHING NOBLE IN BEING SUPERIOR TO SOME OTHER MAN.
 TRUE NOBILITY IS BEING SUPERIOR TO YOUR FORMER SELF.

                                                   -- HINDU PROVERB
 Job cpu time:       0 days  8 hours 30 minutes 38.0 seconds.
 Elapsed time:       0 days  0 hours 32 minutes  6.1 seconds.
 File lengths (MBytes):  RWF=    704 Int=      0 D2E=      0 Chk=     27 Scr=      1
 Normal termination of Gaussian 16 at Wed Sep 27 12:06:43 2023.
