 Entering Gaussian System, Link 0=/opt/software/gaussian/g16.c01/g16
 Initial command:
 /opt/software/gaussian/g16.c01/l1.exe "/scratch/arhender/13209927/Gau-37598.inp" -scrdir="/scratch/arhender/13209927/"
 Entering Link 1 = /opt/software/gaussian/g16.c01/l1.exe PID=     37600.
  
 Copyright (c) 1988-2019, Gaussian, Inc.  All Rights Reserved.
  
 This is part of the Gaussian(R) 16 program.  It is based on
 the Gaussian(R) 09 system (copyright 2009, Gaussian, Inc.),
 the Gaussian(R) 03 system (copyright 2003, Gaussian, Inc.),
 the Gaussian(R) 98 system (copyright 1998, Gaussian, Inc.),
 the Gaussian(R) 94 system (copyright 1995, Gaussian, Inc.),
 the Gaussian 92(TM) system (copyright 1992, Gaussian, Inc.),
 the Gaussian 90(TM) system (copyright 1990, Gaussian, Inc.),
 the Gaussian 88(TM) system (copyright 1988, Gaussian, Inc.),
 the Gaussian 86(TM) system (copyright 1986, Carnegie Mellon
 University), and the Gaussian 82(TM) system (copyright 1983,
 Carnegie Mellon University). Gaussian is a federally registered
 trademark of Gaussian, Inc.
  
 This software contains proprietary and confidential information,
 including trade secrets, belonging to Gaussian, Inc.
  
 This software is provided under written license and may be
 used, copied, transmitted, or stored only in accord with that
 written license.
  
 The following legend is applicable only to US Government
 contracts under FAR:
  
                    RESTRICTED RIGHTS LEGEND
  
 Use, reproduction and disclosure by the US Government is
 subject to restrictions as set forth in subparagraphs (a)
 and (c) of the Commercial Computer Software - Restricted
 Rights clause in FAR 52.227-19.
  
 Gaussian, Inc.
 340 Quinnipiac St., Bldg. 40, Wallingford CT 06492
  
  
 ---------------------------------------------------------------
 Warning -- This program may not be used in any manner that
 competes with the business of Gaussian, Inc. or will provide
 assistance to any competitor of Gaussian, Inc.  The licensee
 of this program is prohibited from giving any competitor of
 Gaussian, Inc. access to this program.  By using this program,
 the user acknowledges that Gaussian, Inc. is engaged in the
 business of creating and licensing software in the field of
 computational chemistry and represents and warrants to the
 licensee that it is not a competitor of Gaussian, Inc. and that
 it will not use this program in any manner prohibited above.
 ---------------------------------------------------------------
  

 Cite this work as:
 Gaussian 16, Revision C.01,
 M. J. Frisch, G. W. Trucks, H. B. Schlegel, G. E. Scuseria, 
 M. A. Robb, J. R. Cheeseman, G. Scalmani, V. Barone, 
 G. A. Petersson, H. Nakatsuji, X. Li, M. Caricato, A. V. Marenich, 
 J. Bloino, B. G. Janesko, R. Gomperts, B. Mennucci, H. P. Hratchian, 
 J. V. Ortiz, A. F. Izmaylov, J. L. Sonnenberg, D. Williams-Young, 
 F. Ding, F. Lipparini, F. Egidi, J. Goings, B. Peng, A. Petrone, 
 T. Henderson, D. Ranasinghe, V. G. Zakrzewski, J. Gao, N. Rega, 
 G. Zheng, W. Liang, M. Hada, M. Ehara, K. Toyota, R. Fukuda, 
 J. Hasegawa, M. Ishida, T. Nakajima, Y. Honda, O. Kitao, H. Nakai, 
 T. Vreven, K. Throssell, J. A. Montgomery, Jr., J. E. Peralta, 
 F. Ogliaro, M. J. Bearpark, J. J. Heyd, E. N. Brothers, K. N. Kudin, 
 V. N. Staroverov, T. A. Keith, R. Kobayashi, J. Normand, 
 K. Raghavachari, A. P. Rendell, J. C. Burant, S. S. Iyengar, 
 J. Tomasi, M. Cossi, J. M. Millam, M. Klene, C. Adamo, R. Cammi, 
 J. W. Ochterski, R. L. Martin, K. Morokuma, O. Farkas, 
 J. B. Foresman, and D. J. Fox, Gaussian, Inc., Wallingford CT, 2019.
 
 ******************************************
 Gaussian 16:  ES64L-G16RevC.01  3-Jul-2019
                27-Sep-2023 
 ******************************************
 %chk=MannitolConformerOpt_18.chk
 %mem=8GB
 %nprocs=16
 Will use up to   16 processors via shared memory.
 ---------------------------------------------
 # opt freq wb97xd/def2tzvpp geom=connectivity
 ---------------------------------------------
 1/18=20,19=15,26=3,38=1,57=2/1,3;
 2/9=110,12=2,17=6,18=5,40=1/2;
 3/5=44,7=202,11=2,25=1,30=1,71=1,74=-58/1,2,3;
 4//1;
 5/5=2,38=5/2;
 6/7=2,8=2,9=2,10=2,28=1/1;
 7//1,2,3,16;
 1/18=20,19=15,26=3/3(2);
 2/9=110/2;
 99//99;
 2/9=110/2;
 3/5=44,7=202,11=2,25=1,30=1,71=1,74=-58/1,2,3;
 4/5=5,16=3,69=1/1;
 5/5=2,38=5/2;
 7//1,2,3,16;
 1/18=20,19=15,26=3/3(-5);
 2/9=110/2;
 6/7=2,8=2,9=2,10=2,19=2,28=1/1;
 99/9=1/99;
 --------------------------------
 Mannitol Conformer Optimziations
 --------------------------------
 Symbolic Z-matrix:
 Charge =  0 Multiplicity = 1
 C                     0.        0.        0. 
 C                     1.5418    0.        0. 
 C                    -0.7136    0.6432    1.2083 
 C                     2.1637   -0.7835    1.1622 
 H                     1.907     1.0334    0. 
 H                    -0.3632   -1.028    -0.1205 
 C                    -0.2982    2.0936    1.4752 
 H                    -0.5743    0.0423    2.1107 
 C                     3.6908   -0.8721    1.0438 
 H                     1.7575   -1.8015    1.196 
 H                    -0.8689    2.5157    2.3094 
 H                     0.7655    2.1818    1.7082 
 H                     4.1375    0.1272    1.0521 
 H                     4.0174   -1.4019    0.1441 
 O                    -0.5699    2.893     0.3165 
 H                    -1.5378    3.0345    0.3328 
 O                    -2.1326    0.6529    0.9305 
 H                    -2.2163    0.6278   -0.0445 
 O                    -0.4328    0.6758   -1.2118 
 H                    -0.2934    1.6369   -1.048 
 O                     1.9735   -0.5789   -1.2455 
 H                     1.3475   -0.2393   -1.9195 
 O                     1.8504   -0.165     2.4162 
 H                     2.5336   -0.4927    3.0399 
 O                     4.1922   -1.5597    2.1974 
 H                     4.113    -2.5132    2.0135 
 

 GradGradGradGradGradGradGradGradGradGradGradGradGradGradGradGradGradGrad
 Berny optimization.
 Initialization pass.
                           ----------------------------
                           !    Initial Parameters    !
                           ! (Angstroms and Degrees)  !
 --------------------------                            --------------------------
 ! Name  Definition              Value          Derivative Info.                !
 --------------------------------------------------------------------------------
 ! R1    R(1,2)                  1.5418         estimate D2E/DX2                !
 ! R2    R(1,3)                  1.5437         estimate D2E/DX2                !
 ! R3    R(1,6)                  1.0969         estimate D2E/DX2                !
 ! R4    R(1,19)                 1.4534         estimate D2E/DX2                !
 ! R5    R(2,4)                  1.5334         estimate D2E/DX2                !
 ! R6    R(2,5)                  1.096          estimate D2E/DX2                !
 ! R7    R(2,21)                 1.4397         estimate D2E/DX2                !
 ! R8    R(3,7)                  1.5321         estimate D2E/DX2                !
 ! R9    R(3,8)                  1.0931         estimate D2E/DX2                !
 ! R10   R(3,17)                 1.446          estimate D2E/DX2                !
 ! R11   R(4,9)                  1.5342         estimate D2E/DX2                !
 ! R12   R(4,10)                 1.0966         estimate D2E/DX2                !
 ! R13   R(4,23)                 1.4329         estimate D2E/DX2                !
 ! R14   R(7,11)                 1.0953         estimate D2E/DX2                !
 ! R15   R(7,12)                 1.0925         estimate D2E/DX2                !
 ! R16   R(7,15)                 1.4337         estimate D2E/DX2                !
 ! R17   R(9,13)                 1.0946         estimate D2E/DX2                !
 ! R18   R(9,14)                 1.094          estimate D2E/DX2                !
 ! R19   R(9,25)                 1.4335         estimate D2E/DX2                !
 ! R20   R(15,16)                0.9783         estimate D2E/DX2                !
 ! R21   R(17,18)                0.9789         estimate D2E/DX2                !
 ! R22   R(19,20)                0.9849         estimate D2E/DX2                !
 ! R23   R(21,22)                0.9806         estimate D2E/DX2                !
 ! R24   R(23,24)                0.9814         estimate D2E/DX2                !
 ! R25   R(25,26)                0.9743         estimate D2E/DX2                !
 ! A1    A(2,1,3)              117.534          estimate D2E/DX2                !
 ! A2    A(2,1,6)              109.3362         estimate D2E/DX2                !
 ! A3    A(2,1,19)             107.3241         estimate D2E/DX2                !
 ! A4    A(3,1,6)              108.8696         estimate D2E/DX2                !
 ! A5    A(3,1,19)             108.7367         estimate D2E/DX2                !
 ! A6    A(6,1,19)             104.2154         estimate D2E/DX2                !
 ! A7    A(1,2,4)              113.9267         estimate D2E/DX2                !
 ! A8    A(1,2,5)              109.4632         estimate D2E/DX2                !
 ! A9    A(1,2,21)             107.4487         estimate D2E/DX2                !
 ! A10   A(4,2,5)              110.2807         estimate D2E/DX2                !
 ! A11   A(4,2,21)             109.1849         estimate D2E/DX2                !
 ! A12   A(5,2,21)             106.2128         estimate D2E/DX2                !
 ! A13   A(1,3,7)              113.92           estimate D2E/DX2                !
 ! A14   A(1,3,8)              110.9918         estimate D2E/DX2                !
 ! A15   A(1,3,17)             107.8223         estimate D2E/DX2                !
 ! A16   A(7,3,8)              110.0012         estimate D2E/DX2                !
 ! A17   A(7,3,17)             107.0487         estimate D2E/DX2                !
 ! A18   A(8,3,17)             106.6998         estimate D2E/DX2                !
 ! A19   A(2,4,9)              112.0055         estimate D2E/DX2                !
 ! A20   A(2,4,10)             110.3327         estimate D2E/DX2                !
 ! A21   A(2,4,23)             110.7362         estimate D2E/DX2                !
 ! A22   A(9,4,10)             108.5101         estimate D2E/DX2                !
 ! A23   A(9,4,23)             108.0648         estimate D2E/DX2                !
 ! A24   A(10,4,23)            107.0224         estimate D2E/DX2                !
 ! A25   A(3,7,11)             110.8676         estimate D2E/DX2                !
 ! A26   A(3,7,12)             112.1826         estimate D2E/DX2                !
 ! A27   A(3,7,15)             109.6131         estimate D2E/DX2                !
 ! A28   A(11,7,12)            108.2859         estimate D2E/DX2                !
 ! A29   A(11,7,15)            107.5721         estimate D2E/DX2                !
 ! A30   A(12,7,15)            108.172          estimate D2E/DX2                !
 ! A31   A(4,9,13)             110.6635         estimate D2E/DX2                !
 ! A32   A(4,9,14)             112.8663         estimate D2E/DX2                !
 ! A33   A(4,9,25)             108.2845         estimate D2E/DX2                !
 ! A34   A(13,9,14)            109.0573         estimate D2E/DX2                !
 ! A35   A(13,9,25)            106.801          estimate D2E/DX2                !
 ! A36   A(14,9,25)            108.9718         estimate D2E/DX2                !
 ! A37   A(7,15,16)            104.7542         estimate D2E/DX2                !
 ! A38   A(3,17,18)            105.9674         estimate D2E/DX2                !
 ! A39   A(1,19,20)            105.8387         estimate D2E/DX2                !
 ! A40   A(2,21,22)            105.3049         estimate D2E/DX2                !
 ! A41   A(4,23,24)            105.0601         estimate D2E/DX2                !
 ! A42   A(9,25,26)            106.8036         estimate D2E/DX2                !
 ! D1    D(3,1,2,4)             62.0132         estimate D2E/DX2                !
 ! D2    D(3,1,2,5)            -61.9728         estimate D2E/DX2                !
 ! D3    D(3,1,2,21)          -176.9015         estimate D2E/DX2                !
 ! D4    D(6,1,2,4)            -62.6996         estimate D2E/DX2                !
 ! D5    D(6,1,2,5)            173.3144         estimate D2E/DX2                !
 ! D6    D(6,1,2,21)            58.3857         estimate D2E/DX2                !
 ! D7    D(19,1,2,4)          -175.1617         estimate D2E/DX2                !
 ! D8    D(19,1,2,5)            60.8523         estimate D2E/DX2                !
 ! D9    D(19,1,2,21)          -54.0763         estimate D2E/DX2                !
 ! D10   D(2,1,3,7)             55.5478         estimate D2E/DX2                !
 ! D11   D(2,1,3,8)            -69.27           estimate D2E/DX2                !
 ! D12   D(2,1,3,17)           174.2006         estimate D2E/DX2                !
 ! D13   D(6,1,3,7)           -179.5071         estimate D2E/DX2                !
 ! D14   D(6,1,3,8)             55.675          estimate D2E/DX2                !
 ! D15   D(6,1,3,17)           -60.8544         estimate D2E/DX2                !
 ! D16   D(19,1,3,7)           -66.5546         estimate D2E/DX2                !
 ! D17   D(19,1,3,8)           168.6276         estimate D2E/DX2                !
 ! D18   D(19,1,3,17)           52.0982         estimate D2E/DX2                !
 ! D19   D(2,1,19,20)          -75.9592         estimate D2E/DX2                !
 ! D20   D(3,1,19,20)           52.1487         estimate D2E/DX2                !
 ! D21   D(6,1,19,20)          168.1396         estimate D2E/DX2                !
 ! D22   D(1,2,4,9)            174.366          estimate D2E/DX2                !
 ! D23   D(1,2,4,10)            53.3733         estimate D2E/DX2                !
 ! D24   D(1,2,4,23)           -64.9284         estimate D2E/DX2                !
 ! D25   D(5,2,4,9)            -62.09           estimate D2E/DX2                !
 ! D26   D(5,2,4,10)           176.9173         estimate D2E/DX2                !
 ! D27   D(5,2,4,23)            58.6156         estimate D2E/DX2                !
 ! D28   D(21,2,4,9)            54.2526         estimate D2E/DX2                !
 ! D29   D(21,2,4,10)          -66.7401         estimate D2E/DX2                !
 ! D30   D(21,2,4,23)          174.9582         estimate D2E/DX2                !
 ! D31   D(1,2,21,22)           38.7548         estimate D2E/DX2                !
 ! D32   D(4,2,21,22)          162.7754         estimate D2E/DX2                !
 ! D33   D(5,2,21,22)          -78.3187         estimate D2E/DX2                !
 ! D34   D(1,3,7,11)           177.1983         estimate D2E/DX2                !
 ! D35   D(1,3,7,12)           -61.5995         estimate D2E/DX2                !
 ! D36   D(1,3,7,15)            58.5884         estimate D2E/DX2                !
 ! D37   D(8,3,7,11)           -57.4566         estimate D2E/DX2                !
 ! D38   D(8,3,7,12)            63.7456         estimate D2E/DX2                !
 ! D39   D(8,3,7,15)          -176.0665         estimate D2E/DX2                !
 ! D40   D(17,3,7,11)           58.1049         estimate D2E/DX2                !
 ! D41   D(17,3,7,12)          179.3071         estimate D2E/DX2                !
 ! D42   D(17,3,7,15)          -60.505          estimate D2E/DX2                !
 ! D43   D(1,3,17,18)          -24.1805         estimate D2E/DX2                !
 ! D44   D(7,3,17,18)           98.7803         estimate D2E/DX2                !
 ! D45   D(8,3,17,18)         -143.476          estimate D2E/DX2                !
 ! D46   D(2,4,9,13)            60.4813         estimate D2E/DX2                !
 ! D47   D(2,4,9,14)           -62.0511         estimate D2E/DX2                !
 ! D48   D(2,4,9,25)           177.2226         estimate D2E/DX2                !
 ! D49   D(10,4,9,13)         -177.478          estimate D2E/DX2                !
 ! D50   D(10,4,9,14)           59.9897         estimate D2E/DX2                !
 ! D51   D(10,4,9,25)          -60.7366         estimate D2E/DX2                !
 ! D52   D(23,4,9,13)          -61.7613         estimate D2E/DX2                !
 ! D53   D(23,4,9,14)          175.7064         estimate D2E/DX2                !
 ! D54   D(23,4,9,25)           54.98           estimate D2E/DX2                !
 ! D55   D(2,4,23,24)         -158.9126         estimate D2E/DX2                !
 ! D56   D(9,4,23,24)          -35.8942         estimate D2E/DX2                !
 ! D57   D(10,4,23,24)          80.7912         estimate D2E/DX2                !
 ! D58   D(3,7,15,16)           76.4192         estimate D2E/DX2                !
 ! D59   D(11,7,15,16)         -44.2118         estimate D2E/DX2                !
 ! D60   D(12,7,15,16)        -160.9774         estimate D2E/DX2                !
 ! D61   D(4,9,25,26)           83.6504         estimate D2E/DX2                !
 ! D62   D(13,9,25,26)        -157.1417         estimate D2E/DX2                !
 ! D63   D(14,9,25,26)         -39.4662         estimate D2E/DX2                !
 --------------------------------------------------------------------------------
 Trust Radius=3.00D-01 FncErr=1.00D-07 GrdErr=1.00D-06 EigMax=2.50D+02 EigMin=1.00D-04
 Number of steps in this run=    140 maximum allowed number of steps=    156.
 GradGradGradGradGradGradGradGradGradGradGradGradGradGradGradGradGradGrad

                          Input orientation:                          
 ---------------------------------------------------------------------
 Center     Atomic      Atomic             Coordinates (Angstroms)
 Number     Number       Type             X           Y           Z
 ---------------------------------------------------------------------
      1          6           0        0.000000    0.000000    0.000000
      2          6           0        1.541800    0.000000    0.000000
      3          6           0       -0.713600    0.643200    1.208300
      4          6           0        2.163700   -0.783500    1.162200
      5          1           0        1.907000    1.033400    0.000000
      6          1           0       -0.363200   -1.028000   -0.120500
      7          6           0       -0.298200    2.093600    1.475200
      8          1           0       -0.574300    0.042300    2.110700
      9          6           0        3.690800   -0.872100    1.043800
     10          1           0        1.757500   -1.801500    1.196000
     11          1           0       -0.868900    2.515700    2.309400
     12          1           0        0.765500    2.181800    1.708200
     13          1           0        4.137500    0.127200    1.052100
     14          1           0        4.017400   -1.401900    0.144100
     15          8           0       -0.569900    2.893000    0.316500
     16          1           0       -1.537800    3.034500    0.332800
     17          8           0       -2.132600    0.652900    0.930500
     18          1           0       -2.216300    0.627800   -0.044500
     19          8           0       -0.432800    0.675800   -1.211800
     20          1           0       -0.293400    1.636900   -1.048000
     21          8           0        1.973500   -0.578900   -1.245500
     22          1           0        1.347500   -0.239300   -1.919500
     23          8           0        1.850400   -0.165000    2.416200
     24          1           0        2.533600   -0.492700    3.039900
     25          8           0        4.192200   -1.559700    2.197400
     26          1           0        4.113000   -2.513200    2.013500
 ---------------------------------------------------------------------
                    Distance matrix (angstroms):
                    1          2          3          4          5
     1  C    0.000000
     2  C    1.541800   0.000000
     3  C    1.543671   2.638281   0.000000
     4  C    2.578018   1.533408   3.211924   0.000000
     5  H    2.169001   1.096032   2.912008   2.172033   0.000000
     6  H    1.096913   2.168024   2.163654   2.844349   3.068827
     7  C    2.578430   3.153566   1.532140   3.799556   2.857122
     8  H    2.187845   2.989101   1.093074   3.013012   3.405023
     9  C    3.933457   2.543281   4.660680   1.534243   2.811119
    10  H    2.786508   2.173096   3.476067   1.096570   3.080491
    11  H    3.523785   4.180137   2.177796   4.625738   3.903353
    12  H    2.874750   2.877645   2.192014   3.323565   2.353676
    13  H    4.271065   2.803703   4.880966   2.176553   2.627402
    14  H    4.257416   2.848628   5.262824   2.203440   3.225715
    15  O    2.965537   3.595678   2.424367   4.658801   3.113409
    16  H    3.418154   4.336229   2.676588   5.382019   3.997725
    17  O    2.416628   3.846209   1.445970   4.535981   4.162809
    18  H    2.303931   3.810437   1.956490   4.757341   4.143440
    19  O    1.453438   2.413340   2.436554   3.808838   2.659135
    20  H    1.965663   2.673145   2.500979   4.096420   2.510832
    21  O    2.404391   1.439708   3.838642   2.423852   2.038432
    22  H    2.357435   1.944093   3.848386   3.234070   2.370081
    23  O    3.047823   2.441410   2.947254   1.432904   2.697664
    24  H    3.987841   3.235338   3.897350   1.935755   3.458699
    25  O    4.983550   3.779663   5.467903   2.406021   4.095714
    26  H    5.223708   4.120853   5.822995   2.741595   4.636700
                    6          7          8          9         10
     6  H    0.000000
     7  C    3.506404   0.000000
     8  H    2.483618   2.165161   0.000000
     9  C    4.220760   4.989349   4.490599   0.000000
    10  H    2.613206   4.413124   3.110236   2.150488   0.000000
    11  H    4.326425   1.095334   2.498795   5.819776   5.174539
    12  H    3.862761   1.092486   2.556273   4.280784   4.136797
    13  H    4.792262   4.870439   4.830000   1.094628   3.066756
    14  H    4.404483   5.710933   5.199706   1.093991   2.524544
    15  O    3.950688   1.433683   3.368332   5.732234   5.313063
    16  H    4.253125   1.930538   3.611443   6.565463   5.915320
    17  O    2.657217   2.395274   2.047927   6.020835   4.607325
    18  H    2.486248   2.852572   2.771978   6.190955   4.819899
    19  O    2.024528   3.041092   3.385314   4.948515   4.090468
    20  H    2.822556   2.564203   3.549513   5.152141   4.589588
    21  O    2.632011   4.439041   4.259255   2.876800   2.739038
    22  H    2.604792   4.435622   4.473827   3.830488   3.509260
    23  O    3.475578   3.256261   2.452646   2.402196   2.043441
    24  H    4.320431   4.142019   3.287656   2.338262   2.390660
    25  O    5.138778   5.833684   5.029259   1.433523   2.643678
    26  H    5.176499   6.400864   5.339551   1.952378   2.592914
                   11         12         13         14         15
    11  H    0.000000
    12  H    1.773188   0.000000
    13  H    5.687686   4.002778   0.000000
    14  H    6.626616   5.085683   1.782424   0.000000
    15  O    2.050221   2.055706   5.509117   6.286431   0.000000
    16  H    2.150239   2.814962   6.417072   7.111786   0.978324
    17  O    2.639759   3.367690   6.293274   6.531702   2.799478
    18  H    3.304618   3.791834   6.467141   6.558526   2.823488
    19  O    3.996782   3.497193   5.129702   5.095055   2.696381
    20  H    3.517901   3.002470   5.130545   5.407255   1.875127
    21  O    5.503917   4.219606   3.234260   2.604965   4.578517
    22  H    5.512354   4.400075   4.092533   3.569096   4.299700
    23  O    3.819967   2.680623   2.678988   3.374648   4.429216
    24  H    4.600120   3.471679   2.628330   3.378456   5.339624
    25  O    6.498935   5.097098   2.039690   2.066760   6.785420
    26  H    7.084964   5.774252   2.810089   2.176875   7.350943
                   16         17         18         19         20
    16  H    0.000000
    17  O    2.526470   0.000000
    18  H    2.528818   0.978908   0.000000
    19  O    3.028247   2.734830   2.132080   0.000000
    20  H    2.325602   2.874957   2.392246   0.984874   0.000000
    21  O    5.279860   4.807532   4.522494   2.713980   3.176100
    22  H    4.910761   4.585806   4.119242   2.123138   2.640491
    23  O    5.104631   4.329036   4.818882   4.368333   4.454594
    24  H    6.028750   5.247417   5.773265   5.314308   5.407222
    25  O    7.577355   6.819364   7.133032   6.165284   6.393081
    26  H    8.095262   7.085520   7.359435   6.421571   6.783249
                   21         22         23         24         25
    21  O    0.000000
    22  H    0.980551   0.000000
    23  O    3.687074   4.365401   0.000000
    24  H    4.322707   5.105555   0.981403   0.000000
    25  O    4.211669   5.175388   2.734427   2.144586   0.000000
    26  H    4.352018   5.318562   3.285661   2.762322   0.974297
                   26
    26  H    0.000000
 Stoichiometry    C6H14O6
 Framework group  C1[X(C6H14O6)]
 Deg. of freedom    72
 Full point group                 C1      NOp   1
 Largest Abelian subgroup         C1      NOp   1
 Largest concise Abelian subgroup C1      NOp   1
                         Standard orientation:                         
 ---------------------------------------------------------------------
 Center     Atomic      Atomic             Coordinates (Angstroms)
 Number     Number       Type             X           Y           Z
 ---------------------------------------------------------------------
      1          6           0       -0.799035    0.646141   -0.605788
      2          6           0        0.505272    0.777932    0.205730
      3          6           0       -1.487027   -0.735500   -0.631404
      4          6           0        1.646449   -0.111339   -0.302456
      5          1           0        0.301140    0.567539    1.261832
      6          1           0       -0.619331    0.972150   -1.637603
      7          6           0       -1.803814   -1.297595    0.758253
      8          1           0       -0.895308   -1.457093   -1.200599
      9          6           0        2.959280    0.154583    0.445651
     10          1           0        1.814826    0.059214   -1.372515
     11          1           0       -2.333911   -2.253005    0.681136
     12          1           0       -0.902431   -1.452958    1.355661
     13          1           0        2.842638   -0.048910    1.514854
     14          1           0        3.323608    1.177745    0.314430
     15          8           0       -2.655948   -0.385497    1.463513
     16          1           0       -3.541840   -0.517101    1.069820
     17          8           0       -2.746302   -0.590007   -1.327022
     18          1           0       -2.994301    0.353014   -1.240596
     19          8           0       -1.736416    1.624795   -0.080397
     20          1           0       -2.063808    1.253361    0.770970
     21          8           0        0.915626    2.156472    0.142501
     22          1           0        0.086338    2.676346    0.201606
     23          8           0        1.318250   -1.497249   -0.145125
     24          1           0        2.180234   -1.966299   -0.156361
     25          8           0        3.949231   -0.759080   -0.044455
     26          1           0        4.319868   -0.364810   -0.854661
 ---------------------------------------------------------------------
 Rotational constants (GHZ):           1.5127797           0.5232514           0.4592757
 Standard basis: def2TZVPP (5D, 7F)
 There are   642 symmetry adapted cartesian basis functions of A   symmetry.
 There are   568 symmetry adapted basis functions of A   symmetry.
   568 basis functions,   850 primitive gaussians,   642 cartesian basis functions
    49 alpha electrons       49 beta electrons
       nuclear repulsion energy       829.9972367458 Hartrees.
 NAtoms=   26 NActive=   26 NUniq=   26 SFac= 1.00D+00 NAtFMM=   60 NAOKFM=F Big=F
 Integral buffers will be    131072 words long.
 Raffenetti 2 integral format.
 Two-electron integral symmetry is turned on.
 Nuclear repulsion after empirical dispersion term =      829.9783064409 Hartrees.
 One-electron integrals computed using PRISM.
   1 Symmetry operations used in ECPInt.
 ECPInt:  NShTT=   23436 NPrTT=   62434 LenC2=   21829 LenP2D=   45398.
 LDataN:  DoStor=T MaxTD1= 6 Len=  172
 NBasis=   568 RedAO= T EigKep=  3.85D-05  NBF=   568
 NBsUse=   568 1.00D-06 EigRej= -1.00D+00 NBFU=   568
 ExpMin= 9.52D-02 ExpMax= 2.70D+04 ExpMxC= 9.22D+02 IAcc=3 IRadAn=         5 AccDes= 0.00D+00
 Harris functional with IExCor= 4639 and IRadAn=       5 diagonalized for initial guess.
 HarFok:  IExCor= 4639 AccDes= 0.00D+00 IRadAn=         5 IDoV= 1 UseB2=F ITyADJ=14
 ICtDFT=  3500011 ScaDFX=  1.000000  1.000000  1.000000  1.000000
 FoFCou: FMM=F IPFlag=           0 FMFlag=      100000 FMFlg1=           0
         NFxFlg=           0 DoJE=T BraDBF=F KetDBF=T FulRan=T
         wScrn=  0.000000 ICntrl=       500 IOpCl=  0 I1Cent=   200000004 NGrid=           0
         NMat0=    1 NMatS0=      1 NMatT0=    0 NMatD0=    1 NMtDS0=    0 NMtDT0=    0
 Petite list used in FoFCou.
 Requested convergence on RMS density matrix=1.00D-08 within 128 cycles.
 Requested convergence on MAX density matrix=1.00D-06.
 Requested convergence on             energy=1.00D-06.
 No special actions if energy rises.
 Integral accuracy reduced to 1.0D-05 until final iterations.
 Initial convergence to 1.0D-05 achieved.  Increase integral accuracy.
 SCF Done:  E(RwB97XD) =  -688.472969754     A.U. after   14 cycles
            NFock= 14  Conv=0.24D-08     -V/T= 2.0050

 **********************************************************************

            Population analysis using the SCF Density.

 **********************************************************************

 Orbital symmetries:
       Occupied  (A) (A) (A) (A) (A) (A) (A) (A) (A) (A) (A) (A)
                 (A) (A) (A) (A) (A) (A) (A) (A) (A) (A) (A) (A)
                 (A) (A) (A) (A) (A) (A) (A) (A) (A) (A) (A) (A)
                 (A) (A) (A) (A) (A) (A) (A) (A) (A) (A) (A) (A)
                 (A)
       Virtual   (A) (A) (A) (A) (A) (A) (A) (A) (A) (A) (A) (A)
                 (A) (A) (A) (A) (A) (A) (A) (A) (A) (A) (A) (A)
                 (A) (A) (A) (A) (A) (A) (A) (A) (A) (A) (A) (A)
                 (A) (A) (A) (A) (A) (A) (A) (A) (A) (A) (A) (A)
                 (A) (A) (A) (A) (A) (A) (A) (A) (A) (A) (A) (A)
                 (A) (A) (A) (A) (A) (A) (A) (A) (A) (A) (A) (A)
                 (A) (A) (A) (A) (A) (A) (A) (A) (A) (A) (A) (A)
                 (A) (A) (A) (A) (A) (A) (A) (A) (A) (A) (A) (A)
                 (A) (A) (A) (A) (A) (A) (A) (A) (A) (A) (A) (A)
                 (A) (A) (A) (A) (A) (A) (A) (A) (A) (A) (A) (A)
                 (A) (A) (A) (A) (A) (A) (A) (A) (A) (A) (A) (A)
                 (A) (A) (A) (A) (A) (A) (A) (A) (A) (A) (A) (A)
                 (A) (A) (A) (A) (A) (A) (A) (A) (A) (A) (A) (A)
                 (A) (A) (A) (A) (A) (A) (A) (A) (A) (A) (A) (A)
                 (A) (A) (A) (A) (A) (A) (A) (A) (A) (A) (A) (A)
                 (A) (A) (A) (A) (A) (A) (A) (A) (A) (A) (A) (A)
                 (A) (A) (A) (A) (A) (A) (A) (A) (A) (A) (A) (A)
                 (A) (A) (A) (A) (A) (A) (A) (A) (A) (A) (A) (A)
                 (A) (A) (A) (A) (A) (A) (A) (A) (A) (A) (A) (A)
                 (A) (A) (A) (A) (A) (A) (A) (A) (A) (A) (A) (A)
                 (A) (A) (A) (A) (A) (A) (A) (A) (A) (A) (A) (A)
                 (A) (A) (A) (A) (A) (A) (A) (A) (A) (A) (A) (A)
                 (A) (A) (A) (A) (A) (A) (A) (A) (A) (A) (A) (A)
                 (A) (A) (A) (A) (A) (A) (A) (A) (A) (A) (A) (A)
                 (A) (A) (A) (A) (A) (A) (A) (A) (A) (A) (A) (A)
                 (A) (A) (A) (A) (A) (A) (A) (A) (A) (A) (A) (A)
                 (A) (A) (A) (A) (A) (A) (A) (A) (A) (A) (A) (A)
                 (A) (A) (A) (A) (A) (A) (A) (A) (A) (A) (A) (A)
                 (A) (A) (A) (A) (A) (A) (A) (A) (A) (A) (A) (A)
                 (A) (A) (A) (A) (A) (A) (A) (A) (A) (A) (A) (A)
                 (A) (A) (A) (A) (A) (A) (A) (A) (A) (A) (A) (A)
                 (A) (A) (A) (A) (A) (A) (A) (A) (A) (A) (A) (A)
                 (A) (A) (A) (A) (A) (A) (A) (A) (A) (A) (A) (A)
                 (A) (A) (A) (A) (A) (A) (A) (A) (A) (A) (A) (A)
                 (A) (A) (A) (A) (A) (A) (A) (A) (A) (A) (A) (A)
                 (A) (A) (A) (A) (A) (A) (A) (A) (A) (A) (A) (A)
                 (A) (A) (A) (A) (A) (A) (A) (A) (A) (A) (A) (A)
                 (A) (A) (A) (A) (A) (A) (A) (A) (A) (A) (A) (A)
                 (A) (A) (A) (A) (A) (A) (A) (A) (A) (A) (A) (A)
                 (A) (A) (A) (A) (A) (A) (A) (A) (A) (A) (A) (A)
                 (A) (A) (A) (A) (A) (A) (A) (A) (A) (A) (A) (A)
                 (A) (A) (A) (A) (A) (A) (A) (A) (A) (A) (A) (A)
                 (A) (A) (A) (A) (A) (A) (A) (A) (A) (A) (A) (A)
                 (A) (A) (A)
 The electronic state is 1-A.
 Alpha  occ. eigenvalues --  -19.27115 -19.27046 -19.26078 -19.25875 -19.25240
 Alpha  occ. eigenvalues --  -19.24964 -10.35027 -10.34964 -10.34897 -10.34124
 Alpha  occ. eigenvalues --  -10.34056 -10.33626  -1.15849  -1.15043  -1.13487
 Alpha  occ. eigenvalues --   -1.12048  -1.11577  -1.10274  -0.88623  -0.85206
 Alpha  occ. eigenvalues --   -0.80368  -0.75372  -0.71059  -0.68996  -0.63677
 Alpha  occ. eigenvalues --   -0.62712  -0.60700  -0.59451  -0.59427  -0.59296
 Alpha  occ. eigenvalues --   -0.56785  -0.54719  -0.52939  -0.51960  -0.50973
 Alpha  occ. eigenvalues --   -0.50155  -0.48821  -0.47104  -0.45673  -0.45166
 Alpha  occ. eigenvalues --   -0.43686  -0.43037  -0.41528  -0.40422  -0.38804
 Alpha  occ. eigenvalues --   -0.38302  -0.36949  -0.36114  -0.35190
 Alpha virt. eigenvalues --    0.08812   0.09547   0.12571   0.12746   0.13406
 Alpha virt. eigenvalues --    0.15037   0.16222   0.16689   0.17648   0.18182
 Alpha virt. eigenvalues --    0.19024   0.19733   0.20146   0.21177   0.21578
 Alpha virt. eigenvalues --    0.23015   0.23831   0.24469   0.25236   0.27283
 Alpha virt. eigenvalues --    0.27598   0.29120   0.31151   0.31423   0.33030
 Alpha virt. eigenvalues --    0.34834   0.35852   0.36329   0.37350   0.37842
 Alpha virt. eigenvalues --    0.38792   0.39384   0.40089   0.41259   0.41750
 Alpha virt. eigenvalues --    0.42213   0.42507   0.43297   0.44024   0.44255
 Alpha virt. eigenvalues --    0.45253   0.46199   0.46939   0.47307   0.47438
 Alpha virt. eigenvalues --    0.47747   0.48691   0.49937   0.50075   0.51410
 Alpha virt. eigenvalues --    0.51640   0.51961   0.52710   0.53465   0.54073
 Alpha virt. eigenvalues --    0.55536   0.56908   0.57510   0.58330   0.59071
 Alpha virt. eigenvalues --    0.60535   0.60837   0.62031   0.62209   0.62889
 Alpha virt. eigenvalues --    0.64118   0.66047   0.66610   0.68193   0.69185
 Alpha virt. eigenvalues --    0.69328   0.70231   0.70872   0.72529   0.73082
 Alpha virt. eigenvalues --    0.75112   0.75172   0.76313   0.78385   0.79249
 Alpha virt. eigenvalues --    0.80748   0.82903   0.83569   0.85385   0.85712
 Alpha virt. eigenvalues --    0.86497   0.88011   0.90571   0.90891   0.91928
 Alpha virt. eigenvalues --    0.92967   0.93752   0.94459   0.95412   0.95802
 Alpha virt. eigenvalues --    0.97641   0.98011   0.99553   1.00387   1.01621
 Alpha virt. eigenvalues --    1.02011   1.04239   1.05987   1.06596   1.06921
 Alpha virt. eigenvalues --    1.08308   1.08775   1.10191   1.10810   1.13720
 Alpha virt. eigenvalues --    1.15338   1.15419   1.16133   1.16997   1.17894
 Alpha virt. eigenvalues --    1.18674   1.20187   1.22093   1.23370   1.24119
 Alpha virt. eigenvalues --    1.24621   1.24919   1.27728   1.28413   1.29784
 Alpha virt. eigenvalues --    1.30652   1.32747   1.33079   1.34211   1.34774
 Alpha virt. eigenvalues --    1.36158   1.36743   1.37568   1.39106   1.40424
 Alpha virt. eigenvalues --    1.41018   1.43370   1.44692   1.45955   1.46831
 Alpha virt. eigenvalues --    1.48153   1.48654   1.49609   1.50817   1.52147
 Alpha virt. eigenvalues --    1.52362   1.54716   1.55028   1.56819   1.57784
 Alpha virt. eigenvalues --    1.58527   1.60548   1.61422   1.62400   1.64360
 Alpha virt. eigenvalues --    1.65457   1.66486   1.68850   1.71036   1.72685
 Alpha virt. eigenvalues --    1.74721   1.77217   1.79934   1.82222   1.82792
 Alpha virt. eigenvalues --    1.87621   1.89526   1.90687   1.90968   1.92505
 Alpha virt. eigenvalues --    1.94565   1.96500   1.97348   1.97661   1.99263
 Alpha virt. eigenvalues --    1.99780   2.00652   2.03039   2.03172   2.04839
 Alpha virt. eigenvalues --    2.06654   2.07722   2.08586   2.09494   2.10194
 Alpha virt. eigenvalues --    2.11399   2.12015   2.14060   2.16426   2.17994
 Alpha virt. eigenvalues --    2.19877   2.21069   2.22649   2.23780   2.25387
 Alpha virt. eigenvalues --    2.26773   2.28408   2.28728   2.29900   2.31275
 Alpha virt. eigenvalues --    2.32947   2.37470   2.38065   2.40106   2.42794
 Alpha virt. eigenvalues --    2.43240   2.47258   2.48079   2.50795   2.52042
 Alpha virt. eigenvalues --    2.55328   2.57473   2.60486   2.61498   2.64212
 Alpha virt. eigenvalues --    2.65806   2.67508   2.68671   2.70611   2.71970
 Alpha virt. eigenvalues --    2.73807   2.74502   2.76030   2.76693   2.78529
 Alpha virt. eigenvalues --    2.79083   2.79491   2.81067   2.82946   2.83855
 Alpha virt. eigenvalues --    2.84995   2.89001   2.90124   2.91699   2.92887
 Alpha virt. eigenvalues --    2.93648   2.95605   2.96485   2.97502   2.98969
 Alpha virt. eigenvalues --    3.00094   3.00288   3.01691   3.02624   3.04808
 Alpha virt. eigenvalues --    3.06079   3.08289   3.08614   3.09831   3.11323
 Alpha virt. eigenvalues --    3.11977   3.13254   3.14189   3.15396   3.16148
 Alpha virt. eigenvalues --    3.17787   3.18690   3.20281   3.21307   3.21809
 Alpha virt. eigenvalues --    3.22860   3.24232   3.25273   3.25796   3.26829
 Alpha virt. eigenvalues --    3.27420   3.28662   3.29710   3.31992   3.33062
 Alpha virt. eigenvalues --    3.34097   3.34677   3.35491   3.35976   3.37023
 Alpha virt. eigenvalues --    3.38726   3.38820   3.39878   3.40393   3.42200
 Alpha virt. eigenvalues --    3.43070   3.44653   3.46082   3.47166   3.48795
 Alpha virt. eigenvalues --    3.49366   3.49830   3.50994   3.51195   3.52853
 Alpha virt. eigenvalues --    3.54536   3.55442   3.55660   3.56971   3.59402
 Alpha virt. eigenvalues --    3.60940   3.61913   3.63308   3.64658   3.66494
 Alpha virt. eigenvalues --    3.69317   3.69983   3.70368   3.71617   3.71729
 Alpha virt. eigenvalues --    3.72331   3.73855   3.75161   3.76746   3.77602
 Alpha virt. eigenvalues --    3.79156   3.80135   3.81309   3.82285   3.82745
 Alpha virt. eigenvalues --    3.83833   3.86596   3.87354   3.87840   3.89308
 Alpha virt. eigenvalues --    3.91239   3.91652   3.92285   3.94116   3.96274
 Alpha virt. eigenvalues --    3.97674   3.98044   3.99348   4.00501   4.00788
 Alpha virt. eigenvalues --    4.02234   4.03818   4.04482   4.05749   4.06158
 Alpha virt. eigenvalues --    4.07219   4.08517   4.10122   4.10676   4.11474
 Alpha virt. eigenvalues --    4.13182   4.14355   4.16117   4.16364   4.17546
 Alpha virt. eigenvalues --    4.18127   4.19184   4.20210   4.20947   4.22107
 Alpha virt. eigenvalues --    4.22780   4.23989   4.24788   4.25905   4.27222
 Alpha virt. eigenvalues --    4.28458   4.31611   4.32212   4.33238   4.34344
 Alpha virt. eigenvalues --    4.35501   4.37515   4.38383   4.38995   4.40873
 Alpha virt. eigenvalues --    4.41556   4.41966   4.43881   4.44711   4.46241
 Alpha virt. eigenvalues --    4.46919   4.49118   4.50422   4.51271   4.54811
 Alpha virt. eigenvalues --    4.56154   4.56357   4.58746   4.60835   4.62142
 Alpha virt. eigenvalues --    4.64931   4.68646   4.69927   4.71223   4.74265
 Alpha virt. eigenvalues --    4.74653   4.76320   4.77152   4.79451   4.80923
 Alpha virt. eigenvalues --    4.83923   4.84301   4.85624   4.87664   4.89456
 Alpha virt. eigenvalues --    4.90898   4.93468   4.95593   4.97011   4.97610
 Alpha virt. eigenvalues --    4.98993   5.00215   5.00724   5.02247   5.03051
 Alpha virt. eigenvalues --    5.04650   5.05555   5.06530   5.10027   5.11259
 Alpha virt. eigenvalues --    5.12643   5.13513   5.18253   5.18963   5.20238
 Alpha virt. eigenvalues --    5.23420   5.24932   5.27023   5.28317   5.30011
 Alpha virt. eigenvalues --    5.31424   5.34373   5.37811   5.41570   5.45003
 Alpha virt. eigenvalues --    5.45509   5.51321   5.54425   5.58380   5.61641
 Alpha virt. eigenvalues --    5.62845   5.63745   5.64338   5.65344   5.66215
 Alpha virt. eigenvalues --    5.67924   5.69403   5.70490   5.72746   5.73031
 Alpha virt. eigenvalues --    5.75486   5.77987   5.78773   5.80982   5.81910
 Alpha virt. eigenvalues --    5.85825   5.88001   5.90964   5.94920   5.96047
 Alpha virt. eigenvalues --    5.97184   5.97520   5.99557   6.12135   6.12537
 Alpha virt. eigenvalues --    6.14095   6.16714   6.18606   6.22025   6.53304
 Alpha virt. eigenvalues --    6.53859   6.54324   6.54802   6.56464   6.58421
 Alpha virt. eigenvalues --    6.69797   6.72233   6.73282   6.74029   6.75602
 Alpha virt. eigenvalues --    6.75750   6.77273   6.78293   6.78585   6.79763
 Alpha virt. eigenvalues --    6.81485   6.82128   6.85148   6.87545   6.89859
 Alpha virt. eigenvalues --    6.91028   6.91646   6.96226   6.98668   7.01077
 Alpha virt. eigenvalues --    7.02785   7.03719   7.04362   7.06529   7.13793
 Alpha virt. eigenvalues --    7.16188   7.22946   7.23871   7.25617   7.26750
 Alpha virt. eigenvalues --    7.39005   7.40253   7.40900   7.42401   7.46633
 Alpha virt. eigenvalues --    7.47894   7.51638   7.54786   7.58604   7.60117
 Alpha virt. eigenvalues --    7.62625   7.70479  23.10482  23.18184  23.22002
 Alpha virt. eigenvalues --   23.24742  23.39446  23.43561  44.08114  44.12884
 Alpha virt. eigenvalues --   44.24517  44.27152  44.29499  44.34883
          Condensed to atoms (all electrons):
               1          2          3          4          5          6
     1  C    4.911501   0.285056   0.296441   0.000710   0.002559   0.401293
     2  C    0.285056   5.022590  -0.098104   0.166861   0.381701  -0.009363
     3  C    0.296441  -0.098104   4.906867   0.025463  -0.012840  -0.049863
     4  C    0.000710   0.166861   0.025463   5.000469  -0.030847  -0.013597
     5  H    0.002559   0.381701  -0.012840  -0.030847   0.618490   0.008065
     6  H    0.401293  -0.009363  -0.049863  -0.013597   0.008065   0.565771
     7  C    0.037000   0.036162   0.188244  -0.011927   0.001679   0.011608
     8  H   -0.011800  -0.016580   0.419899   0.002892  -0.000786  -0.006179
     9  C   -0.007162  -0.007809   0.001231   0.307320  -0.018383  -0.000756
    10  H   -0.014143  -0.040129   0.002799   0.394517   0.009223   0.007269
    11  H    0.004135  -0.001756  -0.038343   0.000424   0.000367  -0.000367
    12  H   -0.024289   0.012963  -0.004730  -0.007323  -0.004942  -0.000645
    13  H   -0.000268  -0.001960  -0.000032  -0.034882   0.006067   0.000065
    14  H    0.000123   0.001375   0.000124  -0.064790   0.001719   0.000055
    15  O   -0.023597  -0.006972  -0.020571   0.001064   0.002627  -0.001863
    16  H   -0.013131   0.001159   0.023462  -0.000025  -0.000580  -0.000201
    17  O   -0.042418   0.009439   0.293405  -0.001380   0.000040   0.006235
    18  H   -0.012624   0.000884  -0.046364  -0.000191   0.000033  -0.001766
    19  O    0.196385  -0.018754  -0.032053   0.004444  -0.001637  -0.032565
    20  H   -0.044312   0.009957  -0.006113   0.001094   0.001682   0.005172
    21  O   -0.028413   0.285312   0.011291  -0.052223  -0.042903   0.007009
    22  H   -0.019296  -0.035173   0.003510   0.008560  -0.004415  -0.002175
    23  O   -0.010308  -0.042651  -0.007679   0.262011   0.005196   0.000364
    24  H    0.001916   0.007787  -0.001997  -0.035227  -0.000052  -0.000156
    25  O   -0.000504   0.010844  -0.000043  -0.045891   0.000063  -0.000029
    26  H    0.000009   0.000331  -0.000016   0.006609   0.000050  -0.000005
               7          8          9         10         11         12
     1  C    0.037000  -0.011800  -0.007162  -0.014143   0.004135  -0.024289
     2  C    0.036162  -0.016580  -0.007809  -0.040129  -0.001756   0.012963
     3  C    0.188244   0.419899   0.001231   0.002799  -0.038343  -0.004730
     4  C   -0.011927   0.002892   0.307320   0.394517   0.000424  -0.007323
     5  H    0.001679  -0.000786  -0.018383   0.009223   0.000367  -0.004942
     6  H    0.011608  -0.006179  -0.000756   0.007269  -0.000367  -0.000645
     7  C    4.934353  -0.046961  -0.000722  -0.001126   0.427321   0.375136
     8  H   -0.046961   0.573608  -0.000333  -0.002348  -0.002448   0.004309
     9  C   -0.000722  -0.000333   4.722036  -0.026063  -0.000009   0.000928
    10  H   -0.001126  -0.002348  -0.026063   0.649461  -0.000005   0.000757
    11  H    0.427321  -0.002448  -0.000009  -0.000005   0.575042  -0.018560
    12  H    0.375136   0.004309   0.000928   0.000757  -0.018560   0.579446
    13  H   -0.000295  -0.000034   0.390318   0.007986  -0.000003   0.000319
    14  H   -0.000039  -0.000056   0.454725   0.000651   0.000000   0.000062
    15  O    0.207678   0.004818   0.000003  -0.000006  -0.034108  -0.024823
    16  H   -0.052490   0.000934   0.000001  -0.000002  -0.010990   0.009592
    17  O   -0.077155  -0.022788   0.000010   0.000022   0.004190   0.004704
    18  H   -0.008104   0.006346   0.000005  -0.000011   0.000044  -0.000291
    19  O   -0.007512   0.003460   0.000098   0.000051  -0.000614   0.000512
    20  H   -0.005234   0.000075   0.000010   0.000013   0.001219  -0.001112
    21  O   -0.001397  -0.000169  -0.001255   0.006421   0.000007   0.000134
    22  H   -0.000404  -0.000030   0.000971  -0.000611   0.000006  -0.000046
    23  O   -0.013596   0.016323  -0.019229  -0.044953  -0.000017   0.016408
    24  H    0.000616   0.000134  -0.013879  -0.003317  -0.000013  -0.000476
    25  O   -0.000050  -0.000013   0.238123  -0.000952  -0.000000   0.000004
    26  H   -0.000002   0.000006  -0.041457   0.004457  -0.000000  -0.000001
              13         14         15         16         17         18
     1  C   -0.000268   0.000123  -0.023597  -0.013131  -0.042418  -0.012624
     2  C   -0.001960   0.001375  -0.006972   0.001159   0.009439   0.000884
     3  C   -0.000032   0.000124  -0.020571   0.023462   0.293405  -0.046364
     4  C   -0.034882  -0.064790   0.001064  -0.000025  -0.001380  -0.000191
     5  H    0.006067   0.001719   0.002627  -0.000580   0.000040   0.000033
     6  H    0.000065   0.000055  -0.001863  -0.000201   0.006235  -0.001766
     7  C   -0.000295  -0.000039   0.207678  -0.052490  -0.077155  -0.008104
     8  H   -0.000034  -0.000056   0.004818   0.000934  -0.022788   0.006346
     9  C    0.390318   0.454725   0.000003   0.000001   0.000010   0.000005
    10  H    0.007986   0.000651  -0.000006  -0.000002   0.000022  -0.000011
    11  H   -0.000003   0.000000  -0.034108  -0.010990   0.004190   0.000044
    12  H    0.000319   0.000062  -0.024823   0.009592   0.004704  -0.000291
    13  H    0.590635  -0.021287   0.000001  -0.000000   0.000000  -0.000000
    14  H   -0.021287   0.566661   0.000001   0.000000   0.000000   0.000001
    15  O    0.000001   0.000001   7.922906   0.318973  -0.004677   0.003704
    16  H   -0.000000   0.000000   0.318973   0.519944   0.015014   0.000638
    17  O    0.000000   0.000000  -0.004677   0.015014   7.895303   0.332077
    18  H   -0.000000   0.000001   0.003704   0.000638   0.332077   0.493179
    19  O   -0.000010  -0.000031  -0.026643   0.002238  -0.013549   0.032555
    20  H   -0.000004  -0.000007   0.047937  -0.003124   0.001073  -0.001330
    21  O    0.000123   0.009029   0.000018   0.000008  -0.000155  -0.000023
    22  H   -0.000237  -0.000294   0.000107   0.000004  -0.000036  -0.000138
    23  O    0.001616   0.004476   0.000144  -0.000010   0.000135  -0.000036
    24  H   -0.001257   0.001761   0.000002   0.000001  -0.000016  -0.000002
    25  O   -0.030716  -0.037778   0.000000   0.000000  -0.000000  -0.000000
    26  H    0.009508  -0.013865   0.000000   0.000000   0.000000   0.000000
              19         20         21         22         23         24
     1  C    0.196385  -0.044312  -0.028413  -0.019296  -0.010308   0.001916
     2  C   -0.018754   0.009957   0.285312  -0.035173  -0.042651   0.007787
     3  C   -0.032053  -0.006113   0.011291   0.003510  -0.007679  -0.001997
     4  C    0.004444   0.001094  -0.052223   0.008560   0.262011  -0.035227
     5  H   -0.001637   0.001682  -0.042903  -0.004415   0.005196  -0.000052
     6  H   -0.032565   0.005172   0.007009  -0.002175   0.000364  -0.000156
     7  C   -0.007512  -0.005234  -0.001397  -0.000404  -0.013596   0.000616
     8  H    0.003460   0.000075  -0.000169  -0.000030   0.016323   0.000134
     9  C    0.000098   0.000010  -0.001255   0.000971  -0.019229  -0.013879
    10  H    0.000051   0.000013   0.006421  -0.000611  -0.044953  -0.003317
    11  H   -0.000614   0.001219   0.000007   0.000006  -0.000017  -0.000013
    12  H    0.000512  -0.001112   0.000134  -0.000046   0.016408  -0.000476
    13  H   -0.000010  -0.000004   0.000123  -0.000237   0.001616  -0.001257
    14  H   -0.000031  -0.000007   0.009029  -0.000294   0.004476   0.001761
    15  O   -0.026643   0.047937   0.000018   0.000107   0.000144   0.000002
    16  H    0.002238  -0.003124   0.000008   0.000004  -0.000010   0.000001
    17  O   -0.013549   0.001073  -0.000155  -0.000036   0.000135  -0.000016
    18  H    0.032555  -0.001330  -0.000023  -0.000138  -0.000036  -0.000002
    19  O    8.000658   0.324920  -0.021011   0.031640  -0.000064   0.000016
    20  H    0.324920   0.447703  -0.000015  -0.000181   0.000028  -0.000001
    21  O   -0.021011  -0.000015   7.876394   0.330305   0.001849  -0.000172
    22  H    0.031640  -0.000181   0.330305   0.479739  -0.000231   0.000041
    23  O   -0.000064   0.000028   0.001849  -0.000231   7.901107   0.324654
    24  H    0.000016  -0.000001  -0.000172   0.000041   0.324654   0.490624
    25  O    0.000001   0.000000   0.000073   0.000008  -0.020200   0.033122
    26  H   -0.000000   0.000000  -0.000020  -0.000007  -0.000032  -0.002109
              25         26
     1  C   -0.000504   0.000009
     2  C    0.010844   0.000331
     3  C   -0.000043  -0.000016
     4  C   -0.045891   0.006609
     5  H    0.000063   0.000050
     6  H   -0.000029  -0.000005
     7  C   -0.000050  -0.000002
     8  H   -0.000013   0.000006
     9  C    0.238123  -0.041457
    10  H   -0.000952   0.004457
    11  H   -0.000000  -0.000000
    12  H    0.000004  -0.000001
    13  H   -0.030716   0.009508
    14  H   -0.037778  -0.013865
    15  O    0.000000   0.000000
    16  H    0.000000   0.000000
    17  O   -0.000000   0.000000
    18  H   -0.000000   0.000000
    19  O    0.000001  -0.000000
    20  H    0.000000   0.000000
    21  O    0.000073  -0.000020
    22  H    0.000008  -0.000007
    23  O   -0.020200  -0.000032
    24  H    0.033122  -0.002109
    25  O    7.903508   0.314706
    26  H    0.314706   0.532941
 Mulliken charges:
               1
     1  C    0.115137
     2  C    0.046830
     3  C    0.146011
     4  C    0.115862
     5  H    0.077827
     6  H    0.106622
     7  C    0.007220
     8  H    0.077718
     9  C    0.021277
    10  H    0.050037
    11  H    0.094477
    12  H    0.081963
    13  H    0.084344
    14  H    0.097384
    15  O   -0.366724
    16  H    0.188582
    17  O   -0.399475
    18  H    0.201415
    19  O   -0.442534
    20  H    0.220549
    21  O   -0.380216
    22  H    0.208382
    23  O   -0.375309
    24  H    0.197999
    25  O   -0.364276
    26  H    0.188896
 Sum of Mulliken charges =   0.00000
 Mulliken charges with hydrogens summed into heavy atoms:
               1
     1  C    0.221759
     2  C    0.124658
     3  C    0.223728
     4  C    0.165899
     7  C    0.183660
     9  C    0.203005
    15  O   -0.178141
    17  O   -0.198061
    19  O   -0.221984
    21  O   -0.171834
    23  O   -0.177309
    25  O   -0.175380
 Electronic spatial extent (au):  <R**2>=           2518.0369
 Charge=             -0.0000 electrons
 Dipole moment (field-independent basis, Debye):
    X=              0.7174    Y=             -0.0944    Z=             -0.2218  Tot=              0.7569
 Quadrupole moment (field-independent basis, Debye-Ang):
   XX=            -67.3070   YY=            -75.4884   ZZ=            -73.7052
   XY=              0.5103   XZ=             -7.7788   YZ=             -1.0244
 Traceless Quadrupole moment (field-independent basis, Debye-Ang):
   XX=              4.8599   YY=             -3.3215   ZZ=             -1.5383
   XY=              0.5103   XZ=             -7.7788   YZ=             -1.0244
 Octapole moment (field-independent basis, Debye-Ang**2):
  XXX=            -12.4011  YYY=             -8.4956  ZZZ=             -3.7539  XYY=             -7.9004
  XXY=             12.8107  XXZ=            -11.0559  XZZ=             18.7623  YZZ=              5.4799
  YYZ=              4.1671  XYZ=              6.9270
 Hexadecapole moment (field-independent basis, Debye-Ang**3):
 XXXX=          -1911.3796 YYYY=           -586.6297 ZZZZ=           -333.2606 XXXY=             39.6903
 XXXZ=           -165.4574 YYYX=            -23.2151 YYYZ=              7.5920 ZZZX=             -1.5850
 ZZZY=             -1.8417 XXYY=           -467.3536 XXZZ=           -401.0313 YYZZ=           -155.9462
 XXYZ=            -11.6933 YYXZ=            -15.1699 ZZXY=            -23.7553
 N-N= 8.299783064409D+02 E-N=-3.277183809858D+03  KE= 6.850481786641D+02
   1 Symmetry operations used in ECPInt.
 ECPInt:  NShTT=   23436 NPrTT=   62434 LenC2=   21829 LenP2D=   45398.
 LDataN:  DoStor=T MaxTD1= 7 Len=  274
 Calling FoFJK, ICntrl=      2127 FMM=F ISym2X=0 I1Cent= 0 IOpClX= 0 NMat=1 NMatS=1 NMatT=0.
 ***** Axes restored to original set *****
 -------------------------------------------------------------------
 Center     Atomic                   Forces (Hartrees/Bohr)
 Number     Number              X              Y              Z
 -------------------------------------------------------------------
      1        6          -0.001716095    0.012125384   -0.007116855
      2        6          -0.004618795   -0.005361198   -0.010889124
      3        6          -0.014772217    0.002697505   -0.002630238
      4        6           0.007221813    0.004065935    0.003920727
      5        1          -0.001386238    0.001125941    0.007451097
      6        1           0.003284133    0.002493799    0.002408341
      7        6          -0.000074377    0.000531365   -0.003048476
      8        1           0.002676333    0.001881520   -0.003761379
      9        6           0.000386540   -0.008446236    0.003410326
     10        1          -0.000400010   -0.000983970   -0.006513559
     11        1           0.002236567   -0.006374505    0.001333501
     12        1          -0.002665733   -0.001158394   -0.002142901
     13        1          -0.002617327   -0.002180706    0.000340732
     14        1          -0.004962333    0.004651749   -0.000996829
     15        8          -0.016160768    0.006594464    0.005816113
     16        1           0.019449114   -0.002534094   -0.004008596
     17        8           0.010500095   -0.003040553   -0.014099478
     18        1           0.001567331    0.000833876    0.016915821
     19        8           0.007230607    0.003625211    0.010538623
     20        1          -0.004245520   -0.014884857   -0.001184146
     21        8          -0.012508095    0.004993892    0.005161968
     22        1           0.010863313   -0.005729161    0.013573590
     23        8           0.014238077   -0.004923121   -0.001331806
     24        1          -0.013574514    0.005486686   -0.011949617
     25        8          -0.001704175   -0.012319290   -0.007198481
     26        1           0.001752273    0.016828758    0.006000647
 -------------------------------------------------------------------
 Cartesian Forces:  Max     0.019449114 RMS     0.007570084

 GradGradGradGradGradGradGradGradGradGradGradGradGradGradGradGradGradGrad
 Berny optimization.
 FormGI is forming the generalized inverse of G from B-inverse, IUseBI=4.
 Internal  Forces:  Max     0.019675321 RMS     0.005562568
 Search for a local minimum.
 Step number   1 out of a maximum of  140
 All quantities printed in internal units (Hartrees-Bohrs-Radians)
 Mixed Optimization -- RFO/linear search
 Second derivative matrix not updated -- first step.
 ITU=  0
     Eigenvalues ---    0.00230   0.00230   0.00313   0.00324   0.00341
     Eigenvalues ---    0.00985   0.01084   0.01167   0.01246   0.01248
     Eigenvalues ---    0.01257   0.03495   0.03907   0.03944   0.04231
     Eigenvalues ---    0.04566   0.04769   0.04774   0.04906   0.05064
     Eigenvalues ---    0.05148   0.05557   0.05563   0.07395   0.07687
     Eigenvalues ---    0.07716   0.08141   0.11402   0.11506   0.13649
     Eigenvalues ---    0.13752   0.16000   0.16000   0.16000   0.16000
     Eigenvalues ---    0.16000   0.16000   0.16682   0.16764   0.16925
     Eigenvalues ---    0.17729   0.19329   0.19578   0.19672   0.19791
     Eigenvalues ---    0.21993   0.21997   0.28196   0.28360   0.29035
     Eigenvalues ---    0.29111   0.29227   0.34026   0.34064   0.34125
     Eigenvalues ---    0.34203   0.34283   0.34356   0.34460   0.34527
     Eigenvalues ---    0.37798   0.38778   0.39625   0.40465   0.40487
     Eigenvalues ---    0.40575   0.50450   0.51113   0.51278   0.51597
     Eigenvalues ---    0.51712   0.52509
 RFO step:  Lambda=-1.58705919D-02 EMin= 2.30000000D-03
 Linear search not attempted -- first point.
 Iteration  1 RMS(Cart)=  0.09180057 RMS(Int)=  0.00351113
 Iteration  2 RMS(Cart)=  0.00476639 RMS(Int)=  0.00039828
 Iteration  3 RMS(Cart)=  0.00001347 RMS(Int)=  0.00039816
 Iteration  4 RMS(Cart)=  0.00000001 RMS(Int)=  0.00039816
 Variable       Old X    -DE/DX   Delta X   Delta X   Delta X     New X
                                 (Linear)    (Quad)   (Total)
    R1        2.91358  -0.00731   0.00000  -0.02441  -0.02441   2.88917
    R2        2.91712  -0.00591   0.00000  -0.01985  -0.01985   2.89726
    R3        2.07287  -0.00369   0.00000  -0.01036  -0.01036   2.06251
    R4        2.74660  -0.01392   0.00000  -0.03535  -0.03535   2.71125
    R5        2.89772  -0.01183   0.00000  -0.03853  -0.03853   2.85919
    R6        2.07120   0.00060   0.00000   0.00168   0.00168   2.07288
    R7        2.72065  -0.01641   0.00000  -0.03981  -0.03981   2.68085
    R8        2.89532  -0.00238   0.00000  -0.00774  -0.00774   2.88759
    R9        2.06561  -0.00380   0.00000  -0.01054  -0.01054   2.05507
   R10        2.73249  -0.01240   0.00000  -0.03072  -0.03072   2.70177
   R11        2.89930  -0.00715   0.00000  -0.02334  -0.02334   2.87596
   R12        2.07222   0.00086   0.00000   0.00241   0.00241   2.07463
   R13        2.70780  -0.01153   0.00000  -0.02734  -0.02734   2.68046
   R14        2.06988  -0.00261   0.00000  -0.00728  -0.00728   2.06260
   R15        2.06450  -0.00315   0.00000  -0.00871  -0.00871   2.05579
   R16        2.70927   0.00018   0.00000   0.00043   0.00043   2.70970
   R17        2.06855  -0.00306   0.00000  -0.00852  -0.00852   2.06003
   R18        2.06734  -0.00291   0.00000  -0.00811  -0.00811   2.05924
   R19        2.70897  -0.00311   0.00000  -0.00739  -0.00739   2.70157
   R20        1.84876  -0.01968   0.00000  -0.03692  -0.03692   1.81185
   R21        1.84987  -0.01700   0.00000  -0.03197  -0.03197   1.81790
   R22        1.86114  -0.01532   0.00000  -0.02945  -0.02945   1.83169
   R23        1.85297  -0.01825   0.00000  -0.03452  -0.03452   1.81845
   R24        1.85458  -0.01888   0.00000  -0.03582  -0.03582   1.81876
   R25        1.84115  -0.01774   0.00000  -0.03280  -0.03280   1.80835
    A1        2.05136  -0.00276   0.00000  -0.00782  -0.00844   2.04292
    A2        1.90828  -0.00054   0.00000  -0.02234  -0.02251   1.88576
    A3        1.87316   0.00126   0.00000   0.01877   0.01860   1.89176
    A4        1.90013   0.00049   0.00000  -0.00868  -0.00896   1.89117
    A5        1.89781   0.00318   0.00000   0.03094   0.03082   1.92863
    A6        1.81890  -0.00147   0.00000  -0.01043  -0.01017   1.80873
    A7        1.98840   0.00480   0.00000   0.01119   0.01124   1.99963
    A8        1.91049  -0.00235   0.00000  -0.00367  -0.00409   1.90640
    A9        1.87533   0.00274   0.00000   0.01386   0.01362   1.88895
   A10        1.92476  -0.00161   0.00000  -0.02008  -0.01972   1.90505
   A11        1.90564  -0.00840   0.00000  -0.05245  -0.05233   1.85331
   A12        1.85376   0.00495   0.00000   0.05518   0.05470   1.90846
   A13        1.98828   0.00339   0.00000   0.02136   0.02031   2.00859
   A14        1.93717  -0.00247   0.00000  -0.03908  -0.03919   1.89798
   A15        1.88185  -0.00120   0.00000   0.01425   0.01310   1.89495
   A16        1.91988  -0.00318   0.00000  -0.03796  -0.03803   1.88185
   A17        1.86835   0.00266   0.00000   0.03716   0.03645   1.90480
   A18        1.86226   0.00093   0.00000   0.00813   0.00880   1.87106
   A19        1.95486   0.00101   0.00000  -0.00530  -0.00528   1.94958
   A20        1.92567  -0.00113   0.00000  -0.02035  -0.02013   1.90553
   A21        1.93271  -0.00557   0.00000  -0.03652  -0.03638   1.89633
   A22        1.89386  -0.00071   0.00000   0.00327   0.00271   1.89657
   A23        1.88609   0.00319   0.00000   0.01740   0.01695   1.90303
   A24        1.86789   0.00349   0.00000   0.04519   0.04473   1.91263
   A25        1.93500  -0.00786   0.00000  -0.04337  -0.04465   1.89036
   A26        1.95796  -0.00291   0.00000  -0.02213  -0.02251   1.93545
   A27        1.91311   0.01276   0.00000   0.05994   0.06009   1.97320
   A28        1.88995   0.00242   0.00000  -0.00433  -0.00541   1.88453
   A29        1.87749   0.00120   0.00000   0.03671   0.03722   1.91471
   A30        1.88796  -0.00554   0.00000  -0.02469  -0.02417   1.86379
   A31        1.93144  -0.00189   0.00000  -0.02381  -0.02415   1.90729
   A32        1.96989  -0.00534   0.00000  -0.02878  -0.02970   1.94019
   A33        1.88992   0.00434   0.00000   0.02330   0.02327   1.91319
   A34        1.90341   0.00143   0.00000  -0.00361  -0.00437   1.89904
   A35        1.86403  -0.00246   0.00000  -0.01752  -0.01725   1.84678
   A36        1.90192   0.00419   0.00000   0.05246   0.05264   1.95456
   A37        1.82831   0.00603   0.00000   0.03426   0.03426   1.86256
   A38        1.84948  -0.00020   0.00000  -0.00114  -0.00114   1.84833
   A39        1.84723  -0.00094   0.00000  -0.00536  -0.00536   1.84187
   A40        1.83792  -0.00262   0.00000  -0.01491  -0.01491   1.82301
   A41        1.83364  -0.00042   0.00000  -0.00237  -0.00237   1.83127
   A42        1.86407   0.00481   0.00000   0.02733   0.02733   1.89141
    D1        1.08233   0.00026   0.00000  -0.00435  -0.00417   1.07817
    D2       -1.08163   0.00071   0.00000   0.01672   0.01677  -1.06486
    D3       -3.08751  -0.00539   0.00000  -0.05378  -0.05368  -3.14119
    D4       -1.09431   0.00223   0.00000   0.03335   0.03330  -1.06101
    D5        3.02491   0.00268   0.00000   0.05443   0.05423   3.07914
    D6        1.01902  -0.00341   0.00000  -0.01608  -0.01621   1.00282
    D7       -3.05715   0.00357   0.00000   0.04673   0.04682  -3.01033
    D8        1.06207   0.00402   0.00000   0.06780   0.06775   1.12982
    D9       -0.94381  -0.00208   0.00000  -0.00270  -0.00269  -0.94650
   D10        0.96949  -0.00232   0.00000  -0.08028  -0.08030   0.88919
   D11       -1.20899   0.00130   0.00000  -0.01440  -0.01447  -1.22346
   D12        3.04037   0.00225   0.00000  -0.01106  -0.01098   3.02939
   D13       -3.13299  -0.00479   0.00000  -0.12463  -0.12462   3.02558
   D14        0.97171  -0.00117   0.00000  -0.05875  -0.05878   0.91293
   D15       -1.06211  -0.00022   0.00000  -0.05541  -0.05530  -1.11741
   D16       -1.16160  -0.00463   0.00000  -0.12541  -0.12546  -1.28705
   D17        2.94311  -0.00101   0.00000  -0.05952  -0.05962   2.88349
   D18        0.90928  -0.00006   0.00000  -0.05618  -0.05613   0.85315
   D19       -1.32574  -0.00154   0.00000  -0.07165  -0.07200  -1.39774
   D20        0.91017  -0.00203   0.00000  -0.04822  -0.04784   0.86233
   D21        2.93459  -0.00078   0.00000  -0.04956  -0.04959   2.88500
   D22        3.04326  -0.00038   0.00000  -0.01513  -0.01514   3.02812
   D23        0.93154   0.00063   0.00000  -0.00159  -0.00144   0.93010
   D24       -1.13321   0.00050   0.00000  -0.02193  -0.02186  -1.15507
   D25       -1.08367  -0.00120   0.00000  -0.02733  -0.02763  -1.11130
   D26        3.08779  -0.00019   0.00000  -0.01379  -0.01393   3.07387
   D27        1.02304  -0.00032   0.00000  -0.03412  -0.03434   0.98869
   D28        0.94689  -0.00104   0.00000  -0.00272  -0.00266   0.94423
   D29       -1.16483  -0.00003   0.00000   0.01081   0.01105  -1.15379
   D30        3.05360  -0.00016   0.00000  -0.00952  -0.00937   3.04422
   D31        0.67640  -0.00055   0.00000   0.00966   0.01013   0.68653
   D32        2.84097   0.00189   0.00000  -0.00010   0.00047   2.84143
   D33       -1.36692  -0.00165   0.00000  -0.02053  -0.02157  -1.38849
   D34        3.09269   0.00497   0.00000   0.07965   0.07921  -3.11128
   D35       -1.07511   0.00050   0.00000   0.02809   0.02876  -1.04636
   D36        1.02256   0.00029   0.00000   0.02330   0.02369   1.04625
   D37       -1.00281   0.00172   0.00000   0.01338   0.01294  -0.98987
   D38        1.11257  -0.00275   0.00000  -0.03818  -0.03751   1.07506
   D39       -3.07294  -0.00296   0.00000  -0.04297  -0.04258  -3.11552
   D40        1.01412   0.00264   0.00000   0.02392   0.02287   1.03699
   D41        3.12950  -0.00183   0.00000  -0.02764  -0.02759   3.10191
   D42       -1.05601  -0.00204   0.00000  -0.03243  -0.03265  -1.08866
   D43       -0.42203  -0.00289   0.00000  -0.03868  -0.03896  -0.46099
   D44        1.72404   0.00203   0.00000   0.01669   0.01681   1.74085
   D45       -2.50413   0.00014   0.00000  -0.00463  -0.00447  -2.50860
   D46        1.05560  -0.00212   0.00000  -0.03832  -0.03810   1.01750
   D47       -1.08300   0.00125   0.00000   0.00462   0.00418  -1.07882
   D48        3.09312  -0.00360   0.00000  -0.05907  -0.05905   3.03407
   D49       -3.09758  -0.00338   0.00000  -0.06511  -0.06484   3.12077
   D50        1.04702  -0.00000   0.00000  -0.02217  -0.02257   1.02445
   D51       -1.06005  -0.00486   0.00000  -0.08587  -0.08580  -1.14585
   D52       -1.07794   0.00204   0.00000  -0.00101  -0.00063  -1.07857
   D53        3.06665   0.00542   0.00000   0.04194   0.04164   3.10830
   D54        0.95958   0.00056   0.00000  -0.02176  -0.02159   0.93800
   D55       -2.77355  -0.00129   0.00000  -0.01871  -0.01896  -2.79251
   D56       -0.62647  -0.00145   0.00000  -0.03695  -0.03743  -0.66391
   D57        1.41007   0.00114   0.00000  -0.00087  -0.00013   1.40994
   D58        1.33377  -0.00176   0.00000  -0.03318  -0.03219   1.30157
   D59       -0.77164  -0.00037   0.00000  -0.03754  -0.03869  -0.81034
   D60       -2.80959  -0.00097   0.00000  -0.03898  -0.03881  -2.84840
   D61        1.45997  -0.00044   0.00000  -0.00363  -0.00301   1.45697
   D62       -2.74264  -0.00172   0.00000  -0.02893  -0.02885  -2.77149
   D63       -0.68881   0.00080   0.00000  -0.01542  -0.01612  -0.70494
         Item               Value     Threshold  Converged?
 Maximum Force            0.019675     0.000450     NO 
 RMS     Force            0.005563     0.000300     NO 
 Maximum Displacement     0.323301     0.001800     NO 
 RMS     Displacement     0.093688     0.001200     NO 
 Predicted change in Energy=-9.273862D-03
 GradGradGradGradGradGradGradGradGradGradGradGradGradGradGradGradGradGrad

                          Input orientation:                          
 ---------------------------------------------------------------------
 Center     Atomic      Atomic             Coordinates (Angstroms)
 Number     Number       Type             X           Y           Z
 ---------------------------------------------------------------------
      1          6           0       -0.007948   -0.010855   -0.032129
      2          6           0        1.520721   -0.003066   -0.007823
      3          6           0       -0.727524    0.627756    1.161598
      4          6           0        2.135459   -0.763734    1.146603
      5          1           0        1.876387    1.034349    0.014716
      6          1           0       -0.339442   -1.047089   -0.119048
      7          6           0       -0.258427    2.036455    1.522753
      8          1           0       -0.584909   -0.004631    2.034753
      9          6           0        3.649809   -0.849033    1.021595
     10          1           0        1.726564   -1.782412    1.165818
     11          1           0       -0.817258    2.369820    2.399055
     12          1           0        0.799137    2.039740    1.777751
     13          1           0        4.064853    0.158134    0.980214
     14          1           0        3.940448   -1.386113    0.119086
     15          8           0       -0.429596    2.976661    0.453730
     16          1           0       -1.366716    3.173986    0.407399
     17          8           0       -2.129982    0.657198    0.885313
     18          1           0       -2.209469    0.675232   -0.073217
     19          8           0       -0.444152    0.587919   -1.260804
     20          1           0       -0.380540    1.544835   -1.120124
     21          8           0        1.986570   -0.634024   -1.189950
     22          1           0        1.386422   -0.328906   -1.877493
     23          8           0        1.807825   -0.097000    2.354944
     24          1           0        2.457636   -0.407481    2.993423
     25          8           0        4.195732   -1.447248    2.199684
     26          1           0        4.138800   -2.398192    2.109153
 ---------------------------------------------------------------------
                    Distance matrix (angstroms):
                    1          2          3          4          5
     1  C    0.000000
     2  C    1.528882   0.000000
     3  C    1.533166   2.611530   0.000000
     4  C    2.559381   1.513017   3.183260   0.000000
     5  H    2.155311   1.096921   2.874197   2.140418   0.000000
     6  H    1.091431   2.136016   2.143774   2.794155   3.043053
     7  C    2.582998   3.109289   1.528044   3.703140   2.799254
     8  H    2.145908   2.933564   1.087498   2.960651   3.349329
     9  C    3.897699   2.511648   4.621856   1.521893   2.775961
    10  H    2.753547   2.141467   3.439692   1.097847   3.046576
    11  H    3.497607   4.109719   2.138724   4.484009   3.837223
    12  H    2.851665   2.807493   2.168880   3.169160   2.297732
    13  H    4.200132   2.734010   4.818748   2.144781   2.547415
    14  H    4.183782   2.789983   5.189650   2.168209   3.182747
    15  O    3.055994   3.591036   2.471273   4.588043   3.046780
    16  H    3.490365   4.313161   2.731422   5.321400   3.905121
    17  O    2.406454   3.815923   1.429715   4.503477   4.117180
    18  H    2.306318   3.791924   1.929555   4.736770   4.102551
    19  O    1.434730   2.404153   2.439246   3.778488   2.685359
    20  H    1.934614   2.692212   2.483483   4.098511   2.577242
    21  O    2.388931   1.418643   3.806333   2.344883   2.060784
    22  H    2.334694   1.902597   3.823617   3.145678   2.383062
    23  O    3.000428   2.381999   2.894364   1.418439   2.600254
    24  H    3.923057   3.169990   3.817400   1.908260   3.359973
    25  O    4.971432   3.756918   5.442584   2.412653   4.038783
    26  H    5.242135   4.131894   5.808212   2.758863   4.613839
                    6          7          8          9         10
     6  H    0.000000
     7  C    3.494326   0.000000
     8  H    2.405375   2.129500   0.000000
     9  C    4.153844   4.883801   4.435351   0.000000
    10  H    2.541646   4.318720   3.042772   2.142631   0.000000
    11  H    4.271348   1.091481   2.413446   5.675659   5.023240
    12  H    3.797726   1.087877   2.482154   4.128331   3.980381
    13  H    4.696675   4.744807   4.770622   1.090119   3.044300
    14  H    4.299896   5.595964   5.104618   1.089701   2.480722
    15  O    4.065312   1.433909   3.378144   5.621384   5.273033
    16  H    4.376061   1.940695   3.655559   6.459678   5.891474
    17  O    2.668214   2.410684   2.036290   5.974386   4.572015
    18  H    2.542733   2.864719   2.746806   6.152490   4.802872
    19  O    1.996953   3.143396   3.351362   4.902519   4.027279
    20  H    2.778832   2.690985   3.520775   5.153763   4.553679
    21  O    2.593797   4.419301   4.172211   2.775523   2.633637
    22  H    2.566422   4.456696   4.392832   3.714588   3.389709
    23  O    3.410874   3.084407   2.415829   2.395054   2.064277
    24  H    4.233228   3.938616   3.215341   2.346135   2.401050
    25  O    5.109252   5.695082   4.996286   1.429611   2.697778
    26  H    5.181217   6.272604   5.296045   1.954939   2.662319
                   11         12         13         14         15
    11  H    0.000000
    12  H    1.762868   0.000000
    13  H    5.544337   3.852456   0.000000
    14  H    6.476192   4.935127   1.772489   0.000000
    15  O    2.074326   2.034856   5.331169   6.184099   0.000000
    16  H    2.217043   2.802731   6.239025   7.003115   0.958790
    17  O    2.635855   3.359703   6.215629   6.450763   2.908175
    18  H    3.304846   3.786777   6.383121   6.489038   2.956720
    19  O    4.087658   3.589759   5.053515   5.002562   2.940395
    20  H    3.640871   3.167688   5.108413   5.366287   2.128273
    21  O    5.455775   4.167285   3.107473   2.469182   4.645060
    22  H    5.516176   4.395020   3.946859   3.409849   4.433880
    23  O    3.602528   2.432337   2.655024   3.347978   4.250654
    24  H    4.334928   3.196462   2.637437   3.379092   5.122360
    25  O    6.303953   4.886100   2.020268   2.097092   6.634229
    26  H    6.883349   5.564029   2.795491   2.241430   7.245668
                   16         17         18         19         20
    16  H    0.000000
    17  O    2.673050   0.000000
    18  H    2.680484   0.961989   0.000000
    19  O    3.212750   2.729952   2.129397   0.000000
    20  H    2.441312   2.805392   2.279739   0.969291   0.000000
    21  O    5.319491   4.787480   4.535194   2.721502   3.217997
    22  H    5.007070   4.579366   4.146582   2.138194   2.684523
    23  O    4.956813   4.270240   4.757201   4.314412   4.422743
    24  H    5.842953   5.159835   5.688446   5.244964   5.365449
    25  O    7.450431   6.794918   7.120225   6.135585   6.396557
    26  H    8.015974   7.080311   7.383034   6.424711   6.811763
                   21         22         23         24         25
    21  O    0.000000
    22  H    0.962284   0.000000
    23  O    3.589794   4.259682   0.000000
    24  H    4.215903   4.987935   0.962449   0.000000
    25  O    4.126906   5.076050   2.747613   2.175342   0.000000
    26  H    4.316070   5.267910   3.284713   2.751577   0.956939
                   26
    26  H    0.000000
 Stoichiometry    C6H14O6
 Framework group  C1[X(C6H14O6)]
 Deg. of freedom    72
 Full point group                 C1      NOp   1
 Largest Abelian subgroup         C1      NOp   1
 Largest concise Abelian subgroup C1      NOp   1
                         Standard orientation:                         
 ---------------------------------------------------------------------
 Center     Atomic      Atomic             Coordinates (Angstroms)
 Number     Number       Type             X           Y           Z
 ---------------------------------------------------------------------
      1          6           0       -0.809395    0.732738   -0.553451
      2          6           0        0.493046    0.764182    0.246637
      3          6           0       -1.509357   -0.624158   -0.693035
      4          6           0        1.606425   -0.082407   -0.330332
      5          1           0        0.292605    0.442233    1.275912
      6          1           0       -0.601095    1.116550   -1.553712
      7          6           0       -1.730979   -1.376678    0.618268
      8          1           0       -0.913813   -1.259234   -1.344693
      9          6           0        2.914048    0.118869    0.421845
     10          1           0        1.760251    0.192124   -1.382111
     11          1           0       -2.204608   -2.332944    0.389007
     12          1           0       -0.783962   -1.581145    1.113070
     13          1           0        2.766908   -0.130841    1.472727
     14          1           0        3.254033    1.151710    0.350458
     15          8           0       -2.538383   -0.649201    1.553667
     16          1           0       -3.441623   -0.699659    1.236036
     17          8           0       -2.770078   -0.422162   -1.336360
     18          1           0       -3.027409    0.482372   -1.133822
     19          8           0       -1.705554    1.705657    0.002227
     20          1           0       -2.093009    1.284648    0.784630
     21          8           0        0.975402    2.098263    0.257001
     22          1           0        0.185396    2.638481    0.357225
     23          8           0        1.229201   -1.447126   -0.245413
     24          1           0        2.054864   -1.937140   -0.312309
     25          8           0        3.893816   -0.801951   -0.063884
     26          1           0        4.293498   -0.430264   -0.849909
 ---------------------------------------------------------------------
 Rotational constants (GHZ):           1.4836421           0.5368693           0.4700297
 Standard basis: def2TZVPP (5D, 7F)
 There are   642 symmetry adapted cartesian basis functions of A   symmetry.
 There are   568 symmetry adapted basis functions of A   symmetry.
   568 basis functions,   850 primitive gaussians,   642 cartesian basis functions
    49 alpha electrons       49 beta electrons
       nuclear repulsion energy       835.0593834249 Hartrees.
 NAtoms=   26 NActive=   26 NUniq=   26 SFac= 1.00D+00 NAtFMM=   60 NAOKFM=F Big=F
 Integral buffers will be    131072 words long.
 Raffenetti 2 integral format.
 Two-electron integral symmetry is turned on.
 Nuclear repulsion after empirical dispersion term =      835.0401746639 Hartrees.
 One-electron integrals computed using PRISM.
   1 Symmetry operations used in ECPInt.
 ECPInt:  NShTT=   23436 NPrTT=   62434 LenC2=   21906 LenP2D=   45604.
 LDataN:  DoStor=T MaxTD1= 6 Len=  172
[...]
 0136384,-0.00377835,0.11039876,0.01919969,-0.11983772,0.05905097,0.006
 04064,-0.00403426,0.00671303,-0.00179775,0.00721170,-0.00268280,0.0022
 5028,0.00071809,-0.00195300,0.00175244,0.00231402,-0.00067557,0.014804
 28,-0.01948361,0.03961250,0.00023850,-0.00526961,0.00668064,0.00114911
 ,0.00047266,-0.00175985,-0.00076024,0.00026189,0.00060660,-0.00025427,
 0.00086391,-0.00040278,0.00013461,0.00154708,-0.00042850,-0.00011393,0
 .00003474,-0.00040233,0.00017228,0.00005501,0.00000916,-0.00010935,0.0
 0000020,-0.00001152,0.00050959,-0.00723440,-0.01464826,-0.00105188,0.0
 0035249,-0.00005526,-0.00019299,0.00389325,-0.00036230,-0.00068070,-0.
 00340140,-0.00048318,0.00895040,0.61752606,-0.03931444,0.02057618,-0.1
 7206597,-0.01081293,0.01155283,-0.02430020,-0.01162815,0.02333451,-0.0
 4744715,-0.00378509,-0.00149766,0.00293646,0.00076264,-0.00082623,0.00
 052243,-0.00246437,0.00784149,-0.00556414,-0.00008983,0.00364985,0.000
 95715,0.00546665,-0.00485295,-0.00518194,0.00127619,0.00050739,-0.0014
 6543,0.00023333,0.00007836,0.00006062,0.00016426,-0.00045949,0.0003658
 8,-0.00003270,-0.00023861,-0.00004905,-0.00007636,-0.00009185,-0.00008
 476,-0.00026584,0.00021288,0.00013469,0.00100498,-0.00917507,0.0000337
 4,-0.00029990,0.00001995,-0.00112720,-0.00142502,0.00045552,-0.0001938
 7,-0.00119987,-0.00052211,-0.00059667,0.08074796,-0.00209101,0.3006438
 7,0.00059847,0.01390270,-0.00007850,0.00113432,0.00348788,0.00040979,0
 .00234722,-0.00124637,0.00039876,-0.00041455,-0.00036798,-0.00090340,-
 0.00079048,-0.00089829,-0.00053440,0.00021347,-0.00014218,-0.00061941,
 0.00103299,-0.00101446,0.00075488,-0.00005844,0.00014597,-0.00018953,-
 0.00024187,0.00008474,-0.00013059,0.00003824,-0.00028998,0.00023640,-0
 .00015294,0.00011050,-0.00018768,-0.00027610,-0.00011862,-0.00040577,-
 0.00005470,-0.00002595,-0.00001276,-0.00003046,0.00001663,-0.00000286,
 -0.00474867,-0.00129288,-0.00375889,-0.00092154,0.00260291,0.00330631,
 -0.00123796,0.00134952,-0.00067635,-0.00151728,-0.00262689,0.00099379,
 -0.02105128,-0.05259964,-0.01841651,0.02687661,-0.00127857,-0.02364992
 ,0.00373144,0.00084297,0.00188976,-0.00099213,-0.00040831,0.00278563,0
 .00038076,-0.00092801,0.00020013,0.00113267,0.00022685,-0.00034557,0.0
 0005277,0.00117099,0.00133630,0.00201416,-0.00225901,0.00632263,-0.003
 92777,0.00049932,-0.00085867,-0.00092537,0.00044733,0.00009427,-0.0001
 4167,-0.00006111,-0.00000968,-0.00009951,0.00012616,-0.00124939,0.0011
 3832,0.00017123,-0.00028384,0.00036855,-0.00002119,-0.00002895,0.00000
 099,0.00005691,-0.00003480,0.00001043,0.00082945,-0.00502423,0.0062388
 1,0.00142293,-0.00049975,-0.00058749,-0.00013182,-0.00130660,-0.001628
 51,-0.00198012,0.00026180,0.00178011,-0.03719237,-0.47522667,-0.048677
 32,0.03798724,0.49696432,0.00289019,0.04282616,0.00141411,0.00001819,0
 .00108782,0.00055054,0.00125332,0.00197843,-0.00004744,-0.00045278,0.0
 0018249,0.00047254,-0.00077792,-0.00052053,0.00015186,-0.00250629,0.00
 347792,-0.00600439,-0.00085246,0.00156782,-0.00744164,-0.00050692,-0.0
 0063473,0.00033920,0.00002707,-0.00007809,-0.00004029,0.00002757,-0.00
 026461,0.00005746,-0.00015450,-0.00029904,0.00061099,0.00011253,-0.000
 07856,0.00019744,-0.00004857,0.00000540,0.00001971,0.00005096,-0.00003
 909,-0.00000853,-0.00079769,0.00368856,0.00415079,0.00113508,-0.001041
 99,0.00060095,0.00008392,-0.00141535,-0.00056861,0.00061703,0.00116099
 ,0.00047304,-0.02031906,-0.09218970,-0.05476869,0.01943782,0.04227046,
 0.06109486,-0.02372438,0.02297342,0.04113031,-0.09846811,0.03107135,0.
 01339411,-0.00470258,-0.00121336,-0.00644827,0.00701076,-0.00757207,-0
 .00838760,0.00677130,0.00196271,-0.00296359,0.00382248,0.00080856,0.00
 048564,-0.00084912,-0.00092940,0.00026900,-0.00011211,-0.00020561,0.00
 019783,-0.00208140,0.00040288,0.00052622,-0.00006066,0.00044402,-0.000
 28569,-0.00002240,0.00050707,0.00013850,0.00010265,0.00020814,-0.00001
 353,0.00004944,0.00019029,0.00023773,-0.00056963,-0.00052649,-0.002433
 27,0.00028476,0.00119810,0.00024261,0.00008365,-0.00048066,-0.00001363
 ,-0.00444283,0.00168031,0.00243457,0.00108060,-0.00025743,0.00040774,-
 0.00183382,0.00365004,0.00464023,-0.00151921,-0.00098693,0.00077672,0.
 32932750,0.00558456,-0.00262178,-0.00506322,0.03675198,-0.10719995,-0.
 04148948,-0.00007147,0.00139968,0.00097952,-0.00630234,0.00836365,0.00
 911946,0.01455162,-0.01105394,-0.03750054,0.00163791,0.00170769,0.0007
 9851,-0.00094184,-0.00006481,-0.00018328,0.00019333,-0.00004831,-0.000
 31422,0.00126281,-0.00061823,-0.00087404,-0.00027061,0.00227574,-0.000
 98456,0.00045348,0.00008522,0.00005563,0.00049816,0.00021685,0.0005018
 0,0.00025440,0.00021594,0.00018210,0.00003214,0.00020978,0.00135351,0.
 00036968,-0.00011346,-0.00002756,-0.00005559,0.00007414,-0.00007483,0.
 00119379,0.00018415,-0.00040922,-0.00038113,-0.00011697,-0.00013019,0.
 00357745,0.00153072,-0.00294808,-0.00077687,0.00008441,-0.00010133,-0.
 17515787,0.18167066,0.01361356,-0.00878368,-0.02402602,0.05359862,-0.0
 6365432,-0.19261340,0.00011046,0.00085327,0.00431763,0.01378408,-0.019
 71573,-0.03674691,0.00541198,-0.01591091,-0.01649375,-0.00097179,0.000
 93370,0.00056000,-0.00081703,0.00096732,-0.00128605,-0.00046380,0.0001
 4507,0.00037304,-0.00025395,-0.00019859,0.00039217,0.00088916,0.000419
 71,0.00172763,0.00039497,-0.00030549,0.00008373,0.00021775,0.00049632,
 0.00037805,-0.00016930,-0.00052042,-0.00014011,-0.00142248,0.00041090,
 -0.00213923,0.00047949,-0.00044810,0.00138951,-0.00001585,0.00010634,-
 0.00021922,0.00363510,-0.00104344,-0.00014999,0.00007357,0.00016097,-0
 .00106435,-0.00690554,0.00286140,0.00628021,-0.00023513,-0.00098908,-0
 .00096456,0.15344464,-0.02609943,0.55194816,-0.00011106,-0.00121333,0.
 00820054,0.00998595,-0.00574532,0.01175035,0.00012038,0.00057429,-0.00
 060578,-0.00239141,0.00163824,0.00215488,-0.00025212,0.00098512,0.0002
 4758,-0.00028575,-0.00009903,-0.00007338,0.00049473,-0.00000523,0.0005
 3090,0.00032489,-0.00012869,-0.00037876,-0.00041046,0.00074275,-0.0000
 2470,-0.00000360,-0.00012786,-0.00012354,-0.00006550,-0.00006353,-0.00
 010182,-0.00011571,-0.00014103,-0.00009430,0.00002666,-0.00004190,0.00
 003441,0.00006964,-0.00016442,-0.00032157,-0.00024650,-0.00084686,-0.0
 0099397,-0.00009162,0.00028873,0.00014243,-0.00033086,-0.00005963,-0.0
 0079720,-0.00081185,-0.00003918,0.00075955,0.00006731,-0.00193611,-0.0
 0284115,0.00083946,0.00179462,-0.00022524,-0.21078969,0.11634729,-0.23
 022128,0.20340050,0.00125138,0.00326393,-0.00352666,-0.01027856,0.0052
 1211,-0.01540992,-0.00008530,-0.00049737,0.00092843,0.00120463,-0.0011
 1668,-0.00017581,-0.00014454,-0.00079913,-0.00167316,-0.00047209,-0.00
 061688,0.00054611,0.00001644,0.00023437,-0.00054753,-0.00016357,0.0000
 8316,0.00019942,0.00031080,-0.00020369,-0.00000608,-0.00007438,0.00005
 549,-0.00020117,-0.00001628,-0.00009232,0.00005179,0.00000666,0.000034
 25,-0.00000034,0.00001797,0.00006109,0.00011124,-0.00020369,0.00012045
 ,0.00012169,-0.00002988,0.00006125,0.00056237,0.00004490,-0.00005951,-
 0.00003902,0.00038711,-0.00032589,0.00025810,0.00040844,0.00021084,-0.
 00045367,-0.00355504,-0.00264734,0.00290067,0.00168031,-0.00117886,-0.
 00124088,0.12101066,-0.07748882,0.12591898,-0.11144862,0.07534540,0.00
 022840,0.00132764,-0.00115332,-0.02034427,0.01162968,-0.03763137,-0.00
 029441,0.00022504,-0.00139490,0.00270393,-0.00475172,-0.00350176,-0.00
 040901,0.00015143,0.00042967,0.00051354,0.00010118,-0.00007472,-0.0000
 9167,-0.00021920,0.00018401,0.00000831,-0.00006411,0.00001142,0.000187
 34,-0.00026161,0.00007030,0.00010458,0.00011927,0.00022090,-0.00005772
 ,0.00012893,0.00003241,-0.00003307,-0.00000756,-0.00007564,-0.00009711
 ,0.00000077,-0.00004260,-0.00022638,0.00015596,0.00000237,-0.00005272,
 0.00040568,0.00001212,0.00004089,-0.00015207,0.00004044,-0.00110226,0.
 00027280,0.00050100,0.00037184,-0.00006363,0.00011645,-0.00228258,0.00
 090156,0.00051602,0.00006808,-0.00035238,0.00022176,-0.18951322,0.0970
 7293,-0.28041336,0.21073962,-0.10737000,0.32325393,-0.00036809,-0.0006
 7389,0.00212095,0.00643779,-0.01049233,-0.01111668,-0.00223224,-0.0010
 5293,0.00258337,-0.09104964,0.02055299,-0.00417877,0.00008080,0.000076
 46,0.00015866,0.00005717,0.00000208,-0.00002715,0.00015760,0.00004186,
 -0.00012788,-0.00199626,0.00163890,-0.00289142,-0.01253449,0.02461318,
 0.03848122,0.00759353,-0.00155857,-0.00875561,-0.00014356,0.00001137,0
 .00000321,-0.00071086,0.00024383,-0.00018634,0.00385061,0.00020858,-0.
 00034509,-0.00856865,0.00193557,0.00000943,-0.00040493,0.00104013,-0.0
 0071214,0.00004522,-0.00016467,-0.00005378,-0.00128923,0.00054072,-0.0
 0197102,-0.00036802,0.00032970,0.00021600,0.00099334,0.00000454,-0.000
 52564,-0.00018224,0.00002764,0.00025604,-0.00048516,0.00189611,-0.0057
 7319,0.00064568,-0.00001806,-0.00098501,0.35741807,0.00056753,0.000120
 52,-0.00043050,-0.00424621,0.00895225,0.00888876,0.00052024,-0.0002363
 4,-0.00038880,0.03225989,-0.11614398,-0.05059773,-0.00028581,0.0027458
 7,-0.00074834,0.00052978,0.00014768,0.00034583,-0.00179560,-0.00071768
 ,-0.00051152,0.00036581,-0.00041992,0.00033858,0.00743027,-0.00535386,
 -0.01108476,0.00883728,-0.01455493,-0.03810674,0.00018357,0.00012331,0
 .00005514,0.00107733,-0.00037670,0.00012795,0.00150815,0.00147370,0.00
 063628,0.00178130,0.00160372,0.00048857,0.00110222,-0.00008926,0.00092
 506,-0.00002950,-0.00011768,0.00013694,0.00044726,0.00054847,0.0007119
 3,0.00016596,-0.00017353,-0.00010972,-0.00085990,0.00067970,-0.0001997
 8,0.00012231,-0.00039789,-0.00036389,0.00141621,0.00041215,0.00515816,
 -0.00031482,0.00018842,0.00092628,-0.17655499,0.19790587,0.00140229,-0
 .00151113,0.00107726,0.01055319,-0.02209673,-0.03354245,-0.00173327,-0
 .00003986,-0.00097954,0.03871981,-0.07195049,-0.19322094,0.00117505,-0
 .00067686,0.00196722,0.00002467,0.00018309,-0.00006182,-0.00055361,0.0
 0079839,-0.00011153,-0.00140078,0.00024882,-0.00100011,0.00963972,-0.0
 1292733,-0.02832795,0.00100686,-0.01704392,-0.01454526,-0.00057477,0.0
 0036471,0.00007304,-0.00011684,0.00018869,-0.00073896,-0.00111319,0.00
 112679,0.00092393,0.00418515,-0.00104042,0.00120860,0.00011334,0.00013
 919,0.00092160,0.00000287,-0.00016260,-0.00006240,-0.00064445,0.000703
 52,0.00058660,0.00034161,-0.00017431,-0.00015423,-0.00143452,0.0011965
 6,0.00043447,0.00036983,-0.00051526,-0.00035931,-0.00593887,0.00490454
 ,-0.00924489,0.00201707,-0.00095162,-0.00138054,0.18362419,0.00631322,
 0.50345025,-0.00018065,0.00007623,-0.00004140,-0.00158439,0.00115001,0
 .00203399,-0.00047823,-0.00016483,0.00027299,0.00813898,-0.00438203,0.
 00512352,-0.00003616,0.00003901,-0.00003563,-0.00002302,0.00000635,-0.
 00004740,0.00007125,-0.00003463,-0.00010891,-0.00019712,0.00030044,-0.
 00049844,0.00059937,-0.00032571,0.00732687,-0.00025985,0.00094511,0.00
 022804,-0.00001420,0.00002942,0.00000981,-0.00004285,0.00014119,-0.000
 04154,-0.00021607,-0.00005716,-0.00010205,-0.00036966,0.00024531,-0.00
 092347,0.00008542,-0.00015047,0.00015395,-0.00001719,0.00002058,-0.000
 00707,0.00003464,0.00004070,-0.00013568,-0.00008044,0.00003662,-0.0000
 0967,0.00006861,-0.00008433,0.00014668,-0.00001915,0.00003901,-0.00003
 426,0.00033109,-0.00015777,0.00184680,-0.00013169,0.00014335,0.0003021
 9,-0.25501131,0.12397409,-0.23354271,0.24829401,-0.00000903,-0.0002230
 4,0.00006634,0.00095424,-0.00185833,-0.00003828,-0.00029196,0.00010330
 ,-0.00012934,-0.01368405,0.00596911,-0.01617456,0.00000651,0.00018666,
 -0.00004686,-0.00003346,0.00003018,-0.00001672,-0.00014382,-0.00018829
 ,-0.00003408,0.00005171,-0.00000721,-0.00000988,0.00091939,0.00318757,
 -0.00423873,-0.00038327,-0.00127538,-0.00178496,0.00016209,-0.00002818
 ,-0.00000448,0.00025689,0.00024375,0.00022037,-0.00028615,-0.00048097,
 0.00057959,0.00032668,-0.00069442,0.00051226,0.00008951,-0.00009816,-0
 .00003596,0.00001049,0.00000257,0.00003919,-0.00006632,-0.00003976,-0.
 00002384,0.00000360,0.00001426,-0.00000171,0.00002672,-0.00003223,0.00
 004142,0.00000522,0.00002982,0.00000780,0.00007215,0.00035987,-0.00084
 343,0.00018407,0.00012862,-0.00009570,0.13406703,-0.07755781,0.1097290
 9,-0.11935759,0.07468165,-0.00011471,-0.00002446,-0.00003294,0.0021687
 5,-0.00506056,-0.00355279,-0.00001254,0.00004750,-0.00023081,-0.025182
 11,0.01091319,-0.03593113,0.00020271,-0.00003347,0.00026599,-0.0000174
 9,0.00003369,-0.00003125,-0.00018155,0.00012517,0.00001904,-0.00034715
 ,-0.00009488,0.00023289,-0.00013950,0.00128805,-0.00184584,-0.00029650
 ,0.00017972,0.00030421,0.00011798,-0.00005868,-0.00002523,-0.00003364,
 0.00025401,-0.00000230,0.00052275,0.00001703,-0.00022117,-0.00119136,0
 .00070282,-0.00015923,0.00015286,-0.00022891,0.00004809,-0.00001371,0.
 00004547,0.00003730,0.00037894,-0.00009524,0.00026760,0.00001590,-0.00
 002594,-0.00000571,0.00016852,-0.00007496,0.00023074,-0.00002840,0.000
 05755,-0.00002563,-0.00094154,0.00087757,-0.00162320,0.00033273,-0.000
 12255,-0.00046361,-0.19504083,0.08084896,-0.23306660,0.22119791,-0.090
 62232,0.27452591,0.00224421,0.00127540,-0.00127540,-0.00859006,-0.0003
 3210,0.00593089,0.00065100,-0.00031129,-0.00007445,-0.02222685,0.02529
 746,-0.03726610,-0.00025826,0.00035704,-0.00032895,-0.00004243,-0.0000
 8858,0.00003142,0.00017074,-0.00035787,0.00011481,0.00013372,0.0000846
 0,-0.00011803,-0.08619953,0.00738242,-0.05440628,0.00354043,-0.0004730
 4,0.00005230,-0.00011229,0.00010798,0.00003696,-0.00005698,-0.00024378
 ,-0.00006740,0.00624580,-0.00011349,0.00615627,0.00308521,-0.00145004,
 -0.00062711,-0.00018856,0.00059732,-0.00006826,0.00006478,-0.00018238,
 -0.00001634,-0.00080732,0.00020370,0.00004765,0.00027020,-0.00001565,-
 0.00005275,-0.00215549,0.00086245,-0.00143017,0.00016364,-0.00045046,0
 .00000091,0.00086445,-0.00054259,-0.00058312,0.00008711,-0.00000292,0.
 00025589,-0.00063384,0.00256307,-0.00572734,0.00001288,-0.00411556,-0.
 00161922,0.12391894,-0.00089420,-0.00007588,0.00054642,0.00280111,0.00
 133416,-0.00181041,-0.00036988,0.00008954,0.00011684,0.00965503,-0.006
 69451,0.00816311,-0.00032622,0.00063200,-0.00035905,0.00017121,0.00004
 260,0.00000783,-0.00017550,0.00016654,-0.00007034,-0.00006079,-0.00005
 831,0.00006457,0.02662918,-0.11816536,0.06643450,0.00130260,0.00231626
 ,-0.00084256,0.00007852,-0.00006341,-0.00002318,0.00001387,0.00011584,
 0.00005729,0.01839961,-0.01655296,0.03580373,-0.00598986,0.01018214,-0
 .00601115,0.00014343,-0.00026071,0.00001853,-0.00004270,0.00009081,0.0
 0000546,0.00052258,-0.00005565,-0.00004588,-0.00016658,-0.00000262,0.0
 0002482,0.00091027,-0.00041363,0.00056490,-0.00013435,0.00018958,0.000
 00991,-0.00011579,0.00052412,0.00034836,-0.00017852,0.00000140,-0.0001
 5365,0.00357881,0.00100749,0.00344562,-0.00289692,-0.00129652,0.001146
 31,0.02883682,0.65710961,0.00120068,0.00062796,-0.00079104,-0.00167883
 ,-0.00192157,0.00169939,0.00019156,-0.00008622,-0.00064365,-0.00980603
 ,0.00873360,-0.01707296,0.00006038,0.00021779,-0.00000888,-0.00002460,
 -0.00001569,-0.00001110,-0.00012292,-0.00004994,-0.00010195,-0.0000843
 1,-0.00006322,0.00008329,-0.06017842,0.02215740,-0.18685209,0.00016409
 ,-0.00129182,0.00047547,-0.00009400,0.00010758,0.00006272,0.00003552,0
 .00000249,-0.00013734,-0.00487292,0.00852164,-0.00874714,-0.01882573,0
 .02174504,-0.03212595,-0.00000582,0.00022030,0.00031711,0.00003730,-0.
 00012100,-0.00001600,-0.00045425,0.00016156,0.00043287,0.00029603,-0.0
 0006454,-0.00011370,-0.00159363,0.00063971,-0.00023786,0.00022574,-0.0
 0037736,-0.00014213,-0.00156956,0.00063029,-0.00034076,-0.00009991,0.0
 0013505,0.00055257,0.00378615,-0.00315664,0.00681218,-0.00197951,0.003
 84169,0.00068310,0.11308013,-0.05669202,0.27258138,-0.00019276,0.00012
 088,-0.00020145,-0.00069411,-0.00045344,-0.00061236,-0.00013848,0.0000
 4493,-0.00005427,0.00087213,0.00383884,-0.00024468,0.00006563,-0.00024
 311,0.00026273,-0.00005026,-0.00003689,-0.00003153,-0.00003914,0.00009
 442,-0.00004016,-0.00005704,0.00001204,0.00003809,-0.00022220,0.017712
 62,-0.00108751,-0.00082515,-0.00101430,-0.00024596,0.00001760,-0.00001
 591,-0.00000369,0.00000741,0.00005095,0.00000494,-0.00019704,-0.000173
 69,-0.00046491,0.00069021,-0.00072064,-0.00021506,0.00004787,-0.000144
 46,0.00005887,-0.00001426,0.00004108,-0.00000282,0.00015352,-0.0000589
 5,0.00003980,-0.00003792,0.00001135,-0.00001232,0.00012017,-0.00013768
 ,0.00016504,-0.00002756,0.00005526,-0.00001166,-0.00006758,0.00005338,
 0.00033228,-0.00002451,0.00001028,-0.00003517,-0.00130131,-0.00076543,
 -0.00039531,0.00102572,0.00123491,-0.00009882,-0.02018147,-0.08169176,
 -0.01768713,0.02107050,0.00026457,0.00010432,-0.00002025,-0.00030173,0
 .00013377,0.00035741,0.00012420,-0.00003573,-0.00000988,0.00088703,0.0
 0072030,-0.00095962,-0.00012063,0.00007362,-0.00012257,0.00000428,-0.0
 0001396,0.00000548,0.00004899,-0.00006436,0.00002852,0.00004226,0.0000
 1314,-0.00001715,-0.00516978,-0.01732562,-0.00362679,0.00053791,-0.000
 40001,0.00002239,-0.00001962,0.00001750,0.00000619,-0.00001227,-0.0000
 4774,-0.00000789,0.00190427,0.00120712,0.00296227,-0.00104004,0.002783
 29,-0.00106190,-0.00004877,0.00010191,-0.00002372,0.00001458,-0.000029
 98,-0.00000105,-0.00017781,0.00002223,-0.00000285,0.00005147,0.0000041
 0,-0.00000416,-0.00029292,0.00011935,-0.00015580,0.00003853,-0.0000638
 1,0.00000402,-0.00015026,0.00001151,-0.00026789,-0.00000103,0.00002572
 ,0.00007246,-0.00029407,0.00023042,-0.00025170,0.00042401,-0.00115706,
 -0.00009507,-0.05888852,-0.53016255,-0.00390206,0.06217532,0.54373250,
 -0.00005907,-0.00004087,-0.00004499,-0.00027356,0.00007717,0.00008738,
 -0.00002024,-0.00000008,0.00004345,-0.00030400,0.00045822,0.00027229,0
 .00006804,-0.00019478,0.00004887,-0.00004230,-0.00000433,0.00000406,-0
 .00001120,0.00001348,0.00000317,-0.00001621,-0.00000912,0.00001036,0.0
 0409980,0.04208109,-0.00382337,-0.00052888,-0.00036206,0.00025004,0.00
 001239,-0.00001488,-0.00000797,0.00000278,0.00001690,0.00000305,-0.003
 17571,0.00297760,-0.00545048,0.00111725,0.00015596,0.00038042,0.000014
 56,-0.00003419,-0.00002659,-0.00000568,0.00001378,0.00000762,0.0000720
 0,-0.00001654,-0.00002845,-0.00002723,0.00000673,0.00001259,0.00010991
 ,-0.00005111,-0.00003335,-0.00002123,0.00003684,0.00001599,0.00018293,
 -0.00027590,0.00001569,-0.00000746,-0.00001545,-0.00003353,0.00145133,
 -0.00020322,-0.00065858,-0.00113502,-0.00093690,0.00060258,-0.02204630
 ,-0.05074996,-0.03635753,0.02054308,0.00707161,0.04470728\\-0.00001222
 ,0.00000187,0.00000531,-0.00000725,0.00000685,0.00000328,0.00000447,0.
 00000006,-0.00000728,0.00000260,-0.00001757,0.00001617,0.00000010,0.00
 000567,0.00000218,-0.00000190,-0.00000284,0.00000645,-0.00000778,-0.00
 000812,-0.00000742,0.00000536,-0.00000187,0.00000636,0.00000617,0.0000
 1518,0.00001220,-0.00000502,0.00000344,-0.00000767,-0.00000226,-0.0000
 0230,0.00000118,0.00000768,-0.00000445,-0.00000378,0.00000248,0.000002
 50,-0.00000200,0.00000086,-0.00000192,0.00000144,0.00001046,-0.0000049
 3,0.00000724,-0.00001122,-0.00000076,-0.00000137,0.00000627,-0.0000029
 8,-0.00000474,-0.00000572,0.00000125,-0.00000181,0.00000752,0.00001125
 ,0.00000469,-0.00000087,-0.00000471,-0.00000513,0.00000239,-0.00000124
 ,0.00000041,0.00000105,0.00000254,-0.00000489,-0.00001175,0.00000485,-
 0.00000897,0.00000801,0.00000180,-0.00000102,-0.00000112,0.00000550,-0
 .00000906,0.00000169,-0.00000907,-0.00000176\\\@
 The archive entry for this job was punched.


 THERE IS SOMETHING FASCINATING ABOUT SCIENCE.
 ONE GETS SUCH WHOLESALE CONJECTURE OUT OF SUCH TRIFLING INVESTMENTS.

                                                       -- MARK TWAIN
 Job cpu time:       0 days  9 hours 49 minutes 39.1 seconds.
 Elapsed time:       0 days  0 hours 37 minutes  8.2 seconds.
 File lengths (MBytes):  RWF=    704 Int=      0 D2E=      0 Chk=     27 Scr=      1
 Normal termination of Gaussian 16 at Wed Sep 27 12:23:53 2023.
