 Entering Gaussian System, Link 0=/opt/software/gaussian/g16.c01/g16
 Initial command:
 /opt/software/gaussian/g16.c01/l1.exe "/scratch/arhender/13209908/Gau-70242.inp" -scrdir="/scratch/arhender/13209908/"
 Entering Link 1 = /opt/software/gaussian/g16.c01/l1.exe PID=     70243.
  
 Copyright (c) 1988-2019, Gaussian, Inc.  All Rights Reserved.
  
 This is part of the Gaussian(R) 16 program.  It is based on
 the Gaussian(R) 09 system (copyright 2009, Gaussian, Inc.),
 the Gaussian(R) 03 system (copyright 2003, Gaussian, Inc.),
 the Gaussian(R) 98 system (copyright 1998, Gaussian, Inc.),
 the Gaussian(R) 94 system (copyright 1995, Gaussian, Inc.),
 the Gaussian 92(TM) system (copyright 1992, Gaussian, Inc.),
 the Gaussian 90(TM) system (copyright 1990, Gaussian, Inc.),
 the Gaussian 88(TM) system (copyright 1988, Gaussian, Inc.),
 the Gaussian 86(TM) system (copyright 1986, Carnegie Mellon
 University), and the Gaussian 82(TM) system (copyright 1983,
 Carnegie Mellon University). Gaussian is a federally registered
 trademark of Gaussian, Inc.
  
 This software contains proprietary and confidential information,
 including trade secrets, belonging to Gaussian, Inc.
  
 This software is provided under written license and may be
 used, copied, transmitted, or stored only in accord with that
 written license.
  
 The following legend is applicable only to US Government
 contracts under FAR:
  
                    RESTRICTED RIGHTS LEGEND
  
 Use, reproduction and disclosure by the US Government is
 subject to restrictions as set forth in subparagraphs (a)
 and (c) of the Commercial Computer Software - Restricted
 Rights clause in FAR 52.227-19.
  
 Gaussian, Inc.
 340 Quinnipiac St., Bldg. 40, Wallingford CT 06492
  
  
 ---------------------------------------------------------------
 Warning -- This program may not be used in any manner that
 competes with the business of Gaussian, Inc. or will provide
 assistance to any competitor of Gaussian, Inc.  The licensee
 of this program is prohibited from giving any competitor of
 Gaussian, Inc. access to this program.  By using this program,
 the user acknowledges that Gaussian, Inc. is engaged in the
 business of creating and licensing software in the field of
 computational chemistry and represents and warrants to the
 licensee that it is not a competitor of Gaussian, Inc. and that
 it will not use this program in any manner prohibited above.
 ---------------------------------------------------------------
  

 Cite this work as:
 Gaussian 16, Revision C.01,
 M. J. Frisch, G. W. Trucks, H. B. Schlegel, G. E. Scuseria, 
 M. A. Robb, J. R. Cheeseman, G. Scalmani, V. Barone, 
 G. A. Petersson, H. Nakatsuji, X. Li, M. Caricato, A. V. Marenich, 
 J. Bloino, B. G. Janesko, R. Gomperts, B. Mennucci, H. P. Hratchian, 
 J. V. Ortiz, A. F. Izmaylov, J. L. Sonnenberg, D. Williams-Young, 
 F. Ding, F. Lipparini, F. Egidi, J. Goings, B. Peng, A. Petrone, 
 T. Henderson, D. Ranasinghe, V. G. Zakrzewski, J. Gao, N. Rega, 
 G. Zheng, W. Liang, M. Hada, M. Ehara, K. Toyota, R. Fukuda, 
 J. Hasegawa, M. Ishida, T. Nakajima, Y. Honda, O. Kitao, H. Nakai, 
 T. Vreven, K. Throssell, J. A. Montgomery, Jr., J. E. Peralta, 
 F. Ogliaro, M. J. Bearpark, J. J. Heyd, E. N. Brothers, K. N. Kudin, 
 V. N. Staroverov, T. A. Keith, R. Kobayashi, J. Normand, 
 K. Raghavachari, A. P. Rendell, J. C. Burant, S. S. Iyengar, 
 J. Tomasi, M. Cossi, J. M. Millam, M. Klene, C. Adamo, R. Cammi, 
 J. W. Ochterski, R. L. Martin, K. Morokuma, O. Farkas, 
 J. B. Foresman, and D. J. Fox, Gaussian, Inc., Wallingford CT, 2019.
 
 ******************************************
 Gaussian 16:  ES64L-G16RevC.01  3-Jul-2019
                27-Sep-2023 
 ******************************************
 %chk=MannitolConformerOpt_6.chk
 %mem=8GB
 %nprocs=16
 Will use up to   16 processors via shared memory.
 ---------------------------------------------
 # opt freq wb97xd/def2tzvpp geom=connectivity
 ---------------------------------------------
 1/18=20,19=15,26=3,38=1,57=2/1,3;
 2/9=110,12=2,17=6,18=5,40=1/2;
 3/5=44,7=202,11=2,25=1,30=1,71=1,74=-58/1,2,3;
 4//1;
 5/5=2,38=5/2;
 6/7=2,8=2,9=2,10=2,28=1/1;
 7//1,2,3,16;
 1/18=20,19=15,26=3/3(2);
 2/9=110/2;
 99//99;
 2/9=110/2;
 3/5=44,7=202,11=2,25=1,30=1,71=1,74=-58/1,2,3;
 4/5=5,16=3,69=1/1;
 5/5=2,38=5/2;
 7//1,2,3,16;
 1/18=20,19=15,26=3/3(-5);
 2/9=110/2;
 6/7=2,8=2,9=2,10=2,19=2,28=1/1;
 99/9=1/99;
 --------------------------------
 Mannitol Conformer Optimziations
 --------------------------------
 Symbolic Z-matrix:
 Charge =  0 Multiplicity = 1
 C                     0.        0.        0. 
 C                     1.5378    0.        0. 
 C                    -0.6313    0.8461   -1.1202 
 C                     2.1692   -0.7085    1.2119 
 H                     1.8849    1.0411    0. 
 H                    -0.3471    0.4006    0.961 
 C                    -0.3158    0.397    -2.5507 
 H                    -0.3639    1.9019   -0.9977 
 C                     1.8537   -2.2016    1.3478 
 H                     1.9017   -0.1892    2.1393 
 H                     0.7195    0.607    -2.8272 
 H                    -0.5391   -0.6639   -2.6982 
 H                     2.077    -2.7459    0.4253 
 H                     0.8183   -2.3761    1.648 
 O                    -1.1666    1.1394   -3.4394 
 H                    -0.9289    0.8537   -4.3401 
 O                    -2.0665    0.7632   -0.9507 
 H                    -2.4225    1.1304   -1.7886 
 O                    -0.5351   -1.3308   -0.0754 
 H                    -1.4925   -1.1991   -0.2406 
 O                     2.0729   -0.5816   -1.1993 
 H                     3.0303   -0.6834   -1.0142 
 O                     3.6043   -0.5839    1.0702 
 H                     3.9603   -1.216     1.7315 
 O                     2.7045   -2.7363    2.3749 
 H                     2.4667   -3.6776    2.4578 
 

 GradGradGradGradGradGradGradGradGradGradGradGradGradGradGradGradGradGrad
 Berny optimization.
 Initialization pass.
                           ----------------------------
                           !    Initial Parameters    !
                           ! (Angstroms and Degrees)  !
 --------------------------                            --------------------------
 ! Name  Definition              Value          Derivative Info.                !
 --------------------------------------------------------------------------------
 ! R1    R(1,2)                  1.5378         estimate D2E/DX2                !
 ! R2    R(1,3)                  1.5392         estimate D2E/DX2                !
 ! R3    R(1,6)                  1.0975         estimate D2E/DX2                !
 ! R4    R(1,19)                 1.4363         estimate D2E/DX2                !
 ! R5    R(2,4)                  1.5393         estimate D2E/DX2                !
 ! R6    R(2,5)                  1.0974         estimate D2E/DX2                !
 ! R7    R(2,21)                 1.4363         estimate D2E/DX2                !
 ! R8    R(3,7)                  1.5322         estimate D2E/DX2                !
 ! R9    R(3,8)                  1.096          estimate D2E/DX2                !
 ! R10   R(3,17)                 1.4476         estimate D2E/DX2                !
 ! R11   R(4,9)                  1.5321         estimate D2E/DX2                !
 ! R12   R(4,10)                 1.096          estimate D2E/DX2                !
 ! R13   R(4,23)                 1.4475         estimate D2E/DX2                !
 ! R14   R(7,11)                 1.092          estimate D2E/DX2                !
 ! R15   R(7,12)                 1.0941         estimate D2E/DX2                !
 ! R16   R(7,15)                 1.4369         estimate D2E/DX2                !
 ! R17   R(9,13)                 1.0941         estimate D2E/DX2                !
 ! R18   R(9,14)                 1.0921         estimate D2E/DX2                !
 ! R19   R(9,25)                 1.4369         estimate D2E/DX2                !
 ! R20   R(15,16)                0.9744         estimate D2E/DX2                !
 ! R21   R(17,18)                0.9817         estimate D2E/DX2                !
 ! R22   R(19,20)                0.9804         estimate D2E/DX2                !
 ! R23   R(21,22)                0.9804         estimate D2E/DX2                !
 ! R24   R(23,24)                0.9816         estimate D2E/DX2                !
 ! R25   R(25,26)                0.9744         estimate D2E/DX2                !
 ! A1    A(2,1,3)              114.2134         estimate D2E/DX2                !
 ! A2    A(2,1,6)              108.4374         estimate D2E/DX2                !
 ! A3    A(2,1,19)             111.8728         estimate D2E/DX2                !
 ! A4    A(3,1,6)              107.8723         estimate D2E/DX2                !
 ! A5    A(3,1,19)             108.5602         estimate D2E/DX2                !
 ! A6    A(6,1,19)             105.4465         estimate D2E/DX2                !
 ! A7    A(1,2,4)              114.2171         estimate D2E/DX2                !
 ! A8    A(1,2,5)              108.4383         estimate D2E/DX2                !
 ! A9    A(1,2,21)             111.8735         estimate D2E/DX2                !
 ! A10   A(4,2,5)              107.8736         estimate D2E/DX2                !
 ! A11   A(4,2,21)             108.5547         estimate D2E/DX2                !
 ! A12   A(5,2,21)             105.445          estimate D2E/DX2                !
 ! A13   A(1,3,7)              115.7148         estimate D2E/DX2                !
 ! A14   A(1,3,8)              110.3722         estimate D2E/DX2                !
 ! A15   A(1,3,17)             106.8544         estimate D2E/DX2                !
 ! A16   A(7,3,8)              109.6622         estimate D2E/DX2                !
 ! A17   A(7,3,17)             107.2593         estimate D2E/DX2                !
 ! A18   A(8,3,17)             106.4977         estimate D2E/DX2                !
 ! A19   A(2,4,9)              115.7174         estimate D2E/DX2                !
 ! A20   A(2,4,10)             110.3644         estimate D2E/DX2                !
 ! A21   A(2,4,23)             106.8578         estimate D2E/DX2                !
 ! A22   A(9,4,10)             109.6591         estimate D2E/DX2                !
 ! A23   A(9,4,23)             107.262          estimate D2E/DX2                !
 ! A24   A(10,4,23)            106.5007         estimate D2E/DX2                !
 ! A25   A(3,7,11)             112.041          estimate D2E/DX2                !
 ! A26   A(3,7,12)             111.5953         estimate D2E/DX2                !
 ! A27   A(3,7,15)             107.702          estimate D2E/DX2                !
 ! A28   A(11,7,12)            110.2327         estimate D2E/DX2                !
 ! A29   A(11,7,15)            107.7823         estimate D2E/DX2                !
 ! A30   A(12,7,15)            107.2622         estimate D2E/DX2                !
 ! A31   A(4,9,13)             111.5918         estimate D2E/DX2                !
 ! A32   A(4,9,14)             112.0454         estimate D2E/DX2                !
 ! A33   A(4,9,25)             107.7051         estimate D2E/DX2                !
 ! A34   A(13,9,14)            110.2292         estimate D2E/DX2                !
 ! A35   A(13,9,25)            107.2601         estimate D2E/DX2                !
 ! A36   A(14,9,25)            107.7838         estimate D2E/DX2                !
 ! A37   A(7,15,16)            106.0082         estimate D2E/DX2                !
 ! A38   A(3,17,18)            103.7797         estimate D2E/DX2                !
 ! A39   A(1,19,20)            104.3699         estimate D2E/DX2                !
 ! A40   A(2,21,22)            104.3715         estimate D2E/DX2                !
 ! A41   A(4,23,24)            103.7795         estimate D2E/DX2                !
 ! A42   A(9,25,26)            106.009          estimate D2E/DX2                !
 ! D1    D(3,1,2,4)            173.2472         estimate D2E/DX2                !
 ! D2    D(3,1,2,5)             52.9358         estimate D2E/DX2                !
 ! D3    D(3,1,2,21)           -62.9352         estimate D2E/DX2                !
 ! D4    D(6,1,2,4)             52.9406         estimate D2E/DX2                !
 ! D5    D(6,1,2,5)            -67.3708         estimate D2E/DX2                !
 ! D6    D(6,1,2,21)           176.7581         estimate D2E/DX2                !
 ! D7    D(19,1,2,4)           -62.9314         estimate D2E/DX2                !
 ! D8    D(19,1,2,5)           176.7572         estimate D2E/DX2                !
 ! D9    D(19,1,2,21)           60.8862         estimate D2E/DX2                !
 ! D10   D(2,1,3,7)             62.1495         estimate D2E/DX2                !
 ! D11   D(2,1,3,8)            -63.1052         estimate D2E/DX2                !
 ! D12   D(2,1,3,17)          -178.5106         estimate D2E/DX2                !
 ! D13   D(6,1,3,7)           -177.2288         estimate D2E/DX2                !
 ! D14   D(6,1,3,8)             57.5165         estimate D2E/DX2                !
 ! D15   D(6,1,3,17)           -57.8889         estimate D2E/DX2                !
 ! D16   D(19,1,3,7)           -63.4338         estimate D2E/DX2                !
 ! D17   D(19,1,3,8)           171.3115         estimate D2E/DX2                !
 ! D18   D(19,1,3,17)           55.9061         estimate D2E/DX2                !
 ! D19   D(2,1,19,20)         -169.5426         estimate D2E/DX2                !
 ! D20   D(3,1,19,20)          -42.6019         estimate D2E/DX2                !
 ! D21   D(6,1,19,20)           72.7796         estimate D2E/DX2                !
 ! D22   D(1,2,4,9)             62.1439         estimate D2E/DX2                !
 ! D23   D(1,2,4,10)           -63.1019         estimate D2E/DX2                !
 ! D24   D(1,2,4,23)          -178.5087         estimate D2E/DX2                !
 ! D25   D(5,2,4,9)           -177.2299         estimate D2E/DX2                !
 ! D26   D(5,2,4,10)            57.5242         estimate D2E/DX2                !
 ! D27   D(5,2,4,23)           -57.8826         estimate D2E/DX2                !
 ! D28   D(21,2,4,9)           -63.4388         estimate D2E/DX2                !
 ! D29   D(21,2,4,10)          171.3154         estimate D2E/DX2                !
 ! D30   D(21,2,4,23)           55.9085         estimate D2E/DX2                !
 ! D31   D(1,2,21,22)         -169.5437         estimate D2E/DX2                !
 ! D32   D(4,2,21,22)          -42.6017         estimate D2E/DX2                !
 ! D33   D(5,2,21,22)           72.7779         estimate D2E/DX2                !
 ! D34   D(1,3,7,11)           -71.7385         estimate D2E/DX2                !
 ! D35   D(1,3,7,12)            52.4228         estimate D2E/DX2                !
 ! D36   D(1,3,7,15)           169.8971         estimate D2E/DX2                !
 ! D37   D(8,3,7,11)            53.8797         estimate D2E/DX2                !
 ! D38   D(8,3,7,12)           178.0409         estimate D2E/DX2                !
 ! D39   D(8,3,7,15)           -64.4848         estimate D2E/DX2                !
 ! D40   D(17,3,7,11)          169.1437         estimate D2E/DX2                !
 ! D41   D(17,3,7,12)          -66.6951         estimate D2E/DX2                !
 ! D42   D(17,3,7,15)           50.7792         estimate D2E/DX2                !
 ! D43   D(1,3,17,18)         -167.2213         estimate D2E/DX2                !
 ! D44   D(7,3,17,18)          -42.55           estimate D2E/DX2                !
 ! D45   D(8,3,17,18)           74.8038         estimate D2E/DX2                !
 ! D46   D(2,4,9,13)            52.4283         estimate D2E/DX2                !
 ! D47   D(2,4,9,14)           -71.729          estimate D2E/DX2                !
 ! D48   D(2,4,9,25)           169.9            estimate D2E/DX2                !
 ! D49   D(10,4,9,13)          178.0353         estimate D2E/DX2                !
 ! D50   D(10,4,9,14)           53.878          estimate D2E/DX2                !
 ! D51   D(10,4,9,25)          -64.493          estimate D2E/DX2                !
 ! D52   D(23,4,9,13)          -66.6974         estimate D2E/DX2                !
 ! D53   D(23,4,9,14)          169.1453         estimate D2E/DX2                !
 ! D54   D(23,4,9,25)           50.7743         estimate D2E/DX2                !
 ! D55   D(2,4,23,24)         -167.2253         estimate D2E/DX2                !
 ! D56   D(9,4,23,24)          -42.5474         estimate D2E/DX2                !
 ! D57   D(10,4,23,24)          74.8055         estimate D2E/DX2                !
 ! D58   D(3,7,15,16)          178.4636         estimate D2E/DX2                !
 ! D59   D(11,7,15,16)          57.3957         estimate D2E/DX2                !
 ! D60   D(12,7,15,16)         -61.2882         estimate D2E/DX2                !
 ! D61   D(4,9,25,26)          178.4588         estimate D2E/DX2                !
 ! D62   D(13,9,25,26)         -61.2967         estimate D2E/DX2                !
 ! D63   D(14,9,25,26)          57.3829         estimate D2E/DX2                !
 --------------------------------------------------------------------------------
 Trust Radius=3.00D-01 FncErr=1.00D-07 GrdErr=1.00D-06 EigMax=2.50D+02 EigMin=1.00D-04
 Number of steps in this run=    140 maximum allowed number of steps=    156.
 GradGradGradGradGradGradGradGradGradGradGradGradGradGradGradGradGradGrad

                          Input orientation:                          
 ---------------------------------------------------------------------
 Center     Atomic      Atomic             Coordinates (Angstroms)
 Number     Number       Type             X           Y           Z
 ---------------------------------------------------------------------
      1          6           0        0.000000    0.000000    0.000000
      2          6           0        1.537800    0.000000    0.000000
      3          6           0       -0.631300    0.846100   -1.120200
      4          6           0        2.169200   -0.708500    1.211900
      5          1           0        1.884900    1.041100    0.000000
      6          1           0       -0.347100    0.400600    0.961000
      7          6           0       -0.315800    0.397000   -2.550700
      8          1           0       -0.363900    1.901900   -0.997700
      9          6           0        1.853700   -2.201600    1.347800
     10          1           0        1.901700   -0.189200    2.139300
     11          1           0        0.719500    0.607000   -2.827200
     12          1           0       -0.539100   -0.663900   -2.698200
     13          1           0        2.077000   -2.745900    0.425300
     14          1           0        0.818300   -2.376100    1.648000
     15          8           0       -1.166600    1.139400   -3.439400
     16          1           0       -0.928900    0.853700   -4.340100
     17          8           0       -2.066500    0.763200   -0.950700
     18          1           0       -2.422500    1.130400   -1.788600
     19          8           0       -0.535100   -1.330800   -0.075400
     20          1           0       -1.492500   -1.199100   -0.240600
     21          8           0        2.072900   -0.581600   -1.199300
     22          1           0        3.030300   -0.683400   -1.014200
     23          8           0        3.604300   -0.583900    1.070200
     24          1           0        3.960300   -1.216000    1.731500
     25          8           0        2.704500   -2.736300    2.374900
     26          1           0        2.466700   -3.677600    2.457800
 ---------------------------------------------------------------------
                    Distance matrix (angstroms):
                    1          2          3          4          5
     1  C    0.000000
     2  C    1.537800   0.000000
     3  C    1.539244   2.583743   0.000000
     4  C    2.583815   1.539266   3.962104   0.000000
     5  H    2.153308   1.097437   2.761184   2.147237   0.000000
     6  H    1.097488   2.153334   2.147239   2.761308   2.513083
     7  C    2.600656   3.177973   1.532175   4.642684   3.429871
     8  H    2.178314   2.868639   1.096003   4.255951   2.606431
     9  C    3.178020   2.600654   4.642707   1.532109   3.511786
    10  H    2.868600   2.178262   4.255852   1.096038   2.467899
    11  H    2.979797   3.005183   2.189904   4.488485   3.088634
    12  H    2.830490   3.469086   2.186020   4.756654   4.007878
    13  H    3.469117   2.830474   4.756671   2.185918   3.815646
    14  H    3.005224   2.979838   4.488524   2.189978   3.940913
    15  O    3.806397   4.521226   2.398178   6.014723   4.598999
    16  H    4.519749   5.064571   3.233633   6.547014   5.175815
    17  O    2.399318   3.804903   1.447550   4.978343   4.073650
    18  H    3.216427   4.490086   1.932869   5.785176   4.664843
    19  O    1.436331   2.464473   2.416559   3.059026   3.389394
    20  H    1.929582   3.267789   2.387091   3.969697   4.059953
    21  O    2.464446   1.436284   3.058967   2.416457   2.026529
    22  H    3.267775   1.929558   3.969625   2.386974   2.305308
    23  O    3.804898   2.399310   4.978259   1.447452   2.596592
    24  H    4.490070   3.216404   5.785088   1.932765   3.521346
    25  O    4.521262   3.806399   6.014722   2.398143   4.536590
    26  H    5.064596   4.519776   6.547026   3.233625   5.352140
                    6          7          8          9         10
     6  H    0.000000
     7  C    3.511841   0.000000
     8  H    2.467932   2.163064   0.000000
     9  C    3.429953   5.163115   5.220903   0.000000
    10  H    2.606407   5.220827   4.398456   2.162991   0.000000
    11  H    3.940900   1.091970   2.489496   5.158030   5.166977
    12  H    3.815727   1.094133   3.083136   4.945718   5.439141
    13  H    4.007954   4.945694   5.439206   1.094135   3.083057
    14  H    3.088720   5.158037   5.167070   1.092073   2.489511
    15  O    4.536621   1.436943   2.680976   6.572806   6.503963
    16  H    5.352145   1.945872   3.548181   7.030642   7.147207
    17  O    2.596615   2.399803   2.048827   5.425966   5.118767
    18  H    3.521391   2.357299   2.336358   6.262996   5.989027
    19  O    2.026626   3.026631   3.366051   2.913787   3.485131
    20  H    2.305390   3.044457   3.385726   3.837327   4.266663
    21  O    3.389397   2.913731   3.485170   3.026577   3.365938
    22  H    4.059963   3.837249   4.266690   3.044399   3.385636
    23  O    4.073663   5.425888   5.118791   2.399712   2.048807
    24  H    4.664843   6.262910   5.989035   2.357201   2.336333
    25  O    4.599078   6.572771   6.504030   1.436906   2.680991
    26  H    5.175867   7.030629   7.147279   1.945879   3.548183
                   11         12         13         14         15
    11  H    0.000000
    12  H    1.793294   0.000000
    13  H    4.864514   4.575473   0.000000
    14  H    5.379225   4.864526   1.793341   0.000000
    15  O    2.053196   2.048176   6.368077   6.494629   0.000000
    16  H    2.250989   2.269557   6.685925   7.024362   0.974365
    17  O    3.362655   2.724577   5.601406   4.993047   2.673008
    18  H    3.350343   2.755736   6.338182   5.882903   2.074248
    19  O    3.591865   2.706262   3.012686   2.427849   4.221040
    20  H    3.852978   2.689834   3.946814   3.208105   3.975816
    21  O    2.427863   3.012643   2.706203   3.591848   4.298168
    22  H    3.208099   3.946752   2.689767   3.852984   5.178626
    23  O    4.992999   5.601339   2.724479   3.362682   6.787322
    24  H    5.882844   6.338111   2.755644   3.350368   7.653184
    25  O    6.494592   6.368055   2.048118   2.053260   7.988276
    26  H    7.024367   6.685922   2.269579   2.250978   8.436903
                   16         17         18         19         20
    16  H    0.000000
    17  O    3.576361   0.000000
    18  H    2.969437   0.981656   0.000000
    19  O    4.807784   2.737914   3.543281   0.000000
    20  H    4.619257   2.164333   2.947503   0.980434   0.000000
    21  O    4.575534   4.359463   4.846322   2.937025   3.743326
    22  H    5.394400   5.298495   5.798499   3.743334   4.617372
    23  O    7.203329   6.169010   6.887226   4.359460   5.298494
    24  H    8.065498   6.887216   7.657469   4.846307   5.798490
    25  O    8.436879   6.787382   7.653250   4.298187   5.178671
    26  H    8.847272   7.203366   8.065547   4.575519   5.394404
                   21         22         23         24         25
    21  O    0.000000
    22  H    0.980428   0.000000
    23  O    2.737850   2.164278   0.000000
    24  H    3.543209   2.947445   0.981633   0.000000
    25  O    4.220966   3.975744   2.672959   2.074201   0.000000
    26  H    4.807772   4.619271   3.576387   2.969483   0.974406
                   26
    26  H    0.000000
 Stoichiometry    C6H14O6
 Framework group  C1[X(C6H14O6)]
 Deg. of freedom    72
 Full point group                 C1      NOp   1
 Largest Abelian subgroup         C1      NOp   1
 Largest concise Abelian subgroup C1      NOp   1
                         Standard orientation:                         
 ---------------------------------------------------------------------
 Center     Atomic      Atomic             Coordinates (Angstroms)
 Number     Number       Type             X           Y           Z
 ---------------------------------------------------------------------
      1          6           0        0.494964    0.588432    0.532943
      2          6           0       -0.494935   -0.588398    0.532945
      3          6           0        1.973779    0.169456    0.615648
      4          6           0       -1.973800   -0.169510    0.615595
      5          1           0       -0.276464   -1.225731    1.399228
      6          1           0        0.276501    1.225761    1.399294
      7          6           0        2.490959   -0.677850   -0.551467
      8          1           0        2.171788   -0.346520    1.562107
      9          6           0       -2.491003    0.677810   -0.551412
     10          1           0       -2.171724    0.346527    1.562079
     11          1           0        2.089727   -1.693209   -0.530089
     12          1           0        2.278316   -0.207193   -1.516036
     13          1           0       -2.278358    0.207148   -1.515980
     14          1           0       -2.089729    1.693265   -0.530106
     15          8           0        3.919640   -0.767828   -0.426647
     16          1           0        4.218899   -1.330163   -1.163947
     17          8           0        2.754513    1.388155    0.640680
     18          1           0        3.673082    1.080690    0.481479
     19          8           0        0.322558    1.432681   -0.616215
     20          1           0        1.099942    2.029843   -0.598260
     21          8           0       -0.322574   -1.432614   -0.616186
     22          1           0       -1.099939   -2.029793   -0.598225
     23          8           0       -2.754472   -1.388131    0.640681
     24          1           0       -3.673027   -1.080679    0.481512
     25          8           0       -3.919653    0.767763   -0.426645
     26          1           0       -4.218908    1.330222   -1.163905
 ---------------------------------------------------------------------
 Rotational constants (GHZ):           1.9305992           0.4384636           0.3979977
 Standard basis: def2TZVPP (5D, 7F)
 There are   642 symmetry adapted cartesian basis functions of A   symmetry.
 There are   568 symmetry adapted basis functions of A   symmetry.
   568 basis functions,   850 primitive gaussians,   642 cartesian basis functions
    49 alpha electrons       49 beta electrons
       nuclear repulsion energy       815.6146081224 Hartrees.
 NAtoms=   26 NActive=   26 NUniq=   26 SFac= 1.00D+00 NAtFMM=   60 NAOKFM=F Big=F
 Integral buffers will be    131072 words long.
 Raffenetti 2 integral format.
 Two-electron integral symmetry is turned on.
 Nuclear repulsion after empirical dispersion term =      815.5971666878 Hartrees.
 One-electron integrals computed using PRISM.
   1 Symmetry operations used in ECPInt.
 ECPInt:  NShTT=   23436 NPrTT=   62434 LenC2=   21502 LenP2D=   44594.
 LDataN:  DoStor=T MaxTD1= 6 Len=  172
 NBasis=   568 RedAO= T EigKep=  6.25D-05  NBF=   568
 NBsUse=   568 1.00D-06 EigRej= -1.00D+00 NBFU=   568
 ExpMin= 9.52D-02 ExpMax= 2.70D+04 ExpMxC= 9.22D+02 IAcc=3 IRadAn=         5 AccDes= 0.00D+00
 Harris functional with IExCor= 4639 and IRadAn=       5 diagonalized for initial guess.
 HarFok:  IExCor= 4639 AccDes= 0.00D+00 IRadAn=         5 IDoV= 1 UseB2=F ITyADJ=14
 ICtDFT=  3500011 ScaDFX=  1.000000  1.000000  1.000000  1.000000
 FoFCou: FMM=F IPFlag=           0 FMFlag=      100000 FMFlg1=           0
         NFxFlg=           0 DoJE=T BraDBF=F KetDBF=T FulRan=T
         wScrn=  0.000000 ICntrl=       500 IOpCl=  0 I1Cent=   200000004 NGrid=           0
         NMat0=    1 NMatS0=      1 NMatT0=    0 NMatD0=    1 NMtDS0=    0 NMtDT0=    0
 Petite list used in FoFCou.
 Requested convergence on RMS density matrix=1.00D-08 within 128 cycles.
 Requested convergence on MAX density matrix=1.00D-06.
 Requested convergence on             energy=1.00D-06.
 No special actions if energy rises.
 Integral accuracy reduced to 1.0D-05 until final iterations.
 Initial convergence to 1.0D-05 achieved.  Increase integral accuracy.
 SCF Done:  E(RwB97XD) =  -688.465065681     A.U. after   13 cycles
            NFock= 13  Conv=0.86D-08     -V/T= 2.0050

 **********************************************************************

            Population analysis using the SCF Density.

 **********************************************************************

 Orbital symmetries:
       Occupied  (A) (A) (A) (A) (A) (A) (A) (A) (A) (A) (A) (A)
                 (A) (A) (A) (A) (A) (A) (A) (A) (A) (A) (A) (A)
                 (A) (A) (A) (A) (A) (A) (A) (A) (A) (A) (A) (A)
                 (A) (A) (A) (A) (A) (A) (A) (A) (A) (A) (A) (A)
                 (A)
       Virtual   (A) (A) (A) (A) (A) (A) (A) (A) (A) (A) (A) (A)
                 (A) (A) (A) (A) (A) (A) (A) (A) (A) (A) (A) (A)
                 (A) (A) (A) (A) (A) (A) (A) (A) (A) (A) (A) (A)
                 (A) (A) (A) (A) (A) (A) (A) (A) (A) (A) (A) (A)
                 (A) (A) (A) (A) (A) (A) (A) (A) (A) (A) (A) (A)
                 (A) (A) (A) (A) (A) (A) (A) (A) (A) (A) (A) (A)
                 (A) (A) (A) (A) (A) (A) (A) (A) (A) (A) (A) (A)
                 (A) (A) (A) (A) (A) (A) (A) (A) (A) (A) (A) (A)
                 (A) (A) (A) (A) (A) (A) (A) (A) (A) (A) (A) (A)
                 (A) (A) (A) (A) (A) (A) (A) (A) (A) (A) (A) (A)
                 (A) (A) (A) (A) (A) (A) (A) (A) (A) (A) (A) (A)
                 (A) (A) (A) (A) (A) (A) (A) (A) (A) (A) (A) (A)
                 (A) (A) (A) (A) (A) (A) (A) (A) (A) (A) (A) (A)
                 (A) (A) (A) (A) (A) (A) (A) (A) (A) (A) (A) (A)
                 (A) (A) (A) (A) (A) (A) (A) (A) (A) (A) (A) (A)
                 (A) (A) (A) (A) (A) (A) (A) (A) (A) (A) (A) (A)
                 (A) (A) (A) (A) (A) (A) (A) (A) (A) (A) (A) (A)
                 (A) (A) (A) (A) (A) (A) (A) (A) (A) (A) (A) (A)
                 (A) (A) (A) (A) (A) (A) (A) (A) (A) (A) (A) (A)
                 (A) (A) (A) (A) (A) (A) (A) (A) (A) (A) (A) (A)
                 (A) (A) (A) (A) (A) (A) (A) (A) (A) (A) (A) (A)
                 (A) (A) (A) (A) (A) (A) (A) (A) (A) (A) (A) (A)
                 (A) (A) (A) (A) (A) (A) (A) (A) (A) (A) (A) (A)
                 (A) (A) (A) (A) (A) (A) (A) (A) (A) (A) (A) (A)
                 (A) (A) (A) (A) (A) (A) (A) (A) (A) (A) (A) (A)
                 (A) (A) (A) (A) (A) (A) (A) (A) (A) (A) (A) (A)
                 (A) (A) (A) (A) (A) (A) (A) (A) (A) (A) (A) (A)
                 (A) (A) (A) (A) (A) (A) (A) (A) (A) (A) (A) (A)
                 (A) (A) (A) (A) (A) (A) (A) (A) (A) (A) (A) (A)
                 (A) (A) (A) (A) (A) (A) (A) (A) (A) (A) (A) (A)
                 (A) (A) (A) (A) (A) (A) (A) (A) (A) (A) (A) (A)
                 (A) (A) (A) (A) (A) (A) (A) (A) (A) (A) (A) (A)
                 (A) (A) (A) (A) (A) (A) (A) (A) (A) (A) (A) (A)
                 (A) (A) (A) (A) (A) (A) (A) (A) (A) (A) (A) (A)
                 (A) (A) (A) (A) (A) (A) (A) (A) (A) (A) (A) (A)
                 (A) (A) (A) (A) (A) (A) (A) (A) (A) (A) (A) (A)
                 (A) (A) (A) (A) (A) (A) (A) (A) (A) (A) (A) (A)
                 (A) (A) (A) (A) (A) (A) (A) (A) (A) (A) (A) (A)
                 (A) (A) (A) (A) (A) (A) (A) (A) (A) (A) (A) (A)
                 (A) (A) (A) (A) (A) (A) (A) (A) (A) (A) (A) (A)
                 (A) (A) (A) (A) (A) (A) (A) (A) (A) (A) (A) (A)
                 (A) (A) (A) (A) (A) (A) (A) (A) (A) (A) (A) (A)
                 (A) (A) (A) (A) (A) (A) (A) (A) (A) (A) (A) (A)
                 (A) (A) (A)
 The electronic state is 1-A.
 Alpha  occ. eigenvalues --  -19.26033 -19.26032 -19.25360 -19.25359 -19.24789
 Alpha  occ. eigenvalues --  -19.24789 -10.34983 -10.34962 -10.34484 -10.34483
 Alpha  occ. eigenvalues --  -10.32902 -10.32902  -1.14796  -1.14313  -1.12789
 Alpha  occ. eigenvalues --   -1.12006  -1.10538  -1.10066  -0.88425  -0.84907
 Alpha  occ. eigenvalues --   -0.79971  -0.74879  -0.70147  -0.66344  -0.62937
 Alpha  occ. eigenvalues --   -0.62513  -0.61068  -0.59384  -0.58639  -0.57012
 Alpha  occ. eigenvalues --   -0.56105  -0.55879  -0.52343  -0.51991  -0.50299
 Alpha  occ. eigenvalues --   -0.50248  -0.48496  -0.46018  -0.45342  -0.44504
 Alpha  occ. eigenvalues --   -0.43243  -0.42897  -0.40999  -0.37873  -0.37416
 Alpha  occ. eigenvalues --   -0.36661  -0.36660  -0.36259  -0.35378
 Alpha virt. eigenvalues --    0.09644   0.09817   0.10905   0.13648   0.13696
 Alpha virt. eigenvalues --    0.14939   0.15732   0.17307   0.18942   0.19658
 Alpha virt. eigenvalues --    0.19887   0.20064   0.21293   0.21664   0.22223
 Alpha virt. eigenvalues --    0.22580   0.23710   0.24491   0.25025   0.25897
 Alpha virt. eigenvalues --    0.27530   0.28067   0.30357   0.31621   0.32699
 Alpha virt. eigenvalues --    0.35868   0.37042   0.37404   0.38812   0.39358
 Alpha virt. eigenvalues --    0.39751   0.40630   0.40721   0.41028   0.41189
 Alpha virt. eigenvalues --    0.41966   0.43583   0.43745   0.44748   0.45433
 Alpha virt. eigenvalues --    0.45619   0.46520   0.47652   0.47855   0.48038
 Alpha virt. eigenvalues --    0.48830   0.49610   0.50094   0.50266   0.50771
 Alpha virt. eigenvalues --    0.52035   0.52818   0.54142   0.54437   0.55481
 Alpha virt. eigenvalues --    0.56328   0.56669   0.57436   0.58534   0.59076
 Alpha virt. eigenvalues --    0.60389   0.61416   0.62240   0.63719   0.65309
 Alpha virt. eigenvalues --    0.65831   0.65997   0.66801   0.67154   0.68226
 Alpha virt. eigenvalues --    0.69602   0.70158   0.71853   0.72662   0.72884
 Alpha virt. eigenvalues --    0.74398   0.74427   0.77215   0.78393   0.81163
 Alpha virt. eigenvalues --    0.81772   0.83298   0.84594   0.85671   0.86033
 Alpha virt. eigenvalues --    0.86391   0.87557   0.90116   0.91161   0.92771
 Alpha virt. eigenvalues --    0.92924   0.92955   0.94659   0.94848   0.95768
 Alpha virt. eigenvalues --    0.95916   0.96733   0.99201   0.99809   1.00745
 Alpha virt. eigenvalues --    1.01513   1.02027   1.04456   1.06089   1.07804
 Alpha virt. eigenvalues --    1.08300   1.08325   1.09582   1.11022   1.11389
 Alpha virt. eigenvalues --    1.12953   1.13713   1.14685   1.15998   1.16676
 Alpha virt. eigenvalues --    1.18882   1.21590   1.21775   1.23326   1.25016
 Alpha virt. eigenvalues --    1.26060   1.26996   1.28781   1.29912   1.31030
 Alpha virt. eigenvalues --    1.31686   1.32324   1.33831   1.34833   1.35697
 Alpha virt. eigenvalues --    1.36443   1.37099   1.38848   1.40277   1.40746
 Alpha virt. eigenvalues --    1.43014   1.44844   1.45060   1.46224   1.46303
 Alpha virt. eigenvalues --    1.48077   1.48616   1.49482   1.49816   1.50563
 Alpha virt. eigenvalues --    1.51999   1.52600   1.54040   1.56262   1.57848
 Alpha virt. eigenvalues --    1.58215   1.59501   1.61665   1.62474   1.65583
 Alpha virt. eigenvalues --    1.65854   1.68934   1.69049   1.69569   1.72445
 Alpha virt. eigenvalues --    1.73752   1.75750   1.76039   1.76869   1.79302
 Alpha virt. eigenvalues --    1.88217   1.88565   1.91134   1.91316   1.92078
 Alpha virt. eigenvalues --    1.92774   1.93640   1.94813   1.98425   1.99970
 Alpha virt. eigenvalues --    2.01130   2.02421   2.02960   2.04028   2.04093
 Alpha virt. eigenvalues --    2.06056   2.06758   2.07529   2.08986   2.09003
 Alpha virt. eigenvalues --    2.12521   2.12667   2.14777   2.16001   2.16861
 Alpha virt. eigenvalues --    2.17935   2.18883   2.22432   2.23780   2.26021
 Alpha virt. eigenvalues --    2.26367   2.27479   2.31544   2.31837   2.33793
 Alpha virt. eigenvalues --    2.33854   2.35841   2.37863   2.40718   2.41368
 Alpha virt. eigenvalues --    2.44440   2.45259   2.47091   2.50240   2.51245
 Alpha virt. eigenvalues --    2.54959   2.55204   2.58413   2.58634   2.64457
 Alpha virt. eigenvalues --    2.65658   2.67610   2.68267   2.69314   2.70629
 Alpha virt. eigenvalues --    2.71671   2.74151   2.74501   2.76376   2.78100
 Alpha virt. eigenvalues --    2.78830   2.79336   2.79460   2.82262   2.82791
 Alpha virt. eigenvalues --    2.83574   2.85317   2.87120   2.88684   2.89705
 Alpha virt. eigenvalues --    2.92342   2.93322   2.96361   2.96908   2.99198
 Alpha virt. eigenvalues --    3.01039   3.01253   3.01698   3.02622   3.03511
 Alpha virt. eigenvalues --    3.03888   3.06679   3.08096   3.08834   3.10239
 Alpha virt. eigenvalues --    3.10368   3.11940   3.14681   3.15903   3.16487
 Alpha virt. eigenvalues --    3.18442   3.18506   3.19909   3.21105   3.21668
 Alpha virt. eigenvalues --    3.22630   3.23391   3.24368   3.26582   3.28227
 Alpha virt. eigenvalues --    3.28634   3.29392   3.30532   3.31956   3.32940
 Alpha virt. eigenvalues --    3.33898   3.35398   3.35498   3.36509   3.38291
 Alpha virt. eigenvalues --    3.39170   3.39299   3.41132   3.41777   3.41781
 Alpha virt. eigenvalues --    3.42706   3.43931   3.45006   3.45242   3.46310
 Alpha virt. eigenvalues --    3.48861   3.50775   3.51317   3.52461   3.53280
 Alpha virt. eigenvalues --    3.54605   3.54843   3.56487   3.58129   3.60106
 Alpha virt. eigenvalues --    3.60871   3.61215   3.62227   3.65283   3.66842
 Alpha virt. eigenvalues --    3.68785   3.69259   3.69889   3.71263   3.72384
 Alpha virt. eigenvalues --    3.72561   3.73217   3.74828   3.75819   3.76402
 Alpha virt. eigenvalues --    3.78955   3.80078   3.80955   3.82628   3.85551
 Alpha virt. eigenvalues --    3.85852   3.88206   3.88918   3.89879   3.90249
 Alpha virt. eigenvalues --    3.90948   3.93159   3.94826   3.95137   3.96162
 Alpha virt. eigenvalues --    3.97308   3.98748   3.99845   4.00268   4.01590
 Alpha virt. eigenvalues --    4.02450   4.02491   4.03436   4.05608   4.06311
 Alpha virt. eigenvalues --    4.06858   4.07715   4.08993   4.09848   4.11409
 Alpha virt. eigenvalues --    4.11865   4.13367   4.15601   4.15640   4.16234
 Alpha virt. eigenvalues --    4.18057   4.18366   4.20982   4.21239   4.21735
 Alpha virt. eigenvalues --    4.22237   4.23415   4.24826   4.27078   4.27295
 Alpha virt. eigenvalues --    4.29717   4.31239   4.33561   4.34699   4.35285
 Alpha virt. eigenvalues --    4.35888   4.36353   4.37617   4.38613   4.39269
 Alpha virt. eigenvalues --    4.40011   4.42166   4.44509   4.45088   4.47012
 Alpha virt. eigenvalues --    4.48817   4.49522   4.51725   4.53309   4.55094
 Alpha virt. eigenvalues --    4.56141   4.56466   4.59022   4.59596   4.61085
 Alpha virt. eigenvalues --    4.62878   4.63541   4.68368   4.68938   4.69600
 Alpha virt. eigenvalues --    4.73080   4.76010   4.77726   4.78295   4.79393
 Alpha virt. eigenvalues --    4.80800   4.83014   4.84147   4.84155   4.88346
 Alpha virt. eigenvalues --    4.90772   4.91988   4.93919   4.95068   4.96318
 Alpha virt. eigenvalues --    4.96977   4.98577   5.02555   5.02780   5.02959
 Alpha virt. eigenvalues --    5.04411   5.04928   5.07410   5.09884   5.12561
 Alpha virt. eigenvalues --    5.13917   5.16285   5.16789   5.17845   5.20666
 Alpha virt. eigenvalues --    5.21066   5.22907   5.24658   5.25525   5.28316
 Alpha virt. eigenvalues --    5.30066   5.32409   5.35060   5.40485   5.43284
 Alpha virt. eigenvalues --    5.48851   5.49305   5.54752   5.56399   5.59764
 Alpha virt. eigenvalues --    5.60280   5.60911   5.61550   5.65068   5.66117
 Alpha virt. eigenvalues --    5.68734   5.70760   5.71738   5.73264   5.76013
 Alpha virt. eigenvalues --    5.76573   5.82729   5.83456   5.85681   5.86951
 Alpha virt. eigenvalues --    5.87907   5.88583   5.91453   5.92898   5.97820
 Alpha virt. eigenvalues --    6.00683   6.02401   6.03755   6.12033   6.13627
 Alpha virt. eigenvalues --    6.13686   6.15763   6.19402   6.22773   6.52715
 Alpha virt. eigenvalues --    6.53502   6.54626   6.56766   6.57657   6.57695
 Alpha virt. eigenvalues --    6.70467   6.72965   6.75244   6.75548   6.76168
 Alpha virt. eigenvalues --    6.76203   6.77771   6.78537   6.79336   6.80278
 Alpha virt. eigenvalues --    6.80894   6.82349   6.83171   6.83394   6.87364
 Alpha virt. eigenvalues --    6.88301   6.93054   6.93768   6.96581   6.96610
 Alpha virt. eigenvalues --    7.05282   7.05556   7.05739   7.07102   7.16522
 Alpha virt. eigenvalues --    7.17216   7.20291   7.21561   7.22869   7.27782
 Alpha virt. eigenvalues --    7.40849   7.41726   7.43253   7.43619   7.45860
 Alpha virt. eigenvalues --    7.46116   7.49718   7.50133   7.57465   7.58255
 Alpha virt. eigenvalues --    7.58691   7.63537  23.10568  23.12777  23.17674
 Alpha virt. eigenvalues --   23.20565  23.43686  23.46052  44.11024  44.15775
 Alpha virt. eigenvalues --   44.22308  44.26696  44.33454  44.39395
          Condensed to atoms (all electrons):
               1          2          3          4          5          6
     1  C    5.120532   0.091628   0.180580   0.027955  -0.034842   0.429678
     2  C    0.091628   5.120574   0.027953   0.180556   0.429700  -0.034837
     3  C    0.180580   0.027953   4.899498  -0.017547  -0.011083  -0.025206
     4  C    0.027955   0.180556  -0.017547   4.899492  -0.025205  -0.011083
     5  H   -0.034842   0.429700  -0.011083  -0.025205   0.584730   0.001354
     6  H    0.429678  -0.034837  -0.025206  -0.011083   0.001354   0.584738
     7  C   -0.010270   0.013121   0.282266   0.002422   0.002798   0.007715
     8  H   -0.030168  -0.012758   0.426139   0.000131   0.004296  -0.003808
     9  C    0.013117  -0.010245   0.002421   0.282271   0.007715   0.002797
    10  H   -0.012757  -0.030181   0.000132   0.426131  -0.003810   0.004298
    11  H   -0.016301   0.000046  -0.011930  -0.000563  -0.000801  -0.000730
    12  H    0.010004  -0.008668  -0.028698  -0.000124   0.000253   0.000854
    13  H   -0.008668   0.010006  -0.000124  -0.028711   0.000854   0.000253
    14  H    0.000048  -0.016308  -0.000562  -0.011921  -0.000730  -0.000801
    15  O    0.006551  -0.000117  -0.071701  -0.000019  -0.000005  -0.000080
    16  H   -0.001672   0.000090   0.011095  -0.000005   0.000004   0.000039
    17  O   -0.064059   0.004110   0.272984  -0.000036   0.000083   0.001315
    18  H    0.008358  -0.001008  -0.040923   0.000001   0.000001  -0.000359
    19  O    0.243243  -0.034978  -0.004859  -0.006933   0.002190  -0.037930
    20  H   -0.044314   0.007135   0.002143   0.002051  -0.000325  -0.007052
    21  O   -0.034980   0.243225  -0.006929  -0.004861  -0.037936   0.002190
    22  H    0.007137  -0.044317   0.002051   0.002142  -0.007055  -0.000325
    23  O    0.004110  -0.064065  -0.000036   0.273005   0.001317   0.000083
    24  H   -0.001008   0.008358   0.000001  -0.040930  -0.000359   0.000001
    25  O   -0.000118   0.006551  -0.000019  -0.071708  -0.000080  -0.000005
    26  H    0.000090  -0.001672  -0.000005   0.011097   0.000039   0.000004
               7          8          9         10         11         12
     1  C   -0.010270  -0.030168   0.013117  -0.012757  -0.016301   0.010004
     2  C    0.013121  -0.012758  -0.010245  -0.030181   0.000046  -0.008668
     3  C    0.282266   0.426139   0.002421   0.000132  -0.011930  -0.028698
     4  C    0.002422   0.000131   0.282271   0.426131  -0.000563  -0.000124
     5  H    0.002798   0.004296   0.007715  -0.003810  -0.000801   0.000253
     6  H    0.007715  -0.003808   0.002797   0.004298  -0.000730   0.000854
     7  C    4.795772  -0.043717  -0.000577   0.000095   0.416718   0.400129
     8  H   -0.043717   0.619100   0.000095   0.000033  -0.005398   0.009591
     9  C   -0.000577   0.000095   4.795763  -0.043732   0.000130   0.000366
    10  H    0.000095   0.000033  -0.043732   0.619190  -0.000054  -0.000000
    11  H    0.416718  -0.005398   0.000130  -0.000054   0.581074  -0.027390
    12  H    0.400129   0.009591   0.000366  -0.000000  -0.027390   0.583383
    13  H    0.000366  -0.000000   0.400133   0.009595  -0.000090  -0.000043
    14  H    0.000130  -0.000054   0.416706  -0.005400  -0.000011  -0.000090
    15  O    0.262993   0.005694   0.000003  -0.000000  -0.042807  -0.049411
    16  H   -0.032626  -0.000107   0.000000   0.000000  -0.005897  -0.004649
    17  O   -0.031633  -0.039748  -0.000051  -0.000005   0.004910  -0.001060
    18  H   -0.008135  -0.003609   0.000004  -0.000000   0.001863  -0.001749
    19  O   -0.025423   0.004287  -0.007955   0.000110   0.001066   0.019540
    20  H   -0.003079   0.001791  -0.001920  -0.000044   0.000241  -0.000027
    21  O   -0.007959   0.000110  -0.025432   0.004289   0.013975   0.000492
    22  H   -0.001921  -0.000044  -0.003081   0.001792   0.000533  -0.000075
    23  O   -0.000051  -0.000005  -0.031645  -0.039761  -0.000015   0.000004
    24  H    0.000004  -0.000000  -0.008136  -0.003611   0.000003  -0.000000
    25  O    0.000003  -0.000000   0.262999   0.005694   0.000000  -0.000000
    26  H    0.000000   0.000000  -0.032630  -0.000107  -0.000000   0.000000
              13         14         15         16         17         18
     1  C   -0.008668   0.000048   0.006551  -0.001672  -0.064059   0.008358
     2  C    0.010006  -0.016308  -0.000117   0.000090   0.004110  -0.001008
     3  C   -0.000124  -0.000562  -0.071701   0.011095   0.272984  -0.040923
     4  C   -0.028711  -0.011921  -0.000019  -0.000005  -0.000036   0.000001
     5  H    0.000854  -0.000730  -0.000005   0.000004   0.000083   0.000001
     6  H    0.000253  -0.000801  -0.000080   0.000039   0.001315  -0.000359
     7  C    0.000366   0.000130   0.262993  -0.032626  -0.031633  -0.008135
     8  H   -0.000000  -0.000054   0.005694  -0.000107  -0.039748  -0.003609
     9  C    0.400133   0.416706   0.000003   0.000000  -0.000051   0.000004
    10  H    0.009595  -0.005400  -0.000000   0.000000  -0.000005  -0.000000
    11  H   -0.000090  -0.000011  -0.042807  -0.005897   0.004910   0.001863
    12  H   -0.000043  -0.000090  -0.049411  -0.004649  -0.001060  -0.001749
    13  H    0.583416  -0.027397  -0.000000   0.000000   0.000004  -0.000000
    14  H   -0.027397   0.581120   0.000000  -0.000000  -0.000015   0.000003
    15  O   -0.000000   0.000000   7.911580   0.327093  -0.013648   0.028477
    16  H    0.000000  -0.000000   0.327093   0.524653   0.000195  -0.001738
    17  O    0.000004  -0.000015  -0.013648   0.000195   7.921025   0.332312
    18  H   -0.000000   0.000003   0.028477  -0.001738   0.332312   0.473715
    19  O    0.000492   0.013972   0.000203   0.000082  -0.014808   0.000198
    20  H   -0.000075   0.000533  -0.000080  -0.000013   0.029044  -0.001410
    21  O    0.019543   0.001066   0.000364   0.000035   0.000030   0.000008
    22  H   -0.000027   0.000241  -0.000021  -0.000004   0.000008  -0.000003
    23  O   -0.001060   0.004910  -0.000000  -0.000000   0.000000  -0.000000
    24  H   -0.001750   0.001864   0.000000  -0.000000  -0.000000   0.000000
    25  O   -0.049419  -0.042812  -0.000000  -0.000000  -0.000000   0.000000
    26  H   -0.004649  -0.005899  -0.000000   0.000000  -0.000000  -0.000000
              19         20         21         22         23         24
     1  C    0.243243  -0.044314  -0.034980   0.007137   0.004110  -0.001008
     2  C   -0.034978   0.007135   0.243225  -0.044317  -0.064065   0.008358
     3  C   -0.004859   0.002143  -0.006929   0.002051  -0.000036   0.000001
     4  C   -0.006933   0.002051  -0.004861   0.002142   0.273005  -0.040930
     5  H    0.002190  -0.000325  -0.037936  -0.007055   0.001317  -0.000359
     6  H   -0.037930  -0.007052   0.002190  -0.000325   0.000083   0.000001
     7  C   -0.025423  -0.003079  -0.007959  -0.001921  -0.000051   0.000004
     8  H    0.004287   0.001791   0.000110  -0.000044  -0.000005  -0.000000
     9  C   -0.007955  -0.001920  -0.025432  -0.003081  -0.031645  -0.008136
    10  H    0.000110  -0.000044   0.004289   0.001792  -0.039761  -0.003611
    11  H    0.001066   0.000241   0.013975   0.000533  -0.000015   0.000003
    12  H    0.019540  -0.000027   0.000492  -0.000075   0.000004  -0.000000
    13  H    0.000492  -0.000075   0.019543  -0.000027  -0.001060  -0.001750
    14  H    0.013972   0.000533   0.001066   0.000241   0.004910   0.001864
    15  O    0.000203  -0.000080   0.000364  -0.000021  -0.000000   0.000000
    16  H    0.000082  -0.000013   0.000035  -0.000004  -0.000000  -0.000000
    17  O   -0.014808   0.029044   0.000030   0.000008   0.000000  -0.000000
    18  H    0.000198  -0.001410   0.000008  -0.000003  -0.000000   0.000000
    19  O    7.908499   0.317139   0.000191  -0.000180   0.000030   0.000008
    20  H    0.317139   0.504366  -0.000180   0.000077   0.000008  -0.000003
    21  O    0.000191  -0.000180   7.908519   0.317145  -0.014810   0.000198
    22  H   -0.000180   0.000077   0.317145   0.504371   0.029045  -0.001410
    23  O    0.000030   0.000008  -0.014810   0.029045   7.920988   0.332328
    24  H    0.000008  -0.000003   0.000198  -0.001410   0.332328   0.473715
    25  O    0.000364  -0.000021   0.000203  -0.000080  -0.013647   0.028479
    26  H    0.000035  -0.000004   0.000082  -0.000013   0.000195  -0.001738
              25         26
     1  C   -0.000118   0.000090
     2  C    0.006551  -0.001672
     3  C   -0.000019  -0.000005
     4  C   -0.071708   0.011097
     5  H   -0.000080   0.000039
     6  H   -0.000005   0.000004
     7  C    0.000003   0.000000
     8  H   -0.000000   0.000000
     9  C    0.262999  -0.032630
    10  H    0.005694  -0.000107
    11  H    0.000000  -0.000000
    12  H   -0.000000   0.000000
    13  H   -0.049419  -0.004649
    14  H   -0.042812  -0.005899
    15  O   -0.000000  -0.000000
    16  H   -0.000000   0.000000
    17  O   -0.000000  -0.000000
    18  H    0.000000  -0.000000
    19  O    0.000364   0.000035
    20  H   -0.000021  -0.000004
    21  O    0.000203   0.000082
    22  H   -0.000080  -0.000013
    23  O   -0.013647   0.000195
    24  H    0.028479  -0.001738
    25  O    7.911615   0.327090
    26  H    0.327090   0.524628
 Mulliken charges:
               1
     1  C    0.116125
     2  C    0.116102
     3  C    0.112359
     4  C    0.112393
     5  H    0.086897
     6  H    0.086896
     7  C   -0.019141
     8  H    0.068147
     9  C   -0.019116
    10  H    0.068103
    11  H    0.091428
    12  H    0.097367
    13  H    0.097348
    14  H    0.091408
    15  O   -0.365068
    16  H    0.183428
    17  O   -0.400957
    18  H    0.213992
    19  O   -0.378583
    20  H    0.194017
    21  O   -0.378579
    22  H    0.194012
    23  O   -0.400930
    24  H    0.213983
    25  O   -0.365088
    26  H    0.183459
 Sum of Mulliken charges =  -0.00000
 Mulliken charges with hydrogens summed into heavy atoms:
               1
     1  C    0.203021
     2  C    0.202999
     3  C    0.180506
     4  C    0.180496
     7  C    0.169653
     9  C    0.169640
    15  O   -0.181640
    17  O   -0.186965
    19  O   -0.184565
    21  O   -0.184567
    23  O   -0.186947
    25  O   -0.181630
 Electronic spatial extent (au):  <R**2>=           2789.7347
 Charge=             -0.0000 electrons
 Dipole moment (field-independent basis, Debye):
    X=             -0.0002    Y=             -0.0002    Z=             -1.1322  Tot=              1.1322
 Quadrupole moment (field-independent basis, Debye-Ang):
   XX=            -66.9939   YY=            -71.3534   ZZ=            -69.0315
   XY=             -7.7869   XZ=             -0.0004   YZ=             -0.0005
 Traceless Quadrupole moment (field-independent basis, Debye-Ang):
   XX=              2.1323   YY=             -2.2271   ZZ=              0.0948
   XY=             -7.7869   XZ=             -0.0004   YZ=             -0.0005
 Octapole moment (field-independent basis, Debye-Ang**2):
  XXX=             -0.0041  YYY=             -0.0004  ZZZ=             -9.4546  XYY=             -0.0034
  XXY=              0.0022  XXZ=            -48.4590  XZZ=              0.0023  YZZ=             -0.0007
  YYZ=            -14.9745  XYZ=             10.4408
 Hexadecapole moment (field-independent basis, Debye-Ang**3):
 XXXX=          -2393.4287 YYYY=           -482.4417 ZZZZ=           -255.4777 XXXY=            -75.7601
 XXXZ=             -0.0078 YYYX=            -25.4547 YYYZ=             -0.0029 ZZZX=             -0.0019
 ZZZY=             -0.0005 XXYY=           -461.9409 XXZZ=           -398.9968 YYZZ=           -122.8495
 XXYZ=             -0.0064 YYXZ=              0.0001 ZZXY=            -33.6554
 N-N= 8.155971666878D+02 E-N=-3.248935806232D+03  KE= 6.850113187043D+02
   1 Symmetry operations used in ECPInt.
 ECPInt:  NShTT=   23436 NPrTT=   62434 LenC2=   21502 LenP2D=   44594.
 LDataN:  DoStor=T MaxTD1= 7 Len=  274
 Calling FoFJK, ICntrl=      2127 FMM=F ISym2X=0 I1Cent= 0 IOpClX= 0 NMat=1 NMatS=1 NMatT=0.
 ***** Axes restored to original set *****
 -------------------------------------------------------------------
 Center     Atomic                   Forces (Hartrees/Bohr)
 Number     Number              X              Y              Z
 -------------------------------------------------------------------
      1        6          -0.008018636   -0.014164127   -0.006272592
      2        6           0.008022770   -0.011278426   -0.010644547
      3        6          -0.014209535    0.002180900   -0.005777102
      4        6           0.014139075   -0.004435527    0.004281818
      5        1          -0.005138584    0.000966819    0.007807138
      6        1           0.005146032    0.007558528   -0.002137482
      7        6           0.001266093    0.003162166   -0.007901328
      8        1           0.005740670   -0.001903037   -0.000079970
      9        6          -0.001338887   -0.006123863    0.005942067
     10        1          -0.005728981   -0.000813929   -0.001735554
     11        1           0.000295806   -0.003876096    0.006798765
     12        1           0.004863426   -0.000165217    0.007225029
     13        1          -0.004866586    0.006601266   -0.002934459
     14        1          -0.000233976    0.004801696   -0.006207716
     15        8           0.005406469   -0.004035954   -0.010753981
     16        1          -0.007850716    0.007430272    0.016716448
     17        8           0.008983565    0.005722612   -0.014091378
     18        1           0.003946125   -0.009372105    0.016803454
     19        8          -0.008822521    0.011843993   -0.004923334
     20        1           0.017700525   -0.003106390    0.002480494
     21        8           0.008824133    0.000002446    0.012786781
     22        1          -0.017697225    0.001093909   -0.003821230
     23        8          -0.008950731   -0.010792115    0.010684522
     24        1          -0.003933118    0.011892343   -0.015103600
     25        8          -0.005407192   -0.011516025    0.000436888
     26        1           0.007862000    0.018325861    0.000420871
 -------------------------------------------------------------------
 Cartesian Forces:  Max     0.018325861 RMS     0.008330295

 GradGradGradGradGradGradGradGradGradGradGradGradGradGradGradGradGradGrad
 Berny optimization.
 FormGI is forming the generalized inverse of G from B-inverse, IUseBI=4.
 Internal  Forces:  Max     0.019585852 RMS     0.006287103
 Search for a local minimum.
 Step number   1 out of a maximum of  140
 All quantities printed in internal units (Hartrees-Bohrs-Radians)
 Mixed Optimization -- RFO/linear search
 Second derivative matrix not updated -- first step.
 ITU=  0
     Eigenvalues ---    0.00247   0.00247   0.00266   0.00340   0.00341
     Eigenvalues ---    0.01063   0.01064   0.01203   0.01204   0.01211
     Eigenvalues ---    0.01212   0.03762   0.03762   0.03838   0.03838
     Eigenvalues ---    0.04622   0.04622   0.04839   0.04839   0.05338
     Eigenvalues ---    0.05338   0.05479   0.05479   0.07610   0.07610
     Eigenvalues ---    0.07930   0.07930   0.11356   0.11357   0.13577
     Eigenvalues ---    0.13577   0.16000   0.16000   0.16000   0.16000
     Eigenvalues ---    0.16000   0.16000   0.17118   0.17119   0.17399
     Eigenvalues ---    0.17399   0.19322   0.19323   0.20151   0.20152
     Eigenvalues ---    0.22032   0.22032   0.28584   0.28586   0.28715
     Eigenvalues ---    0.29223   0.29230   0.33961   0.33967   0.34124
     Eigenvalues ---    0.34128   0.34339   0.34339   0.34574   0.34586
     Eigenvalues ---    0.38568   0.38581   0.40008   0.40013   0.40093
     Eigenvalues ---    0.40100   0.51065   0.51069   0.51301   0.51302
     Eigenvalues ---    0.52487   0.52495
 RFO step:  Lambda=-1.98101010D-02 EMin= 2.46533618D-03
 Linear search not attempted -- first point.
 Iteration  1 RMS(Cart)=  0.07134070 RMS(Int)=  0.00172068
 Iteration  2 RMS(Cart)=  0.00241093 RMS(Int)=  0.00063926
 Iteration  3 RMS(Cart)=  0.00000301 RMS(Int)=  0.00063926
 Iteration  4 RMS(Cart)=  0.00000000 RMS(Int)=  0.00063926
 Variable       Old X    -DE/DX   Delta X   Delta X   Delta X     New X
                                 (Linear)    (Quad)   (Total)
    R1        2.90602  -0.01445   0.00000  -0.04707  -0.04707   2.85895
    R2        2.90875  -0.01044   0.00000  -0.03415  -0.03415   2.87460
    R3        2.07395  -0.00074   0.00000  -0.00206  -0.00206   2.07189
    R4        2.71427  -0.01128   0.00000  -0.02680  -0.02680   2.68747
    R5        2.90879  -0.01044   0.00000  -0.03416  -0.03416   2.87463
    R6        2.07386  -0.00071   0.00000  -0.00197  -0.00197   2.07189
    R7        2.71418  -0.01124   0.00000  -0.02670  -0.02670   2.68748
    R8        2.89539  -0.01120   0.00000  -0.03589  -0.03589   2.85950
    R9        2.07115  -0.00044   0.00000  -0.00122  -0.00122   2.06992
   R10        2.73547  -0.01229   0.00000  -0.03032  -0.03032   2.70516
   R11        2.89527  -0.01117   0.00000  -0.03578  -0.03578   2.85948
   R12        2.07121  -0.00046   0.00000  -0.00126  -0.00126   2.06995
   R13        2.73529  -0.01225   0.00000  -0.03019  -0.03019   2.70509
   R14        2.06352  -0.00219   0.00000  -0.00598  -0.00598   2.05755
   R15        2.06761  -0.00181   0.00000  -0.00497  -0.00497   2.06264
   R16        2.71543  -0.00049   0.00000  -0.00116  -0.00116   2.71427
   R17        2.06762  -0.00180   0.00000  -0.00496  -0.00496   2.06265
   R18        2.06372  -0.00225   0.00000  -0.00616  -0.00616   2.05756
   R19        2.71536  -0.00047   0.00000  -0.00111  -0.00111   2.71425
   R20        1.84128  -0.01955   0.00000  -0.03588  -0.03588   1.80540
   R21        1.85506  -0.01928   0.00000  -0.03634  -0.03634   1.81872
   R22        1.85275  -0.01812   0.00000  -0.03401  -0.03401   1.81874
   R23        1.85274  -0.01812   0.00000  -0.03400  -0.03400   1.81874
   R24        1.85502  -0.01926   0.00000  -0.03630  -0.03630   1.81872
   R25        1.84136  -0.01959   0.00000  -0.03596  -0.03596   1.80540
    A1        1.99340   0.00153   0.00000  -0.00337  -0.00358   1.98982
    A2        1.89259  -0.00162   0.00000  -0.02789  -0.02823   1.86436
    A3        1.95255  -0.00440   0.00000  -0.01898  -0.01880   1.93375
    A4        1.88273  -0.00275   0.00000  -0.02589  -0.02676   1.85596
    A5        1.89473   0.00285   0.00000   0.02042   0.02038   1.91511
    A6        1.84039   0.00465   0.00000   0.06024   0.06041   1.90080
    A7        1.99346   0.00152   0.00000  -0.00343  -0.00364   1.98983
    A8        1.89260  -0.00162   0.00000  -0.02791  -0.02824   1.86436
    A9        1.95256  -0.00440   0.00000  -0.01900  -0.01882   1.93374
   A10        1.88275  -0.00275   0.00000  -0.02593  -0.02680   1.85595
   A11        1.89464   0.00287   0.00000   0.02053   0.02049   1.91513
   A12        1.84036   0.00465   0.00000   0.06028   0.06044   1.90080
   A13        2.01960   0.00047   0.00000  -0.00769  -0.00759   2.01201
   A14        1.92636   0.00066   0.00000  -0.00759  -0.00742   1.91894
   A15        1.86496  -0.00769   0.00000  -0.04460  -0.04435   1.82061
   A16        1.91397  -0.00224   0.00000  -0.00894  -0.00960   1.90436
   A17        1.87203   0.00585   0.00000   0.03016   0.02968   1.90171
   A18        1.85874   0.00328   0.00000   0.04404   0.04375   1.90249
   A19        2.01965   0.00046   0.00000  -0.00774  -0.00765   2.01200
   A20        1.92622   0.00067   0.00000  -0.00751  -0.00734   1.91888
   A21        1.86502  -0.00769   0.00000  -0.04465  -0.04439   1.82063
   A22        1.91391  -0.00224   0.00000  -0.00891  -0.00957   1.90435
   A23        1.87208   0.00586   0.00000   0.03014   0.02967   1.90174
   A24        1.85879   0.00327   0.00000   0.04403   0.04374   1.90253
   A25        1.95548  -0.00105   0.00000  -0.02263  -0.02237   1.93312
   A26        1.94771  -0.00278   0.00000  -0.03457  -0.03433   1.91338
   A27        1.87975  -0.01409   0.00000  -0.05346  -0.05308   1.82667
   A28        1.92392  -0.00069   0.00000  -0.00867  -0.01148   1.91245
   A29        1.88116   0.00930   0.00000   0.06145   0.06036   1.94152
   A30        1.87208   0.00997   0.00000   0.06468   0.06330   1.93538
   A31        1.94764  -0.00277   0.00000  -0.03450  -0.03426   1.91338
   A32        1.95556  -0.00105   0.00000  -0.02269  -0.02243   1.93313
   A33        1.87981  -0.01410   0.00000  -0.05351  -0.05313   1.82668
   A34        1.92386  -0.00069   0.00000  -0.00866  -0.01146   1.91240
   A35        1.87204   0.00997   0.00000   0.06472   0.06335   1.93539
   A36        1.88118   0.00931   0.00000   0.06144   0.06035   1.94153
   A37        1.85019   0.00678   0.00000   0.03770   0.03770   1.88789
   A38        1.81130   0.00608   0.00000   0.03382   0.03382   1.84512
   A39        1.82160   0.00124   0.00000   0.00692   0.00692   1.82852
   A40        1.82163   0.00125   0.00000   0.00693   0.00693   1.82855
   A41        1.81129   0.00609   0.00000   0.03388   0.03388   1.84517
   A42        1.85021   0.00678   0.00000   0.03769   0.03769   1.88790
    D1        3.02373  -0.00370   0.00000  -0.05499  -0.05488   2.96886
    D2        0.92390  -0.00003   0.00000   0.00025   0.00027   0.92417
    D3       -1.09843  -0.00221   0.00000  -0.04539  -0.04535  -1.14378
    D4        0.92399  -0.00004   0.00000   0.00015   0.00016   0.92415
    D5       -1.17584   0.00364   0.00000   0.05539   0.05531  -1.12054
    D6        3.08501   0.00145   0.00000   0.00975   0.00969   3.09470
    D7       -1.09836  -0.00222   0.00000  -0.04548  -0.04544  -1.14380
    D8        3.08500   0.00145   0.00000   0.00976   0.00970   3.09470
    D9        1.06266  -0.00073   0.00000  -0.03588  -0.03592   1.02675
   D10        1.08471  -0.00125   0.00000   0.00511   0.00483   1.08954
   D11       -1.10139   0.00087   0.00000   0.02990   0.02985  -1.07154
   D12       -3.11560   0.00092   0.00000   0.00643   0.00636  -3.10924
   D13       -3.09323  -0.00428   0.00000  -0.05094  -0.05086   3.13910
   D14        1.00385  -0.00217   0.00000  -0.02615  -0.02584   0.97801
   D15       -1.01035  -0.00212   0.00000  -0.04962  -0.04933  -1.05968
   D16       -1.10713   0.00117   0.00000   0.01643   0.01619  -1.09094
   D17        2.98995   0.00329   0.00000   0.04122   0.04121   3.03116
   D18        0.97574   0.00334   0.00000   0.01776   0.01772   0.99346
   D19       -2.95908  -0.00046   0.00000   0.00921   0.00906  -2.95002
   D20       -0.74354   0.00050   0.00000   0.00655   0.00600  -0.73754
   D21        1.27024   0.00099   0.00000   0.01649   0.01720   1.28744
   D22        1.08462  -0.00125   0.00000   0.00518   0.00490   1.08951
   D23       -1.10134   0.00087   0.00000   0.02989   0.02984  -1.07149
   D24       -3.11557   0.00092   0.00000   0.00642   0.00635  -3.10922
   D25       -3.09325  -0.00429   0.00000  -0.05096  -0.05088   3.13906
   D26        1.00399  -0.00217   0.00000  -0.02625  -0.02593   0.97805
   D27       -1.01024  -0.00212   0.00000  -0.04973  -0.04943  -1.05967
   D28       -1.10722   0.00118   0.00000   0.01649   0.01624  -1.09098
   D29        2.99002   0.00329   0.00000   0.04120   0.04119   3.03121
   D30        0.97579   0.00334   0.00000   0.01773   0.01769   0.99348
   D31       -2.95910  -0.00046   0.00000   0.00920   0.00904  -2.95005
   D32       -0.74354   0.00049   0.00000   0.00654   0.00598  -0.73756
   D33        1.27021   0.00099   0.00000   0.01649   0.01720   1.28742
   D34       -1.25207   0.00027   0.00000   0.01888   0.01863  -1.23344
   D35        0.91495  -0.00353   0.00000  -0.03577  -0.03589   0.87906
   D36        2.96526  -0.00161   0.00000  -0.00946  -0.00951   2.95576
   D37        0.94038  -0.00036   0.00000  -0.00505  -0.00509   0.93529
   D38        3.10740  -0.00416   0.00000  -0.05971  -0.05961   3.04779
   D39       -1.12547  -0.00224   0.00000  -0.03340  -0.03322  -1.15869
   D40        2.95211   0.00553   0.00000   0.05863   0.05857   3.01069
   D41       -1.16405   0.00173   0.00000   0.00397   0.00405  -1.16000
   D42        0.88627   0.00365   0.00000   0.03029   0.03044   0.91670
   D43       -2.91856   0.00081   0.00000   0.03891   0.03873  -2.87983
   D44       -0.74264   0.00026   0.00000   0.02108   0.02035  -0.72229
   D45        1.30557   0.00221   0.00000   0.04779   0.04870   1.35428
   D46        0.91505  -0.00354   0.00000  -0.03584  -0.03596   0.87909
   D47       -1.25191   0.00026   0.00000   0.01879   0.01854  -1.23337
   D48        2.96531  -0.00161   0.00000  -0.00946  -0.00951   2.95581
   D49        3.10730  -0.00416   0.00000  -0.05968  -0.05958   3.04772
   D50        0.94035  -0.00036   0.00000  -0.00505  -0.00508   0.93527
   D51       -1.12562  -0.00224   0.00000  -0.03330  -0.03313  -1.15874
   D52       -1.16409   0.00173   0.00000   0.00400   0.00408  -1.16001
   D53        2.95214   0.00553   0.00000   0.05863   0.05858   3.01072
   D54        0.88618   0.00365   0.00000   0.03038   0.03053   0.91671
   D55       -2.91863   0.00081   0.00000   0.03895   0.03877  -2.87987
   D56       -0.74259   0.00026   0.00000   0.02103   0.02029  -0.72230
   D57        1.30560   0.00221   0.00000   0.04776   0.04868   1.35428
   D58        3.11478   0.00098   0.00000   0.01902   0.01913   3.13391
   D59        1.00174   0.00495   0.00000   0.04154   0.04380   1.04555
   D60       -1.06968  -0.00450   0.00000  -0.01545  -0.01782  -1.08750
   D61        3.11469   0.00098   0.00000   0.01896   0.01907   3.13376
   D62       -1.06983  -0.00450   0.00000  -0.01543  -0.01780  -1.08763
   D63        1.00152   0.00496   0.00000   0.04159   0.04386   1.04538
         Item               Value     Threshold  Converged?
 Maximum Force            0.019586     0.000450     NO 
 RMS     Force            0.006287     0.000300     NO 
 Maximum Displacement     0.238654     0.001800     NO 
 RMS     Displacement     0.071415     0.001200     NO 
 Predicted change in Energy=-1.128675D-02
 GradGradGradGradGradGradGradGradGradGradGradGradGradGradGradGradGradGrad

                          Input orientation:                          
 ---------------------------------------------------------------------
 Center     Atomic      Atomic             Coordinates (Angstroms)
 Number     Number       Type             X           Y           Z
 ---------------------------------------------------------------------
      1          6           0        0.012504   -0.041370   -0.034500
      2          6           0        1.525349   -0.047759   -0.024909
      3          6           0       -0.595846    0.828818   -1.123835
      4          6           0        2.133718   -0.718476    1.197399
      5          1           0        1.846845    0.999979    0.006170
      6          1           0       -0.309000    0.390382    0.920651
      7          6           0       -0.272965    0.409508   -2.541455
      8          1           0       -0.294058    1.872026   -0.980849
      9          6           0        1.810813   -2.188289    1.355760
     10          1           0        1.831853   -0.185139    2.105289
     11          1           0        0.772628    0.605702   -2.773278
     12          1           0       -0.481624   -0.654648   -2.665591
     13          1           0        2.019473   -2.712295    0.421272
     14          1           0        0.765197   -2.326785    1.625987
     15          8           0       -1.145521    1.201676   -3.362528
     16          1           0       -0.977154    0.979990   -4.276450
     17          8           0       -2.008061    0.719498   -0.916688
     18          1           0       -2.416315    1.056225   -1.720555
     19          8           0       -0.497367   -1.365032   -0.136783
     20          1           0       -1.437006   -1.253074   -0.312368
     21          8           0        2.035210   -0.651385   -1.207364
     22          1           0        2.974858   -0.770376   -1.036524
     23          8           0        3.545901   -0.569311    1.016833
     24          1           0        3.954203   -1.181723    1.636912
     25          8           0        2.683319   -2.641405    2.402864
     26          1           0        2.514845   -3.570238    2.549941
 ---------------------------------------------------------------------
                    Distance matrix (angstroms):
                    1          2          3          4          5
     1  C    0.000000
     2  C    1.512889   0.000000
     3  C    1.521173   2.544699   0.000000
     4  C    2.544719   1.521187   3.902917   0.000000
     5  H    2.109709   1.096394   2.696840   2.110547   0.000000
     6  H    1.096398   2.109713   2.110552   2.696855   2.419824
     7  C    2.563125   3.126665   1.513183   4.587320   3.366400
     8  H    2.156535   2.812408   1.095356   4.165281   2.513591
     9  C    3.126660   2.563124   4.587301   1.513174   3.462333
    10  H    2.812365   2.156516   4.165221   1.095370   2.410607
    11  H    2.915030   2.923548   2.154801   4.401396   3.005783
    12  H    2.746436   3.371862   2.142599   4.665488   3.911249
    13  H    3.371868   2.746450   4.665483   2.142601   3.739397
    14  H    2.923505   2.915004   4.401339   2.154807   3.855013
    15  O    3.736570   4.453575   2.335147   5.935766   4.510328
    16  H    4.474007   5.039285   3.179187   6.521145   5.129933
    17  O    2.332351   3.724103   1.431507   4.867388   3.973744
    18  H    3.153832   4.430656   1.929221   5.689184   4.599921
    19  O    1.422150   2.416424   2.407685   3.020046   3.333023
    20  H    1.909585   3.211069   2.387530   3.913471   3.995171
    21  O    2.416417   1.422154   3.020006   2.407715   2.057948
    22  H    3.211082   1.909612   3.913435   2.387598   2.343882
    23  O    3.724100   2.332353   4.867370   1.431474   2.524064
    24  H    4.430690   3.153863   5.689195   1.929232   3.443849
    25  O    4.453558   3.736572   5.935737   2.335136   4.438863
    26  H    5.039242   4.474015   6.521098   3.179178   5.272938
                    6          7          8          9         10
     6  H    0.000000
     7  C    3.462347   0.000000
     8  H    2.410642   2.138901   0.000000
     9  C    3.366374   5.126302   5.135795   0.000000
    10  H    2.513531   5.135766   4.275006   2.138889   0.000000
    11  H    3.855048   1.088806   2.440123   5.092462   5.054483
    12  H    3.739388   1.091501   3.042633   4.876330   5.322961
    13  H    3.911237   4.876339   5.323004   1.091508   3.042636
    14  H    3.005727   5.092412   5.054466   1.088814   2.440109
    15  O    4.438872   1.436330   2.616630   6.518743   6.378482
    16  H    5.272943   1.957432   3.481858   7.037936   7.069274
    17  O    2.524073   2.397191   2.066457   5.310654   4.969472
    18  H    3.443849   2.384548   2.390956   6.152983   5.850213
    19  O    2.057943   2.996965   3.351466   2.869343   3.441555
    20  H    2.343861   3.014631   3.394031   3.769033   4.203688
    21  O    3.333024   2.869314   3.441569   2.997005   3.351479
    22  H    3.995199   3.768992   4.203712   3.014715   3.394106
    23  O    3.973729   5.310672   4.969521   2.397185   2.066467
    24  H    4.599939   6.153025   5.850280   2.384605   2.391009
    25  O    4.510283   6.518740   6.378507   1.436317   2.616637
    26  H    5.129834   7.037939   7.069276   1.957425   3.481823
                   11         12         13         14         15
    11  H    0.000000
    12  H    1.781355   0.000000
    13  H    4.771675   4.474162   0.000000
    14  H    5.287066   4.771609   1.781338   0.000000
    15  O    2.093250   2.091033   6.297102   6.402043   0.000000
    16  H    2.336954   2.347862   6.684411   6.986366   0.955377
    17  O    3.345461   2.697583   5.457873   4.841074   2.637917
    18  H    3.388296   2.750129   6.202047   5.724169   2.081381
    19  O    3.528142   2.626740   2.908784   2.372002   4.172951
    20  H    3.793891   2.609315   3.822931   3.124064   3.926096
    21  O    2.372017   2.908761   2.626796   3.528141   4.265631
    22  H    3.124055   3.822894   2.609403   3.793940   5.126090
    23  O    4.841140   5.457883   2.697602   3.345459   6.657674
    24  H    5.724253   6.202088   2.750202   3.388368   7.528756
    25  O    6.402100   6.297087   2.091033   2.093254   7.916377
    26  H    6.986448   6.684405   2.347912   2.336907   8.433667
                   16         17         18         19         20
    16  H    0.000000
    17  O    3.524007   0.000000
    18  H    2.934211   0.962423   0.000000
    19  O    4.781858   2.689929   3.471769   0.000000
    20  H    4.572962   2.140642   2.876612   0.962438   0.000000
    21  O    4.599458   4.279235   4.795348   2.840666   3.635840
    22  H    5.401787   5.202266   5.733159   3.635862   4.496881
    23  O    7.132826   6.020468   6.758970   4.279254   5.202275
    24  H    7.997445   6.759002   7.540854   4.795421   5.733229
    25  O    8.433670   6.657638   7.528699   4.265641   5.126112
    26  H    8.916180   7.132744   7.997352   4.599440   5.401777
                   21         22         23         24         25
    21  O    0.000000
    22  H    0.962436   0.000000
    23  O    2.689977   2.140746   0.000000
    24  H    3.471843   2.876731   0.962423   0.000000
    25  O    4.173005   3.926211   2.637936   2.081466   0.000000
    26  H    4.781956   4.573136   3.524069   2.934344   0.955377
                   26
    26  H    0.000000
 Stoichiometry    C6H14O6
 Framework group  C1[X(C6H14O6)]
 Deg. of freedom    72
 Full point group                 C1      NOp   1
 Largest Abelian subgroup         C1      NOp   1
 Largest concise Abelian subgroup C1      NOp   1
                         Standard orientation:                         
 ---------------------------------------------------------------------
 Center     Atomic      Atomic             Coordinates (Angstroms)
 Number     Number       Type             X           Y           Z
 ---------------------------------------------------------------------
      1          6           0        0.487447    0.578434    0.482880
      2          6           0       -0.487459   -0.578455    0.482870
      3          6           0        1.944904    0.159606    0.602751
      4          6           0       -1.944935   -0.159638    0.602728
      5          1           0       -0.265436   -1.180447    1.371910
      6          1           0        0.265401    1.180435    1.371913
      7          6           0        2.467525   -0.693585   -0.532438
      8          1           0        2.105919   -0.366156    1.550092
      9          6           0       -2.467527    0.693585   -0.532439
     10          1           0       -2.105897    0.366159    1.550075
     11          1           0        2.032046   -1.690910   -0.497778
     12          1           0        2.226030   -0.222059   -1.486753
     13          1           0       -2.226034    0.222079   -1.486773
     14          1           0       -2.031998    1.690896   -0.497788
     15          8           0        3.888607   -0.738918   -0.328690
     16          1           0        4.271704   -1.275565   -1.020061
     17          8           0        2.667374    1.395193    0.626695
     18          1           0        3.586554    1.162995    0.461016
     19          8           0        0.313531    1.385289   -0.675243
     20          1           0        1.073769    1.975465   -0.679465
     21          8           0       -0.313498   -1.385309   -0.675251
     22          1           0       -1.073704   -1.975523   -0.679513
     23          8           0       -2.667398   -1.395191    0.626683
     24          1           0       -3.586594   -1.163038    0.461030
     25          8           0       -3.888595    0.738967   -0.328698
     26          1           0       -4.271662    1.275742   -1.019985
 ---------------------------------------------------------------------
 Rotational constants (GHZ):           1.9987844           0.4518996           0.4096632
 Standard basis: def2TZVPP (5D, 7F)
 There are   642 symmetry adapted cartesian basis functions of A   symmetry.
 There are   568 symmetry adapted basis functions of A   symmetry.
   568 basis functions,   850 primitive gaussians,   642 cartesian basis functions
    49 alpha electrons       49 beta electrons
       nuclear repulsion energy       826.5784394621 Hartrees.
 NAtoms=   26 NActive=   26 NUniq=   26 SFac= 1.00D+00 NAtFMM=   60 NAOKFM=F Big=F
 Integral buffers will be    131072 words long.
 Raffenetti 2 integral format.
 Two-electron integral symmetry is turned on.
 Nuclear repulsion after empirical dispersion term =      826.5605998206 Hartrees.
 One-electron integrals computed using PRISM.
   1 Symmetry operations used in ECPInt.
 ECPInt:  NShTT=   23436 NPrTT=   62434 LenC2=   21599 LenP2D=   44890.
 LDataN:  DoStor=T MaxTD1= 6 Len=  172
[...]
 0.00158368,0.00092776,0.00021592,0.00035030,0.00004748,-0.00014752,0.0
 0011366,0.00053316,0.00811175,-0.00290723,0.00105188,0.00151375,0.0008
 6308,0.62690156,-0.01520206,-0.22011467,-0.01439830,-0.00728599,-0.008
 40117,-0.00131487,-0.01478498,-0.04708627,0.00088834,0.00074255,-0.000
 84906,0.00059788,0.00050219,0.00140055,-0.00017256,-0.01258903,-0.0329
 4157,-0.00951579,0.00016136,-0.00092919,-0.00381255,0.00372206,-0.0030
 1349,0.00520420,-0.00145856,-0.00077019,0.00089484,0.00009761,0.000353
 91,0.00054782,0.00022198,-0.00014720,0.00009793,0.00008472,0.00043513,
 0.00174146,-0.00039012,0.00021899,0.00035755,0.00124412,-0.00027296,-0
 .00062243,0.00077151,0.00089351,0.00181560,0.00000703,-0.00010755,0.00
 015632,-0.00017638,0.00125074,0.00071918,-0.00105842,-0.00014970,-0.00
 083841,0.01347972,0.35563361,-0.01394835,-0.02625287,-0.07201559,0.000
 43798,-0.00409828,0.00001848,0.00681157,0.02406490,0.00572722,0.001387
 02,-0.00008660,-0.00051975,-0.00050019,0.00026671,0.00061891,-0.013589
 22,-0.03148615,0.00371836,0.00216214,-0.00254704,0.00036076,-0.0025230
 4,0.00424505,-0.00279251,0.00153103,0.00100701,-0.00247179,0.00005346,
 0.00010322,0.00038212,0.00016966,0.00104228,-0.00025460,0.00005486,0.0
 0211571,0.00087196,-0.00030373,0.00021927,0.00014348,-0.00313026,0.000
 22932,-0.00065139,-0.00069644,0.00197049,-0.00030282,0.00001613,-0.000
 44720,0.00050709,-0.00033243,0.00304373,0.00190359,0.00055609,-0.00012
 696,0.00026208,0.10597066,0.01256562,0.08143251,-0.02033951,-0.0035707
 3,-0.00215949,0.00000554,-0.00296864,-0.00091383,0.00270549,0.00143421
 ,-0.00025827,-0.00009887,-0.00004534,0.00007328,-0.00055194,0.00033899
 ,-0.00002413,0.00076291,0.00157329,0.00033731,-0.00011499,-0.00048550,
 0.00088400,-0.00124251,0.00033404,-0.00029008,-0.00021102,0.00007653,-
 0.00008464,-0.00000902,-0.00000673,-0.00004171,-0.00002940,0.00019344,
 0.00010570,-0.00007891,-0.00002005,0.00057436,0.00003403,-0.00000258,-
 0.00002502,-0.00011097,0.00015469,-0.00020016,-0.00066291,0.00037490,-
 0.00052269,-0.00002971,0.00000389,0.00000812,-0.00168841,0.00038021,0.
 00033058,-0.00020972,-0.00016776,-0.00046045,-0.49871966,0.03141287,-0
 .08138648,0.51909434,-0.04696545,-0.00237995,-0.00758940,-0.00098857,-
 0.00788722,-0.00101290,-0.00623793,-0.00310182,0.00191427,0.00026248,-
 0.00029209,0.00016964,-0.00205493,-0.00008897,0.00001511,-0.00031082,-
 0.00042336,-0.00098887,0.00014065,0.00031974,0.00064552,0.00058588,0.0
 0068606,-0.00043583,-0.00008485,-0.00023029,-0.00007046,-0.00000863,0.
 00002114,-0.00000875,0.00013653,0.00004208,-0.00045117,-0.00009446,-0.
 00001563,-0.00001335,-0.00015783,0.00012603,0.00005191,0.00026496,0.00
 005759,-0.00007541,0.00034691,-0.00009680,-0.00063861,0.00016907,0.000
 03981,0.00006709,0.00015969,0.00218798,-0.00223778,0.00108222,0.001471
 58,0.00090159,0.08153974,-0.05048908,0.01194831,-0.02892158,0.05943316
 ,-0.00565524,-0.00234532,-0.00003223,0.00092829,-0.00020571,-0.0005056
 7,0.00276358,0.00231715,0.00164632,0.00004139,0.00007104,0.00000388,0.
 00011554,0.00021385,0.00026683,-0.00090903,0.00006301,0.00004386,-0.00
 019111,0.00134179,-0.00031426,-0.00027175,-0.00054707,-0.00001759,-0.0
 0013966,0.00012222,-0.00045695,-0.00006803,-0.00005147,-0.00007812,-0.
 00012377,-0.00052090,0.00017247,0.00048466,-0.00036852,-0.00083165,0.0
 0011934,0.00002317,-0.00000350,-0.00055329,0.00010237,-0.00009414,-0.0
 0003113,-0.00066723,0.00028012,0.00005235,0.00017272,-0.00018543,-0.00
 049934,-0.00262611,-0.00209779,-0.00005046,0.00067463,-0.00046313,-0.0
 8057580,0.00424679,-0.01938761,0.08417482,-0.00256279,0.02219808,-0.01
 699779,0.02264579,0.04093744,-0.10996689,0.03313558,0.05343361,0.00320
 413,-0.00114916,0.00137494,-0.00155933,-0.00327929,-0.00069074,0.00545
 953,0.00467036,-0.00094068,-0.00863628,-0.00011490,-0.00007695,-0.0009
 7578,0.00152436,-0.00194263,-0.00016947,0.00004573,0.00000463,0.000378
 41,0.00138484,0.00058016,0.00038565,0.00082823,-0.00168163,-0.00284806
 ,0.00117690,-0.00129007,0.00007624,0.00030598,-0.00010848,-0.00024955,
 -0.00036324,-0.00027700,0.00018439,0.00022950,-0.00052683,-0.00122466,
 0.00072968,-0.00105930,-0.00009274,0.00000026,0.00021702,-0.00079917,0
 .00003783,-0.00086564,0.00014433,-0.00007848,0.00002270,0.00199244,-0.
 00030129,0.00003558,0.00094178,0.00083697,0.00036029,0.62691064,0.0023
 9784,-0.00314828,-0.00628444,0.01872507,-0.10836500,-0.07282071,-0.001
 56594,-0.00038696,-0.00027899,-0.00059988,0.00677227,0.00161786,0.0173
 8912,-0.01626513,-0.03843488,0.00026792,0.00076803,0.00053034,-0.00085
 215,-0.00154352,0.00132907,-0.00008699,0.00060914,-0.00000315,-0.00205
 787,-0.00208762,-0.00206389,0.00089690,0.00053024,0.00276813,0.0024095
 6,-0.00073425,0.00042097,0.00043046,0.00035943,0.00016068,-0.00008306,
 0.00217642,0.00138946,-0.00024202,0.00016615,0.00091163,0.00141284,0.0
 0011695,0.00060972,-0.00004319,-0.00014267,-0.00013297,0.00101272,0.00
 049065,0.00009807,-0.00011404,0.00000886,-0.00002740,0.00008304,0.0030
 0121,0.00165767,-0.00001402,0.00045306,0.00050067,-0.10297097,0.130920
 82,0.00689343,-0.00350188,-0.00523094,0.00867207,-0.06096833,-0.183758
 82,-0.00015141,0.00040519,-0.00098168,0.01626868,-0.02155768,-0.048130
 84,0.00639416,-0.01646501,-0.01295660,-0.00065646,0.00009100,0.0012514
 1,0.00193559,0.00121677,-0.00169716,-0.00006950,0.00044137,0.00012681,
 0.00068243,-0.00332941,0.00152004,-0.00440577,0.00372736,-0.00633606,-
 0.00235150,-0.00043047,-0.00018844,0.00024303,0.00029891,0.00000293,-0
 .00005699,0.00101569,-0.00086986,-0.00013964,-0.00003266,-0.00056801,-
 0.00244456,0.00076748,0.00034620,0.00031975,-0.00008989,0.00031767,0.0
 0027581,0.00002534,0.00156424,0.00036149,-0.00013265,-0.00055050,0.000
 29175,0.00055375,0.00207960,-0.00031756,0.00019970,-0.00015007,0.02832
 839,0.10621173,0.30612999,0.00000525,0.00198578,0.00238885,-0.02034262
 ,0.00336631,0.00246563,-0.00009898,-0.00005015,0.00007012,0.00270525,-
 0.00031346,-0.00142231,0.00076304,-0.00091660,-0.00132253,-0.00055195,
 -0.00010818,-0.00032223,-0.00021107,0.00004874,-0.00010317,-0.00000904
 ,0.00004110,-0.00000984,-0.00011519,-0.00062916,0.00078819,-0.00124261
 ,0.00013933,-0.00041990,-0.00011088,0.00012523,-0.00021980,0.00003400,
 0.00002404,-0.00000726,-0.00007890,-0.00052223,0.00023937,-0.00002942,
 -0.00017201,-0.00013782,0.00034617,-0.00017069,0.00025215,-0.00000252,
 0.00001239,-0.00005393,0.00024256,-0.00004413,-0.00003400,-0.00004592,
 0.00001279,-0.00000566,0.00094185,0.00029859,-0.00010929,0.00001325,0.
 00003691,-0.00001465,-0.49871678,0.06300765,-0.06031748,0.51909320,-0.
 00047632,-0.00203079,-0.00264644,0.02328696,-0.00390607,-0.00170804,-0
 .00013916,0.00004561,-0.00006961,-0.00015169,0.00244596,0.00000502,0.0
 0095867,-0.00035397,0.00003409,0.00068384,0.00029553,0.00005363,0.0001
 6181,-0.00040487,0.00019491,0.00006610,-0.00008482,-0.00000729,0.00012
 223,0.00048496,0.00127250,0.00002557,-0.00026243,-0.00015185,0.0004085
 1,-0.00006212,0.00015221,-0.00004943,0.00004235,0.00005801,-0.00041098
 ,-0.00084616,-0.00002230,0.00006174,-0.00019195,-0.00042327,-0.0000441
 4,0.00009431,-0.00004164,0.00004656,0.00001975,0.00003349,-0.00018585,
 -0.00001475,0.00007459,0.00004246,0.00001531,-0.00000703,-0.00065454,0
 .00018788,0.00061118,-0.00000067,-0.00000696,0.00001103,0.04297617,-0.
 01823307,-0.00919581,-0.06654001,0.02588072,0.00126993,-0.00345346,-0.
 00636210,0.04117506,-0.00694957,0.00149833,-0.00022642,0.00002888,-0.0
 0033375,0.00682230,-0.00039803,-0.00390094,-0.00006269,-0.00101797,-0.
 00002560,0.00194130,-0.00014501,-0.00011759,0.00002435,0.00000239,-0.0
 0028203,-0.00001819,0.00003540,0.00002783,-0.00020336,0.00057652,-0.00
 047937,-0.00064562,-0.00004046,0.00093090,-0.00045715,-0.00002551,0.00
 002558,0.00019147,0.00008673,0.00008012,0.00027362,0.00033268,-0.00000
 079,-0.00017368,-0.00035368,0.00040656,-0.00025207,0.00020648,-0.00007
 073,-0.00006678,-0.00000527,0.00006018,0.00010350,0.00003773,0.0000390
 8,-0.00001063,0.00001200,0.00002630,-0.00063392,0.00031021,0.00011499,
 -0.00003972,-0.00005422,0.00001104,-0.10627393,-0.00149735,-0.05163771
 ,0.05908405,0.01141946,0.05572736,0.00172944,0.00309883,-0.00478375,-0
 .04053598,0.00074142,-0.00395428,-0.00045013,-0.00159300,0.00119965,-0
 .21612119,-0.02631682,0.03855279,0.00139692,-0.00033724,0.00112175,0.0
 0093290,-0.00032892,-0.00001720,-0.00015988,-0.00001692,0.00074875,0.0
 0001966,0.00012997,-0.00004436,-0.03865945,-0.00835007,0.00517861,-0.0
 3196926,0.00174154,0.00845129,0.00001044,0.00005886,0.00000404,-0.0000
 4937,-0.00003144,0.00003195,0.00154663,0.00023235,-0.00093885,0.001162
 96,-0.00544192,0.00150838,-0.00017504,0.00029159,-0.00091199,-0.000037
 98,-0.00001233,0.00008888,-0.00129506,0.00063818,-0.00108459,-0.000101
 19,-0.00001080,0.00028415,-0.00079901,-0.00064419,-0.00082880,0.000242
 52,-0.00002398,0.00021136,0.00053151,0.00037475,0.00003327,-0.00168627
 ,0.00039998,-0.00033447,0.44146476,0.00000082,-0.00291650,0.00440186,0
 .02231599,0.00205950,-0.00302162,0.00043546,0.00078368,-0.00044925,0.0
 1188436,-0.08474373,0.01609501,0.00001025,0.00180716,-0.00180794,-0.00
 049042,0.00014221,0.00032701,0.00002782,-0.00010867,-0.00027478,-0.000
 03493,0.00008259,-0.00002553,-0.03941584,-0.00477919,0.00998805,0.0165
 3211,0.00679226,0.00026781,-0.00000447,-0.00001972,-0.00001254,0.00004
 627,0.00004532,0.00005460,0.00056898,0.00347730,-0.00010010,-0.0015281
 4,-0.00749036,0.00250991,0.00007278,0.00001963,0.00025873,-0.00001044,
 -0.00003945,-0.00001089,0.00075565,-0.00009242,0.00045979,0.00009999,-
 0.00003489,-0.00009969,0.00078443,0.00144935,-0.00030147,0.00004832,0.
 00007102,0.00003886,-0.00043680,0.00314354,-0.00006976,-0.00045140,-0.
 00319093,0.00000347,-0.11531015,0.31841217,-0.00009801,0.00278547,-0.0
 0586747,-0.03245790,-0.00210621,-0.00283088,-0.00065425,-0.00094571,0.
 00078554,0.01040478,0.01361136,-0.08597512,0.00051779,-0.00092388,0.00
 165800,-0.00037739,0.00025134,0.00039306,0.00042025,-0.00010807,0.0003
 1132,0.00001030,0.00009067,-0.00000142,0.00589314,0.00416171,-0.001338
 16,0.03086988,0.00372969,0.00255464,-0.00010949,-0.00015247,0.00009991
 ,0.00007135,0.00002907,0.00002481,-0.00037567,0.00158443,0.00061671,-0
 .00031865,0.00132868,0.00143411,-0.00042910,0.00026110,-0.00033677,0.0
 0004775,-0.00001275,0.00007906,-0.00100638,0.00038950,-0.00044635,-0.0
 0007383,-0.00001064,0.00005965,-0.00036787,-0.00037423,0.00060578,0.00
 002767,0.00000201,-0.00004666,-0.00861075,0.00225602,0.00000553,-0.000
 21888,-0.00038489,0.00329187,0.09360241,-0.24666838,0.29919404,-0.0001
 0360,0.00131631,-0.00187888,-0.00792723,-0.00075898,0.00225196,-0.0003
 9391,-0.00026889,0.00020724,-0.02756998,0.02852311,-0.02812972,0.00018
 536,-0.00017193,0.00042868,0.00008679,0.00000170,-0.00002226,-0.000075
 93,0.00006347,-0.00000998,0.00000896,0.00001596,0.00000640,-0.00305841
 ,-0.00018111,-0.00282301,-0.00030330,0.00040308,0.00007016,0.00000677,
 0.00002041,-0.00003564,-0.00000945,-0.00001221,-0.00002526,0.00001100,
 -0.00027083,0.00018377,0.00032026,0.00086162,-0.00037329,0.00008038,-0
 .00007359,0.00006824,-0.00000407,0.00001247,-0.00002541,-0.00010120,0.
 00002968,-0.00012070,-0.00006735,0.00002012,0.00001242,0.00014434,-0.0
 0028986,0.00024439,-0.00004591,-0.00000654,-0.00004328,0.00105198,-0.0
 0010609,0.00119112,-0.00020984,-0.00036980,-0.00101857,-0.12243969,0.1
 1108028,-0.10230817,0.15882500,0.00021418,0.00111722,-0.00062343,-0.00
 222060,-0.00072251,-0.00097703,-0.00006069,-0.00015597,0.00015619,0.00
 081040,0.00357252,-0.00271655,-0.00002587,0.00009675,0.00011474,0.0000
 3178,-0.00002484,0.00002173,0.00006359,0.00002324,0.00008117,0.0000116
 1,-0.00004028,0.00001302,-0.00670867,0.00198557,-0.00231124,-0.0002481
 4,-0.00021473,0.00067643,-0.00001840,-0.00002251,0.00002546,-0.0000014
 1,-0.00001107,-0.00001240,0.00019864,-0.00034120,0.00010986,0.00087727
 ,-0.00041878,0.00056835,-0.00008311,0.00001147,-0.00008721,0.00001242,
 0.00001472,0.00001349,-0.00025812,0.00000648,-0.00011693,-0.00001920,0
 .00001054,0.00002048,0.00000927,-0.00052454,0.00019493,0.00000031,0.00
 002643,-0.00001166,-0.00137938,-0.00014156,-0.00084225,0.00048983,0.00
 038273,0.00135622,0.14689784,-0.23343662,0.21692209,-0.14173835,0.2304
 2367,0.00013708,-0.00006309,0.00011618,-0.00004216,0.00026745,-0.00121
 428,-0.00005135,0.00006122,0.00004962,0.00167955,-0.00428979,0.0037982
 6,0.00007104,-0.00003608,-0.00008424,-0.00004209,0.00001796,0.00007013
 ,-0.00003033,0.00001435,-0.00005266,-0.00000068,0.00000658,-0.00000337
 ,0.00249236,0.00035608,0.00270710,0.00208067,-0.00057926,-0.00032310,-
 0.00000069,0.00001604,-0.00001086,-0.00000199,-0.00000524,0.00000206,-
 0.00064238,-0.00023804,-0.00063002,-0.00028000,0.00067043,-0.00103085,
 0.00005950,-0.00004020,0.00006681,-0.00001064,0.00000336,-0.00000933,0
 .00011929,-0.00002789,0.00001828,-0.00001379,0.00000958,-0.00000199,0.
 00008117,0.00008967,-0.00001709,-0.00001398,0.00000737,0.00001516,-0.0
 0106569,-0.00013041,0.00025361,-0.00002199,0.00112853,0.00062657,-0.13
 640241,0.21588598,-0.21481009,0.13219125,-0.21250242,0.21332597,-0.000
 69083,-0.00222050,0.00058693,0.00053284,-0.00104373,0.00172164,0.00019
 083,-0.00008845,0.00007481,-0.00346347,0.00131962,-0.00173133,-0.00006
 581,0.00030270,-0.00037344,0.00012958,-0.00000906,0.00009099,-0.000019
 67,-0.00011826,0.00027801,-0.00003544,0.00015409,-0.00008372,-0.133871
 97,0.00750648,-0.07571778,0.00031912,0.00006777,0.00033214,0.00002525,
 0.00004559,-0.00001071,-0.00002146,0.00002244,0.00009189,-0.00115683,0
 .00210408,-0.00863261,-0.02115615,0.01648877,-0.03549362,-0.00009790,0
 .00020850,-0.00040579,-0.00000907,-0.00002732,0.00006165,-0.00017498,0
 .00036804,-0.00023220,0.00008038,-0.00002296,0.00009961,-0.00122487,0.
 00171311,-0.00224523,0.00034611,0.00024983,-0.00005641,0.00092797,0.00
 034589,-0.00097983,-0.00066283,-0.00010463,-0.00033243,0.00499899,-0.0
 0500603,0.00346318,-0.00027069,0.00228303,0.00120738,0.17887324,-0.001
 64689,-0.00026114,-0.00026999,-0.00402715,-0.00802845,-0.00370045,-0.0
 0031355,0.00035878,-0.00026235,0.02609611,-0.02182588,0.04093280,0.001
 10668,-0.00130710,0.00243616,0.00002628,0.00008939,-0.00003264,-0.0002
 0787,0.00003772,-0.00035300,-0.00001928,0.00013042,-0.00000374,0.03542
 652,-0.10247713,0.04355154,0.00055096,0.00263882,-0.00093090,0.0000223
 3,0.00004307,-0.00010704,0.00002795,0.00001400,0.00000040,-0.00960547,
 0.00896263,-0.00466557,0.00444825,0.00153691,0.00153378,0.00029434,-0.
 00016658,0.00043762,-0.00003136,-0.00001224,-0.00006774,0.00072963,-0.
 00009942,0.00030833,-0.00003468,0.00001337,-0.00008801,0.00069692,0.00
 080133,0.00032468,-0.00016710,0.00001224,-0.00000746,-0.00040653,0.001
 21855,0.00168033,0.00033828,-0.00023928,-0.00057921,0.00276698,-0.0024
 5462,0.00454223,0.00173181,-0.00100454,-0.00032321,-0.00290406,0.66958
 179,0.00038233,-0.00102920,-0.00012275,0.00143336,0.00040813,0.0012371
 9,0.00035372,-0.00025925,0.00016357,-0.00680413,0.01166196,-0.01216054
 ,-0.00038213,0.00050909,-0.00068689,-0.00006022,0.00012849,0.00011435,
 0.00022701,-0.00021232,0.00036702,-0.00002213,0.00004452,-0.00003968,-
 0.07789787,0.00671317,-0.15134634,0.00042665,0.00081374,0.00119514,-0.
 00002163,-0.00005488,0.00008257,0.00002453,0.00002594,0.00007157,-0.02
 889156,0.01671916,-0.02749743,-0.00801239,0.00290856,0.00266844,-0.000
 34858,0.00031280,-0.00047939,0.00003654,-0.00003223,0.00009247,-0.0006
 2004,0.00031073,-0.00021771,0.00009419,-0.00004100,0.00006492,-0.00108
 133,0.00048244,-0.00033842,0.00025454,0.00024085,0.00001132,-0.0000643
 4,0.00183452,-0.00062804,-0.00054710,-0.00060765,0.00042256,-0.0011675
 4,0.00282227,0.00046457,-0.00009095,-0.00008084,-0.00268758,0.13861760
 ,-0.08956137,0.21275042,0.00024648,0.00016347,0.00004630,0.00059316,0.
 00090421,0.00021117,0.00000737,-0.00000735,0.00000207,-0.00473000,0.00
 012773,-0.00324437,-0.00008620,0.00020108,-0.00025742,-0.00002385,-0.0
 0000561,0.00001780,0.00001872,0.00001316,-0.00002064,0.00000603,-0.000
 02791,0.00001173,-0.00110143,0.02931790,-0.00396584,-0.00005073,-0.000
 19031,0.00012241,-0.00000545,-0.00001193,0.00000866,0.00000540,-0.0000
 0271,-0.00001117,0.00097614,-0.00077556,-0.00043578,-0.00088335,0.0011
 6160,-0.00012137,-0.00000907,-0.00002166,0.00004300,0.00000662,0.00000
 564,-0.00000773,-0.00003800,-0.00004005,0.00002801,-0.00000407,0.00000
 505,-0.00001555,-0.00009276,-0.00027856,0.00016290,-0.00000251,0.00004
 373,-0.00006867,0.00004749,-0.00001754,-0.00000029,-0.00002972,-0.0001
 1336,-0.00013594,0.00044278,-0.00197489,0.00207783,0.00185975,0.000861
 79,-0.00149911,-0.02350231,-0.05489910,-0.01583853,0.02634954,-0.00007
 198,-0.00021406,0.00004019,-0.00045587,-0.00061040,-0.00036095,0.00006
 335,-0.00003850,0.00001602,0.00138556,-0.00039994,0.00269338,0.0001355
 3,0.00000219,0.00012457,0.00002605,-0.00001156,-0.00000575,0.00001868,
 -0.00001750,0.00006145,-0.00000753,0.00001808,-0.00001284,-0.00412952,
 -0.01092045,-0.00399020,-0.00000620,0.00055989,-0.00005425,-0.00000166
 ,-0.00000190,0.00000510,-0.00000083,0.00000223,0.00001398,-0.00139566,
 0.00194088,-0.00079577,-0.00038721,0.00028753,-0.00077580,-0.00004640,
 0.00004147,-0.00009013,0.00000497,-0.00000056,0.00001477,-0.00007729,0
 .00005312,-0.00004947,0.00001865,0.00000021,0.00001954,-0.00020044,0.0
 0017043,-0.00026353,0.00004500,0.00006425,0.00001494,-0.00004815,0.000
 31276,-0.00001882,-0.00000897,-0.00006691,0.00011157,0.00104550,0.0010
 2137,-0.00025814,0.00016818,-0.00061218,-0.00029896,-0.02163494,-0.547
 56263,0.04594235,0.02556115,0.55598218,0.00018455,0.00015295,0.0000881
 9,0.00040091,0.00195675,0.00069216,-0.00004764,0.00001221,0.00001041,-
 0.00380803,0.00178856,-0.00532924,-0.00021226,0.00014730,-0.00049990,-
 0.00001628,-0.00002851,-0.00002430,-0.00002964,0.00005232,-0.00002856,
 0.00000752,-0.00003121,0.00000496,0.00054167,0.03408968,-0.00490376,-0
 .00012210,-0.00007616,0.00010027,0.00000257,0.00001289,-0.00000414,-0.
 00001716,-0.00001075,-0.00001415,0.00094121,0.00029474,-0.00002672,-0.
 00018109,-0.00048582,0.00064688,0.00004894,-0.00005462,0.00003876,-0.0
 0000818,0.00001311,-0.00001218,0.00004557,-0.00005134,-0.00001351,-0.0
 0002128,0.00000941,0.00000517,0.00008327,-0.00022045,0.00000462,-0.000
 03218,-0.00002382,0.00001572,0.00017988,-0.00062235,0.00008669,-0.0000
 0049,0.00021716,-0.00007869,-0.00054907,-0.00027139,0.00007431,0.00004
 951,0.00000776,-0.00017429,-0.02033074,0.00520481,-0.02350134,0.022890
 54,-0.04208325,0.03284264\\0.00001528,0.00002509,-0.00002012,-0.000016
 54,-0.00000996,0.00003406,0.00001418,0.00000995,-0.00000693,-0.0000141
 4,0.00000153,0.00001256,-0.00001580,0.00000155,0.00000773,0.00001645,0
 .00000674,-0.00000118,0.00003294,-0.00002308,0.00001097,0.00000056,-0.
 00001206,-0.00000039,-0.00003342,0.00000105,-0.00002706,-0.00000145,-0
 .00000463,-0.00001125,-0.00001434,-0.00000115,0.00000634,0.00000097,0.
 00001099,0.00000387,-0.00000094,0.00000748,0.00000858,0.00001304,0.000
 00610,-0.00000427,-0.00001339,0.00000318,-0.00003437,-0.00000214,0.000
 01094,0.00003096,-0.00002129,0.00001251,-0.00003240,0.00001053,-0.0000
 1654,0.00003060,-0.00002509,-0.00002271,0.00001045,0.00001719,0.000002
 63,-0.00000805,0.00002937,-0.00000156,-0.00002317,-0.00001687,-0.00000
 549,0.00000449,0.00002122,-0.00002543,0.00002080,-0.00001063,0.0000214
 4,-0.00002717,0.00001223,-0.00003145,0.00001649,0.00000210,0.00003287,
 -0.00000155\\\@
 The archive entry for this job was punched.


 NATURE REVEALS EVERY SECRET ONCE.
                    - RALPH WALDO EMERSON
 Job cpu time:       0 days  9 hours 23 minutes 20.8 seconds.
 Elapsed time:       0 days  0 hours 35 minutes 21.5 seconds.
 File lengths (MBytes):  RWF=    704 Int=      0 D2E=      0 Chk=     27 Scr=      1
 Normal termination of Gaussian 16 at Wed Sep 27 11:57:23 2023.
