 Entering Gaussian System, Link 0=/opt/software/gaussian/g16.c01/g16
 Initial command:
 /opt/software/gaussian/g16.c01/l1.exe "/scratch/arhender/14836899/Gau-10926.inp" -scrdir="/scratch/arhender/14836899/"
 Entering Link 1 = /opt/software/gaussian/g16.c01/l1.exe PID=     11000.
  
 Copyright (c) 1988-2019, Gaussian, Inc.  All Rights Reserved.
  
 This is part of the Gaussian(R) 16 program.  It is based on
 the Gaussian(R) 09 system (copyright 2009, Gaussian, Inc.),
 the Gaussian(R) 03 system (copyright 2003, Gaussian, Inc.),
 the Gaussian(R) 98 system (copyright 1998, Gaussian, Inc.),
 the Gaussian(R) 94 system (copyright 1995, Gaussian, Inc.),
 the Gaussian 92(TM) system (copyright 1992, Gaussian, Inc.),
 the Gaussian 90(TM) system (copyright 1990, Gaussian, Inc.),
 the Gaussian 88(TM) system (copyright 1988, Gaussian, Inc.),
 the Gaussian 86(TM) system (copyright 1986, Carnegie Mellon
 University), and the Gaussian 82(TM) system (copyright 1983,
 Carnegie Mellon University). Gaussian is a federally registered
 trademark of Gaussian, Inc.
  
 This software contains proprietary and confidential information,
 including trade secrets, belonging to Gaussian, Inc.
  
 This software is provided under written license and may be
 used, copied, transmitted, or stored only in accord with that
 written license.
  
 The following legend is applicable only to US Government
 contracts under FAR:
  
                    RESTRICTED RIGHTS LEGEND
  
 Use, reproduction and disclosure by the US Government is
 subject to restrictions as set forth in subparagraphs (a)
 and (c) of the Commercial Computer Software - Restricted
 Rights clause in FAR 52.227-19.
  
 Gaussian, Inc.
 340 Quinnipiac St., Bldg. 40, Wallingford CT 06492
  
  
 ---------------------------------------------------------------
 Warning -- This program may not be used in any manner that
 competes with the business of Gaussian, Inc. or will provide
 assistance to any competitor of Gaussian, Inc.  The licensee
 of this program is prohibited from giving any competitor of
 Gaussian, Inc. access to this program.  By using this program,
 the user acknowledges that Gaussian, Inc. is engaged in the
 business of creating and licensing software in the field of
 computational chemistry and represents and warrants to the
 licensee that it is not a competitor of Gaussian, Inc. and that
 it will not use this program in any manner prohibited above.
 ---------------------------------------------------------------
  

 Cite this work as:
 Gaussian 16, Revision C.01,
 M. J. Frisch, G. W. Trucks, H. B. Schlegel, G. E. Scuseria, 
 M. A. Robb, J. R. Cheeseman, G. Scalmani, V. Barone, 
 G. A. Petersson, H. Nakatsuji, X. Li, M. Caricato, A. V. Marenich, 
 J. Bloino, B. G. Janesko, R. Gomperts, B. Mennucci, H. P. Hratchian, 
 J. V. Ortiz, A. F. Izmaylov, J. L. Sonnenberg, D. Williams-Young, 
 F. Ding, F. Lipparini, F. Egidi, J. Goings, B. Peng, A. Petrone, 
 T. Henderson, D. Ranasinghe, V. G. Zakrzewski, J. Gao, N. Rega, 
 G. Zheng, W. Liang, M. Hada, M. Ehara, K. Toyota, R. Fukuda, 
 J. Hasegawa, M. Ishida, T. Nakajima, Y. Honda, O. Kitao, H. Nakai, 
 T. Vreven, K. Throssell, J. A. Montgomery, Jr., J. E. Peralta, 
 F. Ogliaro, M. J. Bearpark, J. J. Heyd, E. N. Brothers, K. N. Kudin, 
 V. N. Staroverov, T. A. Keith, R. Kobayashi, J. Normand, 
 K. Raghavachari, A. P. Rendell, J. C. Burant, S. S. Iyengar, 
 J. Tomasi, M. Cossi, J. M. Millam, M. Klene, C. Adamo, R. Cammi, 
 J. W. Ochterski, R. L. Martin, K. Morokuma, O. Farkas, 
 J. B. Foresman, and D. J. Fox, Gaussian, Inc., Wallingford CT, 2019.
 
 ******************************************
 Gaussian 16:  ES64L-G16RevC.01  3-Jul-2019
                11-Oct-2023 
 ******************************************
 %chk=MannitolConformerOpt_49.chk
 %mem=8GB
 %nprocs=16
 Will use up to   16 processors via shared memory.
 ---------------------------------------------
 # opt freq wb97xd/Def2TZVPP geom=connectivity
 ---------------------------------------------
 1/18=20,19=15,26=3,38=1,57=2/1,3;
 2/9=110,12=2,17=6,18=5,40=1/2;
 3/5=44,7=202,11=2,25=1,30=1,71=1,74=-58/1,2,3;
 4//1;
 5/5=2,38=5/2;
 6/7=2,8=2,9=2,10=2,28=1/1;
 7//1,2,3,16;
 1/18=20,19=15,26=3/3(2);
 2/9=110/2;
 99//99;
 2/9=110/2;
 3/5=44,7=202,11=2,25=1,30=1,71=1,74=-58/1,2,3;
 4/5=5,16=3,69=1/1;
 5/5=2,38=5/2;
 7//1,2,3,16;
 1/18=20,19=15,26=3/3(-5);
 2/9=110/2;
 6/7=2,8=2,9=2,10=2,19=2,28=1/1;
 99/9=1/99;
 -------------------
 Title Card Required
 -------------------
 Symbolic Z-matrix:
 Charge =  0 Multiplicity = 1
 C                     0.        0.        0. 
 C                     1.5438    0.        0. 
 C                    -0.6552    0.9601   -1.0179 
 C                     2.1568   -0.7787    1.1809 
 H                     1.927     1.0262    0. 
 H                    -0.3723    0.2842    0.9905 
 C                    -0.3365    0.6967   -2.4958 
 H                    -0.371     1.9884   -0.7668 
 C                     1.9696   -0.0936    2.5364 
 H                     3.2254   -0.9447    0.9973 
 H                    -1.0428    1.249    -3.1256 
 H                    -0.4534   -0.3607   -2.7574 
 H                     0.9133   -0.0017    2.8027 
 H                     2.4438    0.8921    2.5515 
 O                     0.9715    1.1304   -2.8502 
 H                     1.5921    0.4627   -2.4847 
 O                    -2.0796    0.8495   -0.8365 
 H                    -2.259    -0.1131   -0.8242 
 O                    -0.508    -1.3285   -0.2456 
 H                    -0.0137   -1.9247    0.3613 
 O                     2.0054   -0.6352   -1.2094 
 H                     1.7033   -1.566    -1.1423 
 O                     1.5661   -2.094     1.2448 
 H                     1.9456   -2.4841    2.0627 
 O                     2.5807   -0.9191    3.5311 
 H                     2.4917   -0.4537    4.3827 
 

 GradGradGradGradGradGradGradGradGradGradGradGradGradGradGradGradGradGrad
 Berny optimization.
 Initialization pass.
                           ----------------------------
                           !    Initial Parameters    !
                           ! (Angstroms and Degrees)  !
 --------------------------                            --------------------------
 ! Name  Definition              Value          Derivative Info.                !
 --------------------------------------------------------------------------------
 ! R1    R(1,2)                  1.5438         estimate D2E/DX2                !
 ! R2    R(1,3)                  1.5451         estimate D2E/DX2                !
 ! R3    R(1,6)                  1.0957         estimate D2E/DX2                !
 ! R4    R(1,19)                 1.4434         estimate D2E/DX2                !
 ! R5    R(2,4)                  1.5416         estimate D2E/DX2                !
 ! R6    R(2,5)                  1.0954         estimate D2E/DX2                !
 ! R7    R(2,21)                 1.4419         estimate D2E/DX2                !
 ! R8    R(3,7)                  1.5346         estimate D2E/DX2                !
 ! R9    R(3,8)                  1.096          estimate D2E/DX2                !
 ! R10   R(3,17)                 1.4402         estimate D2E/DX2                !
 ! R11   R(4,9)                  1.5303         estimate D2E/DX2                !
 ! R12   R(4,10)                 1.0969         estimate D2E/DX2                !
 ! R13   R(4,23)                 1.4433         estimate D2E/DX2                !
 ! R14   R(7,11)                 1.0957         estimate D2E/DX2                !
 ! R15   R(7,12)                 1.0955         estimate D2E/DX2                !
 ! R16   R(7,15)                 1.4229         estimate D2E/DX2                !
 ! R17   R(9,13)                 1.0932         estimate D2E/DX2                !
 ! R18   R(9,14)                 1.0939         estimate D2E/DX2                !
 ! R19   R(9,25)                 1.4298         estimate D2E/DX2                !
 ! R20   R(15,16)                0.9821         estimate D2E/DX2                !
 ! R21   R(17,18)                0.9793         estimate D2E/DX2                !
 ! R22   R(19,20)                0.9839         estimate D2E/DX2                !
 ! R23   R(21,22)                0.9809         estimate D2E/DX2                !
 ! R24   R(23,24)                0.9824         estimate D2E/DX2                !
 ! R25   R(25,26)                0.9745         estimate D2E/DX2                !
 ! A1    A(2,1,3)              115.0913         estimate D2E/DX2                !
 ! A2    A(2,1,6)              109.8644         estimate D2E/DX2                !
 ! A3    A(2,1,19)             110.607          estimate D2E/DX2                !
 ! A4    A(3,1,6)              106.876          estimate D2E/DX2                !
 ! A5    A(3,1,19)             108.0952         estimate D2E/DX2                !
 ! A6    A(6,1,19)             105.8416         estimate D2E/DX2                !
 ! A7    A(1,2,4)              113.4299         estimate D2E/DX2                !
 ! A8    A(1,2,5)              110.4765         estimate D2E/DX2                !
 ! A9    A(1,2,21)             108.6704         estimate D2E/DX2                !
 ! A10   A(4,2,5)              109.5176         estimate D2E/DX2                !
 ! A11   A(4,2,21)             107.0177         estimate D2E/DX2                !
 ! A12   A(5,2,21)             107.4994         estimate D2E/DX2                !
 ! A13   A(1,3,7)              116.0867         estimate D2E/DX2                !
 ! A14   A(1,3,8)              108.791          estimate D2E/DX2                !
 ! A15   A(1,3,17)             106.7812         estimate D2E/DX2                !
 ! A16   A(7,3,8)              109.1363         estimate D2E/DX2                !
 ! A17   A(7,3,17)             108.2713         estimate D2E/DX2                !
 ! A18   A(8,3,17)             107.4374         estimate D2E/DX2                !
 ! A19   A(2,4,9)              113.8117         estimate D2E/DX2                !
 ! A20   A(2,4,10)             109.6089         estimate D2E/DX2                !
 ! A21   A(2,4,23)             109.3597         estimate D2E/DX2                !
 ! A22   A(9,4,10)             109.5841         estimate D2E/DX2                !
 ! A23   A(9,4,23)             108.5851         estimate D2E/DX2                !
 ! A24   A(10,4,23)            105.5581         estimate D2E/DX2                !
 ! A25   A(3,7,11)             109.4607         estimate D2E/DX2                !
 ! A26   A(3,7,12)             111.9291         estimate D2E/DX2                !
 ! A27   A(3,7,15)             112.2379         estimate D2E/DX2                !
 ! A28   A(11,7,12)            106.2889         estimate D2E/DX2                !
 ! A29   A(11,7,15)            107.2034         estimate D2E/DX2                !
 ! A30   A(12,7,15)            109.4396         estimate D2E/DX2                !
 ! A31   A(4,9,13)             111.8145         estimate D2E/DX2                !
 ! A32   A(4,9,14)             111.2597         estimate D2E/DX2                !
 ! A33   A(4,9,25)             107.7864         estimate D2E/DX2                !
 ! A34   A(13,9,14)            109.8606         estimate D2E/DX2                !
 ! A35   A(13,9,25)            106.98           estimate D2E/DX2                !
 ! A36   A(14,9,25)            108.9871         estimate D2E/DX2                !
 ! A37   A(7,15,16)            106.3179         estimate D2E/DX2                !
 ! A38   A(3,17,18)            104.9674         estimate D2E/DX2                !
 ! A39   A(1,19,20)            106.0186         estimate D2E/DX2                !
 ! A40   A(2,21,22)            105.1918         estimate D2E/DX2                !
 ! A41   A(4,23,24)            103.9238         estimate D2E/DX2                !
 ! A42   A(9,25,26)            107.0481         estimate D2E/DX2                !
 ! D1    D(3,1,2,4)            170.0751         estimate D2E/DX2                !
 ! D2    D(3,1,2,5)             46.6738         estimate D2E/DX2                !
 ! D3    D(3,1,2,21)           -71.0355         estimate D2E/DX2                !
 ! D4    D(6,1,2,4)             49.4109         estimate D2E/DX2                !
 ! D5    D(6,1,2,5)            -73.9904         estimate D2E/DX2                !
 ! D6    D(6,1,2,21)           168.3002         estimate D2E/DX2                !
 ! D7    D(19,1,2,4)           -67.0727         estimate D2E/DX2                !
 ! D8    D(19,1,2,5)           169.526          estimate D2E/DX2                !
 ! D9    D(19,1,2,21)           51.8167         estimate D2E/DX2                !
 ! D10   D(2,1,3,7)             61.0152         estimate D2E/DX2                !
 ! D11   D(2,1,3,8)            -62.4987         estimate D2E/DX2                !
 ! D12   D(2,1,3,17)          -178.1709         estimate D2E/DX2                !
 ! D13   D(6,1,3,7)           -176.6992         estimate D2E/DX2                !
 ! D14   D(6,1,3,8)             59.7868         estimate D2E/DX2                !
 ! D15   D(6,1,3,17)           -55.8853         estimate D2E/DX2                !
 ! D16   D(19,1,3,7)           -63.1689         estimate D2E/DX2                !
 ! D17   D(19,1,3,8)           173.3171         estimate D2E/DX2                !
 ! D18   D(19,1,3,17)           57.645          estimate D2E/DX2                !
 ! D19   D(2,1,19,20)           48.2141         estimate D2E/DX2                !
 ! D20   D(3,1,19,20)          175.0474         estimate D2E/DX2                !
 ! D21   D(6,1,19,20)          -70.7362         estimate D2E/DX2                !
 ! D22   D(1,2,4,9)            -70.3078         estimate D2E/DX2                !
 ! D23   D(1,2,4,10)           166.5889         estimate D2E/DX2                !
 ! D24   D(1,2,4,23)            51.3135         estimate D2E/DX2                !
 ! D25   D(5,2,4,9)             53.6175         estimate D2E/DX2                !
 ! D26   D(5,2,4,10)           -69.4858         estimate D2E/DX2                !
 ! D27   D(5,2,4,23)           175.2388         estimate D2E/DX2                !
 ! D28   D(21,2,4,9)           169.8572         estimate D2E/DX2                !
 ! D29   D(21,2,4,10)           46.7539         estimate D2E/DX2                !
 ! D30   D(21,2,4,23)          -68.5215         estimate D2E/DX2                !
 ! D31   D(1,2,21,22)          -64.6201         estimate D2E/DX2                !
 ! D32   D(4,2,21,22)           58.2241         estimate D2E/DX2                !
 ! D33   D(5,2,21,22)          175.7952         estimate D2E/DX2                !
 ! D34   D(1,3,7,11)           165.2104         estimate D2E/DX2                !
 ! D35   D(1,3,7,12)            47.6341         estimate D2E/DX2                !
 ! D36   D(1,3,7,15)           -75.8843         estimate D2E/DX2                !
 ! D37   D(8,3,7,11)           -71.4555         estimate D2E/DX2                !
 ! D38   D(8,3,7,12)           170.9682         estimate D2E/DX2                !
 ! D39   D(8,3,7,15)            47.4498         estimate D2E/DX2                !
 ! D40   D(17,3,7,11)           45.1982         estimate D2E/DX2                !
 ! D41   D(17,3,7,12)          -72.3781         estimate D2E/DX2                !
 ! D42   D(17,3,7,15)          164.1035         estimate D2E/DX2                !
 ! D43   D(1,3,17,18)          -48.2423         estimate D2E/DX2                !
 ! D44   D(7,3,17,18)           77.4364         estimate D2E/DX2                !
 ! D45   D(8,3,17,18)         -164.8174         estimate D2E/DX2                !
 ! D46   D(2,4,9,13)            62.6594         estimate D2E/DX2                !
 ! D47   D(2,4,9,14)           -60.5973         estimate D2E/DX2                !
 ! D48   D(2,4,9,25)           179.9664         estimate D2E/DX2                !
 ! D49   D(10,4,9,13)         -174.2238         estimate D2E/DX2                !
 ! D50   D(10,4,9,14)           62.5195         estimate D2E/DX2                !
 ! D51   D(10,4,9,25)          -56.9167         estimate D2E/DX2                !
 ! D52   D(23,4,9,13)          -59.3908         estimate D2E/DX2                !
 ! D53   D(23,4,9,14)          177.3525         estimate D2E/DX2                !
 ! D54   D(23,4,9,25)           57.9163         estimate D2E/DX2                !
 ! D55   D(2,4,23,24)         -174.9068         estimate D2E/DX2                !
 ! D56   D(9,4,23,24)          -50.1832         estimate D2E/DX2                !
 ! D57   D(10,4,23,24)          67.2491         estimate D2E/DX2                !
 ! D58   D(3,7,15,16)           75.8734         estimate D2E/DX2                !
 ! D59   D(11,7,15,16)        -163.9028         estimate D2E/DX2                !
 ! D60   D(12,7,15,16)         -49.0277         estimate D2E/DX2                !
 ! D61   D(4,9,25,26)          177.4312         estimate D2E/DX2                !
 ! D62   D(13,9,25,26)         -62.171          estimate D2E/DX2                !
 ! D63   D(14,9,25,26)          56.5614         estimate D2E/DX2                !
 --------------------------------------------------------------------------------
 Trust Radius=3.00D-01 FncErr=1.00D-07 GrdErr=1.00D-06 EigMax=2.50D+02 EigMin=1.00D-04
 Number of steps in this run=    140 maximum allowed number of steps=    156.
 GradGradGradGradGradGradGradGradGradGradGradGradGradGradGradGradGradGrad

                          Input orientation:                          
 ---------------------------------------------------------------------
 Center     Atomic      Atomic             Coordinates (Angstroms)
 Number     Number       Type             X           Y           Z
 ---------------------------------------------------------------------
      1          6           0        0.000000    0.000000    0.000000
      2          6           0        1.543800    0.000000    0.000000
      3          6           0       -0.655200    0.960100   -1.017900
      4          6           0        2.156800   -0.778700    1.180900
      5          1           0        1.927000    1.026200    0.000000
      6          1           0       -0.372300    0.284200    0.990500
      7          6           0       -0.336500    0.696700   -2.495800
      8          1           0       -0.371000    1.988400   -0.766800
      9          6           0        1.969600   -0.093600    2.536400
     10          1           0        3.225400   -0.944700    0.997300
     11          1           0       -1.042800    1.249000   -3.125600
     12          1           0       -0.453400   -0.360700   -2.757400
     13          1           0        0.913300   -0.001700    2.802700
     14          1           0        2.443800    0.892100    2.551500
     15          8           0        0.971500    1.130400   -2.850200
     16          1           0        1.592100    0.462700   -2.484700
     17          8           0       -2.079600    0.849500   -0.836500
     18          1           0       -2.259000   -0.113100   -0.824200
     19          8           0       -0.508000   -1.328500   -0.245600
     20          1           0       -0.013700   -1.924700    0.361300
     21          8           0        2.005400   -0.635200   -1.209400
     22          1           0        1.703300   -1.566000   -1.142300
     23          8           0        1.566100   -2.094000    1.244800
     24          1           0        1.945600   -2.484100    2.062700
     25          8           0        2.580700   -0.919100    3.531100
     26          1           0        2.491700   -0.453700    4.382700
 ---------------------------------------------------------------------
                    Distance matrix (angstroms):
                    1          2          3          4          5
     1  C    0.000000
     2  C    1.543800   0.000000
     3  C    1.545056   2.606437   0.000000
     4  C    2.579280   1.541644   3.970578   0.000000
     5  H    2.183212   1.095413   2.776373   2.169100   0.000000
     6  H    1.095658   2.175615   2.137883   2.749974   2.611213
     7  C    2.612975   3.201552   1.534646   4.680969   3.385413
     8  H    2.163182   2.864991   1.096003   4.223760   2.606648
     9  C    3.212695   2.573595   4.542346   1.530290   2.772921
    10  H    3.505748   2.171369   4.769523   1.096891   2.562205
    11  H    3.523749   4.244982   2.162428   5.735412   4.317259
    12  H    2.817611   3.423765   2.193421   4.743214   3.897826
    13  H    2.947753   2.872744   4.240547   2.186380   3.152664
    14  H    3.643920   2.848858   4.727477   2.180020   2.606764
    15  O    3.216404   3.119130   2.456110   4.615124   3.007903
    16  H    2.987073   2.527876   2.729334   3.911085   2.569713
    17  O    2.397106   3.814500   1.440158   4.966691   4.096803
    18  H    2.407318   3.892735   1.939446   4.895175   4.415870
    19  O    1.443363   2.456647   2.419877   3.072188   3.396197
    20  H    1.958366   2.502162   3.261255   2.587688   3.550305
    21  O    2.426470   1.441944   3.108126   2.399385   2.056464
    22  H    2.580395   1.944902   3.458205   2.494546   2.841547
    23  O    2.896037   2.436157   4.402444   1.443268   3.378672
    24  H    3.769727   3.253756   5.302525   1.931467   4.071521
    25  O    4.469164   3.793227   5.890318   2.392247   4.084138
    26  H    5.061864   4.506930   6.408455   3.235631   4.660156
                    6          7          8          9         10
     6  H    0.000000
     7  C    3.510801   0.000000
     8  H    2.447938   2.158500   0.000000
     9  C    2.831437   5.591575   4.552391   0.000000
    10  H    3.801800   5.251959   4.964798   2.161072   0.000000
    11  H    4.280501   1.095693   2.561633   6.552509   6.326781
    12  H    3.803844   1.095534   3.080187   5.828086   5.288894
    13  H    2.240218   5.488521   4.283836   1.093220   3.081319
    14  H    3.276688   5.765716   4.487325   1.093937   2.529876
    15  O    4.156059   1.422870   2.622790   5.613363   4.918268
    16  H    3.995966   1.942776   3.022036   5.065908   4.095457
    17  O    2.563663   2.411436   2.054572   5.353682   5.892792
    18  H    2.647758   2.673206   2.825622   5.401395   5.838498
    19  O    2.036457   3.032202   3.360393   3.924666   3.953527
    20  H    2.324592   3.890881   4.088108   3.466622   3.443351
    21  O    3.367241   2.985511   3.567415   3.784921   2.540416
    22  H    3.504310   3.333550   4.132491   3.971361   2.698275
    23  O    3.078620   5.039839   4.946199   2.415087   2.033574
    24  H    3.766399   6.008776   5.777193   2.437100   2.267756
    25  O    4.077105   6.887989   5.969760   1.429798   2.614658
    26  H    4.500446   7.525683   6.377794   1.952200   3.498618
                   11         12         13         14         15
    11  H    0.000000
    12  H    1.753310   0.000000
    13  H    6.366735   5.736851   0.000000
    14  H    6.671823   6.176382   1.790087   0.000000
    15  O    2.036496   2.064541   5.765442   5.603822   0.000000
    16  H    2.823423   2.221806   5.350985   5.125728   0.982119
    17  O    2.544510   2.792663   4.788086   5.651682   3.666484
    18  H    2.937839   2.656833   4.819782   5.875551   4.010873
    19  O    3.901784   2.692352   3.615608   4.633353   3.875442
    20  H    4.825960   3.516493   3.243099   4.332510   4.540703
    21  O    4.063687   2.918450   4.206061   4.082794   2.622693
    22  H    4.404403   2.951720   4.316730   4.498306   3.274603
    23  O    6.089532   4.806279   2.689037   3.375591   5.245887
    24  H    7.055851   5.787693   2.788468   3.447587   6.176574
    25  O    7.883024   7.004485   2.037747   2.063687   6.892820
    26  H    8.471508   7.724202   2.278607   2.273052   7.558785
                   16         17         18         19         20
    16  H    0.000000
    17  O    4.043211   0.000000
    18  H    4.233176   0.979252   0.000000
    19  O    3.554207   2.750050   2.208614   0.000000
    20  H    4.046973   3.660444   3.119083   0.983928   0.000000
    21  O    1.732799   4.362409   4.313476   2.779704   2.864729
    22  H    2.435165   4.498721   4.232248   2.397983   2.310318
    23  O    4.521787   5.127098   4.778715   2.666303   1.817967
    24  H    5.430234   5.976662   5.624455   3.561434   2.654533
    25  O    6.251124   6.627388   6.560562   4.896033   4.217793
    26  H    6.986433   7.059402   7.056697   5.584321   4.961102
                   21         22         23         24         25
    21  O    0.000000
    22  H    0.980895   0.000000
    23  O    2.888629   2.448643   0.000000
    24  H    3.758809   3.342700   0.982425   0.000000
    25  O    4.783713   4.798852   2.763507   2.238029   0.000000
    26  H    5.616139   5.690730   3.659745   3.130998   0.974546
                   26
    26  H    0.000000
 Stoichiometry    C6H14O6
 Framework group  C1[X(C6H14O6)]
 Deg. of freedom    72
 Full point group                 C1      NOp   1
 Largest Abelian subgroup         C1      NOp   1
 Largest concise Abelian subgroup C1      NOp   1
                         Standard orientation:                         
 ---------------------------------------------------------------------
 Center     Atomic      Atomic             Coordinates (Angstroms)
 Number     Number       Type             X           Y           Z
 ---------------------------------------------------------------------
      1          6           0        0.460836   -0.658788   -0.059287
      2          6           0       -0.300800    0.653527   -0.343993
      3          6           0        1.907728   -0.706930   -0.599089
      4          6           0       -1.803639    0.575045   -0.009356
      5          1           0       -0.173958    0.950873   -1.390619
      6          1           0       -0.073815   -1.504097   -0.506578
      7          6           0        2.871743    0.348596   -0.040810
      8          1           0        1.879778   -0.625869   -1.691732
      9          6           0       -2.603142   -0.315990   -0.962581
     10          1           0       -2.232569    1.584575   -0.003017
     11          1           0        3.902578    0.064173   -0.279610
     12          1           0        2.816739    0.416077    1.051260
     13          1           0       -2.270371   -1.356511   -0.921227
     14          1           0       -2.545946    0.051889   -1.991217
     15          8           0        2.648263    1.634870   -0.606597
     16          1           0        1.839203    1.988650   -0.176690
     17          8           0        2.428836   -2.010099   -0.276208
     18          1           0        2.211020   -2.142432    0.669297
     19          8           0        0.502312   -0.924678    1.358767
     20          1           0       -0.418816   -0.807207    1.684095
     21          8           0        0.259829    1.699593    0.474935
     22          1           0        0.067755    1.433255    1.399233
     23          8           0       -1.969090    0.075704    1.334634
     24          1           0       -2.941794   -0.021094    1.432792
     25          8           0       -3.967969   -0.296857   -0.536903
     26          1           0       -4.473607   -0.833303   -1.174317
 ---------------------------------------------------------------------
 Rotational constants (GHZ):           1.5697061           0.5139518           0.4656957
 Standard basis: def2TZVPP (5D, 7F)
 There are   642 symmetry adapted cartesian basis functions of A   symmetry.
 There are   568 symmetry adapted basis functions of A   symmetry.
   568 basis functions,   850 primitive gaussians,   642 cartesian basis functions
    49 alpha electrons       49 beta electrons
       nuclear repulsion energy       834.0128406605 Hartrees.
 NAtoms=   26 NActive=   26 NUniq=   26 SFac= 1.00D+00 NAtFMM=   60 NAOKFM=F Big=F
 Integral buffers will be    131072 words long.
 Raffenetti 2 integral format.
 Two-electron integral symmetry is turned on.
 Nuclear repulsion after empirical dispersion term =      833.9939767047 Hartrees.
 One-electron integrals computed using PRISM.
   1 Symmetry operations used in ECPInt.
 ECPInt:  NShTT=   23436 NPrTT=   62434 LenC2=   21865 LenP2D=   45534.
 LDataN:  DoStor=T MaxTD1= 6 Len=  172
 NBasis=   568 RedAO= T EigKep=  4.48D-05  NBF=   568
 NBsUse=   568 1.00D-06 EigRej= -1.00D+00 NBFU=   568
 ExpMin= 9.52D-02 ExpMax= 2.70D+04 ExpMxC= 9.22D+02 IAcc=3 IRadAn=         5 AccDes= 0.00D+00
 Harris functional with IExCor= 4639 and IRadAn=       5 diagonalized for initial guess.
 HarFok:  IExCor= 4639 AccDes= 0.00D+00 IRadAn=         5 IDoV= 1 UseB2=F ITyADJ=14
 ICtDFT=  3500011 ScaDFX=  1.000000  1.000000  1.000000  1.000000
 FoFCou: FMM=F IPFlag=           0 FMFlag=      100000 FMFlg1=           0
         NFxFlg=           0 DoJE=T BraDBF=F KetDBF=T FulRan=T
         wScrn=  0.000000 ICntrl=       500 IOpCl=  0 I1Cent=   200000004 NGrid=           0
         NMat0=    1 NMatS0=      1 NMatT0=    0 NMatD0=    1 NMtDS0=    0 NMtDT0=    0
 Petite list used in FoFCou.
 Requested convergence on RMS density matrix=1.00D-08 within 128 cycles.
 Requested convergence on MAX density matrix=1.00D-06.
 Requested convergence on             energy=1.00D-06.
 No special actions if energy rises.
 Integral accuracy reduced to 1.0D-05 until final iterations.
 Initial convergence to 1.0D-05 achieved.  Increase integral accuracy.
 SCF Done:  E(RwB97XD) =  -688.469731663     A.U. after   14 cycles
            NFock= 14  Conv=0.16D-08     -V/T= 2.0050

 **********************************************************************

            Population analysis using the SCF Density.

 **********************************************************************

 Orbital symmetries:
       Occupied  (A) (A) (A) (A) (A) (A) (A) (A) (A) (A) (A) (A)
                 (A) (A) (A) (A) (A) (A) (A) (A) (A) (A) (A) (A)
                 (A) (A) (A) (A) (A) (A) (A) (A) (A) (A) (A) (A)
                 (A) (A) (A) (A) (A) (A) (A) (A) (A) (A) (A) (A)
                 (A)
       Virtual   (A) (A) (A) (A) (A) (A) (A) (A) (A) (A) (A) (A)
                 (A) (A) (A) (A) (A) (A) (A) (A) (A) (A) (A) (A)
                 (A) (A) (A) (A) (A) (A) (A) (A) (A) (A) (A) (A)
                 (A) (A) (A) (A) (A) (A) (A) (A) (A) (A) (A) (A)
                 (A) (A) (A) (A) (A) (A) (A) (A) (A) (A) (A) (A)
                 (A) (A) (A) (A) (A) (A) (A) (A) (A) (A) (A) (A)
                 (A) (A) (A) (A) (A) (A) (A) (A) (A) (A) (A) (A)
                 (A) (A) (A) (A) (A) (A) (A) (A) (A) (A) (A) (A)
                 (A) (A) (A) (A) (A) (A) (A) (A) (A) (A) (A) (A)
                 (A) (A) (A) (A) (A) (A) (A) (A) (A) (A) (A) (A)
                 (A) (A) (A) (A) (A) (A) (A) (A) (A) (A) (A) (A)
                 (A) (A) (A) (A) (A) (A) (A) (A) (A) (A) (A) (A)
                 (A) (A) (A) (A) (A) (A) (A) (A) (A) (A) (A) (A)
                 (A) (A) (A) (A) (A) (A) (A) (A) (A) (A) (A) (A)
                 (A) (A) (A) (A) (A) (A) (A) (A) (A) (A) (A) (A)
                 (A) (A) (A) (A) (A) (A) (A) (A) (A) (A) (A) (A)
                 (A) (A) (A) (A) (A) (A) (A) (A) (A) (A) (A) (A)
                 (A) (A) (A) (A) (A) (A) (A) (A) (A) (A) (A) (A)
                 (A) (A) (A) (A) (A) (A) (A) (A) (A) (A) (A) (A)
                 (A) (A) (A) (A) (A) (A) (A) (A) (A) (A) (A) (A)
                 (A) (A) (A) (A) (A) (A) (A) (A) (A) (A) (A) (A)
                 (A) (A) (A) (A) (A) (A) (A) (A) (A) (A) (A) (A)
                 (A) (A) (A) (A) (A) (A) (A) (A) (A) (A) (A) (A)
                 (A) (A) (A) (A) (A) (A) (A) (A) (A) (A) (A) (A)
                 (A) (A) (A) (A) (A) (A) (A) (A) (A) (A) (A) (A)
                 (A) (A) (A) (A) (A) (A) (A) (A) (A) (A) (A) (A)
                 (A) (A) (A) (A) (A) (A) (A) (A) (A) (A) (A) (A)
                 (A) (A) (A) (A) (A) (A) (A) (A) (A) (A) (A) (A)
                 (A) (A) (A) (A) (A) (A) (A) (A) (A) (A) (A) (A)
                 (A) (A) (A) (A) (A) (A) (A) (A) (A) (A) (A) (A)
                 (A) (A) (A) (A) (A) (A) (A) (A) (A) (A) (A) (A)
                 (A) (A) (A) (A) (A) (A) (A) (A) (A) (A) (A) (A)
                 (A) (A) (A) (A) (A) (A) (A) (A) (A) (A) (A) (A)
                 (A) (A) (A) (A) (A) (A) (A) (A) (A) (A) (A) (A)
                 (A) (A) (A) (A) (A) (A) (A) (A) (A) (A) (A) (A)
                 (A) (A) (A) (A) (A) (A) (A) (A) (A) (A) (A) (A)
                 (A) (A) (A) (A) (A) (A) (A) (A) (A) (A) (A) (A)
                 (A) (A) (A) (A) (A) (A) (A) (A) (A) (A) (A) (A)
                 (A) (A) (A) (A) (A) (A) (A) (A) (A) (A) (A) (A)
                 (A) (A) (A) (A) (A) (A) (A) (A) (A) (A) (A) (A)
                 (A) (A) (A) (A) (A) (A) (A) (A) (A) (A) (A) (A)
                 (A) (A) (A) (A) (A) (A) (A) (A) (A) (A) (A) (A)
                 (A) (A) (A) (A) (A) (A) (A) (A) (A) (A) (A) (A)
                 (A) (A) (A)
 The electronic state is 1-A.
 Alpha  occ. eigenvalues --  -19.29087 -19.28616 -19.27858 -19.25558 -19.23936
 Alpha  occ. eigenvalues --  -19.21525 -10.37038 -10.36835 -10.36298 -10.34955
 Alpha  occ. eigenvalues --  -10.33321 -10.30943  -1.17763  -1.15713  -1.14103
 Alpha  occ. eigenvalues --   -1.12765  -1.10366  -1.08744  -0.90206  -0.85115
 Alpha  occ. eigenvalues --   -0.80083  -0.76198  -0.71283  -0.68619  -0.67009
 Alpha  occ. eigenvalues --   -0.63240  -0.61954  -0.59459  -0.58997  -0.57867
 Alpha  occ. eigenvalues --   -0.56976  -0.55592  -0.53923  -0.52868  -0.52144
 Alpha  occ. eigenvalues --   -0.49534  -0.48797  -0.48110  -0.47410  -0.44599
 Alpha  occ. eigenvalues --   -0.44349  -0.42651  -0.40488  -0.39704  -0.39679
 Alpha  occ. eigenvalues --   -0.38182  -0.37470  -0.36541  -0.32706
 Alpha virt. eigenvalues --    0.07235   0.10182   0.10856   0.12496   0.13390
 Alpha virt. eigenvalues --    0.14413   0.15234   0.16704   0.17244   0.17795
 Alpha virt. eigenvalues --    0.19019   0.20047   0.20387   0.20970   0.22312
 Alpha virt. eigenvalues --    0.22790   0.24058   0.24643   0.26032   0.26959
 Alpha virt. eigenvalues --    0.27960   0.29280   0.30472   0.30542   0.33474
 Alpha virt. eigenvalues --    0.33895   0.34775   0.36266   0.36848   0.37662
 Alpha virt. eigenvalues --    0.37992   0.38562   0.39812   0.40567   0.41035
 Alpha virt. eigenvalues --    0.41568   0.42539   0.43377   0.43719   0.44227
 Alpha virt. eigenvalues --    0.45311   0.45905   0.46493   0.47341   0.48117
 Alpha virt. eigenvalues --    0.48757   0.49028   0.49985   0.50404   0.51328
 Alpha virt. eigenvalues --    0.51988   0.52681   0.53367   0.53905   0.54624
 Alpha virt. eigenvalues --    0.55516   0.56665   0.57447   0.57939   0.58867
 Alpha virt. eigenvalues --    0.59669   0.61129   0.61614   0.62997   0.63798
 Alpha virt. eigenvalues --    0.64281   0.64881   0.64926   0.67620   0.68621
 Alpha virt. eigenvalues --    0.69582   0.70938   0.71114   0.72325   0.74755
 Alpha virt. eigenvalues --    0.75950   0.76583   0.77329   0.78870   0.79887
 Alpha virt. eigenvalues --    0.81342   0.82851   0.83198   0.84805   0.85642
 Alpha virt. eigenvalues --    0.86672   0.87470   0.89511   0.90196   0.91054
 Alpha virt. eigenvalues --    0.91210   0.92582   0.93819   0.94529   0.96377
 Alpha virt. eigenvalues --    0.96888   0.98069   0.99124   0.99986   1.01304
 Alpha virt. eigenvalues --    1.02520   1.03269   1.05096   1.05684   1.07489
 Alpha virt. eigenvalues --    1.08288   1.09786   1.10383   1.11582   1.12884
 Alpha virt. eigenvalues --    1.13832   1.15473   1.16230   1.17178   1.18796
 Alpha virt. eigenvalues --    1.20472   1.20988   1.21717   1.22568   1.24060
 Alpha virt. eigenvalues --    1.24843   1.26113   1.27753   1.28436   1.29918
 Alpha virt. eigenvalues --    1.30783   1.32397   1.34166   1.34721   1.35144
 Alpha virt. eigenvalues --    1.36487   1.36905   1.37024   1.39052   1.40733
 Alpha virt. eigenvalues --    1.41369   1.42966   1.43782   1.45424   1.46747
 Alpha virt. eigenvalues --    1.47345   1.48571   1.49711   1.50167   1.51372
 Alpha virt. eigenvalues --    1.52365   1.54332   1.54942   1.56082   1.58957
 Alpha virt. eigenvalues --    1.59863   1.60775   1.61603   1.63045   1.64442
 Alpha virt. eigenvalues --    1.67032   1.67231   1.69194   1.72005   1.73553
 Alpha virt. eigenvalues --    1.75031   1.76383   1.76921   1.81094   1.82789
 Alpha virt. eigenvalues --    1.86591   1.88007   1.89967   1.91915   1.92929
 Alpha virt. eigenvalues --    1.94269   1.95258   1.97922   1.99086   2.00143
 Alpha virt. eigenvalues --    2.00654   2.02314   2.04027   2.04316   2.04656
 Alpha virt. eigenvalues --    2.07348   2.08908   2.09277   2.09918   2.11104
 Alpha virt. eigenvalues --    2.13751   2.14369   2.15345   2.16643   2.17431
 Alpha virt. eigenvalues --    2.18520   2.20086   2.20793   2.24211   2.26483
 Alpha virt. eigenvalues --    2.29624   2.29987   2.30886   2.31466   2.33381
 Alpha virt. eigenvalues --    2.34694   2.35994   2.37216   2.38768   2.41099
 Alpha virt. eigenvalues --    2.43797   2.46789   2.49065   2.50645   2.52657
 Alpha virt. eigenvalues --    2.54097   2.55285   2.59282   2.61242   2.62921
 Alpha virt. eigenvalues --    2.65511   2.66555   2.67379   2.69104   2.69611
 Alpha virt. eigenvalues --    2.70912   2.73225   2.74016   2.76499   2.77552
 Alpha virt. eigenvalues --    2.79056   2.79853   2.80185   2.80763   2.83300
 Alpha virt. eigenvalues --    2.84830   2.86114   2.87539   2.90241   2.91301
 Alpha virt. eigenvalues --    2.92790   2.94110   2.95181   2.96357   2.97699
 Alpha virt. eigenvalues --    2.99229   3.00554   3.01218   3.02410   3.05216
 Alpha virt. eigenvalues --    3.06142   3.06612   3.08288   3.09480   3.11899
 Alpha virt. eigenvalues --    3.13258   3.13939   3.14190   3.15290   3.15774
 Alpha virt. eigenvalues --    3.17558   3.18403   3.19302   3.20012   3.20921
 Alpha virt. eigenvalues --    3.22503   3.23171   3.24435   3.24802   3.25578
 Alpha virt. eigenvalues --    3.28027   3.29561   3.29791   3.31876   3.32913
 Alpha virt. eigenvalues --    3.33533   3.33955   3.35960   3.36295   3.37030
 Alpha virt. eigenvalues --    3.38895   3.39898   3.40452   3.40597   3.41278
 Alpha virt. eigenvalues --    3.43334   3.43620   3.44754   3.46853   3.48631
 Alpha virt. eigenvalues --    3.49505   3.51491   3.51679   3.52838   3.53848
 Alpha virt. eigenvalues --    3.54584   3.56197   3.57287   3.58653   3.58976
 Alpha virt. eigenvalues --    3.59933   3.62461   3.63448   3.64932   3.65953
 Alpha virt. eigenvalues --    3.67309   3.68709   3.69578   3.70278   3.71269
 Alpha virt. eigenvalues --    3.71849   3.73750   3.75805   3.76609   3.77597
 Alpha virt. eigenvalues --    3.78608   3.80579   3.80907   3.82442   3.84516
 Alpha virt. eigenvalues --    3.85273   3.86586   3.87025   3.88669   3.89997
 Alpha virt. eigenvalues --    3.90646   3.92327   3.92707   3.94269   3.95071
 Alpha virt. eigenvalues --    3.95997   3.97015   3.98762   3.98999   4.01236
 Alpha virt. eigenvalues --    4.02035   4.02759   4.03263   4.04648   4.06151
 Alpha virt. eigenvalues --    4.06491   4.08605   4.09514   4.10360   4.11087
 Alpha virt. eigenvalues --    4.12846   4.14214   4.15177   4.16025   4.16568
 Alpha virt. eigenvalues --    4.17286   4.18147   4.19867   4.21964   4.23485
 Alpha virt. eigenvalues --    4.25190   4.25456   4.26110   4.27907   4.28542
 Alpha virt. eigenvalues --    4.29749   4.31286   4.31963   4.32769   4.33629
 Alpha virt. eigenvalues --    4.35783   4.36549   4.37943   4.40108   4.41025
 Alpha virt. eigenvalues --    4.41862   4.43491   4.43748   4.46105   4.49062
 Alpha virt. eigenvalues --    4.49425   4.51731   4.52016   4.53539   4.55030
 Alpha virt. eigenvalues --    4.55741   4.58759   4.59774   4.60701   4.61340
 Alpha virt. eigenvalues --    4.61769   4.63205   4.65760   4.69314   4.72150
 Alpha virt. eigenvalues --    4.72709   4.74897   4.77456   4.78206   4.79428
 Alpha virt. eigenvalues --    4.80603   4.82097   4.83930   4.86612   4.88716
 Alpha virt. eigenvalues --    4.89802   4.90091   4.94359   4.96541   4.98049
 Alpha virt. eigenvalues --    4.99668   5.00587   5.02703   5.03547   5.05524
 Alpha virt. eigenvalues --    5.06784   5.07211   5.09168   5.11469   5.12264
 Alpha virt. eigenvalues --    5.13430   5.16155   5.17216   5.18927   5.20126
 Alpha virt. eigenvalues --    5.21231   5.22614   5.23507   5.27532   5.28016
 Alpha virt. eigenvalues --    5.30425   5.33397   5.35023   5.41379   5.42462
 Alpha virt. eigenvalues --    5.45603   5.47639   5.54363   5.55196   5.56102
 Alpha virt. eigenvalues --    5.59230   5.61775   5.62332   5.64771   5.65478
 Alpha virt. eigenvalues --    5.67062   5.68808   5.70040   5.71888   5.73450
 Alpha virt. eigenvalues --    5.77688   5.78515   5.79954   5.82098   5.84925
 Alpha virt. eigenvalues --    5.87297   5.88577   5.90589   5.92767   5.94852
 Alpha virt. eigenvalues --    6.00571   6.00805   6.05573   6.10474   6.12000
 Alpha virt. eigenvalues --    6.13118   6.15155   6.18030   6.18575   6.49916
 Alpha virt. eigenvalues --    6.52265   6.52990   6.55575   6.56332   6.65345
 Alpha virt. eigenvalues --    6.69484   6.71319   6.73532   6.75385   6.75432
 Alpha virt. eigenvalues --    6.76917   6.79240   6.79593   6.80779   6.81418
 Alpha virt. eigenvalues --    6.84835   6.86409   6.86935   6.88289   6.90004
 Alpha virt. eigenvalues --    6.92531   6.94455   6.96242   6.97433   6.99465
 Alpha virt. eigenvalues --    7.02981   7.03926   7.06658   7.09897   7.13797
 Alpha virt. eigenvalues --    7.20565   7.21910   7.23303   7.24560   7.29060
 Alpha virt. eigenvalues --    7.39894   7.44625   7.44860   7.45729   7.47828
 Alpha virt. eigenvalues --    7.49487   7.52962   7.54744   7.58831   7.63459
 Alpha virt. eigenvalues --    7.68407   7.72636  23.07328  23.15444  23.19774
 Alpha virt. eigenvalues --   23.22868  23.41875  23.46340  44.10030  44.15506
 Alpha virt. eigenvalues --   44.22377  44.24719  44.36004  44.41957
          Condensed to atoms (all electrons):
               1          2          3          4          5          6
     1  C    5.014273   0.217523   0.332127  -0.025303  -0.045604   0.427818
     2  C    0.217523   5.036815  -0.036971   0.192236   0.406158  -0.033628
     3  C    0.332127  -0.036971   4.872629  -0.007320  -0.003372  -0.038510
     4  C   -0.025303   0.192236  -0.007320   5.057798  -0.005666  -0.003714
     5  H   -0.045604   0.406158  -0.003372  -0.005666   0.554106   0.004093
     6  H    0.427818  -0.033628  -0.038510  -0.003714   0.004093   0.593450
     7  C   -0.024667   0.005670   0.291798   0.001576   0.000506   0.005568
     8  H   -0.027425  -0.011662   0.385419   0.000586   0.003585  -0.005995
     9  C    0.009125  -0.026803   0.001747   0.266661  -0.008221  -0.008081
    10  H    0.008739  -0.030444   0.000044   0.415682  -0.002488   0.000085
    11  H    0.008852   0.000773  -0.044467   0.000063  -0.000074  -0.000351
    12  H   -0.023240   0.002420  -0.052056   0.000040   0.000835   0.000191
    13  H    0.002317   0.004868   0.000577  -0.029528   0.000349  -0.000159
    14  H   -0.002464   0.006424   0.000499  -0.054323   0.001195   0.000297
    15  O   -0.021715   0.033789  -0.058186   0.003021   0.005941  -0.001237
    16  H    0.004939  -0.002028   0.004486  -0.000209  -0.003631  -0.000075
    17  O   -0.031635   0.009095   0.252016  -0.000182   0.000199   0.012754
    18  H   -0.014168   0.001361  -0.048559  -0.000277   0.000029  -0.003735
    19  O    0.234417  -0.031034  -0.051763   0.000217   0.004353  -0.036331
    20  H   -0.026138  -0.001011   0.006166  -0.004342  -0.000320  -0.007145
    21  O   -0.026642   0.176879  -0.005003  -0.015413  -0.022216   0.003705
    22  H   -0.017449  -0.031040  -0.003769   0.003110   0.007684   0.001372
    23  O    0.002617  -0.048436   0.000998   0.204357   0.002174   0.000729
    24  H    0.000601   0.006868   0.000039  -0.028595  -0.000342  -0.000228
    25  O    0.000007   0.007454  -0.000012  -0.065538   0.000009  -0.000275
    26  H    0.000101  -0.001890  -0.000007   0.009007   0.000006  -0.000035
               7          8          9         10         11         12
     1  C   -0.024667  -0.027425   0.009125   0.008739   0.008852  -0.023240
     2  C    0.005670  -0.011662  -0.026803  -0.030444   0.000773   0.002420
     3  C    0.291798   0.385419   0.001747   0.000044  -0.044467  -0.052056
     4  C    0.001576   0.000586   0.266661   0.415682   0.000063   0.000040
     5  H    0.000506   0.003585  -0.008221  -0.002488  -0.000074   0.000835
     6  H    0.005568  -0.005995  -0.008081   0.000085  -0.000351   0.000191
     7  C    4.715731  -0.025978  -0.000232  -0.000188   0.421118   0.432843
     8  H   -0.025978   0.624224   0.000012   0.000045  -0.008448   0.010212
     9  C   -0.000232   0.000012   4.750940  -0.017610  -0.000004   0.000010
    10  H   -0.000188   0.000045  -0.017610   0.544180  -0.000003   0.000023
    11  H    0.421118  -0.008448  -0.000004  -0.000003   0.582533  -0.033721
    12  H    0.432843   0.010212   0.000010   0.000023  -0.033721   0.623549
    13  H   -0.000092   0.000140   0.419451   0.006811   0.000001   0.000000
    14  H    0.000038  -0.000120   0.442135  -0.007176   0.000000  -0.000002
    15  O    0.265347   0.012465   0.000092  -0.000016  -0.027957  -0.042817
    16  H   -0.036727  -0.002350  -0.000028   0.000142   0.006283  -0.014371
    17  O   -0.038177  -0.023713  -0.000046   0.000011   0.008434   0.002976
    18  H    0.002153   0.009483   0.000011   0.000003  -0.001811   0.003552
    19  O   -0.015124   0.002824  -0.003252  -0.000585   0.000030   0.014388
    20  H    0.000575  -0.000346   0.000493   0.000839   0.000042  -0.000611
    21  O    0.018706  -0.000097   0.003857   0.005449   0.000581   0.001455
    22  H    0.001633  -0.000056  -0.000106  -0.002699   0.000053  -0.000695
    23  O   -0.000080  -0.000018  -0.017219  -0.028444  -0.000000   0.000006
    24  H    0.000017  -0.000001  -0.006049  -0.006846   0.000000  -0.000000
    25  O    0.000001   0.000001   0.271989   0.005215   0.000000   0.000000
    26  H   -0.000000   0.000000  -0.024163   0.000030  -0.000000  -0.000000
              13         14         15         16         17         18
     1  C    0.002317  -0.002464  -0.021715   0.004939  -0.031635  -0.014168
     2  C    0.004868   0.006424   0.033789  -0.002028   0.009095   0.001361
     3  C    0.000577   0.000499  -0.058186   0.004486   0.252016  -0.048559
     4  C   -0.029528  -0.054323   0.003021  -0.000209  -0.000182  -0.000277
     5  H    0.000349   0.001195   0.005941  -0.003631   0.000199   0.000029
     6  H   -0.000159   0.000297  -0.001237  -0.000075   0.012754  -0.003735
     7  C   -0.000092   0.000038   0.265347  -0.036727  -0.038177   0.002153
     8  H    0.000140  -0.000120   0.012465  -0.002350  -0.023713   0.009483
     9  C    0.419451   0.442135   0.000092  -0.000028  -0.000046   0.000011
    10  H    0.006811  -0.007176  -0.000016   0.000142   0.000011   0.000003
    11  H    0.000001   0.000000  -0.027957   0.006283   0.008434  -0.001811
    12  H    0.000000  -0.000002  -0.042817  -0.014371   0.002976   0.003552
    13  H    0.587416  -0.039027  -0.000002  -0.000000  -0.000057   0.000022
    14  H   -0.039027   0.606664  -0.000013   0.000011  -0.000002  -0.000001
    15  O   -0.000002  -0.000013   7.936395   0.341150   0.004096  -0.000146
    16  H   -0.000000   0.000011   0.341150   0.448546  -0.000387   0.000009
    17  O   -0.000057  -0.000002   0.004096  -0.000387   7.867983   0.320431
    18  H    0.000022  -0.000001  -0.000146   0.000009   0.320431   0.516581
    19  O    0.000328  -0.000005   0.000876  -0.000170  -0.009347   0.020821
    20  H    0.000533   0.000037   0.000020  -0.000041  -0.000059  -0.000402
    21  O   -0.000021   0.000002  -0.041922   0.037147  -0.000066   0.000001
    22  H   -0.000006  -0.000042   0.001553  -0.003221   0.000012  -0.000021
    23  O   -0.001684   0.005451  -0.000009  -0.000055  -0.000007   0.000024
    24  H   -0.001786   0.001355   0.000000   0.000006  -0.000001  -0.000002
    25  O   -0.048115  -0.043285   0.000000   0.000000  -0.000000  -0.000000
    26  H   -0.005598  -0.005771   0.000000  -0.000000   0.000000   0.000000
              19         20         21         22         23         24
     1  C    0.234417  -0.026138  -0.026642  -0.017449   0.002617   0.000601
     2  C   -0.031034  -0.001011   0.176879  -0.031040  -0.048436   0.006868
     3  C   -0.051763   0.006166  -0.005003  -0.003769   0.000998   0.000039
     4  C    0.000217  -0.004342  -0.015413   0.003110   0.204357  -0.028595
     5  H    0.004353  -0.000320  -0.022216   0.007684   0.002174  -0.000342
     6  H   -0.036331  -0.007145   0.003705   0.001372   0.000729  -0.000228
     7  C   -0.015124   0.000575   0.018706   0.001633  -0.000080   0.000017
     8  H    0.002824  -0.000346  -0.000097  -0.000056  -0.000018  -0.000001
     9  C   -0.003252   0.000493   0.003857  -0.000106  -0.017219  -0.006049
    10  H   -0.000585   0.000839   0.005449  -0.002699  -0.028444  -0.006846
    11  H    0.000030   0.000042   0.000581   0.000053  -0.000000   0.000000
    12  H    0.014388  -0.000611   0.001455  -0.000695   0.000006  -0.000000
    13  H    0.000328   0.000533  -0.000021  -0.000006  -0.001684  -0.001786
    14  H   -0.000005   0.000037   0.000002  -0.000042   0.005451   0.001355
    15  O    0.000876   0.000020  -0.041922   0.001553  -0.000009   0.000000
    16  H   -0.000170  -0.000041   0.037147  -0.003221  -0.000055   0.000006
    17  O   -0.009347  -0.000059  -0.000066   0.000012  -0.000007  -0.000001
    18  H    0.020821  -0.000402   0.000001  -0.000021   0.000024  -0.000002
    19  O    7.967609   0.340724  -0.006869   0.019983  -0.028566   0.001137
    20  H    0.340724   0.438458   0.000338  -0.000685   0.042528  -0.001955
    21  O   -0.006869   0.000338   7.922455   0.316715  -0.005520  -0.000184
    22  H    0.019983  -0.000685   0.316715   0.494958   0.009962  -0.000459
    23  O   -0.028566   0.042528  -0.005520   0.009962   7.937522   0.324809
    24  H    0.001137  -0.001955  -0.000184  -0.000459   0.324809   0.481038
    25  O   -0.000015  -0.000019  -0.000048  -0.000010  -0.008508   0.022285
    26  H    0.000001   0.000001   0.000013   0.000004  -0.000075  -0.001326
              25         26
     1  C    0.000007   0.000101
     2  C    0.007454  -0.001890
     3  C   -0.000012  -0.000007
     4  C   -0.065538   0.009007
     5  H    0.000009   0.000006
     6  H   -0.000275  -0.000035
     7  C    0.000001  -0.000000
     8  H    0.000001   0.000000
     9  C    0.271989  -0.024163
    10  H    0.005215   0.000030
    11  H    0.000000  -0.000000
    12  H    0.000000  -0.000000
    13  H   -0.048115  -0.005598
    14  H   -0.043285  -0.005771
    15  O    0.000000   0.000000
    16  H    0.000000  -0.000000
    17  O   -0.000000   0.000000
    18  H   -0.000000   0.000000
    19  O   -0.000015   0.000001
    20  H   -0.000019   0.000001
    21  O   -0.000048   0.000013
    22  H   -0.000010   0.000004
    23  O   -0.008508  -0.000075
    24  H    0.022285  -0.001326
    25  O    7.885952   0.326044
    26  H    0.326044   0.516765
 Mulliken charges:
               1
     1  C    0.022993
     2  C    0.146615
     3  C    0.201449
     4  C    0.086053
     5  H    0.100714
     6  H    0.089437
     7  C   -0.022019
     8  H    0.057214
     9  C   -0.054709
    10  H    0.109199
    11  H    0.088072
    12  H    0.075014
    13  H    0.103264
    14  H    0.088123
    15  O   -0.410724
    16  H    0.220574
    17  O   -0.374325
    18  H    0.194641
    19  O   -0.424647
    20  H    0.212320
    21  O   -0.363301
    22  H    0.203216
    23  O   -0.392555
    24  H    0.209619
    25  O   -0.353131
    26  H    0.186892
 Sum of Mulliken charges =  -0.00000
 Mulliken charges with hydrogens summed into heavy atoms:
               1
     1  C    0.112430
     2  C    0.247329
     3  C    0.258663
     4  C    0.195253
     7  C    0.141067
     9  C    0.136679
    15  O   -0.190150
    17  O   -0.179684
    19  O   -0.212327
    21  O   -0.160085
    23  O   -0.182936
    25  O   -0.166239
 Electronic spatial extent (au):  <R**2>=           2512.0484
 Charge=             -0.0000 electrons
 Dipole moment (field-independent basis, Debye):
    X=             -6.2630    Y=             -0.9588    Z=             -0.4765  Tot=              6.3538
 Quadrupole moment (field-independent basis, Debye-Ang):
   XX=            -73.5825   YY=            -79.7966   ZZ=            -67.6311
   XY=              2.5971   XZ=              8.7720   YZ=              2.5844
 Traceless Quadrupole moment (field-independent basis, Debye-Ang):
   XX=              0.0876   YY=             -6.1266   ZZ=              6.0390
   XY=              2.5971   XZ=              8.7720   YZ=              2.5844
 Octapole moment (field-independent basis, Debye-Ang**2):
  XXX=            -69.9200  YYY=             -0.7656  ZZZ=              5.3214  XYY=            -31.0098
  XXY=            -25.9427  XXZ=             -1.8679  XZZ=            -19.1494  YZZ=             -0.7908
  YYZ=             11.5960  XYZ=             -5.6149
 Hexadecapole moment (field-independent basis, Debye-Ang**3):
 XXXX=          -2034.6131 YYYY=           -586.0620 ZZZZ=           -318.1731 XXXY=             76.4642
 XXXZ=            116.1265 YYYX=             11.2287 YYYZ=            -10.5766 ZZZX=              5.9103
 ZZZY=              7.6145 XXYY=           -495.7108 XXZZ=           -353.8557 YYZZ=           -143.8445
 XXYZ=             35.3452 YYXZ=             36.4991 ZZXY=              6.4917
 N-N= 8.339939767047D+02 E-N=-3.284971406176D+03  KE= 6.850711009898D+02
   1 Symmetry operations used in ECPInt.
 ECPInt:  NShTT=   23436 NPrTT=   62434 LenC2=   21865 LenP2D=   45534.
 LDataN:  DoStor=T MaxTD1= 7 Len=  274
 Calling FoFJK, ICntrl=      2127 FMM=F ISym2X=0 I1Cent= 0 IOpClX= 0 NMat=1 NMatS=1 NMatT=0.
 ***** Axes restored to original set *****
 -------------------------------------------------------------------
 Center     Atomic                   Forces (Hartrees/Bohr)
 Number     Number              X              Y              Z
 -------------------------------------------------------------------
      1        6          -0.003591229   -0.008668980    0.000471883
      2        6          -0.000081666   -0.018694212   -0.007545870
      3        6          -0.017052873   -0.012372005    0.000665709
      4        6          -0.005542226   -0.001020817    0.009736293
      5        1          -0.000814249   -0.004133979   -0.001227628
      6        1           0.002983281    0.006325409   -0.000768231
      7        6           0.015082056    0.004238040   -0.006120917
      8        1          -0.001402427   -0.003107628   -0.001287034
      9        6           0.004494279   -0.004014535    0.006051228
     10        1          -0.001454930    0.008375442   -0.000854422
     11        1           0.001924438    0.000980188    0.006356326
     12        1          -0.002945397   -0.000742978    0.005322471
     13        1          -0.001800236    0.003121270   -0.007138888
     14        1          -0.001799620    0.000881857   -0.004926961
     15        8           0.001401597   -0.007364906    0.004386947
     16        1          -0.012758443    0.011827866   -0.007338135
     17        8           0.010408146   -0.014948354    0.000633506
     18        1           0.001766035    0.017886493    0.000145935
     19        8           0.015752934    0.003535727    0.005498075
     20        1          -0.012624086    0.010663443   -0.009188398
     21        8          -0.000933593   -0.015387246    0.018358338
     22        1           0.004899310    0.018807122   -0.005879833
     23        8           0.013674765    0.001604684    0.018311073
     24        1          -0.011310287    0.004181957   -0.017511442
     25        8          -0.000665094    0.010034185    0.008764212
     26        1           0.002389516   -0.012008041   -0.014914236
 -------------------------------------------------------------------
 Cartesian Forces:  Max     0.018807122 RMS     0.008771351

 GradGradGradGradGradGradGradGradGradGradGradGradGradGradGradGradGradGrad
 Berny optimization.
 FormGI is forming the generalized inverse of G from B-inverse, IUseBI=4.
 Internal  Forces:  Max     0.020608439 RMS     0.006416759
 Search for a local minimum.
 Step number   1 out of a maximum of  140
 All quantities printed in internal units (Hartrees-Bohrs-Radians)
 Mixed Optimization -- RFO/linear search
 Second derivative matrix not updated -- first step.
 ITU=  0
     Eigenvalues ---    0.00230   0.00230   0.00230   0.00308   0.00365
     Eigenvalues ---    0.01118   0.01119   0.01137   0.01161   0.01298
     Eigenvalues ---    0.01389   0.03789   0.03799   0.03960   0.03984
     Eigenvalues ---    0.04585   0.04700   0.04707   0.04748   0.04841
     Eigenvalues ---    0.05351   0.05559   0.05684   0.07562   0.07659
     Eigenvalues ---    0.07712   0.07856   0.11342   0.11741   0.13599
     Eigenvalues ---    0.13987   0.16000   0.16000   0.16000   0.16000
     Eigenvalues ---    0.16000   0.16000   0.16707   0.17046   0.17292
     Eigenvalues ---    0.17419   0.19437   0.19514   0.19728   0.19948
     Eigenvalues ---    0.21977   0.22023   0.28076   0.28185   0.28374
     Eigenvalues ---    0.28999   0.29397   0.34028   0.34128   0.34163
     Eigenvalues ---    0.34167   0.34181   0.34195   0.34362   0.34443
     Eigenvalues ---    0.39128   0.39141   0.39320   0.39564   0.41018
     Eigenvalues ---    0.42031   0.50629   0.50917   0.50975   0.51211
     Eigenvalues ---    0.51530   0.52459
 RFO step:  Lambda=-2.41788402D-02 EMin= 2.30000000D-03
 Linear search not attempted -- first point.
 Iteration  1 RMS(Cart)=  0.16134263 RMS(Int)=  0.00728143
 Iteration  2 RMS(Cart)=  0.01406585 RMS(Int)=  0.00059043
 Iteration  3 RMS(Cart)=  0.00009201 RMS(Int)=  0.00058887
 Iteration  4 RMS(Cart)=  0.00000003 RMS(Int)=  0.00058887
 Variable       Old X    -DE/DX   Delta X   Delta X   Delta X     New X
                                 (Linear)    (Quad)   (Total)
    R1        2.91736   0.00105   0.00000   0.00344   0.00344   2.92080
    R2        2.91973  -0.00254   0.00000  -0.00834  -0.00834   2.91139
    R3        2.07049  -0.00007   0.00000  -0.00018  -0.00018   2.07031
    R4        2.72756  -0.01354   0.00000  -0.03260  -0.03260   2.69496
    R5        2.91329  -0.00834   0.00000  -0.02708  -0.02708   2.88621
    R6        2.07003  -0.00416   0.00000  -0.01136  -0.01136   2.05867
    R7        2.72488  -0.01070   0.00000  -0.02564  -0.02564   2.69924
    R8        2.90006  -0.00348   0.00000  -0.01108  -0.01108   2.88898
    R9        2.07114  -0.00357   0.00000  -0.00978  -0.00978   2.06136
   R10        2.72150  -0.01217   0.00000  -0.02899  -0.02899   2.69252
   R11        2.89183  -0.01198   0.00000  -0.03767  -0.03767   2.85416
   R12        2.07282  -0.00254   0.00000  -0.00697  -0.00697   2.06585
   R13        2.72738  -0.00621   0.00000  -0.01493  -0.01493   2.71245
   R14        2.07056  -0.00440   0.00000  -0.01203  -0.01203   2.05853
   R15        2.07026  -0.00024   0.00000  -0.00065  -0.00065   2.06960
   R16        2.68883  -0.00834   0.00000  -0.01877  -0.01877   2.67006
   R17        2.06589   0.00026   0.00000   0.00071   0.00071   2.06660
   R18        2.06724  -0.00005   0.00000  -0.00015  -0.00015   2.06710
   R19        2.70193  -0.00240   0.00000  -0.00553  -0.00553   2.69640
   R20        1.85594  -0.01883   0.00000  -0.03527  -0.03527   1.82066
   R21        1.85052  -0.01790   0.00000  -0.03319  -0.03319   1.81733
   R22        1.85935  -0.01847   0.00000  -0.03482  -0.03482   1.82453
   R23        1.85362  -0.01976   0.00000  -0.03684  -0.03684   1.81678
   R24        1.85651  -0.02061   0.00000  -0.03864  -0.03864   1.81787
   R25        1.84163  -0.01899   0.00000  -0.03460  -0.03460   1.80703
    A1        2.00872   0.01693   0.00000   0.07730   0.07751   2.08624
    A2        1.91750  -0.00605   0.00000  -0.04063  -0.03909   1.87840
    A3        1.93046  -0.00108   0.00000   0.01667   0.01616   1.94661
    A4        1.86534  -0.00782   0.00000  -0.06937  -0.06838   1.79696
    A5        1.88662  -0.00921   0.00000  -0.02806  -0.03010   1.85652
    A6        1.84728   0.00633   0.00000   0.03946   0.03865   1.88593
    A7        1.97973  -0.00057   0.00000   0.00625   0.00490   1.98463
    A8        1.92818  -0.00212   0.00000  -0.02370  -0.02388   1.90430
    A9        1.89666   0.00899   0.00000   0.07191   0.07157   1.96823
   A10        1.91144  -0.00134   0.00000  -0.04035  -0.04077   1.87067
   A11        1.86781  -0.00309   0.00000   0.00274   0.00118   1.86899
   A12        1.87622  -0.00184   0.00000  -0.01581  -0.01562   1.86060
   A13        2.02610   0.01498   0.00000   0.07977   0.07965   2.10575
   A14        1.89876  -0.00263   0.00000  -0.00896  -0.00916   1.88960
   A15        1.86368  -0.00698   0.00000  -0.02468  -0.02560   1.83808
   A16        1.90479  -0.00573   0.00000  -0.02875  -0.02909   1.87570
   A17        1.88969  -0.00163   0.00000   0.00041   0.00012   1.88981
   A18        1.87514   0.00123   0.00000  -0.02466  -0.02519   1.84995
   A19        1.98639   0.00163   0.00000   0.00164   0.00150   1.98789
   A20        1.91304  -0.00222   0.00000  -0.02759  -0.02774   1.88530
   A21        1.90869  -0.00211   0.00000  -0.00657  -0.00652   1.90216
   A22        1.91260  -0.00145   0.00000  -0.01450  -0.01494   1.89766
   A23        1.89517   0.00118   0.00000   0.01297   0.01297   1.90814
   A24        1.84234   0.00312   0.00000   0.03729   0.03736   1.87969
   A25        1.91045  -0.00691   0.00000  -0.05600  -0.05629   1.85416
   A26        1.95353  -0.00670   0.00000  -0.02623  -0.02788   1.92565
   A27        1.95892   0.00955   0.00000   0.04091   0.04060   1.99952
   A28        1.85509   0.00437   0.00000   0.01822   0.01722   1.87231
   A29        1.87105  -0.00371   0.00000  -0.03043  -0.02975   1.84130
   A30        1.91008   0.00315   0.00000   0.05132   0.05108   1.96116
   A31        1.95153  -0.00295   0.00000  -0.02997  -0.02970   1.92183
   A32        1.94185  -0.00065   0.00000  -0.01856  -0.01845   1.92340
   A33        1.88123  -0.01185   0.00000  -0.04542  -0.04523   1.83600
   A34        1.91743  -0.00024   0.00000  -0.00282  -0.00465   1.91278
   A35        1.86715   0.00917   0.00000   0.05951   0.05862   1.92577
   A36        1.90218   0.00701   0.00000   0.04173   0.04085   1.94303
   A37        1.85560  -0.00194   0.00000  -0.01054  -0.01054   1.84506
   A38        1.83203   0.00292   0.00000   0.01583   0.01583   1.84786
   A39        1.85037   0.00249   0.00000   0.01354   0.01354   1.86391
   A40        1.83594   0.00652   0.00000   0.03538   0.03538   1.87132
   A41        1.81381   0.00957   0.00000   0.05194   0.05194   1.86576
   A42        1.86834   0.00606   0.00000   0.03289   0.03289   1.90123
    D1        2.96837  -0.00486   0.00000  -0.15473  -0.15570   2.81268
    D2        0.81461  -0.00105   0.00000  -0.08817  -0.08896   0.72565
    D3       -1.23980  -0.00297   0.00000  -0.09838  -0.09852  -1.33832
    D4        0.86238  -0.00187   0.00000  -0.08722  -0.08772   0.77467
    D5       -1.29138   0.00194   0.00000  -0.02067  -0.02099  -1.31236
    D6        2.93739   0.00002   0.00000  -0.03088  -0.03054   2.90686
    D7       -1.17064  -0.00532   0.00000  -0.12087  -0.12041  -1.29105
    D8        2.95879  -0.00151   0.00000  -0.05431  -0.05368   2.90511
    D9        0.90437  -0.00344   0.00000  -0.06452  -0.06323   0.84114
   D10        1.06492   0.00149   0.00000   0.02524   0.02570   1.09061
   D11       -1.09081   0.00029   0.00000   0.01242   0.01254  -1.07827
   D12       -3.10967   0.00381   0.00000   0.05857   0.05863  -3.05103
   D13       -3.08398  -0.00102   0.00000  -0.02803  -0.02863  -3.11262
   D14        1.04348  -0.00223   0.00000  -0.04085  -0.04179   1.00169
   D15       -0.97538   0.00129   0.00000   0.00530   0.00431  -0.97108
   D16       -1.10251  -0.00190   0.00000  -0.02967  -0.02881  -1.13131
   D17        3.02495  -0.00310   0.00000  -0.04250  -0.04196   2.98299
   D18        1.00609   0.00042   0.00000   0.00365   0.00413   1.01023
   D19        0.84150  -0.00382   0.00000   0.02880   0.02962   0.87111
   D20        3.05515   0.01038   0.00000   0.11856   0.11854  -3.10949
   D21       -1.23458   0.00026   0.00000   0.04528   0.04449  -1.19009
   D22       -1.22710   0.00377   0.00000   0.05664   0.05645  -1.17065
   D23        2.90752   0.00618   0.00000   0.09534   0.09503   3.00256
   D24        0.89559   0.00485   0.00000   0.06967   0.06941   0.96500
   D25        0.93580  -0.00044   0.00000  -0.00050  -0.00043   0.93537
   D26       -1.21276   0.00197   0.00000   0.03819   0.03815  -1.17461
   D27        3.05849   0.00065   0.00000   0.01252   0.01252   3.07102
   D28        2.96457  -0.00499   0.00000  -0.03848  -0.03818   2.92639
   D29        0.81601  -0.00258   0.00000   0.00022   0.00040   0.81641
   D30       -1.19593  -0.00390   0.00000  -0.02545  -0.02522  -1.22115
   D31       -1.12783   0.00142   0.00000   0.03571   0.03527  -1.09256
   D32        1.01620   0.00411   0.00000   0.08677   0.08724   1.10344
   D33        3.06820   0.00001   0.00000   0.03307   0.03304   3.10124
   D34        2.88347  -0.00248   0.00000  -0.04738  -0.04646   2.83700
   D35        0.83137   0.00060   0.00000  -0.01819  -0.01827   0.81311
   D36       -1.32443  -0.00569   0.00000  -0.09676  -0.09635  -1.42078
   D37       -1.24713   0.00040   0.00000  -0.02393  -0.02364  -1.27077
   D38        2.98396   0.00347   0.00000   0.00526   0.00456   2.98852
   D39        0.82816  -0.00281   0.00000  -0.07331  -0.07352   0.75464
   D40        0.78886  -0.00215   0.00000  -0.06867  -0.06839   0.72047
   D41       -1.26324   0.00092   0.00000  -0.03948  -0.04019  -1.30342
   D42        2.86415  -0.00536   0.00000  -0.11805  -0.11827   2.74588
   D43       -0.84199  -0.00617   0.00000  -0.03609  -0.03555  -0.87754
   D44        1.35152   0.00671   0.00000   0.04580   0.04551   1.39703
   D45       -2.87661  -0.00023   0.00000  -0.00113  -0.00138  -2.87799
   D46        1.09361  -0.00121   0.00000  -0.01338  -0.01341   1.08020
   D47       -1.05762   0.00172   0.00000   0.02571   0.02567  -1.03196
   D48        3.14101   0.00098   0.00000   0.01407   0.01407  -3.12811
   D49       -3.04078  -0.00405   0.00000  -0.05922  -0.05915  -3.09993
   D50        1.09117  -0.00111   0.00000  -0.02013  -0.02007   1.07110
   D51       -0.99338  -0.00186   0.00000  -0.03176  -0.03167  -1.02505
   D52       -1.03656  -0.00047   0.00000  -0.01554  -0.01560  -1.05216
   D53        3.09539   0.00247   0.00000   0.02355   0.02349   3.11887
   D54        1.01083   0.00172   0.00000   0.01191   0.01189   1.02272
   D55       -3.05270  -0.00059   0.00000   0.00798   0.00793  -3.04477
   D56       -0.87586   0.00084   0.00000   0.01430   0.01409  -0.86177
   D57        1.17372   0.00137   0.00000   0.02330   0.02356   1.19728
   D58        1.32424   0.00242   0.00000   0.04577   0.04685   1.37109
   D59       -2.86064  -0.00284   0.00000  -0.01883  -0.01864  -2.87928
   D60       -0.85570   0.00191   0.00000   0.01227   0.01100  -0.84469
   D61        3.09676   0.00098   0.00000   0.01709   0.01726   3.11402
   D62       -1.08509  -0.00388   0.00000  -0.01017  -0.01184  -1.09693
   D63        0.98718   0.00473   0.00000   0.04221   0.04372   1.03090
         Item               Value     Threshold  Converged?
 Maximum Force            0.020608     0.000450     NO 
 RMS     Force            0.006417     0.000300     NO 
 Maximum Displacement     0.614453     0.001800     NO 
 RMS     Displacement     0.158817     0.001200     NO 
 Predicted change in Energy=-1.517132D-02
 GradGradGradGradGradGradGradGradGradGradGradGradGradGradGradGradGradGrad

                          Input orientation:                          
 ---------------------------------------------------------------------
 Center     Atomic      Atomic             Coordinates (Angstroms)
 Number     Number       Type             X           Y           Z
 ---------------------------------------------------------------------
      1          6           0        0.086156   -0.087258   -0.054323
      2          6           0        1.629292   -0.158546   -0.003366
      3          6           0       -0.596814    0.914131   -1.005297
      4          6           0        2.171862   -0.828594    1.257327
      5          1           0        2.034075    0.852512   -0.030080
      6          1           0       -0.263869    0.233644    0.932975
      7          6           0       -0.407182    0.805616   -2.518384
      8          1           0       -0.301958    1.921910   -0.709756
      9          6           0        1.919363   -0.045119    2.523657
     10          1           0        3.250310   -0.958277    1.133957
     11          1           0       -1.207395    1.391909   -2.968445
     12          1           0       -0.540265   -0.231171   -2.845185
     13          1           0        0.844040    0.061527    2.691781
     14          1           0        2.379640    0.944711    2.453577
     15          8           0        0.793622    1.371842   -3.001961
     16          1           0        1.482463    0.726215   -2.809855
     17          8           0       -1.989349    0.813257   -0.721081
     18          1           0       -2.196355   -0.125451   -0.749780
     19          8           0       -0.487802   -1.362510   -0.333795
     20          1           0       -0.085010   -1.990149    0.279411
     21          8           0        2.187916   -0.851524   -1.120493
     22          1           0        1.864959   -1.756344   -1.084600
     23          8           0        1.586809   -2.133434    1.381344
     24          1           0        1.878429   -2.491608    2.225187
     25          8           0        2.509982   -0.819414    3.566536
     26          1           0        2.401680   -0.356375    4.396149
 ---------------------------------------------------------------------
                    Distance matrix (angstroms):
                    1          2          3          4          5
     1  C    0.000000
     2  C    1.545622   0.000000
     3  C    1.540642   2.666467   0.000000
     4  C    2.572970   1.527316   3.977703   0.000000
     5  H    2.162902   1.089403   2.806496   2.121913   0.000000
     6  H    1.095561   2.148163   2.081060   2.677002   2.567298
     7  C    2.666871   3.376707   1.528780   4.855729   3.486200
     8  H    2.148716   2.925237   1.090827   4.189806   2.657560
     9  C    3.163606   2.546144   4.439011   1.510357   2.709330
    10  H    3.490351   2.135596   4.783584   1.093201   2.472481
    11  H    3.514728   4.386615   2.110695   5.848688   4.408182
    12  H    2.863918   3.576058   2.167972   4.954105   3.965654
    13  H    2.852650   2.815824   4.058494   2.147809   3.074144
    14  H    3.551703   2.795848   4.563334   2.149138   2.509276
    15  O    3.364231   3.468718   2.475779   4.988286   3.261979
    16  H    3.194427   2.946310   2.759553   4.408477   2.836790
    17  O    2.358647   3.814981   1.424819   4.891365   4.082520
    18  H    2.386415   3.897923   1.924721   4.858417   4.401241
    19  O    1.426113   2.457804   2.376108   3.144924   3.370226
    20  H    1.939503   2.524592   3.216716   2.720111   3.559077
    21  O    2.477542   1.428374   3.299322   2.377985   2.028892
    22  H    2.647916   1.943596   3.632912   2.537624   2.818996
    23  O    2.915465   2.412346   4.444312   1.435366   3.332872
    24  H    3.766869   3.236000   5.306779   1.946400   4.036531
    25  O    4.418326   3.735848   5.793014   2.333850   3.994680
    26  H    5.024020   4.471180   6.307199   3.182454   4.603047
                    6          7          8          9         10
     6  H    0.000000
     7  C    3.501367   0.000000
     8  H    2.355899   2.127985   0.000000
     9  C    2.715599   5.617716   4.388442   0.000000
    10  H    3.716251   5.461516   4.930858   2.129916   0.000000
    11  H    4.177666   1.089328   2.490460   6.481114   6.498015
    12  H    3.816666   1.095188   3.041810   5.908371   5.543529
    13  H    2.085782   5.409717   4.042869   1.093598   3.042523
    14  H    3.131451   5.701414   4.260582   1.093860   2.474031
    15  O    4.230544   1.412936   2.599437   5.814424   5.345147
    16  H    4.159456   1.913640   3.004040   5.406679   4.638582
    17  O    2.459499   2.394496   2.019042   5.152005   5.833826
    18  H    2.587492   2.682533   2.789629   5.259370   5.823077
    19  O    2.050015   3.078911   3.311087   3.961691   4.036233
    20  H    2.324735   3.968344   4.041006   3.582917   3.594352
    21  O    3.377213   3.381529   3.749681   3.741956   2.494519
    22  H    3.544372   3.712411   4.285509   3.993841   2.734612
    23  O    3.037944   5.274646   4.938214   2.403441   2.051690
    24  H    3.699493   6.212661   5.731240   2.464968   2.328936
    25  O    3.967219   6.940952   5.805905   1.426871   2.546529
    26  H    4.409858   7.553191   6.210516   1.958504   3.424085
                   11         12         13         14         15
    11  H    0.000000
    12  H    1.759159   0.000000
    13  H    6.165748   5.714890   0.000000
    14  H    6.516527   6.163232   1.787406   0.000000
    15  O    2.001398   2.091288   5.842787   5.697437   0.000000
    16  H    2.775542   2.238139   5.578296   5.343817   0.963453
    17  O    2.448864   2.775336   4.498980   5.402203   3.641341
    18  H    2.864070   2.672926   4.596010   5.687396   4.031646
    19  O    3.878919   2.754952   3.599416   4.616810   4.029620
    20  H    4.821476   3.614466   3.300309   4.406235   4.779371
    21  O    4.469457   3.286696   4.144043   4.004647   3.229138
    22  H    4.785366   3.348271   4.313697   4.480992   3.822249
    23  O    6.257498   5.099667   2.662105   3.354585   5.668287
    24  H    7.181770   6.055438   2.793951   3.480181   6.589850
    25  O    7.836760   7.124620   2.077646   2.089930   7.133909
    26  H    8.385652   7.817137   2.346434   2.338140   7.765605
                   16         17         18         19         20
    16  H    0.000000
    17  O    4.052658   0.000000
    18  H    4.301505   0.961690   0.000000
    19  O    3.791515   2.671815   2.150003   0.000000
    20  H    4.402178   3.533635   2.999019   0.965502   0.000000
    21  O    2.416788   4.514484   4.459421   2.835395   2.902135
    22  H    3.047278   4.646578   4.389327   2.500859   2.391144
    23  O    5.074902   5.088426   4.783933   2.800007   2.007427
    24  H    5.988557   5.878974   5.572521   3.663646   2.809377
    25  O    6.641018   6.425983   6.423533   4.949166   4.348539
    26  H    7.344621   6.843626   6.904769   5.633275   5.079407
                   21         22         23         24         25
    21  O    0.000000
    22  H    0.961399   0.000000
    23  O    2.874685   2.510069   0.000000
    24  H    3.738881   3.390499   0.961978   0.000000
    25  O    4.698191   4.788211   2.711818   2.234795   0.000000
    26  H    5.542942   5.682130   3.593188   3.089675   0.956239
                   26
    26  H    0.000000
 Stoichiometry    C6H14O6
 Framework group  C1[X(C6H14O6)]
 Deg. of freedom    72
 Full point group                 C1      NOp   1
 Largest Abelian subgroup         C1      NOp   1
 Largest concise Abelian subgroup C1      NOp   1
                         Standard orientation:                         
 ---------------------------------------------------------------------
 Center     Atomic      Atomic             Coordinates (Angstroms)
 Number     Number       Type             X           Y           Z
 ---------------------------------------------------------------------
      1          6           0        0.442829   -0.564598    0.042671
      2          6           0       -0.359582    0.725622   -0.240903
      3          6           0        1.867971   -0.712477   -0.523617
      4          6           0       -1.864642    0.571263   -0.031953
      5          1           0       -0.207240    1.019460   -1.278810
      6          1           0       -0.094246   -1.398311   -0.422869
      7          6           0        2.979747    0.245918   -0.096298
      8          1           0        1.808323   -0.680213   -1.612335
      9          6           0       -2.528253   -0.354678   -1.023636
     10          1           0       -2.321021    1.561069   -0.116160
     11          1           0        3.918317   -0.236854   -0.365840
     12          1           0        2.978303    0.369399    0.991905
     13          1           0       -2.117348   -1.363734   -0.929178
     14          1           0       -2.373791    0.010351   -2.043157
     15          8           0        2.982447    1.483609   -0.777842
     16          1           0        2.289042    2.010165   -0.365325
     17          8           0        2.269120   -2.038716   -0.191536
     18          1           0        2.090705   -2.140027    0.748012
     19          8           0        0.537070   -0.825582    1.441529
     20          1           0       -0.358115   -0.763353    1.797850
     21          8           0        0.064650    1.828212    0.561950
     22          1           0       -0.100275    1.592406    1.479274
     23          8           0       -2.104508    0.092000    1.299606
     24          1           0       -3.048755   -0.077913    1.369803
     25          8           0       -3.911598   -0.347788   -0.673963
     26          1           0       -4.389765   -0.902630   -1.288698
 ---------------------------------------------------------------------
 Rotational constants (GHZ):           1.5268378           0.4966847           0.4557554
 Standard basis: def2TZVPP (5D, 7F)
 There are   642 symmetry adapted cartesian basis functions of A   symmetry.
 There are   568 symmetry adapted basis functions of A   symmetry.
   568 basis functions,   850 primitive gaussians,   642 cartesian basis functions
    49 alpha electrons       49 beta electrons
       nuclear repulsion energy       827.0155679194 Hartrees.
 NAtoms=   26 NActive=   26 NUniq=   26 SFac= 1.00D+00 NAtFMM=   60 NAOKFM=F Big=F
 Integral buffers will be    131072 words long.
 Raffenetti 2 integral format.
 Two-electron integral symmetry is turned on.
 Nuclear repulsion after empirical dispersion term =      826.9970011193 Hartrees.
 One-electron integrals computed using PRISM.
   1 Symmetry operations used in ECPInt.
 ECPInt:  NShTT=   23436 NPrTT=   62434 LenC2=   21803 LenP2D=   45286.
 LDataN:  DoStor=T MaxTD1= 6 Len=  172
 NBasis=   568 RedAO= T EigKep=  4.85D-05  NBF=   568
[...]
 1,0.00290765,0.00560792,-0.00135878,0.00163746,-0.00045459,0.00229087,
 0.15434557,-0.04470447,-0.18632593,-0.05684999,-0.01473850,-0.02212700
 ,-0.00721630,-0.01000811,-0.04570922,-0.00914929,-0.00227827,-0.006007
 04,0.00364615,-0.00290619,0.00131312,-0.00034247,-0.00778662,-0.023326
 38,-0.01183867,0.00107454,0.00104291,-0.00231531,0.00391924,-0.0032389
 8,0.00431722,0.00126963,-0.00037509,0.00051168,-0.00000272,0.00116906,
 -0.00082450,-0.00002776,0.00030334,0.00004320,-0.00015925,-0.00000705,
 0.00130175,-0.00045066,0.00012330,0.00052328,0.00004741,0.00043154,0.0
 0036581,-0.00131697,0.00038094,0.00094166,0.00065292,-0.00094892,-0.00
 012481,-0.00057550,0.00004001,0.00012110,-0.00063190,-0.00117488,0.000
 39337,-0.01183218,0.50576834,-0.02578680,-0.01876730,-0.10923089,0.000
 42197,-0.01061601,-0.00334370,0.00677097,0.02225435,0.01008971,0.00175
 666,0.00183654,-0.00061143,-0.00102954,0.00067451,0.00056094,-0.015066
 99,-0.03694600,-0.00728842,0.00057220,-0.00149551,0.00010692,-0.002822
 59,0.00423101,-0.00210099,0.00064379,-0.00066272,-0.00004871,-0.000509
 82,-0.00034791,0.00020695,0.00001883,0.00043382,0.00070818,0.00027430,
 0.00153304,0.00037129,-0.00044092,0.00034987,0.00050256,-0.00027369,-0
 .00009730,-0.00010529,0.00075755,0.00073107,0.00010459,-0.00032708,-0.
 00038486,-0.00021002,0.00042310,0.00080386,0.00215192,0.00125449,-0.00
 019682,-0.00150696,0.14871109,-0.16616509,0.39549805,0.00414746,-0.009
 21229,0.01017543,0.00020884,-0.00252587,0.00114260,-0.00158708,-0.0016
 3559,-0.00103017,-0.00306101,-0.00469531,0.00102607,-0.00017853,0.0003
 0860,-0.00031704,0.00021366,-0.00038168,-0.00131990,0.00064040,0.00014
 626,-0.00024567,0.00034162,-0.00050343,0.00020160,0.00077373,0.0000729
 6,-0.00042266,0.00043259,0.00057335,-0.00019354,-0.00004795,-0.0000563
 4,0.00001082,-0.00011158,-0.00005912,-0.00005823,-0.00020019,0.0000555
 0,0.00017119,0.00003877,0.00031051,0.00033546,-0.00069991,0.00010380,-
 0.00010577,0.00032281,-0.00033819,0.00033259,0.00011969,0.00112159,0.0
 0044681,0.00099256,-0.00025722,-0.00061637,-0.05190133,0.08501353,-0.1
 0815856,0.05032895,0.00883040,-0.03413563,0.02823695,-0.00170924,0.000
 52727,0.00043075,-0.00310562,-0.00619559,-0.00350332,-0.00174893,0.001
 14346,-0.00194022,0.00059254,0.00003996,-0.00013672,0.00136536,0.00170
 552,0.00027738,-0.00049711,0.00009827,-0.00070703,0.00093593,-0.000907
 98,0.00099326,-0.00055719,-0.00023302,-0.00011169,0.00001579,-0.000292
 88,0.00010885,0.00003360,0.00018636,-0.00005624,0.00003699,0.00023311,
 0.00033454,0.00012645,-0.00009809,-0.00015809,0.00005692,-0.00013200,-
 0.00012955,0.00022434,0.00025074,-0.00008333,-0.00005681,-0.00010611,0
 .00016045,-0.00089729,0.00120288,-0.00031229,0.00079264,-0.00035916,0.
 00016492,0.06413167,-0.22992926,0.19568778,-0.07092343,0.27096247,0.00
 384890,-0.01087275,0.00983832,-0.00024500,0.00000176,0.00173311,-0.001
 17171,-0.00353345,-0.00117076,-0.00140659,-0.00482090,0.00242922,-0.00
 055880,-0.00001333,-0.00032427,0.00013800,-0.00210046,0.00004330,0.000
 06136,-0.00002737,-0.00032087,0.00045323,-0.00089722,0.00061873,0.0001
 6168,0.00032157,-0.00005837,0.00059917,0.00104926,-0.00031587,0.000012
 61,0.00007582,0.00009294,-0.00001927,0.00016467,0.00025790,-0.00001955
 ,-0.00015383,0.00003762,0.00016061,0.00027649,0.00024631,-0.00005183,-
 0.00004585,0.00015077,-0.00002041,0.00013566,-0.00012939,0.00011948,-0
 .00056599,0.00004081,-0.00051787,0.00045864,-0.00030654,-0.10156939,0.
 23944064,-0.28504410,0.09580826,-0.22356839,0.27896409,-0.01935254,0.0
 1634040,0.03930991,-0.10213415,-0.00555861,0.03464683,0.00222234,-0.00
 165767,0.00093166,0.00421186,-0.00381361,-0.00413680,0.00646819,-0.003
 49196,-0.00952892,-0.00833951,-0.00031377,-0.00066525,-0.00024854,-0.0
 0029120,0.00011169,-0.00022367,0.00030201,-0.00001377,0.00021497,0.000
 87332,-0.00171532,0.00264970,-0.00137965,0.00018199,0.00024095,0.00035
 050,-0.00023726,0.00008912,0.00039132,0.00034387,0.00029031,-0.0003619
 9,-0.00059526,0.00011602,0.00028428,0.00027213,0.00188353,0.00402435,-
 0.00256176,-0.00663915,0.00113209,-0.00105267,-0.00110230,0.00066383,-
 0.00134814,0.00063395,-0.00001388,0.00046688,-0.00371583,0.00178970,0.
 00598270,-0.00176442,0.00121744,-0.00054498,0.32704843,0.00363949,-0.0
 0781226,-0.01173405,0.02500016,-0.11248761,-0.06938221,-0.00142869,0.0
 0025143,-0.00017931,-0.00266775,0.00531881,0.00344033,0.01587630,-0.01
 534697,-0.03558090,0.00165095,0.00138385,0.00077903,-0.00369241,-0.002
 13377,0.00064174,-0.00007811,0.00052220,0.00008913,-0.00026104,-0.0006
 8071,0.00133926,-0.00139496,0.00062271,-0.00053750,0.00057946,0.000306
 91,-0.00009211,0.00059238,0.00040200,0.00023566,-0.00012170,0.00006741
 ,0.00045214,0.00032254,0.00052037,0.00027488,0.00642534,-0.00740188,0.
 00756417,0.00196214,-0.00219411,-0.00361275,0.00145066,0.00072506,-0.0
 0009418,0.00027260,-0.00053358,0.00019582,-0.00889808,0.00495092,0.005
 79134,0.00094824,0.00002079,-0.00122317,0.20597054,0.43377532,0.012308
 41,-0.00906877,-0.01527547,0.05959867,-0.04440444,-0.17215216,0.000066
 07,0.00149122,-0.00252394,0.01325474,-0.02621521,-0.04829854,0.0045632
 8,-0.01018302,-0.00974740,0.00221590,0.00021145,0.00170433,0.00615857,
 0.00093866,-0.00188201,-0.00008278,0.00038438,0.00008249,-0.00199568,0
 .00816319,-0.00057389,0.00183470,-0.00137284,0.00270173,-0.00069411,0.
 00018370,0.00052000,0.00020793,-0.00002107,0.00066446,0.00045836,-0.00
 016028,-0.00017741,-0.00014769,-0.00023698,0.00009005,-0.00787048,0.01
 005649,-0.00256190,-0.00203490,-0.00636306,-0.00040794,0.00072753,-0.0
 0081140,0.00265529,-0.00012806,-0.00004710,-0.00067036,-0.00240064,-0.
 00145786,0.00439407,-0.00098026,0.00004683,-0.00087437,-0.03303136,0.1
 6673152,0.29700527,-0.00031743,0.00755068,0.00435820,0.01130958,0.0135
 1823,0.00300239,-0.00037077,0.00022713,-0.00003082,0.00016194,0.000282
 99,-0.00024665,-0.00181369,0.00296416,0.00345492,-0.00005414,-0.001330
 78,-0.00083687,0.00148166,0.00120977,-0.00007125,0.00017864,-0.0004680
 7,0.00003336,0.00022575,-0.00042471,-0.00016273,-0.00030556,-0.0001743
 1,-0.00033745,-0.00015669,-0.00033191,0.00001063,-0.00038659,-0.000195
 30,-0.00068059,-0.00011720,0.00011922,0.00018821,-0.00007883,-0.000039
 82,-0.00003020,-0.00200130,0.00052041,-0.00062926,0.00116512,-0.000946
 68,0.00108841,-0.00015071,-0.00059950,0.00011754,-0.00068407,0.0005401
 9,-0.00024380,0.00416668,-0.00227666,-0.00470132,0.00021205,-0.0013899
 7,0.00248219,-0.20458391,-0.24664215,-0.05227795,0.19351632,-0.0004282
 6,0.00083096,0.00009402,-0.00875295,-0.02067494,-0.00961885,0.00083794
 ,-0.00086510,-0.00027501,-0.00003831,0.00205304,0.00102294,0.00128477,
 -0.00077815,-0.00398820,-0.00117327,-0.00075324,-0.00001802,0.00075573
 ,-0.00052878,0.00001498,-0.00002315,0.00008778,0.00011590,-0.00009091,
 -0.00042417,0.00003111,-0.00007475,0.00005248,-0.00007668,-0.00004324,
 0.00031065,0.00000279,0.00029916,0.00021012,0.00038042,0.00000504,-0.0
 0002011,-0.00000315,0.00003760,-0.00002106,-0.00003853,-0.00035824,0.0
 0080235,0.00003533,-0.00118754,-0.00281915,0.00044617,-0.00081940,0.00
 002128,0.00003252,0.00004599,0.00025391,-0.00004180,0.00018503,-0.0026
 0538,0.00092094,-0.00146891,0.00067098,0.00152550,-0.21692274,-0.30564
 174,-0.08875225,0.22808668,0.33074951,0.00039853,-0.00362509,0.0002135
 1,-0.01961002,-0.03348774,-0.01271727,-0.00013163,-0.00031977,0.000676
 28,-0.00114466,-0.00304637,-0.00233308,0.00179211,-0.00075656,-0.00347
 305,-0.00033926,0.00012513,0.00002242,-0.00005408,0.00115630,0.0005624
 2,-0.00003609,0.00010067,-0.00022328,-0.00010230,0.00031537,-0.0004007
 9,0.00014902,0.00000766,-0.00017952,-0.00008504,-0.00031861,-0.0001632
 8,-0.00060039,-0.00027375,-0.00036752,0.00000033,-0.00001404,0.0000871
 7,0.00006705,0.00017834,0.00014675,-0.00086411,-0.00000942,-0.00132397
 ,0.00221342,0.00115622,0.00206596,-0.00004349,0.00041177,-0.00054008,0
 .00029460,-0.00023757,0.00036467,-0.00438341,0.00295663,0.00011048,0.0
 0258780,0.00043614,-0.00180750,-0.02556985,-0.06401335,-0.05050095,0.0
 4494608,0.09797192,0.06928080,-0.00325341,-0.00312093,0.00099950,0.008
 28486,0.00811343,-0.00124846,0.00065743,0.00003406,-0.00066918,-0.1189
 4097,-0.05792846,-0.01193328,-0.00055520,0.00166797,-0.00244113,0.0005
 4650,-0.00007655,-0.00077963,-0.00082640,-0.00001460,0.00011453,-0.000
 10550,0.00020959,-0.00007808,-0.00198403,-0.01063973,-0.00121437,-0.01
 774971,-0.04174678,0.00738349,0.00006201,0.00005354,-0.00011481,0.0000
 2997,0.00004887,0.00014012,0.00185331,-0.00042171,-0.00207294,0.001844
 96,0.00003089,-0.00080134,0.00073971,0.00006953,-0.00005653,-0.0002998
 3,0.00022360,-0.00016406,0.00048821,0.00030622,-0.00010831,0.00038154,
 -0.00034220,0.00024060,-0.00228316,0.00547495,-0.00641040,-0.00120949,
 0.00145153,0.00174539,0.00166800,0.00023006,0.00103210,-0.00120240,-0.
 00021780,0.00040683,0.19594721,-0.00320797,-0.00149169,-0.00165834,-0.
 01030517,-0.02857866,0.00538612,-0.00090669,0.00041794,-0.00011952,-0.
 07517721,-0.17261323,0.00157362,0.00130065,-0.00050032,0.00348282,0.00
 008384,-0.00000373,0.00056847,-0.00035669,-0.00032455,-0.00015034,-0.0
 0012085,0.00033615,-0.00005542,-0.02370172,-0.04377081,0.00461729,-0.0
 1291766,-0.00817640,0.00412560,0.00005045,-0.00002409,0.00010103,0.000
 03555,0.00011967,0.00006420,0.00070523,0.00212595,0.00172342,-0.000305
 17,-0.00312463,-0.00723816,0.00054456,0.00015340,0.00069302,-0.0000899
 3,-0.00006531,-0.00062668,0.00086434,0.00019633,0.00015338,-0.00008345
 ,-0.00020340,0.00002060,0.00339221,0.00432431,0.00119644,0.00116663,-0
 .00445738,0.00335436,0.00046824,0.00388915,0.00173452,-0.00014644,-0.0
 0083259,0.00073295,0.07988576,0.32882031,0.00182809,-0.00395303,0.0003
 2357,0.01860192,0.03621188,-0.00496674,0.00062205,0.00004295,0.0002990
 1,0.01025646,0.04052039,-0.09461976,-0.00254341,0.00307184,-0.00575307
 ,-0.00063634,0.00051959,0.00030996,0.00039445,-0.00002446,0.00011233,-
 0.00002876,0.00001946,-0.00009874,-0.01629697,-0.02129046,0.00257306,0
 .00584787,0.00911394,0.00193716,-0.00007036,0.00008343,-0.00003594,-0.
 00000147,-0.00002785,0.00014192,-0.00031994,0.00134995,0.00227725,-0.0
 0021679,-0.00370044,-0.00448486,-0.00039941,0.00018894,-0.00067467,0.0
 0005000,-0.00017258,0.00065868,-0.00056672,0.00024116,0.00006320,0.000
 49633,-0.00024204,-0.00000839,-0.00873227,0.00295840,-0.00580849,0.001
 23744,0.00316608,-0.00282177,-0.00067780,-0.00058378,0.00129099,0.0002
 8214,-0.00026042,0.00058678,0.14432743,-0.18506056,0.53938907,0.000066
 70,-0.00093410,-0.00045374,-0.00208331,-0.00242010,-0.00048576,-0.0000
 0249,-0.00000273,0.00010996,0.00513540,-0.00989958,0.02083774,0.000550
 69,-0.00035755,0.00047359,0.00009241,0.00009519,0.00010750,0.00000410,
 -0.00003303,-0.00003262,-0.00001346,0.00005153,-0.00001533,0.00189715,
 -0.00185051,0.00039468,-0.00067803,-0.00093726,0.00097246,0.00000363,0
 .00000969,0.00000530,0.00000350,0.00001261,0.00002631,-0.00037426,0.00
 058430,-0.00015695,-0.00038368,0.00010223,-0.00040372,-0.00001459,0.00
 001629,0.00007953,0.00001993,-0.00001985,-0.00004313,-0.00007876,0.000
 05578,0.00006659,0.00010025,-0.00003405,-0.00004520,-0.00147960,0.0009
 5211,-0.00145920,0.00192572,0.00085306,0.00041769,0.00006042,0.0001946
 6,-0.00001602,-0.00012491,-0.00003747,-0.00002159,-0.06557149,0.038197
 25,-0.15010781,0.06285976,-0.00080241,-0.00003275,-0.00015965,-0.00403
 231,-0.00688758,-0.00036756,0.00006459,-0.00005781,-0.00003451,0.00935
 765,-0.01806858,0.03660724,0.00062565,-0.00073679,0.00163042,0.0002325
 3,0.00001324,-0.00012462,-0.00015129,0.00001121,0.00004115,-0.00001974
 ,0.00002111,0.00000285,0.00109362,-0.00345154,0.00289786,-0.00036931,0
 .00070765,0.00001901,0.00000550,0.00001314,-0.00002736,0.00001120,-0.0
 0000892,0.00000830,-0.00010100,-0.00016379,-0.00035834,0.00019722,0.00
 085049,0.00045727,0.00008772,0.00004862,-0.00000259,-0.00000066,-0.000
 06411,0.00001542,-0.00007272,0.00006851,-0.00008912,0.00010854,-0.0000
 2855,0.00005243,-0.00100787,0.00067376,-0.00089297,0.00158330,0.000040
 09,0.00057095,0.00004854,0.00070354,-0.00039002,-0.00007711,0.00001333
 ,0.00037628,0.01786045,-0.08044917,0.12555073,-0.02603258,0.10376419,-
 0.00013953,-0.00020365,0.00029004,0.00155818,-0.00004972,0.00028997,-0
 .00010934,0.00019780,-0.00003076,-0.00065993,0.00596104,-0.00624266,-0
 .00025631,-0.00039989,0.00007911,-0.00005496,0.00005366,-0.00000137,0.
 00000559,-0.00003452,-0.00001907,0.00000783,-0.00002761,0.00001127,-0.
 00043295,-0.00405872,0.00366099,-0.00087695,-0.00082473,-0.00000485,0.
 00000940,-0.00002128,0.00003178,-0.00000863,0.00000332,-0.00002550,-0.
 00008795,0.00028534,-0.00033662,-0.00028933,0.00045719,-0.00112607,0.0
 0006407,-0.00008991,0.00008479,-0.00003683,0.00011689,-0.00012018,0.00
 023332,-0.00008190,0.00003610,-0.00008497,0.00002874,-0.00001822,0.000
 28819,-0.00048091,0.00072510,-0.00041306,0.00024295,-0.00110368,-0.000
 04538,-0.00024826,0.00033160,-0.00011367,0.00001963,-0.00001810,-0.128
 16116,0.16320194,-0.43093057,0.12884858,-0.16629299,0.43565933,-0.0004
 6422,0.00035011,0.00124756,0.00023347,0.00048692,0.00124352,0.00036463
 ,-0.00016626,-0.00003007,0.00152042,-0.00340904,-0.00231254,-0.0001228
 8,0.00025887,0.00007336,0.00069624,-0.00006907,-0.00054210,-0.00033048
 ,0.00004446,0.00012050,-0.00000493,-0.00005626,0.00004277,-0.09001654,
 0.04555944,-0.02551915,0.00080730,-0.00130227,-0.00059770,0.00000678,0
 .00001910,-0.00008613,0.00002670,-0.00002049,-0.00000811,-0.00873707,0
 .02346771,-0.03322660,0.01225854,-0.00340149,0.00839118,0.00021680,0.0
 0008875,-0.00017832,-0.00007447,-0.00005459,0.00012392,-0.00015481,0.0
 0005297,-0.00026211,0.00011280,-0.00001221,0.00012721,0.00009566,-0.00
 056595,-0.00072667,-0.00003193,0.00023445,0.00019713,0.00047616,-0.000
 01378,-0.00023727,-0.00014943,0.00007979,0.00015750,0.00175481,0.00043
 765,-0.00275238,-0.00216700,0.00094582,0.00051661,0.11607790,0.0000778
 7,-0.00065441,-0.00067337,0.00053275,-0.00309653,-0.00226766,-0.000351
 19,-0.00014787,-0.00000259,-0.00854524,0.00695370,-0.01266895,0.000118
 31,0.00061547,-0.00071753,-0.00042552,-0.00005030,0.00036440,0.0000399
 9,-0.00005356,-0.00006520,-0.00003050,0.00016258,-0.00003921,0.0431506
 8,-0.13705919,0.04321401,-0.00036206,0.00121643,0.00102297,0.00000142,
 -0.00000471,0.00003079,0.00000804,0.00004821,0.00005422,0.00875988,-0.
 00905001,0.01749818,0.01576474,-0.01784430,0.03219560,0.00001862,0.000
 13673,0.00014765,0.00002290,-0.00015783,-0.00006402,0.00019390,0.00015
 297,0.00006510,-0.00001597,-0.00006600,0.00000591,-0.00001044,0.001206
 45,0.00014916,0.00053030,-0.00023862,0.00041068,-0.00013752,0.00072469
 ,-0.00090967,0.00003361,-0.00006675,0.00011592,-0.00048656,0.00371341,
 -0.00615581,-0.00001832,0.00181386,0.00175992,-0.12773016,0.29920900,0
 .00084238,0.00108788,-0.00039420,0.00114551,-0.00683780,0.00093973,0.0
 0050167,-0.00062097,0.00029552,-0.02039742,0.02322906,-0.04673551,0.00
 035996,-0.00038290,0.00075907,0.00028828,-0.00000907,-0.00020332,0.000
 12227,0.00013338,0.00017136,0.00002502,-0.00007471,0.00000484,-0.05082
 841,0.07988338,-0.17061552,0.00036332,0.00114159,0.00253863,-0.0000591
 6,0.00007522,-0.00011936,0.00002855,-0.00006320,0.00003562,-0.00838205
 ,0.00562524,-0.00445843,-0.00430609,0.01430325,-0.01416334,-0.00038214
 ,0.00033400,-0.00057002,0.00016949,-0.00054718,0.00067907,-0.00108625,
 0.00020427,-0.00029758,0.00031989,0.00000823,0.00009913,-0.00113801,-0
 .00087152,-0.00045591,0.00050111,0.00046765,-0.00005623,-0.00044653,-0
 .00031930,-0.00546460,0.00037760,0.00042403,0.00002689,-0.00085331,0.0
 0101644,-0.00107229,0.00105624,0.00115937,-0.00078149,-0.02119762,0.11
 020600,0.65342536,0.00026970,-0.00014133,-0.00014763,0.00063889,-0.000
 68107,-0.00028053,0.00000002,0.00002973,0.00002780,-0.00183507,0.00163
 452,-0.00286734,0.00005627,-0.00000568,0.00003767,-0.00011184,0.000026
 40,0.00007697,0.00011716,0.00000231,-0.00003604,0.00000509,0.00000670,
 -0.00001145,0.00047774,-0.00668566,-0.01747921,0.00021255,-0.00001041,
 -0.00010777,-0.00000674,-0.00000033,0.00001406,-0.00000570,0.00000044,
 0.00000666,0.00038436,-0.00063305,-0.00088718,0.00020722,0.00041995,0.
 00078439,-0.00012066,-0.00000081,0.00002406,0.00004329,-0.00003607,0.0
 0001404,-0.00005339,-0.00001337,0.00009181,-0.00000022,0.00000281,-0.0
 0004808,-0.00015108,0.00006765,0.00012594,0.00009459,-0.00001352,-0.00
 008035,-0.00016992,0.00008319,-0.00052908,0.00007987,0.00001922,-0.000
 02738,-0.00027690,0.00018659,-0.00059375,0.00025192,0.00044466,0.00023
 919,-0.03239444,0.06886048,0.10297571,0.03228729,0.00000335,-0.0000525
 5,-0.00003123,-0.00017785,0.00069587,0.00042166,0.00001031,0.00005731,
 0.00001442,0.00102668,-0.00391008,0.00255656,-0.00004078,0.00008166,-0
 .00002710,-0.00001882,0.00001643,-0.00000126,0.00001130,-0.00000452,-0
 .00000103,-0.00000323,-0.00001133,0.00000078,-0.00331907,0.00822343,0.
 02775280,-0.00017330,-0.00004432,0.00002966,0.00000143,-0.00000057,0.0
 0000698,-0.00000253,-0.00000480,-0.00000668,0.00084563,0.00030196,0.00
 035747,-0.00030363,-0.00040026,0.00135486,-0.00000216,-0.00003612,0.00
 000604,-0.00000503,0.00003967,-0.00002000,0.00000142,-0.00002756,0.000
 01492,0.00000191,0.00000731,-0.00001388,-0.00005430,0.00004711,-0.0000
 2125,0.00012281,0.00000380,0.00003671,0.00008605,0.00004745,0.00045202
 ,-0.00000963,-0.00002523,0.00006096,-0.00066513,0.00051933,-0.00156731
 ,0.00145241,0.00120683,0.00048565,0.06477553,-0.14746344,-0.22957232,-
 0.06356336,0.14073259,0.00008435,0.00001362,-0.00028747,0.00023089,-0.
 00139726,-0.00037334,-0.00015981,0.00000782,0.00001138,-0.00297709,0.0
 0444208,-0.00464065,0.00006743,0.00003968,-0.00003019,-0.00017890,0.00
 001819,0.00010962,0.00005127,-0.00001584,-0.00003609,-0.00000307,0.000
 02986,-0.00000764,0.00789156,-0.01670634,-0.02640026,-0.00005333,0.000
 32862,0.00056553,0.00000253,-0.00001011,0.00002470,-0.00000346,0.00001
 345,0.00000276,-0.00035660,-0.00104431,0.00235726,0.00074239,-0.000427
 86,0.00056477,-0.00001010,-0.00000080,0.00007628,0.00000518,-0.0000128
 1,-0.00005349,0.00010135,-0.00000178,0.00005440,-0.00005048,0.00000769
 ,-0.00002752,0.00011269,0.00011585,0.00022416,-0.00011594,-0.00004768,
 -0.00011939,-0.00007663,0.00006584,-0.00032931,0.00002089,0.00003472,-
 0.00009571,0.00071699,0.00116280,0.00131232,-0.00015512,-0.00064955,-0
 .00044096,0.07543553,-0.18367648,-0.41358743,-0.08132251,0.19771061,0.
 44112627\\-0.00001621,-0.00001987,-0.00000541,0.00000494,-0.00000046,0
 .00000026,-0.00001015,-0.00000013,0.00000983,-0.00000264,-0.00000412,0
 .00000845,-0.00000086,-0.00000571,0.00000409,0.00000334,0.00000760,0.0
 0000264,0.00000673,0.00000303,-0.00001053,0.00000207,-0.00000211,-0.00
 000082,0.00000206,-0.00000429,0.00000536,-0.00000428,0.00000009,0.0000
 0025,0.00000375,0.00000151,-0.00000131,0.00000229,0.00000157,0.0000016
 4,-0.00000151,0.00000394,-0.00000445,-0.00000090,-0.00000098,-0.000004
 88,-0.00000149,-0.00000600,0.00000067,-0.00000455,0.00000164,-0.000003
 98,0.00000998,-0.00000605,-0.00000645,0.00000157,0.00001136,0.00000061
 ,0.00000635,0.00001837,0.00001000,-0.00000776,0.00000898,-0.00000585,0
 .00000753,-0.00000814,-0.00000855,0.00000114,-0.00000345,-0.00000167,0
 .00000732,0.00000264,0.00000665,-0.00000646,0.00000351,-0.00000128,-0.
 00000354,0.00000198,0.00000899,0.00000129,-0.00000492,-0.00000426\\\@
 The archive entry for this job was punched.



 WE LOSE BECAUSE WE WIN

 GAMBLERS,

 RECOLLECTING WHICH,

 TOSS THEIR DICE AGAIN....


                          EMILY DICKINSON  BOLTS OF MELODY NO. 533
 Job cpu time:       0 days  9 hours 52 minutes  6.2 seconds.
 Elapsed time:       0 days  0 hours 37 minutes 22.1 seconds.
 File lengths (MBytes):  RWF=    704 Int=      0 D2E=      0 Chk=     27 Scr=      1
 Normal termination of Gaussian 16 at Wed Oct 11 16:01:19 2023.
