 Entering Gaussian System, Link 0=/opt/software/gaussian/g16.c01/g16
 Initial command:
 /opt/software/gaussian/g16.c01/l1.exe "/scratch/arhender/13209918/Gau-127829.inp" -scrdir="/scratch/arhender/13209918/"
 Entering Link 1 = /opt/software/gaussian/g16.c01/l1.exe PID=    127834.
  
 Copyright (c) 1988-2019, Gaussian, Inc.  All Rights Reserved.
  
 This is part of the Gaussian(R) 16 program.  It is based on
 the Gaussian(R) 09 system (copyright 2009, Gaussian, Inc.),
 the Gaussian(R) 03 system (copyright 2003, Gaussian, Inc.),
 the Gaussian(R) 98 system (copyright 1998, Gaussian, Inc.),
 the Gaussian(R) 94 system (copyright 1995, Gaussian, Inc.),
 the Gaussian 92(TM) system (copyright 1992, Gaussian, Inc.),
 the Gaussian 90(TM) system (copyright 1990, Gaussian, Inc.),
 the Gaussian 88(TM) system (copyright 1988, Gaussian, Inc.),
 the Gaussian 86(TM) system (copyright 1986, Carnegie Mellon
 University), and the Gaussian 82(TM) system (copyright 1983,
 Carnegie Mellon University). Gaussian is a federally registered
 trademark of Gaussian, Inc.
  
 This software contains proprietary and confidential information,
 including trade secrets, belonging to Gaussian, Inc.
  
 This software is provided under written license and may be
 used, copied, transmitted, or stored only in accord with that
 written license.
  
 The following legend is applicable only to US Government
 contracts under FAR:
  
                    RESTRICTED RIGHTS LEGEND
  
 Use, reproduction and disclosure by the US Government is
 subject to restrictions as set forth in subparagraphs (a)
 and (c) of the Commercial Computer Software - Restricted
 Rights clause in FAR 52.227-19.
  
 Gaussian, Inc.
 340 Quinnipiac St., Bldg. 40, Wallingford CT 06492
  
  
 ---------------------------------------------------------------
 Warning -- This program may not be used in any manner that
 competes with the business of Gaussian, Inc. or will provide
 assistance to any competitor of Gaussian, Inc.  The licensee
 of this program is prohibited from giving any competitor of
 Gaussian, Inc. access to this program.  By using this program,
 the user acknowledges that Gaussian, Inc. is engaged in the
 business of creating and licensing software in the field of
 computational chemistry and represents and warrants to the
 licensee that it is not a competitor of Gaussian, Inc. and that
 it will not use this program in any manner prohibited above.
 ---------------------------------------------------------------
  

 Cite this work as:
 Gaussian 16, Revision C.01,
 M. J. Frisch, G. W. Trucks, H. B. Schlegel, G. E. Scuseria, 
 M. A. Robb, J. R. Cheeseman, G. Scalmani, V. Barone, 
 G. A. Petersson, H. Nakatsuji, X. Li, M. Caricato, A. V. Marenich, 
 J. Bloino, B. G. Janesko, R. Gomperts, B. Mennucci, H. P. Hratchian, 
 J. V. Ortiz, A. F. Izmaylov, J. L. Sonnenberg, D. Williams-Young, 
 F. Ding, F. Lipparini, F. Egidi, J. Goings, B. Peng, A. Petrone, 
 T. Henderson, D. Ranasinghe, V. G. Zakrzewski, J. Gao, N. Rega, 
 G. Zheng, W. Liang, M. Hada, M. Ehara, K. Toyota, R. Fukuda, 
 J. Hasegawa, M. Ishida, T. Nakajima, Y. Honda, O. Kitao, H. Nakai, 
 T. Vreven, K. Throssell, J. A. Montgomery, Jr., J. E. Peralta, 
 F. Ogliaro, M. J. Bearpark, J. J. Heyd, E. N. Brothers, K. N. Kudin, 
 V. N. Staroverov, T. A. Keith, R. Kobayashi, J. Normand, 
 K. Raghavachari, A. P. Rendell, J. C. Burant, S. S. Iyengar, 
 J. Tomasi, M. Cossi, J. M. Millam, M. Klene, C. Adamo, R. Cammi, 
 J. W. Ochterski, R. L. Martin, K. Morokuma, O. Farkas, 
 J. B. Foresman, and D. J. Fox, Gaussian, Inc., Wallingford CT, 2019.
 
 ******************************************
 Gaussian 16:  ES64L-G16RevC.01  3-Jul-2019
                27-Sep-2023 
 ******************************************
 %chk=MannitolConformerOpt_14.chk
 %mem=8GB
 %nprocs=16
 Will use up to   16 processors via shared memory.
 ---------------------------------------------
 # opt freq wb97xd/def2tzvpp geom=connectivity
 ---------------------------------------------
 1/18=20,19=15,26=3,38=1,57=2/1,3;
 2/9=110,12=2,17=6,18=5,40=1/2;
 3/5=44,7=202,11=2,25=1,30=1,71=1,74=-58/1,2,3;
 4//1;
 5/5=2,38=5/2;
 6/7=2,8=2,9=2,10=2,28=1/1;
 7//1,2,3,16;
 1/18=20,19=15,26=3/3(2);
 2/9=110/2;
 99//99;
 2/9=110/2;
 3/5=44,7=202,11=2,25=1,30=1,71=1,74=-58/1,2,3;
 4/5=5,16=3,69=1/1;
 5/5=2,38=5/2;
 7//1,2,3,16;
 1/18=20,19=15,26=3/3(-5);
 2/9=110/2;
 6/7=2,8=2,9=2,10=2,19=2,28=1/1;
 99/9=1/99;
 --------------------------------
 Mannitol Conformer Optimziations
 --------------------------------
 Symbolic Z-matrix:
 Charge =  0 Multiplicity = 1
 C                     0.        0.        0. 
 C                     1.5374    0.        0. 
 C                    -0.6183    0.9546   -1.0505 
 C                     2.1648   -0.715     1.2104 
 H                     1.8953    1.0372    0. 
 H                    -0.3543    0.3163    0.9887 
 C                    -0.3612    0.5898   -2.5203 
 H                    -0.2774    1.9795   -0.8689 
 C                     1.7929   -2.1918    1.3757 
 H                     1.9315   -0.1729    2.1341 
 H                    -0.9732    1.2205   -3.1739 
 H                     0.6888    0.7241   -2.7921 
 H                     1.9872   -2.7599    0.461 
 H                     0.7527   -2.3178    1.6849 
 O                    -0.7356   -0.7691   -2.7727 
 H                    -0.5413   -0.9324   -3.7139 
 O                    -2.0447    0.9489   -0.8491 
 H                    -2.3039    0.0086   -0.935 
 O                    -0.5133   -1.3291   -0.191 
 H                    -0.3982   -1.5158   -1.1514 
 O                     2.055    -0.5938   -1.2015 
 H                     3.0124   -0.7091   -1.0213 
 O                     3.6001   -0.6454    1.0426 
 H                     3.945    -1.2745    1.7126 
 O                     2.6304   -2.7408    2.4048 
 H                     2.3448   -3.6653    2.5208 
 

 GradGradGradGradGradGradGradGradGradGradGradGradGradGradGradGradGradGrad
 Berny optimization.
 Initialization pass.
                           ----------------------------
                           !    Initial Parameters    !
                           ! (Angstroms and Degrees)  !
 --------------------------                            --------------------------
 ! Name  Definition              Value          Derivative Info.                !
 --------------------------------------------------------------------------------
 ! R1    R(1,2)                  1.5374         estimate D2E/DX2                !
 ! R2    R(1,3)                  1.5483         estimate D2E/DX2                !
 ! R3    R(1,6)                  1.0969         estimate D2E/DX2                !
 ! R4    R(1,19)                 1.4375         estimate D2E/DX2                !
 ! R5    R(2,4)                  1.5395         estimate D2E/DX2                !
 ! R6    R(2,5)                  1.0972         estimate D2E/DX2                !
 ! R7    R(2,21)                 1.4367         estimate D2E/DX2                !
 ! R8    R(3,7)                  1.5361         estimate D2E/DX2                !
 ! R9    R(3,8)                  1.0953         estimate D2E/DX2                !
 ! R10   R(3,17)                 1.4406         estimate D2E/DX2                !
 ! R11   R(4,9)                  1.5319         estimate D2E/DX2                !
 ! R12   R(4,10)                 1.0961         estimate D2E/DX2                !
 ! R13   R(4,23)                 1.4468         estimate D2E/DX2                !
 ! R14   R(7,11)                 1.0952         estimate D2E/DX2                !
 ! R15   R(7,12)                 1.0929         estimate D2E/DX2                !
 ! R16   R(7,15)                 1.432          estimate D2E/DX2                !
 ! R17   R(9,13)                 1.0942         estimate D2E/DX2                !
 ! R18   R(9,14)                 1.0925         estimate D2E/DX2                !
 ! R19   R(9,25)                 1.4359         estimate D2E/DX2                !
 ! R20   R(15,16)                0.9748         estimate D2E/DX2                !
 ! R21   R(17,18)                0.9791         estimate D2E/DX2                !
 ! R22   R(19,20)                0.9851         estimate D2E/DX2                !
 ! R23   R(21,22)                0.981          estimate D2E/DX2                !
 ! R24   R(23,24)                0.9816         estimate D2E/DX2                !
 ! R25   R(25,26)                0.9745         estimate D2E/DX2                !
 ! A1    A(2,1,3)              113.5377         estimate D2E/DX2                !
 ! A2    A(2,1,6)              108.8452         estimate D2E/DX2                !
 ! A3    A(2,1,19)             110.9206         estimate D2E/DX2                !
 ! A4    A(3,1,6)              107.7464         estimate D2E/DX2                !
 ! A5    A(3,1,19)             109.7132         estimate D2E/DX2                !
 ! A6    A(6,1,19)             105.7265         estimate D2E/DX2                !
 ! A7    A(1,2,4)              114.0508         estimate D2E/DX2                !
 ! A8    A(1,2,5)              109.0377         estimate D2E/DX2                !
 ! A9    A(1,2,21)             111.1168         estimate D2E/DX2                !
 ! A10   A(4,2,5)              107.8249         estimate D2E/DX2                !
 ! A11   A(4,2,21)             108.5872         estimate D2E/DX2                !
 ! A12   A(5,2,21)             105.8539         estimate D2E/DX2                !
 ! A13   A(1,3,7)              115.8467         estimate D2E/DX2                !
 ! A14   A(1,3,8)              109.8863         estimate D2E/DX2                !
 ! A15   A(1,3,17)             107.3452         estimate D2E/DX2                !
 ! A16   A(7,3,8)              109.1952         estimate D2E/DX2                !
 ! A17   A(7,3,17)             107.3715         estimate D2E/DX2                !
 ! A18   A(8,3,17)             106.7808         estimate D2E/DX2                !
 ! A19   A(2,4,9)              115.6999         estimate D2E/DX2                !
 ! A20   A(2,4,10)             110.2505         estimate D2E/DX2                !
 ! A21   A(2,4,23)             106.9049         estimate D2E/DX2                !
 ! A22   A(9,4,10)             109.5224         estimate D2E/DX2                !
 ! A23   A(9,4,23)             107.4426         estimate D2E/DX2                !
 ! A24   A(10,4,23)            106.5648         estimate D2E/DX2                !
 ! A25   A(3,7,11)             109.9219         estimate D2E/DX2                !
 ! A26   A(3,7,12)             111.6905         estimate D2E/DX2                !
 ! A27   A(3,7,15)             110.5039         estimate D2E/DX2                !
 ! A28   A(11,7,12)            108.5225         estimate D2E/DX2                !
 ! A29   A(11,7,15)            107.1692         estimate D2E/DX2                !
 ! A30   A(12,7,15)            108.9038         estimate D2E/DX2                !
 ! A31   A(4,9,13)             111.545          estimate D2E/DX2                !
 ! A32   A(4,9,14)             111.8941         estimate D2E/DX2                !
 ! A33   A(4,9,25)             107.7178         estimate D2E/DX2                !
 ! A34   A(13,9,14)            110.2312         estimate D2E/DX2                !
 ! A35   A(13,9,25)            107.2808         estimate D2E/DX2                !
 ! A36   A(14,9,25)            107.9632         estimate D2E/DX2                !
 ! A37   A(7,15,16)            106.0837         estimate D2E/DX2                !
 ! A38   A(3,17,18)            104.6938         estimate D2E/DX2                !
 ! A39   A(1,19,20)            105.2504         estimate D2E/DX2                !
 ! A40   A(2,21,22)            104.274          estimate D2E/DX2                !
 ! A41   A(4,23,24)            103.8025         estimate D2E/DX2                !
 ! A42   A(9,25,26)            106.0861         estimate D2E/DX2                !
 ! D1    D(3,1,2,4)            168.3092         estimate D2E/DX2                !
 ! D2    D(3,1,2,5)             47.7383         estimate D2E/DX2                !
 ! D3    D(3,1,2,21)           -68.561          estimate D2E/DX2                !
 ! D4    D(6,1,2,4)             48.3112         estimate D2E/DX2                !
 ! D5    D(6,1,2,5)            -72.2597         estimate D2E/DX2                !
 ! D6    D(6,1,2,21)           171.441          estimate D2E/DX2                !
 ! D7    D(19,1,2,4)           -67.6068         estimate D2E/DX2                !
 ! D8    D(19,1,2,5)           171.8222         estimate D2E/DX2                !
 ! D9    D(19,1,2,21)           55.5229         estimate D2E/DX2                !
 ! D10   D(2,1,3,7)             65.5517         estimate D2E/DX2                !
 ! D11   D(2,1,3,8)            -58.7624         estimate D2E/DX2                !
 ! D12   D(2,1,3,17)          -174.5237         estimate D2E/DX2                !
 ! D13   D(6,1,3,7)           -173.8287         estimate D2E/DX2                !
 ! D14   D(6,1,3,8)             61.8571         estimate D2E/DX2                !
 ! D15   D(6,1,3,17)           -53.9042         estimate D2E/DX2                !
 ! D16   D(19,1,3,7)           -59.1849         estimate D2E/DX2                !
 ! D17   D(19,1,3,8)           176.501          estimate D2E/DX2                !
 ! D18   D(19,1,3,17)           60.7397         estimate D2E/DX2                !
 ! D19   D(2,1,19,20)          -76.4748         estimate D2E/DX2                !
 ! D20   D(3,1,19,20)           49.7621         estimate D2E/DX2                !
 ! D21   D(6,1,19,20)          165.6918         estimate D2E/DX2                !
 ! D22   D(1,2,4,9)             59.3475         estimate D2E/DX2                !
 ! D23   D(1,2,4,10)           -65.6017         estimate D2E/DX2                !
 ! D24   D(1,2,4,23)           178.9478         estimate D2E/DX2                !
 ! D25   D(5,2,4,9)           -179.4065         estimate D2E/DX2                !
 ! D26   D(5,2,4,10)            55.6444         estimate D2E/DX2                !
 ! D27   D(5,2,4,23)           -59.8061         estimate D2E/DX2                !
 ! D28   D(21,2,4,9)           -65.1461         estimate D2E/DX2                !
 ! D29   D(21,2,4,10)          169.9048         estimate D2E/DX2                !
 ! D30   D(21,2,4,23)           54.4543         estimate D2E/DX2                !
 ! D31   D(1,2,21,22)         -168.8896         estimate D2E/DX2                !
 ! D32   D(4,2,21,22)          -42.6756         estimate D2E/DX2                !
 ! D33   D(5,2,21,22)           72.8698         estimate D2E/DX2                !
 ! D34   D(1,3,7,11)           170.5276         estimate D2E/DX2                !
 ! D35   D(1,3,7,12)           -68.9547         estimate D2E/DX2                !
 ! D36   D(1,3,7,15)            52.4444         estimate D2E/DX2                !
 ! D37   D(8,3,7,11)           -64.8013         estimate D2E/DX2                !
 ! D38   D(8,3,7,12)            55.7164         estimate D2E/DX2                !
 ! D39   D(8,3,7,15)           177.1155         estimate D2E/DX2                !
 ! D40   D(17,3,7,11)           50.6174         estimate D2E/DX2                !
 ! D41   D(17,3,7,12)          171.1351         estimate D2E/DX2                !
 ! D42   D(17,3,7,15)          -67.4659         estimate D2E/DX2                !
 ! D43   D(1,3,17,18)          -57.0287         estimate D2E/DX2                !
 ! D44   D(7,3,17,18)           68.1599         estimate D2E/DX2                !
 ! D45   D(8,3,17,18)         -174.8292         estimate D2E/DX2                !
 ! D46   D(2,4,9,13)            53.1165         estimate D2E/DX2                !
 ! D47   D(2,4,9,14)           -70.8947         estimate D2E/DX2                !
 ! D48   D(2,4,9,25)           170.5946         estimate D2E/DX2                !
 ! D49   D(10,4,9,13)          178.4398         estimate D2E/DX2                !
 ! D50   D(10,4,9,14)           54.4287         estimate D2E/DX2                !
 ! D51   D(10,4,9,25)          -64.082          estimate D2E/DX2                !
 ! D52   D(23,4,9,13)          -66.1896         estimate D2E/DX2                !
 ! D53   D(23,4,9,14)          169.7992         estimate D2E/DX2                !
 ! D54   D(23,4,9,25)           51.2885         estimate D2E/DX2                !
 ! D55   D(2,4,23,24)         -167.7798         estimate D2E/DX2                !
 ! D56   D(9,4,23,24)          -42.9891         estimate D2E/DX2                !
 ! D57   D(10,4,23,24)          74.3274         estimate D2E/DX2                !
 ! D58   D(3,7,15,16)         -179.6061         estimate D2E/DX2                !
 ! D59   D(11,7,15,16)          60.6389         estimate D2E/DX2                !
 ! D60   D(12,7,15,16)         -56.5712         estimate D2E/DX2                !
 ! D61   D(4,9,25,26)          177.2693         estimate D2E/DX2                !
 ! D62   D(13,9,25,26)         -62.5231         estimate D2E/DX2                !
 ! D63   D(14,9,25,26)          56.2652         estimate D2E/DX2                !
 --------------------------------------------------------------------------------
 Trust Radius=3.00D-01 FncErr=1.00D-07 GrdErr=1.00D-06 EigMax=2.50D+02 EigMin=1.00D-04
 Number of steps in this run=    140 maximum allowed number of steps=    156.
 GradGradGradGradGradGradGradGradGradGradGradGradGradGradGradGradGradGrad

                          Input orientation:                          
 ---------------------------------------------------------------------
 Center     Atomic      Atomic             Coordinates (Angstroms)
 Number     Number       Type             X           Y           Z
 ---------------------------------------------------------------------
      1          6           0        0.000000    0.000000    0.000000
      2          6           0        1.537400    0.000000    0.000000
      3          6           0       -0.618300    0.954600   -1.050500
      4          6           0        2.164800   -0.715000    1.210400
      5          1           0        1.895300    1.037200    0.000000
      6          1           0       -0.354300    0.316300    0.988700
      7          6           0       -0.361200    0.589800   -2.520300
      8          1           0       -0.277400    1.979500   -0.868900
      9          6           0        1.792900   -2.191800    1.375700
     10          1           0        1.931500   -0.172900    2.134100
     11          1           0       -0.973200    1.220500   -3.173900
     12          1           0        0.688800    0.724100   -2.792100
     13          1           0        1.987200   -2.759900    0.461000
     14          1           0        0.752700   -2.317800    1.684900
     15          8           0       -0.735600   -0.769100   -2.772700
     16          1           0       -0.541300   -0.932400   -3.713900
     17          8           0       -2.044700    0.948900   -0.849100
     18          1           0       -2.303900    0.008600   -0.935000
     19          8           0       -0.513300   -1.329100   -0.191000
     20          1           0       -0.398200   -1.515800   -1.151400
     21          8           0        2.055000   -0.593800   -1.201500
     22          1           0        3.012400   -0.709100   -1.021300
     23          8           0        3.600100   -0.645400    1.042600
     24          1           0        3.945000   -1.274500    1.712600
     25          8           0        2.630400   -2.740800    2.404800
     26          1           0        2.344800   -3.665300    2.520800
 ---------------------------------------------------------------------
                    Distance matrix (angstroms):
                    1          2          3          4          5
     1  C    0.000000
     2  C    1.537400   0.000000
     3  C    1.548259   2.581057   0.000000
     4  C    2.581211   1.539456   3.955361   0.000000
     5  H    2.160543   1.097213   2.725538   2.146603   0.000000
     6  H    1.096860   2.157800   2.153012   2.731043   2.560845
     7  C    2.613473   3.210056   1.536064   4.690555   3.412312
     8  H    2.179532   2.822571   1.095268   4.189052   2.522606
     9  C    3.148179   2.600350   4.647598   1.531852   3.511336
    10  H    2.883569   2.177060   4.232542   1.096140   2.453576
    11  H    3.537002   4.226863   2.169213   5.728463   4.282001
    12  H    2.965567   3.006703   2.189706   4.502176   3.057695
    13  H    3.431987   2.834059   4.782340   2.185122   3.826086
    14  H    2.962709   2.971000   4.480029   2.188183   3.924340
    15  O    2.969931   3.666866   2.439441   4.927508   4.227555
    16  H    3.867225   4.356996   3.265026   5.623075   4.858950
    17  O    2.408771   3.801687   1.440559   4.972926   4.031423
    18  H    2.486414   3.953465   1.936364   5.009553   4.423293
    19  O    1.437520   2.451195   2.442345   3.084357   3.381895
    20  H    1.944720   2.714759   2.482237   3.576080   3.619900
    21  O    2.453411   1.436701   3.093037   2.417438   2.032060
    22  H    3.258900   1.929119   3.993837   2.387246   2.310959
    23  O    3.803193   2.399643   4.973527   1.446751   2.612375
    24  H    4.485574   3.217746   5.781636   1.932448   3.532453
    25  O    4.496004   3.806533   6.012415   2.397340   4.538361
    26  H    5.028613   4.521145   6.548101   3.233236   5.354436
                    6          7          8          9         10
     6  H    0.000000
     7  C    3.519649   0.000000
     8  H    2.494559   2.159956   0.000000
     9  C    3.324275   5.249406   5.169537   0.000000
    10  H    2.603102   5.244199   4.304657   2.161096   0.000000
    11  H    4.304399   1.095226   2.524528   6.324078   6.209163
    12  H    3.943198   1.092891   2.491640   5.205004   5.159104
    13  H    3.901807   5.061978   5.418391   1.094151   3.081385
    14  H    2.940855   5.232458   5.103899   1.092473   2.488362
    15  O    3.933397   1.431953   3.374789   5.062273   5.616544
    16  H    4.869155   1.942733   4.079562   5.739217   6.394582
    17  O    2.575877   2.399174   2.045942   5.435155   5.095889
    18  H    2.756128   2.573918   2.827635   5.192770   5.233635
    19  O    2.030841   3.021746   3.385562   2.918451   3.566502
    20  H    2.817542   2.511734   3.508778   3.412350   4.245632
    21  O    3.380826   2.996359   3.488923   3.043725   3.364318
    22  H    4.052927   3.913479   4.251421   3.071024   3.378225
    23  O    4.070019   5.469175   5.057563   2.401724   2.049111
    24  H    4.640976   6.319527   5.922949   2.363573   2.333531
    25  O    4.501070   6.655763   6.438450   1.435916   2.675042
    26  H    5.048327   7.130288   7.087296   1.946034   3.537967
                   11         12         13         14         15
    11  H    0.000000
    12  H    1.776071   0.000000
    13  H    6.149801   4.940320   0.000000
    14  H    6.253498   5.413018   1.793704   0.000000
    15  O    2.043508   2.063719   4.672659   4.948101   0.000000
    16  H    2.261220   2.259835   5.211800   5.721959   0.974821
    17  O    2.574213   3.361221   5.632742   4.991786   2.892318
    18  H    2.872653   3.594025   5.294048   4.649604   2.538016
    19  O    3.950906   3.525109   2.953776   2.469673   2.651074
    20  H    3.450865   2.981714   3.136519   3.164233   1.816594
    21  O    4.043766   2.476564   2.731390   3.605477   3.207312
    22  H    4.923622   3.254061   2.730207   3.875265   4.137452
    23  O    6.494269   5.005609   2.722281   3.364098   5.776687
    24  H    7.368283   5.906739   2.757879   3.358574   6.502412
    25  O    7.733028   6.540880   2.047542   2.054980   6.482597
    26  H    8.204253   7.087741   2.278246   2.247058   6.774805
                   16         17         18         19         20
    16  H    0.000000
    17  O    3.742537   0.000000
    18  H    3.422649   0.979146   0.000000
    19  O    3.545276   2.822688   2.355679   0.000000
    20  H    2.631965   2.979445   2.449963   0.985126   0.000000
    21  O    3.628716   4.394502   4.408392   2.856211   2.621218
    22  H    4.464162   5.324742   5.365220   3.674828   3.507119
    23  O    6.313308   6.163123   6.260658   4.348480   4.643020
    24  H    7.049172   6.883482   6.906872   4.848001   5.208081
    25  O    7.125200   6.786627   6.562071   4.314386   4.829037
    26  H    7.393903   7.205191   6.859337   4.580439   5.062554
                   21         22         23         24         25
    21  O    0.000000
    22  H    0.981010   0.000000
    23  O    2.725065   2.146889   0.000000
    24  H    3.539411   2.943404   0.981643   0.000000
    25  O    4.236283   4.001486   2.680785   2.087427   0.000000
    26  H    4.834627   4.661682   3.588962   2.988269   0.974538
                   26
    26  H    0.000000
 Stoichiometry    C6H14O6
 Framework group  C1[X(C6H14O6)]
 Deg. of freedom    72
 Full point group                 C1      NOp   1
 Largest Abelian subgroup         C1      NOp   1
 Largest concise Abelian subgroup C1      NOp   1
                         Standard orientation:                         
 ---------------------------------------------------------------------
 Center     Atomic      Atomic             Coordinates (Angstroms)
 Number     Number       Type             X           Y           Z
 ---------------------------------------------------------------------
      1          6           0        0.625928   -0.502570   -0.629170
      2          6           0       -0.418077    0.625750   -0.605817
      3          6           0        2.069661   -0.003950   -0.882387
      4          6           0       -1.875934    0.132416   -0.640404
      5          1           0       -0.262569    1.275313   -1.476312
      6          1           0        0.369662   -1.205846   -1.430938
      7          6           0        2.674210    0.882995    0.216404
      8          1           0        2.118402    0.525463   -1.839966
      9          6           0       -2.294243   -0.785233    0.512640
     10          1           0       -2.086948   -0.360931   -1.596231
     11          1           0        3.740957    1.040118    0.024354
     12          1           0        2.182792    1.857989    0.264434
     13          1           0       -2.072365   -0.335316    1.485014
     14          1           0       -1.829683   -1.771169    0.437728
     15          8           0        2.564161    0.244597    1.493443
     16          1           0        2.958159    0.860555    2.138143
     17          8           0        2.910130   -1.167256   -1.007053
     18          1           0        2.778560   -1.659475   -0.170909
     19          8           0        0.583249   -1.266646    0.587724
     20          1           0        1.034048   -0.706644    1.261261
     21          8           0       -0.246234    1.466157    0.546701
     22          1           0       -1.053391    2.023508    0.562152
     23          8           0       -2.718909    1.307018   -0.587554
     24          1           0       -3.613918    0.945153   -0.409692
     25          8           0       -3.717590   -0.959535    0.438107
     26          1           0       -3.951444   -1.579844    1.152427
 ---------------------------------------------------------------------
 Rotational constants (GHZ):           1.7365356           0.4868698           0.4629486
 Standard basis: def2TZVPP (5D, 7F)
 There are   642 symmetry adapted cartesian basis functions of A   symmetry.
 There are   568 symmetry adapted basis functions of A   symmetry.
   568 basis functions,   850 primitive gaussians,   642 cartesian basis functions
    49 alpha electrons       49 beta electrons
       nuclear repulsion energy       831.7228504137 Hartrees.
 NAtoms=   26 NActive=   26 NUniq=   26 SFac= 1.00D+00 NAtFMM=   60 NAOKFM=F Big=F
 Integral buffers will be    131072 words long.
 Raffenetti 2 integral format.
 Two-electron integral symmetry is turned on.
 Nuclear repulsion after empirical dispersion term =      831.7045716545 Hartrees.
 One-electron integrals computed using PRISM.
   1 Symmetry operations used in ECPInt.
 ECPInt:  NShTT=   23436 NPrTT=   62434 LenC2=   21836 LenP2D=   45349.
 LDataN:  DoStor=T MaxTD1= 6 Len=  172
 NBasis=   568 RedAO= T EigKep=  4.18D-05  NBF=   568
 NBsUse=   568 1.00D-06 EigRej= -1.00D+00 NBFU=   568
 ExpMin= 9.52D-02 ExpMax= 2.70D+04 ExpMxC= 9.22D+02 IAcc=3 IRadAn=         5 AccDes= 0.00D+00
 Harris functional with IExCor= 4639 and IRadAn=       5 diagonalized for initial guess.
 HarFok:  IExCor= 4639 AccDes= 0.00D+00 IRadAn=         5 IDoV= 1 UseB2=F ITyADJ=14
 ICtDFT=  3500011 ScaDFX=  1.000000  1.000000  1.000000  1.000000
 FoFCou: FMM=F IPFlag=           0 FMFlag=      100000 FMFlg1=           0
         NFxFlg=           0 DoJE=T BraDBF=F KetDBF=T FulRan=T
         wScrn=  0.000000 ICntrl=       500 IOpCl=  0 I1Cent=   200000004 NGrid=           0
         NMat0=    1 NMatS0=      1 NMatT0=    0 NMatD0=    1 NMtDS0=    0 NMtDT0=    0
 Petite list used in FoFCou.
 Requested convergence on RMS density matrix=1.00D-08 within 128 cycles.
 Requested convergence on MAX density matrix=1.00D-06.
 Requested convergence on             energy=1.00D-06.
 No special actions if energy rises.
 Integral accuracy reduced to 1.0D-05 until final iterations.
 Initial convergence to 1.0D-05 achieved.  Increase integral accuracy.
 SCF Done:  E(RwB97XD) =  -688.467626446     A.U. after   13 cycles
            NFock= 13  Conv=0.90D-08     -V/T= 2.0050

 **********************************************************************

            Population analysis using the SCF Density.

 **********************************************************************

 Orbital symmetries:
       Occupied  (A) (A) (A) (A) (A) (A) (A) (A) (A) (A) (A) (A)
                 (A) (A) (A) (A) (A) (A) (A) (A) (A) (A) (A) (A)
                 (A) (A) (A) (A) (A) (A) (A) (A) (A) (A) (A) (A)
                 (A) (A) (A) (A) (A) (A) (A) (A) (A) (A) (A) (A)
                 (A)
       Virtual   (A) (A) (A) (A) (A) (A) (A) (A) (A) (A) (A) (A)
                 (A) (A) (A) (A) (A) (A) (A) (A) (A) (A) (A) (A)
                 (A) (A) (A) (A) (A) (A) (A) (A) (A) (A) (A) (A)
                 (A) (A) (A) (A) (A) (A) (A) (A) (A) (A) (A) (A)
                 (A) (A) (A) (A) (A) (A) (A) (A) (A) (A) (A) (A)
                 (A) (A) (A) (A) (A) (A) (A) (A) (A) (A) (A) (A)
                 (A) (A) (A) (A) (A) (A) (A) (A) (A) (A) (A) (A)
                 (A) (A) (A) (A) (A) (A) (A) (A) (A) (A) (A) (A)
                 (A) (A) (A) (A) (A) (A) (A) (A) (A) (A) (A) (A)
                 (A) (A) (A) (A) (A) (A) (A) (A) (A) (A) (A) (A)
                 (A) (A) (A) (A) (A) (A) (A) (A) (A) (A) (A) (A)
                 (A) (A) (A) (A) (A) (A) (A) (A) (A) (A) (A) (A)
                 (A) (A) (A) (A) (A) (A) (A) (A) (A) (A) (A) (A)
                 (A) (A) (A) (A) (A) (A) (A) (A) (A) (A) (A) (A)
                 (A) (A) (A) (A) (A) (A) (A) (A) (A) (A) (A) (A)
                 (A) (A) (A) (A) (A) (A) (A) (A) (A) (A) (A) (A)
                 (A) (A) (A) (A) (A) (A) (A) (A) (A) (A) (A) (A)
                 (A) (A) (A) (A) (A) (A) (A) (A) (A) (A) (A) (A)
                 (A) (A) (A) (A) (A) (A) (A) (A) (A) (A) (A) (A)
                 (A) (A) (A) (A) (A) (A) (A) (A) (A) (A) (A) (A)
                 (A) (A) (A) (A) (A) (A) (A) (A) (A) (A) (A) (A)
                 (A) (A) (A) (A) (A) (A) (A) (A) (A) (A) (A) (A)
                 (A) (A) (A) (A) (A) (A) (A) (A) (A) (A) (A) (A)
                 (A) (A) (A) (A) (A) (A) (A) (A) (A) (A) (A) (A)
                 (A) (A) (A) (A) (A) (A) (A) (A) (A) (A) (A) (A)
                 (A) (A) (A) (A) (A) (A) (A) (A) (A) (A) (A) (A)
                 (A) (A) (A) (A) (A) (A) (A) (A) (A) (A) (A) (A)
                 (A) (A) (A) (A) (A) (A) (A) (A) (A) (A) (A) (A)
                 (A) (A) (A) (A) (A) (A) (A) (A) (A) (A) (A) (A)
                 (A) (A) (A) (A) (A) (A) (A) (A) (A) (A) (A) (A)
                 (A) (A) (A) (A) (A) (A) (A) (A) (A) (A) (A) (A)
                 (A) (A) (A) (A) (A) (A) (A) (A) (A) (A) (A) (A)
                 (A) (A) (A) (A) (A) (A) (A) (A) (A) (A) (A) (A)
                 (A) (A) (A) (A) (A) (A) (A) (A) (A) (A) (A) (A)
                 (A) (A) (A) (A) (A) (A) (A) (A) (A) (A) (A) (A)
                 (A) (A) (A) (A) (A) (A) (A) (A) (A) (A) (A) (A)
                 (A) (A) (A) (A) (A) (A) (A) (A) (A) (A) (A) (A)
                 (A) (A) (A) (A) (A) (A) (A) (A) (A) (A) (A) (A)
                 (A) (A) (A) (A) (A) (A) (A) (A) (A) (A) (A) (A)
                 (A) (A) (A) (A) (A) (A) (A) (A) (A) (A) (A) (A)
                 (A) (A) (A) (A) (A) (A) (A) (A) (A) (A) (A) (A)
                 (A) (A) (A) (A) (A) (A) (A) (A) (A) (A) (A) (A)
                 (A) (A) (A) (A) (A) (A) (A) (A) (A) (A) (A) (A)
                 (A) (A) (A)
 The electronic state is 1-A.
 Alpha  occ. eigenvalues --  -19.27247 -19.26001 -19.25366 -19.24988 -19.24210
 Alpha  occ. eigenvalues --  -19.24045 -10.34564 -10.34437 -10.34388 -10.34329
 Alpha  occ. eigenvalues --  -10.33720 -10.32922  -1.15226  -1.14452  -1.12722
 Alpha  occ. eigenvalues --   -1.11745  -1.10524  -1.09684  -0.88086  -0.84904
 Alpha  occ. eigenvalues --   -0.80190  -0.74825  -0.69883  -0.67609  -0.64141
 Alpha  occ. eigenvalues --   -0.62698  -0.59909  -0.59413  -0.59120  -0.56472
 Alpha  occ. eigenvalues --   -0.55490  -0.53568  -0.53222  -0.52178  -0.51808
 Alpha  occ. eigenvalues --   -0.49639  -0.48622  -0.47378  -0.45649  -0.43945
 Alpha  occ. eigenvalues --   -0.43250  -0.41726  -0.41344  -0.38194  -0.37618
 Alpha  occ. eigenvalues --   -0.36924  -0.36706  -0.35708  -0.34814
 Alpha virt. eigenvalues --    0.09071   0.09843   0.11655   0.13554   0.14371
 Alpha virt. eigenvalues --    0.14793   0.15985   0.16831   0.18510   0.18800
 Alpha virt. eigenvalues --    0.19354   0.20107   0.21239   0.21534   0.22023
 Alpha virt. eigenvalues --    0.22936   0.24054   0.24273   0.24946   0.26419
 Alpha virt. eigenvalues --    0.27576   0.30092   0.30753   0.31820   0.33990
 Alpha virt. eigenvalues --    0.35529   0.36662   0.37041   0.38018   0.38957
 Alpha virt. eigenvalues --    0.39455   0.39859   0.40831   0.41315   0.41573
 Alpha virt. eigenvalues --    0.41838   0.42942   0.43736   0.44703   0.45598
 Alpha virt. eigenvalues --    0.46218   0.46601   0.47099   0.47404   0.48817
 Alpha virt. eigenvalues --    0.49092   0.49600   0.50102   0.50545   0.51792
 Alpha virt. eigenvalues --    0.52088   0.52666   0.53454   0.54213   0.55281
 Alpha virt. eigenvalues --    0.56270   0.57647   0.57771   0.58154   0.59495
 Alpha virt. eigenvalues --    0.59901   0.60675   0.62269   0.63925   0.64896
 Alpha virt. eigenvalues --    0.65343   0.66230   0.67090   0.67285   0.69172
 Alpha virt. eigenvalues --    0.70499   0.70842   0.71696   0.72977   0.73416
 Alpha virt. eigenvalues --    0.74904   0.76727   0.77781   0.78262   0.80218
 Alpha virt. eigenvalues --    0.81236   0.83608   0.84387   0.85315   0.86854
 Alpha virt. eigenvalues --    0.87229   0.88504   0.89631   0.90405   0.90507
 Alpha virt. eigenvalues --    0.91992   0.93522   0.94587   0.95987   0.96265
 Alpha virt. eigenvalues --    0.97779   0.98685   1.00155   1.00975   1.02399
 Alpha virt. eigenvalues --    1.03003   1.03590   1.05970   1.06513   1.07830
 Alpha virt. eigenvalues --    1.09691   1.09901   1.10341   1.11186   1.12348
 Alpha virt. eigenvalues --    1.13144   1.14733   1.16669   1.17259   1.18508
 Alpha virt. eigenvalues --    1.20167   1.21812   1.22335   1.23901   1.25575
 Alpha virt. eigenvalues --    1.26110   1.27225   1.28815   1.29895   1.31366
 Alpha virt. eigenvalues --    1.31735   1.32625   1.33965   1.34380   1.35902
 Alpha virt. eigenvalues --    1.36668   1.37331   1.37433   1.40021   1.41016
 Alpha virt. eigenvalues --    1.43557   1.43804   1.44853   1.45761   1.46820
 Alpha virt. eigenvalues --    1.48832   1.49086   1.50069   1.50512   1.51807
 Alpha virt. eigenvalues --    1.52382   1.53547   1.54045   1.56827   1.57344
 Alpha virt. eigenvalues --    1.58850   1.60653   1.61582   1.62996   1.64781
 Alpha virt. eigenvalues --    1.65980   1.67416   1.68943   1.72017   1.74419
 Alpha virt. eigenvalues --    1.76038   1.76838   1.77295   1.79438   1.83126
 Alpha virt. eigenvalues --    1.86256   1.90486   1.90583   1.91452   1.91838
 Alpha virt. eigenvalues --    1.95152   1.97056   1.97664   1.99482   2.00146
 Alpha virt. eigenvalues --    2.02200   2.03242   2.04449   2.05294   2.06160
 Alpha virt. eigenvalues --    2.06873   2.08157   2.08305   2.09071   2.11581
 Alpha virt. eigenvalues --    2.12462   2.14818   2.16383   2.17352   2.19413
 Alpha virt. eigenvalues --    2.20631   2.22176   2.23755   2.24441   2.26363
 Alpha virt. eigenvalues --    2.27610   2.29912   2.31715   2.33074   2.34180
 Alpha virt. eigenvalues --    2.34353   2.36989   2.38202   2.40675   2.43109
 Alpha virt. eigenvalues --    2.43698   2.45815   2.48121   2.49587   2.50892
 Alpha virt. eigenvalues --    2.52373   2.59284   2.61665   2.63338   2.64442
 Alpha virt. eigenvalues --    2.65886   2.67500   2.68980   2.69828   2.71123
 Alpha virt. eigenvalues --    2.73356   2.74266   2.75272   2.76012   2.78259
 Alpha virt. eigenvalues --    2.79379   2.80293   2.80874   2.82382   2.83462
 Alpha virt. eigenvalues --    2.85419   2.86066   2.87318   2.89548   2.89769
 Alpha virt. eigenvalues --    2.90837   2.95142   2.96206   2.98819   2.99595
 Alpha virt. eigenvalues --    3.00662   3.01559   3.02592   3.03995   3.05464
 Alpha virt. eigenvalues --    3.06565   3.07983   3.08593   3.10386   3.10969
 Alpha virt. eigenvalues --    3.11366   3.14381   3.15043   3.16018   3.16852
 Alpha virt. eigenvalues --    3.17764   3.19535   3.20079   3.21926   3.22276
 Alpha virt. eigenvalues --    3.22553   3.23679   3.24949   3.25419   3.26326
 Alpha virt. eigenvalues --    3.27531   3.29851   3.30776   3.31982   3.32906
 Alpha virt. eigenvalues --    3.34474   3.35625   3.36198   3.37617   3.37936
 Alpha virt. eigenvalues --    3.39474   3.40295   3.40726   3.42163   3.42482
 Alpha virt. eigenvalues --    3.43269   3.45066   3.45877   3.46701   3.48522
 Alpha virt. eigenvalues --    3.49825   3.51162   3.51656   3.52904   3.54002
 Alpha virt. eigenvalues --    3.55219   3.55901   3.58299   3.59654   3.60019
 Alpha virt. eigenvalues --    3.60620   3.63454   3.63959   3.65250   3.65966
 Alpha virt. eigenvalues --    3.66716   3.68673   3.69197   3.71200   3.71596
 Alpha virt. eigenvalues --    3.72204   3.72604   3.75587   3.76330   3.77848
 Alpha virt. eigenvalues --    3.78615   3.79772   3.81797   3.82310   3.84178
 Alpha virt. eigenvalues --    3.85763   3.86354   3.88335   3.89262   3.89515
 Alpha virt. eigenvalues --    3.90537   3.91778   3.95010   3.95542   3.96094
 Alpha virt. eigenvalues --    3.99402   3.99668   4.00152   4.01497   4.01725
 Alpha virt. eigenvalues --    4.02978   4.03324   4.03815   4.06327   4.07512
 Alpha virt. eigenvalues --    4.07812   4.09066   4.09771   4.10058   4.11893
 Alpha virt. eigenvalues --    4.12807   4.13861   4.14454   4.16566   4.17982
 Alpha virt. eigenvalues --    4.19161   4.19499   4.20268   4.21669   4.22534
 Alpha virt. eigenvalues --    4.23537   4.23666   4.25079   4.28051   4.28471
 Alpha virt. eigenvalues --    4.30002   4.31033   4.32038   4.33642   4.34405
 Alpha virt. eigenvalues --    4.35865   4.36855   4.37252   4.38751   4.40978
 Alpha virt. eigenvalues --    4.42522   4.42577   4.44553   4.46728   4.47171
 Alpha virt. eigenvalues --    4.48777   4.50590   4.52163   4.53934   4.55267
 Alpha virt. eigenvalues --    4.56130   4.56684   4.58355   4.59451   4.61596
 Alpha virt. eigenvalues --    4.62682   4.64919   4.66843   4.68360   4.70275
 Alpha virt. eigenvalues --    4.70630   4.73494   4.76608   4.77385   4.81010
 Alpha virt. eigenvalues --    4.81316   4.84212   4.85192   4.86824   4.88983
 Alpha virt. eigenvalues --    4.91873   4.94129   4.95663   4.95847   4.97257
 Alpha virt. eigenvalues --    5.00179   5.01356   5.01544   5.02551   5.04387
 Alpha virt. eigenvalues --    5.05774   5.07730   5.08597   5.12062   5.13617
 Alpha virt. eigenvalues --    5.14091   5.15887   5.17916   5.18778   5.20446
 Alpha virt. eigenvalues --    5.21728   5.22505   5.25664   5.26269   5.27912
 Alpha virt. eigenvalues --    5.31644   5.33535   5.36779   5.40111   5.42593
 Alpha virt. eigenvalues --    5.45388   5.49518   5.54014   5.56211   5.59796
 Alpha virt. eigenvalues --    5.60032   5.61678   5.62766   5.63250   5.64925
 Alpha virt. eigenvalues --    5.68157   5.69381   5.71962   5.72874   5.73812
 Alpha virt. eigenvalues --    5.74917   5.78025   5.82181   5.83447   5.85797
 Alpha virt. eigenvalues --    5.87703   5.88668   5.92069   5.92383   5.97416
 Alpha virt. eigenvalues --    6.01500   6.02550   6.03672   6.08844   6.13484
 Alpha virt. eigenvalues --    6.14363   6.15914   6.18558   6.22052   6.52500
 Alpha virt. eigenvalues --    6.53423   6.54491   6.55707   6.57332   6.61746
 Alpha virt. eigenvalues --    6.72176   6.74198   6.75409   6.76104   6.76361
 Alpha virt. eigenvalues --    6.76743   6.78604   6.79999   6.80729   6.81237
 Alpha virt. eigenvalues --    6.82489   6.83395   6.86048   6.87420   6.88466
 Alpha virt. eigenvalues --    6.92454   6.92962   6.95809   6.96544   7.02680
 Alpha virt. eigenvalues --    7.03931   7.05171   7.05975   7.06863   7.16949
 Alpha virt. eigenvalues --    7.18359   7.21161   7.23588   7.23724   7.28010
 Alpha virt. eigenvalues --    7.41442   7.42766   7.44115   7.46178   7.47084
 Alpha virt. eigenvalues --    7.49896   7.50102   7.53063   7.58102   7.60177
 Alpha virt. eigenvalues --    7.64995   7.78520  23.11781  23.15526  23.18624
 Alpha virt. eigenvalues --   23.22601  23.44384  23.48498  44.14197  44.15495
 Alpha virt. eigenvalues --   44.23795  44.27291  44.34080  44.39143
          Condensed to atoms (all electrons):
               1          2          3          4          5          6
     1  C    4.907860   0.138220   0.370148   0.033463  -0.044686   0.395066
     2  C    0.138220   5.174241  -0.011492   0.155913   0.430821  -0.030212
     3  C    0.370148  -0.011492   4.663742  -0.012646  -0.009158  -0.023559
     4  C    0.033463   0.155913  -0.012646   4.918256  -0.025326   0.003085
     5  H   -0.044686   0.430821  -0.009158  -0.025326   0.599273   0.003883
     6  H    0.395066  -0.030212  -0.023559   0.003085   0.003883   0.572053
     7  C   -0.031645   0.011784   0.335219   0.002981   0.001630   0.006589
     8  H   -0.005343  -0.014362   0.398872  -0.000254   0.003480  -0.003601
     9  C    0.014511  -0.017628   0.001798   0.294353   0.008182  -0.001673
    10  H   -0.015412  -0.026440   0.000233   0.428014  -0.005333   0.002917
    11  H    0.004661   0.000302  -0.012227  -0.000013  -0.000072  -0.000417
    12  H   -0.000905  -0.011744  -0.033731   0.000138  -0.001193  -0.000575
    13  H   -0.013247   0.017619   0.000166  -0.037949   0.000896   0.000498
    14  H    0.004197  -0.019626  -0.000355  -0.014186  -0.000731  -0.000569
    15  O   -0.017663   0.003422  -0.032162  -0.000302   0.000140  -0.001074
    16  H    0.001661   0.000502   0.001257   0.000019  -0.000008   0.000088
    17  O   -0.037299   0.006672   0.275997  -0.000224   0.000089   0.008780
    18  H   -0.004023  -0.000677  -0.059433  -0.000063  -0.000084  -0.003393
    19  O    0.253850  -0.023431  -0.045584  -0.016735   0.004261  -0.027753
    20  H   -0.056133   0.003476   0.011751  -0.002499   0.000780   0.005871
    21  O   -0.037161   0.243188  -0.008474  -0.006103  -0.041023   0.002657
    22  H    0.005474  -0.042339   0.001883  -0.000866  -0.006938  -0.000314
    23  O    0.004513  -0.065572  -0.000144   0.269911   0.001281   0.000114
    24  H   -0.000964   0.008096   0.000019  -0.040537  -0.000310  -0.000017
    25  O   -0.000595   0.007669  -0.000001  -0.074698  -0.000068  -0.000053
    26  H    0.000080  -0.001728  -0.000006   0.011632   0.000040   0.000001
               7          8          9         10         11         12
     1  C   -0.031645  -0.005343   0.014511  -0.015412   0.004661  -0.000905
     2  C    0.011784  -0.014362  -0.017628  -0.026440   0.000302  -0.011744
     3  C    0.335219   0.398872   0.001798   0.000233  -0.012227  -0.033731
     4  C    0.002981  -0.000254   0.294353   0.428014  -0.000013   0.000138
     5  H    0.001630   0.003480   0.008182  -0.005333  -0.000072  -0.001193
     6  H    0.006589  -0.003601  -0.001673   0.002917  -0.000417  -0.000575
     7  C    4.815283  -0.032548  -0.000403   0.000043   0.405450   0.429600
     8  H   -0.032548   0.588901   0.000029   0.000040  -0.002319   0.000712
     9  C   -0.000403   0.000029   4.755876  -0.045336   0.000004   0.000149
    10  H    0.000043   0.000040  -0.045336   0.617893  -0.000002  -0.000044
    11  H    0.405450  -0.002319   0.000004  -0.000002   0.557179  -0.028021
    12  H    0.429600   0.000712   0.000149  -0.000044  -0.028021   0.582774
    13  H    0.000248  -0.000001   0.403622   0.009614  -0.000001  -0.000079
    14  H    0.000071  -0.000015   0.427752  -0.005077   0.000002  -0.000008
    15  O    0.216780   0.003151  -0.000156  -0.000002  -0.032335  -0.048470
    16  H   -0.013450  -0.000501  -0.000001  -0.000001  -0.007283  -0.007185
    17  O   -0.036092  -0.022436   0.000014  -0.000015   0.002855   0.005185
    18  H   -0.004878   0.008543  -0.000014   0.000002  -0.002282   0.000719
    19  O   -0.006976   0.003838   0.005433   0.000315  -0.000763   0.000732
    20  H   -0.012875   0.000158   0.000553   0.000014   0.001307  -0.000819
    21  O   -0.010247   0.000107  -0.022557   0.004197   0.000878   0.014320
    22  H   -0.001877  -0.000046  -0.002467   0.002026  -0.000047  -0.000081
    23  O   -0.000023  -0.000009  -0.031355  -0.039171  -0.000001  -0.000006
    24  H    0.000002  -0.000000  -0.007752  -0.003612   0.000000   0.000003
    25  O    0.000001  -0.000000   0.269150   0.005821  -0.000000   0.000000
    26  H    0.000000   0.000000  -0.033248  -0.000092  -0.000000  -0.000000
              13         14         15         16         17         18
     1  C   -0.013247   0.004197  -0.017663   0.001661  -0.037299  -0.004023
     2  C    0.017619  -0.019626   0.003422   0.000502   0.006672  -0.000677
     3  C    0.000166  -0.000355  -0.032162   0.001257   0.275997  -0.059433
     4  C   -0.037949  -0.014186  -0.000302   0.000019  -0.000224  -0.000063
     5  H    0.000896  -0.000731   0.000140  -0.000008   0.000089  -0.000084
     6  H    0.000498  -0.000569  -0.001074   0.000088   0.008780  -0.003393
     7  C    0.000248   0.000071   0.216780  -0.013450  -0.036092  -0.004878
     8  H   -0.000001  -0.000015   0.003151  -0.000501  -0.022436   0.008543
     9  C    0.403622   0.427752  -0.000156  -0.000001   0.000014  -0.000014
    10  H    0.009614  -0.005077  -0.000002  -0.000001  -0.000015   0.000002
    11  H   -0.000001   0.000002  -0.032335  -0.007283   0.002855  -0.002282
    12  H   -0.000079  -0.000008  -0.048470  -0.007185   0.005185   0.000719
    13  H    0.595565  -0.029747  -0.000006  -0.000000  -0.000003  -0.000016
    14  H   -0.029747   0.583085   0.000040  -0.000002  -0.000025   0.000047
    15  O   -0.000006   0.000040   7.911644   0.314630  -0.003376   0.010181
    16  H   -0.000000  -0.000002   0.314630   0.533616  -0.000296  -0.000319
    17  O   -0.000003  -0.000025  -0.003376  -0.000296   7.853867   0.328467
    18  H   -0.000016   0.000047   0.010181  -0.000319   0.328467   0.510506
    19  O    0.002259   0.003283  -0.025177   0.001349  -0.007314   0.022299
    20  H    0.000544  -0.000951   0.046412  -0.002695  -0.000204  -0.001814
    21  O    0.017291   0.001353  -0.000787   0.000436  -0.000040   0.000001
    22  H    0.000264   0.000167   0.000085  -0.000006   0.000014   0.000005
    23  O   -0.000522   0.004854  -0.000000   0.000000   0.000001   0.000000
    24  H   -0.001636   0.001747  -0.000000   0.000000  -0.000000  -0.000000
    25  O   -0.049885  -0.044539   0.000000   0.000000  -0.000000  -0.000000
    26  H   -0.004249  -0.005808  -0.000000   0.000000   0.000000  -0.000000
              19         20         21         22         23         24
     1  C    0.253850  -0.056133  -0.037161   0.005474   0.004513  -0.000964
     2  C   -0.023431   0.003476   0.243188  -0.042339  -0.065572   0.008096
     3  C   -0.045584   0.011751  -0.008474   0.001883  -0.000144   0.000019
     4  C   -0.016735  -0.002499  -0.006103  -0.000866   0.269911  -0.040537
     5  H    0.004261   0.000780  -0.041023  -0.006938   0.001281  -0.000310
     6  H   -0.027753   0.005871   0.002657  -0.000314   0.000114  -0.000017
     7  C   -0.006976  -0.012875  -0.010247  -0.001877  -0.000023   0.000002
     8  H    0.003838   0.000158   0.000107  -0.000046  -0.000009  -0.000000
     9  C    0.005433   0.000553  -0.022557  -0.002467  -0.031355  -0.007752
    10  H    0.000315   0.000014   0.004197   0.002026  -0.039171  -0.003612
    11  H   -0.000763   0.001307   0.000878  -0.000047  -0.000001   0.000000
    12  H    0.000732  -0.000819   0.014320  -0.000081  -0.000006   0.000003
    13  H    0.002259   0.000544   0.017291   0.000264  -0.000522  -0.001636
    14  H    0.003283  -0.000951   0.001353   0.000167   0.004854   0.001747
    15  O   -0.025177   0.046412  -0.000787   0.000085  -0.000000  -0.000000
    16  H    0.001349  -0.002695   0.000436  -0.000006   0.000000   0.000000
    17  O   -0.007314  -0.000204  -0.000040   0.000014   0.000001  -0.000000
    18  H    0.022299  -0.001814   0.000001   0.000005   0.000000  -0.000000
    19  O    7.951627   0.334317  -0.001834  -0.000196   0.000071   0.000047
    20  H    0.334317   0.448614   0.006213  -0.000346   0.000024   0.000004
    21  O   -0.001834   0.006213   7.908817   0.325044  -0.014638   0.000204
    22  H   -0.000196  -0.000346   0.325044   0.497767   0.030088  -0.001530
    23  O    0.000071   0.000024  -0.014638   0.030088   7.923619   0.331684
    24  H    0.000047   0.000004   0.000204  -0.001530   0.331684   0.475434
    25  O    0.000534   0.000018   0.000172  -0.000076  -0.013040   0.027736
    26  H    0.000042  -0.000000   0.000080  -0.000009   0.000162  -0.001703
              25         26
     1  C   -0.000595   0.000080
     2  C    0.007669  -0.001728
     3  C   -0.000001  -0.000006
     4  C   -0.074698   0.011632
     5  H   -0.000068   0.000040
     6  H   -0.000053   0.000001
     7  C    0.000001   0.000000
     8  H   -0.000000   0.000000
     9  C    0.269150  -0.033248
    10  H    0.005821  -0.000092
    11  H   -0.000000  -0.000000
    12  H    0.000000  -0.000000
    13  H   -0.049885  -0.004249
    14  H   -0.044539  -0.005808
    15  O    0.000000  -0.000000
    16  H    0.000000   0.000000
    17  O   -0.000000   0.000000
    18  H   -0.000000  -0.000000
    19  O    0.000534   0.000042
    20  H    0.000018  -0.000000
    21  O    0.000172   0.000080
    22  H   -0.000076  -0.000009
    23  O   -0.013040   0.000162
    24  H    0.027736  -0.001703
    25  O    7.909206   0.327647
    26  H    0.327647   0.524211
 Mulliken charges:
               1
     1  C    0.131370
     2  C    0.063327
     3  C    0.187887
     4  C    0.114633
     5  H    0.080172
     6  H    0.091606
     7  C   -0.074668
     8  H    0.073603
     9  C   -0.018837
    10  H    0.069408
    11  H    0.113144
    12  H    0.098530
    13  H    0.088757
    14  H    0.095041
    15  O   -0.344977
    16  H    0.178189
    17  O   -0.374615
    18  H    0.196226
    19  O   -0.428496
    20  H    0.218280
    21  O   -0.382095
    22  H    0.194319
    23  O   -0.401841
    24  H    0.213088
    25  O   -0.364998
    26  H    0.182948
 Sum of Mulliken charges =  -0.00000
 Mulliken charges with hydrogens summed into heavy atoms:
               1
     1  C    0.222976
     2  C    0.143498
     3  C    0.261490
     4  C    0.184042
     7  C    0.137006
     9  C    0.164961
    15  O   -0.166788
    17  O   -0.178389
    19  O   -0.210216
    21  O   -0.187776
    23  O   -0.188753
    25  O   -0.182051
 Electronic spatial extent (au):  <R**2>=           2541.1395
 Charge=             -0.0000 electrons
 Dipole moment (field-independent basis, Debye):
    X=             -0.1918    Y=              1.1139    Z=              1.6685  Tot=              2.0153
 Quadrupole moment (field-independent basis, Debye-Ang):
   XX=            -70.3601   YY=            -72.0440   ZZ=            -67.5284
   XY=             11.4397   XZ=              1.6762   YZ=             -0.9943
 Traceless Quadrupole moment (field-independent basis, Debye-Ang):
   XX=             -0.3826   YY=             -2.0665   ZZ=              2.4491
   XY=             11.4397   XZ=              1.6762   YZ=             -0.9943
 Octapole moment (field-independent basis, Debye-Ang**2):
  XXX=            -11.9528  YYY=             -2.7938  ZZZ=             20.9038  XYY=             -3.6087
  XXY=             10.2156  XXZ=             49.0391  XZZ=             -1.7497  YZZ=              3.7971
  YYZ=             14.0103  XYZ=              5.2256
 Hexadecapole moment (field-independent basis, Debye-Ang**3):
 XXXX=          -2177.4998 YYYY=           -459.2696 ZZZZ=           -324.0931 XXXY=            100.0003
 XXXZ=             30.1008 YYYX=             11.4159 YYYZ=              2.7458 ZZZX=             29.6024
 ZZZY=              5.3176 XXYY=           -406.8563 XXZZ=           -384.0246 YYZZ=           -132.9277
 XXYZ=            -32.2061 YYXZ=             -8.6566 ZZXY=             45.7020
 N-N= 8.317045716545D+02 E-N=-3.281197088171D+03  KE= 6.850421107280D+02
   1 Symmetry operations used in ECPInt.
 ECPInt:  NShTT=   23436 NPrTT=   62434 LenC2=   21836 LenP2D=   45349.
 LDataN:  DoStor=T MaxTD1= 7 Len=  274
 Calling FoFJK, ICntrl=      2127 FMM=F ISym2X=0 I1Cent= 0 IOpClX= 0 NMat=1 NMatS=1 NMatT=0.
 ***** Axes restored to original set *****
 -------------------------------------------------------------------
 Center     Atomic                   Forces (Hartrees/Bohr)
 Number     Number              X              Y              Z
 -------------------------------------------------------------------
      1        6           0.005186858   -0.015958843   -0.011171640
      2        6           0.011620881   -0.006855842   -0.006878141
      3        6          -0.022012188   -0.009778832   -0.001690987
      4        6           0.013386537   -0.004687421    0.002723480
      5        1          -0.002912361    0.001188164    0.007001719
      6        1           0.002270923    0.001245057   -0.004007493
      7        6           0.006541236    0.001803980   -0.003478316
      8        1          -0.000957254   -0.003188694   -0.001478443
      9        6          -0.001684649   -0.005064242    0.005828677
     10        1          -0.005631517   -0.000560662   -0.001630220
     11        1           0.000356909    0.004493714    0.006601078
     12        1           0.000493418    0.001021381    0.004151603
     13        1          -0.004668131    0.006456838   -0.002906182
     14        1           0.000156490    0.004151005   -0.006105156
     15        8           0.004217837    0.000834494   -0.018662493
     16        1          -0.004435828   -0.001089352    0.019588444
     17        8           0.009853132   -0.013475982   -0.001725773
     18        1           0.003107126    0.017342611    0.003435964
     19        8           0.004776025    0.012495537   -0.013061861
     20        1          -0.001632316    0.000291041    0.017865347
     21        8           0.009351089    0.000735907    0.012166927
     22        1          -0.018213940    0.000912920   -0.003879040
     23        8          -0.008357396   -0.010723074    0.011797569
     24        1          -0.003623100    0.011790040   -0.015470086
     25        8          -0.005992209   -0.011413785    0.001281722
     26        1           0.008802429    0.018034039   -0.000296699
 -------------------------------------------------------------------
 Cartesian Forces:  Max     0.022012188 RMS     0.008625341

 GradGradGradGradGradGradGradGradGradGradGradGradGradGradGradGradGradGrad
 Berny optimization.
 FormGI is forming the generalized inverse of G from B-inverse, IUseBI=4.
 Internal  Forces:  Max     0.019722156 RMS     0.005880198
 Search for a local minimum.
 Step number   1 out of a maximum of  140
 All quantities printed in internal units (Hartrees-Bohrs-Radians)
 Mixed Optimization -- RFO/linear search
 Second derivative matrix not updated -- first step.
 ITU=  0
     Eigenvalues ---    0.00230   0.00244   0.00271   0.00289   0.00345
     Eigenvalues ---    0.01073   0.01155   0.01195   0.01206   0.01217
     Eigenvalues ---    0.01269   0.03765   0.03776   0.03903   0.03915
     Eigenvalues ---    0.04634   0.04646   0.04772   0.04824   0.04954
     Eigenvalues ---    0.05344   0.05500   0.05635   0.07502   0.07594
     Eigenvalues ---    0.07899   0.07913   0.11347   0.11532   0.13579
     Eigenvalues ---    0.13813   0.16000   0.16000   0.16000   0.16000
     Eigenvalues ---    0.16000   0.16000   0.17137   0.17203   0.17273
     Eigenvalues ---    0.17281   0.19357   0.19432   0.20030   0.20114
     Eigenvalues ---    0.22030   0.22034   0.27800   0.28567   0.28750
     Eigenvalues ---    0.28870   0.29253   0.33992   0.34032   0.34113
     Eigenvalues ---    0.34211   0.34216   0.34337   0.34481   0.34528
     Eigenvalues ---    0.38674   0.39509   0.39927   0.40041   0.40151
     Eigenvalues ---    0.40710   0.50402   0.51067   0.51189   0.51551
     Eigenvalues ---    0.52404   0.52460
 RFO step:  Lambda=-1.83162826D-02 EMin= 2.30000000D-03
 Linear search not attempted -- first point.
 Iteration  1 RMS(Cart)=  0.08947283 RMS(Int)=  0.00312154
 Iteration  2 RMS(Cart)=  0.00479190 RMS(Int)=  0.00058935
 Iteration  3 RMS(Cart)=  0.00000888 RMS(Int)=  0.00058930
 Iteration  4 RMS(Cart)=  0.00000000 RMS(Int)=  0.00058930
 Variable       Old X    -DE/DX   Delta X   Delta X   Delta X     New X
                                 (Linear)    (Quad)   (Total)
    R1        2.90526  -0.00777   0.00000  -0.02541  -0.02541   2.87986
    R2        2.92579  -0.00470   0.00000  -0.01585  -0.01585   2.90994
    R3        2.07277  -0.00399   0.00000  -0.01112  -0.01112   2.06165
    R4        2.71652  -0.01358   0.00000  -0.03253  -0.03253   2.68399
    R5        2.90915  -0.01056   0.00000  -0.03475  -0.03475   2.87440
    R6        2.07343   0.00017   0.00000   0.00048   0.00048   2.07392
    R7        2.71497  -0.01081   0.00000  -0.02581  -0.02581   2.68916
    R8        2.90274  -0.00832   0.00000  -0.02711  -0.02711   2.87563
    R9        2.06976  -0.00353   0.00000  -0.00978  -0.00978   2.05997
   R10        2.72226  -0.01261   0.00000  -0.03050  -0.03050   2.69176
   R11        2.89478  -0.01114   0.00000  -0.03583  -0.03583   2.85895
   R12        2.07140  -0.00045   0.00000  -0.00126  -0.00126   2.07015
   R13        2.73396  -0.01141   0.00000  -0.02817  -0.02817   2.70579
   R14        2.06968  -0.00155   0.00000  -0.00430  -0.00430   2.06537
   R15        2.06527  -0.00043   0.00000  -0.00119  -0.00119   2.06407
   R16        2.70600   0.00013   0.00000   0.00031   0.00031   2.70631
   R17        2.06765  -0.00175   0.00000  -0.00484  -0.00484   2.06280
   R18        2.06447  -0.00236   0.00000  -0.00648  -0.00648   2.05800
   R19        2.71349  -0.00019   0.00000  -0.00044  -0.00044   2.71304
   R20        1.84215  -0.01961   0.00000  -0.03616  -0.03616   1.80598
   R21        1.85032  -0.01778   0.00000  -0.03330  -0.03330   1.81701
   R22        1.86162  -0.01766   0.00000  -0.03381  -0.03381   1.82780
   R23        1.85384  -0.01860   0.00000  -0.03507  -0.03507   1.81877
   R24        1.85504  -0.01939   0.00000  -0.03665  -0.03665   1.81839
   R25        1.84161  -0.01972   0.00000  -0.03633  -0.03633   1.80528
    A1        1.98161  -0.00241   0.00000  -0.00289  -0.00410   1.97751
    A2        1.89971   0.00002   0.00000  -0.01985  -0.02025   1.87946
    A3        1.93593   0.00170   0.00000   0.02742   0.02681   1.96274
    A4        1.88053  -0.00189   0.00000  -0.03499  -0.03518   1.84535
    A5        1.91486   0.00385   0.00000   0.03727   0.03684   1.95169
    A6        1.84528  -0.00137   0.00000  -0.01030  -0.00960   1.83567
    A7        1.99056   0.00224   0.00000   0.00100   0.00093   1.99149
    A8        1.90307  -0.00027   0.00000  -0.01368  -0.01381   1.88926
    A9        1.93935  -0.00572   0.00000  -0.02726  -0.02714   1.91222
   A10        1.88190  -0.00362   0.00000  -0.02930  -0.02978   1.85212
   A11        1.89520   0.00340   0.00000   0.02092   0.02089   1.91610
   A12        1.84750   0.00417   0.00000   0.05220   0.05237   1.89987
   A13        2.02191   0.00008   0.00000   0.01238   0.01021   2.03211
   A14        1.91788  -0.00049   0.00000  -0.02987  -0.03014   1.88774
   A15        1.87353   0.00002   0.00000   0.02805   0.02618   1.89970
   A16        1.90582  -0.00327   0.00000  -0.04568  -0.04555   1.86027
   A17        1.87399   0.00563   0.00000   0.05738   0.05626   1.93025
   A18        1.86368  -0.00191   0.00000  -0.02113  -0.01992   1.84376
   A19        2.01934   0.00111   0.00000  -0.00412  -0.00404   2.01531
   A20        1.92423   0.00032   0.00000  -0.00929  -0.00914   1.91509
   A21        1.86584  -0.00724   0.00000  -0.04162  -0.04142   1.82443
   A22        1.91153  -0.00232   0.00000  -0.01017  -0.01074   1.90078
   A23        1.87523   0.00514   0.00000   0.02726   0.02692   1.90215
   A24        1.85991   0.00326   0.00000   0.04296   0.04272   1.90263
   A25        1.91850  -0.00583   0.00000  -0.04470  -0.04486   1.87364
   A26        1.94937  -0.00257   0.00000  -0.02482  -0.02501   1.92435
   A27        1.92866  -0.00339   0.00000  -0.01402  -0.01390   1.91475
   A28        1.89408   0.00276   0.00000   0.01799   0.01646   1.91053
   A29        1.87046   0.00592   0.00000   0.04316   0.04270   1.91316
   A30        1.90073   0.00364   0.00000   0.02630   0.02591   1.92664
   A31        1.94683  -0.00254   0.00000  -0.03311  -0.03281   1.91402
   A32        1.95292  -0.00048   0.00000  -0.01901  -0.01870   1.93422
   A33        1.88003  -0.01427   0.00000  -0.05476  -0.05440   1.82563
   A34        1.92390  -0.00097   0.00000  -0.01010  -0.01266   1.91124
   A35        1.87240   0.00986   0.00000   0.06392   0.06258   1.93498
   A36        1.88431   0.00898   0.00000   0.05918   0.05816   1.94248
   A37        1.85151   0.00800   0.00000   0.04487   0.04487   1.89638
   A38        1.82725   0.00353   0.00000   0.01979   0.01979   1.84704
   A39        1.83697   0.00499   0.00000   0.02798   0.02798   1.86495
   A40        1.81992   0.00170   0.00000   0.00954   0.00954   1.82946
   A41        1.81170   0.00648   0.00000   0.03633   0.03633   1.84803
   A42        1.85155   0.00669   0.00000   0.03752   0.03752   1.88907
    D1        2.93755  -0.00477   0.00000  -0.07223  -0.07220   2.86535
    D2        0.83319  -0.00144   0.00000  -0.02548  -0.02538   0.80781
    D3       -1.19662  -0.00306   0.00000  -0.06507  -0.06505  -1.26167
    D4        0.84319  -0.00084   0.00000  -0.01213  -0.01225   0.83094
    D5       -1.26117   0.00250   0.00000   0.03462   0.03457  -1.22660
    D6        2.99221   0.00088   0.00000  -0.00497  -0.00510   2.98711
    D7       -1.17996  -0.00015   0.00000  -0.00343  -0.00340  -1.18337
    D8        2.99886   0.00318   0.00000   0.04331   0.04341   3.04228
    D9        0.96906   0.00156   0.00000   0.00372   0.00374   0.97280
   D10        1.14409  -0.00249   0.00000  -0.04872  -0.04878   1.09532
   D11       -1.02560   0.00228   0.00000   0.02838   0.02823  -0.99737
   D12       -3.04601   0.00479   0.00000   0.05348   0.05349  -2.99252
   D13       -3.03388  -0.00529   0.00000  -0.09987  -0.09960  -3.13348
   D14        1.07961  -0.00052   0.00000  -0.02277  -0.02260   1.05701
   D15       -0.94080   0.00199   0.00000   0.00233   0.00266  -0.93814
   D16       -1.03297  -0.00594   0.00000  -0.11171  -0.11190  -1.14487
   D17        3.08052  -0.00117   0.00000  -0.03461  -0.03489   3.04563
   D18        1.06011   0.00134   0.00000  -0.00952  -0.00963   1.05048
   D19       -1.33474   0.00072   0.00000   0.01322   0.01261  -1.32212
   D20        0.86851   0.00167   0.00000   0.05680   0.05736   0.92587
   D21        2.89187   0.00060   0.00000   0.02856   0.02860   2.92047
   D22        1.03581  -0.00198   0.00000  -0.00551  -0.00572   1.03008
   D23       -1.14496   0.00002   0.00000   0.01941   0.01940  -1.12557
   D24        3.12323   0.00000   0.00000  -0.00361  -0.00370   3.11953
   D25       -3.13123  -0.00346   0.00000  -0.04328  -0.04317   3.10878
   D26        0.97118  -0.00146   0.00000  -0.01835  -0.01805   0.95313
   D27       -1.04381  -0.00148   0.00000  -0.04138  -0.04114  -1.08496
   D28       -1.13701   0.00128   0.00000   0.01325   0.01303  -1.12398
   D29        2.96540   0.00328   0.00000   0.03818   0.03815   3.00355
   D30        0.95041   0.00326   0.00000   0.01515   0.01506   0.96546
   D31       -2.94768  -0.00014   0.00000   0.02056   0.02039  -2.92729
   D32       -0.74483   0.00119   0.00000   0.01794   0.01743  -0.72740
   D33        1.27182   0.00074   0.00000   0.02052   0.02119   1.29301
   D34        2.97627   0.00447   0.00000   0.09842   0.09848   3.07475
   D35       -1.20349   0.00233   0.00000   0.07463   0.07502  -1.12846
   D36        0.91533   0.00286   0.00000   0.08149   0.08167   0.99699
   D37       -1.13100   0.00115   0.00000   0.02972   0.02994  -1.10106
   D38        0.97244  -0.00099   0.00000   0.00593   0.00648   0.97892
   D39        3.09125  -0.00046   0.00000   0.01279   0.01313   3.10437
   D40        0.88344   0.00024   0.00000   0.01214   0.01140   0.89484
   D41        2.98687  -0.00190   0.00000  -0.01165  -0.01205   2.97482
   D42       -1.17750  -0.00137   0.00000  -0.00479  -0.00541  -1.18291
   D43       -0.99534  -0.00073   0.00000  -0.00096  -0.00190  -0.99724
   D44        1.18961   0.00276   0.00000   0.06551   0.06640   1.25601
   D45       -3.05134   0.00081   0.00000   0.03042   0.03046  -3.02088
   D46        0.92706  -0.00327   0.00000  -0.03451  -0.03464   0.89241
   D47       -1.23735   0.00026   0.00000   0.01782   0.01764  -1.21971
   D48        2.97744  -0.00145   0.00000  -0.00905  -0.00905   2.96839
   D49        3.11436  -0.00392   0.00000  -0.05884  -0.05878   3.05558
   D50        0.94996  -0.00038   0.00000  -0.00651  -0.00651   0.94345
   D51       -1.11844  -0.00209   0.00000  -0.03338  -0.03319  -1.15163
   D52       -1.15523   0.00152   0.00000   0.00135   0.00135  -1.15388
   D53        2.96356   0.00505   0.00000   0.05369   0.05363   3.01718
   D54        0.89515   0.00334   0.00000   0.02681   0.02694   0.92209
   D55       -2.92831   0.00055   0.00000   0.03920   0.03902  -2.88929
   D56       -0.75030   0.00062   0.00000   0.02558   0.02494  -0.72537
   D57        1.29726   0.00214   0.00000   0.04912   0.04995   1.34721
   D58       -3.13472  -0.00022   0.00000   0.01426   0.01416  -3.12056
   D59        1.05835   0.00517   0.00000   0.05012   0.05101   1.10936
   D60       -0.98735  -0.00321   0.00000  -0.00833  -0.00912  -0.99647
   D61        3.09393   0.00104   0.00000   0.01945   0.01958   3.11351
   D62       -1.09123  -0.00433   0.00000  -0.01442  -0.01670  -1.10793
   D63        0.98201   0.00465   0.00000   0.03980   0.04194   1.02396
         Item               Value     Threshold  Converged?
 Maximum Force            0.019722     0.000450     NO 
 RMS     Force            0.005880     0.000300     NO 
 Maximum Displacement     0.291902     0.001800     NO 
 RMS     Displacement     0.088938     0.001200     NO 
 Predicted change in Energy=-1.071998D-02
 GradGradGradGradGradGradGradGradGradGradGradGradGradGradGradGradGradGrad

                          Input orientation:                          
 ---------------------------------------------------------------------
 Center     Atomic      Atomic             Coordinates (Angstroms)
 Number     Number       Type             X           Y           Z
 ---------------------------------------------------------------------
      1          6           0       -0.006884   -0.088175   -0.031590
      2          6           0        1.516968   -0.070991   -0.027078
      3          6           0       -0.624176    0.894951   -1.043333
      4          6           0        2.142006   -0.728656    1.193759
      5          1           0        1.848777    0.975022   -0.013085
      6          1           0       -0.345009    0.246568    0.950169
      7          6           0       -0.312020    0.641536   -2.510971
      8          1           0       -0.254404    1.894588   -0.814660
      9          6           0        1.781667   -2.182667    1.405524
     10          1           0        1.878579   -0.162905    2.094090
     11          1           0       -0.873692    1.374968   -3.095044
     12          1           0        0.756605    0.768749   -2.697763
     13          1           0        1.957556   -2.742527    0.485098
     14          1           0        0.737812   -2.284043    1.698969
     15          8           0       -0.727666   -0.680582   -2.871816
     16          1           0       -0.507855   -0.830277   -3.789752
     17          8           0       -2.031881    0.948693   -0.832507
     18          1           0       -2.345682    0.044585   -0.925478
     19          8           0       -0.534241   -1.398619   -0.179592
     20          1           0       -0.425310   -1.641366   -1.109510
     21          8           0        2.003983   -0.692141   -1.211157
     22          1           0        2.944150   -0.822637   -1.051877
     23          8           0        3.553192   -0.625664    0.974379
     24          1           0        3.962209   -1.227555    1.603946
     25          8           0        2.662136   -2.625386    2.449531
     26          1           0        2.460081   -3.538665    2.643751
 ---------------------------------------------------------------------
                    Distance matrix (angstroms):
                    1          2          3          4          5
     1  C    0.000000
     2  C    1.523956   0.000000
     3  C    1.539874   2.559359   0.000000
     4  C    2.555274   1.521065   3.910556   0.000000
     5  H    2.138740   1.097469   2.680171   2.108311   0.000000
     6  H    1.090977   2.126691   2.114801   2.682469   2.504236
     7  C    2.602484   3.165852   1.521717   4.650236   3.319592
     8  H    2.146116   2.760715   1.090090   4.081414   2.431356
     9  C    3.106623   2.565461   4.610501   1.512890   3.462363
    10  H    2.842371   2.153732   4.150454   1.095474   2.394985
    11  H    3.503840   4.149514   2.121837   5.649203   4.131617
    12  H    2.902709   2.901013   2.158617   4.393803   2.905664
    13  H    3.342391   2.755639   4.715156   2.142872   3.752359
    14  H    2.893310   2.912717   4.413755   2.155511   3.845371
    15  O    2.989542   3.674578   2.415857   4.976568   4.189442
    16  H    3.863350   4.339832   3.245422   5.645128   4.803752
    17  O    2.411882   3.779259   1.424419   4.933618   3.966314
    18  H    2.507317   3.967436   1.923693   5.022789   4.392227
    19  O    1.420308   2.448125   2.452468   3.081760   3.367592
    20  H    1.936335   2.722165   2.544962   3.567800   3.635809
    21  O    2.408265   1.423044   3.074777   2.409150   2.058859
    22  H    3.207651   1.911030   3.960194   2.386451   2.347448
    23  O    3.738316   2.335976   4.881991   1.431845   2.538171
    24  H    4.441493   3.158652   5.705089   1.931396   3.454379
    25  O    4.440391   3.737638   5.949178   2.333470   4.437226
    26  H    5.014902   4.477449   6.539433   3.178018   5.273125
                    6          7          8          9         10
     6  H    0.000000
     7  C    3.483760   0.000000
     8  H    2.416361   2.109723   0.000000
     9  C    3.260564   5.262945   5.069399   0.000000
    10  H    2.533884   5.162600   4.152556   2.136107   0.000000
    11  H    4.232793   1.092949   2.419436   6.321614   6.071833
    12  H    3.846250   1.092261   2.415726   5.157381   5.008859
    13  H    3.801682   5.057598   5.299526   1.091588   3.041306
    14  H    2.852577   5.233045   4.976322   1.089045   2.440635
    15  O    3.951405   1.432120   3.329770   5.181569   5.632116
    16  H    4.863431   1.959557   4.042313   5.836245   6.384360
    17  O    2.552734   2.422707   2.013569   5.418242   5.009224
    18  H    2.749826   2.646870   2.794322   5.237292   5.196655
    19  O    2.004697   3.105953   3.365536   2.913890   3.538124
    20  H    2.795178   2.681151   3.552339   3.389565   4.213882
    21  O    3.327202   2.971883   3.456688   3.019621   3.349698
    22  H    3.996243   3.856864   4.203609   3.039715   3.386413
    23  O    3.994664   5.356615   4.904091   2.397592   2.066936
    24  H    4.599194   6.220537   5.777305   2.388802   2.390655
    25  O    4.420308   6.642663   6.292163   1.435680   2.608469
    26  H    5.006469   7.192343   6.989226   1.957596   3.469298
                   11         12         13         14         15
    11  H    0.000000
    12  H    1.784153   0.000000
    13  H    6.147125   4.888962   0.000000
    14  H    6.242424   5.352677   1.780861   0.000000
    15  O    2.072785   2.081806   4.767695   5.060711   0.000000
    16  H    2.340846   2.312614   5.292381   5.813018   0.955684
    17  O    2.577244   3.359646   5.592566   4.952792   2.917926
    18  H    2.940015   3.645490   5.317478   4.670992   2.632883
    19  O    4.038300   3.564401   2.908085   2.435382   2.793038
    20  H    3.638909   3.118995   3.071381   3.106998   2.029840
    21  O    4.012852   2.429022   2.661488   3.550517   3.196848
    22  H    4.855915   3.166513   2.649837   3.817170   4.100560
    23  O    6.337194   4.821816   2.695656   3.346881   5.755170
    24  H    7.227694   5.724144   2.750563   3.394397   6.505886
    25  O    7.697222   6.453359   2.090252   2.093533   6.602255
    26  H    8.257820   7.070179   2.355027   2.330858   6.982253
                   16         17         18         19         20
    16  H    0.000000
    17  O    3.772623   0.000000
    18  H    3.513838   0.961523   0.000000
    19  O    3.654718   2.859912   2.433208   0.000000
    20  H    2.801496   3.060426   2.562055   0.967232   0.000000
    21  O    3.602439   4.373090   4.420856   2.829456   2.610139
    22  H    4.405945   5.286456   5.361937   3.632057   3.467982
    23  O    6.263458   6.077538   6.233410   4.316968   4.604641
    24  H    7.016500   6.826527   6.914175   4.840282   5.175365
    25  O    7.224951   6.751267   6.602853   4.316720   4.813252
    26  H    7.585115   7.238679   6.976706   4.638645   5.100215
                   21         22         23         24         25
    21  O    0.000000
    22  H    0.962451   0.000000
    23  O    2.679745   2.124957   0.000000
    24  H    3.470752   2.872943   0.962249   0.000000
    25  O    4.191807   3.948329   2.639876   2.087854   0.000000
    26  H    4.813631   4.611811   3.530903   2.945983   0.955315
                   26
    26  H    0.000000
 Stoichiometry    C6H14O6
 Framework group  C1[X(C6H14O6)]
 Deg. of freedom    72
 Full point group                 C1      NOp   1
 Largest Abelian subgroup         C1      NOp   1
 Largest concise Abelian subgroup C1      NOp   1
                         Standard orientation:                         
 ---------------------------------------------------------------------
 Center     Atomic      Atomic             Coordinates (Angstroms)
 Number     Number       Type             X           Y           Z
 ---------------------------------------------------------------------
      1          6           0        0.601099   -0.573297   -0.501741
      2          6           0       -0.421748    0.553013   -0.589209
      3          6           0        2.032121   -0.125138   -0.851799
      4          6           0       -1.866524    0.078688   -0.624938
      5          1           0       -0.255882    1.095628   -1.528621
      6          1           0        0.334433   -1.321940   -1.249173
      7          6           0        2.655021    0.923771    0.057821
      8          1           0        2.018768    0.301289   -1.854933
      9          6           0       -2.311512   -0.741822    0.565687
     10          1           0       -2.043978   -0.497655   -1.539488
     11          1           0        3.682604    1.079634   -0.280289
     12          1           0        2.101905    1.862911   -0.013696
     13          1           0       -2.060118   -0.216097    1.488714
     14          1           0       -1.832805   -1.720008    0.562405
     15          8           0        2.660222    0.449463    1.409106
     16          1           0        3.036613    1.126209    1.969174
     17          8           0        2.867326   -1.276009   -0.934854
     18          1           0        2.793385   -1.715727   -0.082970
     19          8           0        0.551173   -1.256075    0.742685
     20          1           0        0.974421   -0.681082    1.395205
     21          8           0       -0.236267    1.450680    0.499298
     22          1           0       -1.020182    2.009039    0.494258
     23          8           0       -2.638982    1.283238   -0.675419
     24          1           0       -3.542466    1.025625   -0.467396
     25          8           0       -3.734510   -0.857199    0.414211
     26          1           0       -4.069137   -1.391900    1.131669
 ---------------------------------------------------------------------
 Rotational constants (GHZ):           1.7625289           0.4918772           0.4644864
 Standard basis: def2TZVPP (5D, 7F)
 There are   642 symmetry adapted cartesian basis functions of A   symmetry.
 There are   568 symmetry adapted basis functions of A   symmetry.
   568 basis functions,   850 primitive gaussians,   642 cartesian basis functions
    49 alpha electrons       49 beta electrons
       nuclear repulsion energy       835.9804045479 Hartrees.
 NAtoms=   26 NActive=   26 NUniq=   26 SFac= 1.00D+00 NAtFMM=   60 NAOKFM=F Big=F
 Integral buffers will be    131072 words long.
 Raffenetti 2 integral format.
 Two-electron integral symmetry is turned on.
 Nuclear repulsion after empirical dispersion term =      835.9618008782 Hartrees.
 One-electron integrals computed using PRISM.
   1 Symmetry operations used in ECPInt.
 ECPInt:  NShTT=   23436 NPrTT=   62434 LenC2=   21857 LenP2D=   45445.
 LDataN:  DoStor=T MaxTD1= 6 Len=  172
[...]
 075641,-0.00118174,0.00300913,-0.00031175,0.00080739,-0.00073668,0.000
 49742,-0.00162532,0.00412523,0.01030039,-0.00196972,0.00530264,-0.0033
 5062,0.00135949,0.12550510,-0.06089203,-0.19802739,0.00388886,-0.01231
 852,-0.01720545,-0.00365637,-0.01552829,-0.04704785,-0.00200474,0.0007
 2325,-0.00166078,0.00181097,-0.00209999,0.00138805,-0.00016964,-0.0109
 8956,-0.02154356,-0.00682246,0.00233779,-0.00349859,-0.00484693,0.0037
 3392,-0.00377376,0.00568504,-0.00095444,-0.00137651,-0.00042725,0.0001
 8396,0.00046132,0.00042632,0.00000102,0.00058197,0.00066742,0.00004026
 ,0.00055559,0.00005547,-0.00109274,0.00085498,0.00077971,0.00136210,-0
 .00084590,-0.00040631,-0.00155087,0.00665809,0.00355577,-0.00034498,-0
 .00114700,0.00104229,-0.00152571,-0.00050868,0.00104524,-0.00131764,-0
 .00102604,-0.00065285,0.10403834,0.33904576,-0.01305385,-0.03488613,-0
 .10023337,0.00288229,-0.00259215,0.00038109,0.00773245,0.01941883,0.00
 766150,0.00177743,-0.00043638,-0.00059863,-0.00025248,0.00020233,0.000
 87171,-0.01847875,-0.03699369,-0.00191485,0.00216000,-0.00736771,-0.00
 115577,-0.00204162,0.00328333,-0.00193096,0.00137469,0.00027301,-0.002
 79450,-0.00010067,0.00013005,0.00046768,-0.00025994,0.00031192,0.00082
 448,0.00009646,0.00091812,0.00030344,0.00003836,0.00028469,0.00005703,
 -0.00332108,0.00066601,-0.00080642,0.00306806,0.01003711,-0.01366802,-
 0.00275199,0.00022984,0.00026673,0.00049407,0.00126715,0.00309499,0.00
 162181,-0.00059888,-0.00267315,-0.01989286,0.11707027,0.58719052,-0.00
 053588,-0.00700355,-0.01912749,0.00014857,-0.00313582,-0.00386897,0.00
 288346,0.00066804,0.00116629,-0.00003592,-0.00012308,-0.00019347,-0.00
 002499,0.00050267,0.00051890,-0.00059570,-0.00156135,0.00026068,0.0004
 1877,-0.00133949,-0.00075210,-0.00025814,-0.00021477,0.00005912,0.0001
 6669,-0.00018243,-0.00101824,0.00000821,0.00006938,0.00022801,-0.00008
 483,0.00037399,0.00011314,-0.00011897,-0.00013595,0.00016211,-0.000242
 83,0.00038694,-0.00000217,-0.00027472,0.00000227,0.00007669,-0.0035615
 9,0.00222205,-0.00114159,-0.00151228,-0.00230084,0.00466067,-0.0013844
 0,-0.00083412,-0.00079387,-0.00185065,0.00241491,0.00169181,-0.0189310
 9,-0.00591878,0.04209627,0.02524672,-0.00014903,-0.01717890,-0.0436298
 7,-0.00014782,0.00026289,-0.00043902,0.00063134,-0.00097112,-0.0008922
 5,0.00005905,-0.00004058,-0.00031529,0.00009682,-0.00004356,-0.0000027
 1,-0.00351717,-0.00615068,-0.00036398,-0.00066452,-0.00480301,0.002003
 81,-0.00032912,0.00086602,0.00015350,-0.00033250,0.00030603,0.00087964
 ,-0.00001214,-0.00006041,0.00008467,-0.00011627,0.00013515,-0.00008407
 ,0.00026039,0.00017465,-0.00007816,0.00034652,-0.00014539,-0.00010958,
 0.00006242,0.00011384,-0.00020709,0.00157044,0.00097574,-0.00667720,-0
 .00175880,0.00155789,0.00125722,0.00029519,0.00037058,0.00085750,0.001
 90299,-0.00089499,-0.00095600,-0.01262636,-0.05934423,-0.07485600,0.01
 408325,0.08545227,-0.00101522,-0.00577997,-0.00495408,-0.00061111,0.00
 176628,0.00099041,0.00017900,0.00086487,0.00264110,-0.00069797,-0.0000
 7701,-0.00039704,0.00104239,0.00011222,-0.00019886,-0.00001688,0.00099
 301,0.00228818,-0.00172836,0.00788373,0.00397344,-0.00023386,0.0004081
 0,-0.00113033,-0.00033270,0.00005551,-0.00066591,0.00001091,0.00007022
 ,-0.00008994,0.00016137,-0.00078644,-0.00036614,-0.00019855,-0.0015773
 0,-0.00048123,-0.00030601,0.00018353,0.00013457,-0.00004571,-0.0000195
 0,-0.00028527,0.00000332,-0.00974621,0.00006586,0.00478335,0.00143467,
 -0.00226262,0.00051231,0.00132204,-0.00188996,0.00133778,-0.00160319,0
 .00147662,0.02183931,-0.11783761,-0.47913728,-0.02563841,0.12238895,0.
 48183335,-0.01322307,0.02218672,0.04091730,-0.10375767,0.03054029,0.04
 191689,0.00242266,-0.00103636,0.00083841,-0.00182681,-0.00423882,-0.00
 400715,0.00585637,0.00213422,-0.00360989,-0.00833785,0.00015764,0.0000
 5547,-0.00078396,-0.00207120,-0.00124788,-0.00010605,0.00002596,0.0002
 0033,0.00027100,0.00089250,0.00039750,0.00011876,0.00103473,-0.0021338
 3,-0.00010157,0.00015250,-0.00017663,-0.00128225,0.00117238,-0.0004446
 9,-0.00028191,-0.00015002,-0.00018653,0.00022651,0.00026723,-0.0005240
 8,-0.00789282,0.00187457,-0.00854559,-0.00624171,0.00256670,0.00183988
 ,-0.00097266,0.00013676,-0.00103356,0.00049090,0.00018039,0.00021614,0
 .00254402,0.00182864,-0.00017610,0.00079870,-0.00013910,0.00000275,0.6
 1913847,0.00119879,-0.00495336,-0.00793373,0.01533069,-0.10972916,-0.0
 7200829,-0.00130553,-0.00004520,-0.00029836,0.00028610,0.00570598,-0.0
 0024867,0.01487863,-0.01818855,-0.03885215,0.00062848,0.00040702,0.000
 51479,-0.00012362,-0.00284500,0.00014517,-0.00009092,0.00067651,0.0000
 6643,-0.00226075,-0.00201946,-0.00182670,0.00076548,0.00075955,0.00231
 965,0.00046122,0.00060367,0.00017726,0.00185699,-0.00013186,0.00010430
 ,0.00013410,0.00203216,0.00137042,-0.00018039,0.00019330,0.00085424,-0
 .00031682,0.00276646,0.00109314,0.00207743,-0.00236950,0.00002119,0.00
 120165,0.00051315,0.00025828,0.00005141,-0.00026769,-0.00000235,-0.001
 14915,0.00440827,0.00263022,0.00128339,-0.00060026,0.00014898,-0.13166
 528,0.14791407,0.00604956,-0.00468936,-0.00715977,-0.00261420,-0.05851
 387,-0.17315302,0.00010008,0.00082212,-0.00124649,0.01249938,-0.024534
 74,-0.04860554,0.00486600,-0.01580079,-0.01204288,0.00012798,-0.000105
 07,0.00119326,0.00082586,-0.00323516,-0.00243237,-0.00014915,0.0004867
 3,0.00023643,0.00047601,-0.00326467,0.00177932,-0.00472683,0.00407036,
 -0.00609642,-0.00053813,0.00035971,0.00056782,-0.00071607,-0.00029597,
 -0.00005246,-0.00002086,0.00101447,-0.00087628,-0.00018287,-0.00006749
 ,-0.00056748,-0.00803089,0.00338868,-0.00058052,0.00255435,0.00054010,
 -0.00120087,0.00050235,-0.00022828,0.00178438,-0.00019982,-0.00001714,
 -0.00056420,0.00005452,0.00047720,0.00312429,0.00072538,0.00067786,-0.
 00184446,0.03664098,0.10634920,0.29736517,-0.00009164,0.00152604,0.001
 66444,-0.01589898,0.00489717,0.00496951,-0.00029420,-0.00005667,0.0000
 5996,0.00370453,-0.00049940,-0.00183130,0.00059345,-0.00112577,-0.0013
 0257,-0.00031069,-0.00006246,-0.00032984,-0.00003588,-0.00004737,0.000
 09617,0.00001762,0.00001206,-0.00000819,-0.00015805,-0.00050050,0.0009
 9385,-0.00147356,0.00025954,-0.00024974,0.00017814,0.00003899,0.000011
 81,0.00004399,0.00015395,-0.00014238,-0.00007226,-0.00054087,0.0002015
 7,-0.00008457,-0.00025125,-0.00008959,0.00077107,-0.00032386,0.0001343
 4,-0.00144837,0.00005939,-0.00059386,0.00029353,-0.00004697,-0.0000833
 7,-0.00009775,0.00004471,0.00000359,0.00111830,0.00028230,-0.00012510,
 -0.00019310,0.00005763,-0.00012477,-0.48843557,0.09576418,-0.04826074,
 0.50499784,-0.00109904,-0.00213091,-0.00236038,0.02355131,-0.00563525,
 -0.00274873,-0.00004117,0.00005848,-0.00010417,0.00004644,0.00252793,0
 .00012987,0.00091218,-0.00066754,-0.00016725,0.00053340,0.00025056,0.0
 0016645,0.00024352,-0.00014650,-0.00001253,0.00005729,-0.00003008,-0.0
 0001912,0.00020137,0.00061202,0.00120894,0.00010969,-0.00030368,-0.000
 09878,-0.00001536,0.00006339,0.00005117,0.00017536,-0.00012496,0.00010
 356,-0.00042624,-0.00077554,-0.00004197,0.00003150,-0.00021784,-0.0003
 9428,-0.00078470,0.00021933,-0.00072136,0.00045388,-0.00014167,0.00122
 029,-0.00016649,0.00000835,0.00015780,0.00004978,0.00000899,-0.0000278
 5,-0.00064441,0.00023137,0.00074025,0.00058436,0.00033292,-0.00006551,
 0.07665865,-0.02968612,-0.00805790,-0.10024096,0.03908994,0.00054263,-
 0.00366610,-0.00668926,0.03950531,-0.00916356,0.00145551,-0.00022002,0
 .00020099,-0.00025709,0.00708813,-0.00126171,-0.00483089,-0.00009452,-
 0.00090184,-0.00012422,0.00198423,-0.00015505,-0.00015804,0.00001110,-
 0.00085619,-0.00014582,-0.00002507,0.00003267,0.00003857,-0.00020817,0
 .00058456,-0.00048881,-0.00062694,0.00009629,0.00098228,-0.00001695,0.
 00004121,0.00001200,-0.00011869,0.00015287,0.00005402,0.00029489,0.000
 32041,-0.00004238,-0.00019966,-0.00033801,0.00045147,-0.00180222,0.000
 51148,-0.00149605,0.00043582,0.00072999,0.00236485,0.00017889,0.000007
 70,0.00013699,-0.00002374,-0.00006255,-0.00003152,-0.00065768,0.000237
 96,0.00016441,-0.00002160,0.00017034,-0.00006536,-0.08934168,0.0013992
 5,-0.04816362,0.04452959,0.01054449,0.05184696,0.00195516,0.00341693,-
 0.00497831,-0.04159761,0.00308971,-0.00204599,-0.00048184,-0.00154040,
 0.00123540,-0.21188160,-0.01346546,0.05042142,0.00147661,-0.00019279,0
 .00091638,0.00096897,-0.00030065,0.00003310,-0.00042221,0.00028265,0.0
 0046221,0.00004430,0.00011311,0.00000522,-0.04080818,-0.00482361,0.009
 01751,-0.02703371,0.00482449,0.01022704,-0.00005224,-0.00002048,-0.000
 23224,0.00007671,-0.00000907,0.00002241,0.00150343,0.00049665,-0.00108
 642,0.00073025,-0.00582276,0.00202402,0.00019256,-0.00007765,-0.000848
 05,-0.00019505,0.00007627,0.00050876,-0.00156647,0.00073713,-0.0009251
 1,0.00051543,-0.00004430,0.00029383,-0.00109626,-0.00098322,-0.0009979
 9,0.00006208,0.00010219,0.00067707,-0.00075607,0.00087334,-0.00035712,
 -0.00189633,0.00038082,0.00029326,0.43858023,-0.00024026,-0.00304676,0
 .00436167,0.02400320,0.00064723,-0.00444880,0.00047970,0.00079046,-0.0
 0049154,0.02272345,-0.08264497,0.01154591,-0.00026827,0.00153703,-0.00
 181171,-0.00052785,0.00003070,0.00025802,0.00010054,-0.00042096,-0.000
 28802,-0.00005702,0.00007218,-0.00003050,-0.03587487,-0.00062364,0.012
 21021,0.02041985,0.00511350,-0.00200233,0.00000136,0.00002862,0.000089
 42,0.00000187,0.00003529,-0.00000846,0.00071921,0.00356195,-0.00023610
 ,-0.00191442,-0.00674176,0.00294346,-0.00005937,0.00044042,0.00017182,
 0.00006941,-0.00014562,-0.00005814,0.00097272,-0.00020794,0.00036096,-
 0.00012587,-0.00013269,-0.00003578,0.00074119,0.00194104,-0.00001067,0
 .00012428,-0.00014172,-0.00005978,-0.00029752,0.00332755,-0.00018074,-
 0.00055559,-0.00362887,0.00013376,-0.13875006,0.30486299,-0.00029447,0
 .00312926,-0.00550415,-0.03068475,-0.00052338,-0.00050048,-0.00061485,
 -0.00080987,0.00070014,0.01970934,0.01403639,-0.09310349,0.00050280,-0
 .00078662,0.00157026,-0.00047150,0.00018642,0.00032112,0.00022584,-0.0
 0033133,0.00004589,0.00001317,0.00008455,0.00001628,0.01089860,0.00381
 488,-0.00317572,0.03279095,0.00094282,-0.00073387,-0.00010216,0.000022
 50,-0.00002740,-0.00002529,-0.00008595,0.00006955,-0.00041721,0.001482
 40,0.00072804,-0.00009759,0.00218337,0.00106085,-0.00070346,0.00024086
 ,-0.00035427,0.00064821,0.00014530,0.00080753,-0.00114298,0.00039767,-
 0.00019304,0.00019856,0.00006740,-0.00003473,-0.00047842,-0.00070781,0
 .00074933,0.00039799,0.00018913,-0.00009451,-0.01036273,0.00273281,-0.
 00097092,0.00086947,-0.00041749,0.00380907,0.07608093,-0.24233371,0.31
 861829,-0.00010577,0.00144883,-0.00185473,-0.00790609,-0.00027265,0.00
 263081,-0.00038501,-0.00028972,0.00022480,-0.02724285,0.02834869,-0.02
 751162,0.00021251,-0.00011918,0.00037681,0.00006884,0.00001871,-0.0000
 1027,-0.00002166,0.00011620,0.00005490,0.00001239,0.00001136,0.0000083
 9,-0.00322416,0.00006038,-0.00257007,-0.00002801,0.00038121,0.00009121
 ,0.00002591,-0.00000867,-0.00000210,-0.00000246,0.00001008,-0.00003706
 ,-0.00004388,-0.00029609,0.00019110,0.00040082,0.00081821,-0.00044879,
 0.00010230,-0.00014800,0.00012332,-0.00012408,0.00001792,-0.00017694,-
 0.00018531,0.00005921,-0.00007581,-0.00003002,0.00006762,-0.00002172,0
 .00022133,-0.00047948,0.00022664,-0.00009806,0.00003448,-0.00008917,0.
 00109694,-0.00008509,0.00127112,-0.00037731,-0.00034083,-0.00099276,-0
 .12380522,0.11479343,-0.10261794,0.15977887,0.00020908,0.00093102,-0.0
 0043195,-0.00171275,-0.00052726,-0.00121615,-0.00004973,-0.00011501,0.
 00011473,0.00276386,0.00085864,-0.00071861,-0.00005114,0.00010550,0.00
 007050,0.00002513,0.00002381,0.00005702,0.00002472,0.00005676,0.000053
 28,0.00001621,-0.00003787,0.00001542,-0.00597220,0.00235859,-0.0017133
 4,-0.00008858,-0.00022550,0.00065995,-0.00001625,-0.00000539,-0.000013
 42,-0.00001730,-0.00003022,0.00002019,0.00010519,-0.00033823,0.0000976
 3,0.00082080,-0.00046429,0.00050519,-0.00012477,-0.00009782,-0.0000804
 8,0.00013155,0.00008440,0.00015028,-0.00027679,0.00001527,-0.00005821,
 0.00002545,0.00005793,-0.00000910,0.00004664,-0.00050473,0.00011513,0.
 00002969,0.00007994,-0.00004148,-0.00193878,0.00001385,-0.00100615,0.0
 0082520,0.00041635,0.00165865,0.14820238,-0.22426098,0.21297348,-0.145
 38454,0.22412459,0.00012703,-0.00021115,0.00032992,0.00086268,0.000230
 42,-0.00155922,-0.00000735,0.00007667,0.00001820,0.00396487,-0.0066596
 6,0.00638522,0.00003188,-0.00001250,-0.00012823,-0.00005528,0.00001583
 ,0.00006662,0.00000898,-0.00001146,-0.00001393,-0.00000701,0.00000664,
 -0.00000573,0.00317596,0.00014942,0.00280296,0.00196616,-0.00077158,-0
 .00042436,0.00001069,-0.00000041,0.00001772,-0.00000267,0.00001012,-0.
 00000884,-0.00068230,-0.00020298,-0.00061457,-0.00036059,0.00060251,-0
 .00103274,0.00003110,-0.00002085,0.00000052,-0.00006211,0.00001973,-0.
 00000963,0.00015979,-0.00003822,0.00002498,-0.00004104,-0.00000021,-0.
 00000063,0.00011815,0.00013984,0.00000752,-0.00002878,0.00001877,-0.00
 001812,-0.00133277,0.00001457,0.00018056,0.00018271,0.00125490,0.00077
 954,-0.13876680,0.21708952,-0.22379276,0.13152812,-0.21118010,0.219547
 99,-0.00067659,-0.00203291,0.00053132,0.00024534,-0.00162288,0.0015331
 3,0.00022657,-0.00007200,0.00007638,-0.00166260,0.00058503,0.00074309,
 0.00001321,0.00018071,-0.00019323,0.00017379,-0.00020783,-0.00007561,-
 0.00017353,-0.00012287,0.00010530,-0.00003667,0.00014513,-0.00006100,-
 0.14168996,0.00604067,-0.07334559,0.00038763,0.00026548,0.00030635,-0.
 00002434,0.00001458,-0.00008015,0.00006366,0.00003052,0.00000442,-0.00
 377614,0.00318971,-0.01107056,-0.02255840,0.01648087,-0.03480048,0.000
 14895,0.00029286,-0.00059074,-0.00014204,-0.00004370,0.00025290,-0.000
 11722,0.00033763,-0.00024920,0.00035276,-0.00025227,0.00020015,-0.0011
 6094,0.00172457,-0.00225049,-0.00005372,0.00027262,0.00055185,0.000965
 03,0.00042256,-0.00089181,-0.00078575,-0.00012386,-0.00036929,0.004966
 96,-0.00468564,0.00363110,-0.00010904,0.00181115,0.00078798,0.20344078
 ,-0.00170428,-0.00030054,-0.00032436,-0.00457898,-0.00773702,-0.002769
 08,-0.00030387,0.00034804,-0.00020353,0.02709848,-0.02148391,0.0402489
 3,0.00120930,-0.00122574,0.00236216,-0.00003246,0.00012347,-0.00002576
 ,-0.00000438,-0.00018214,-0.00016502,-0.00004057,0.00010720,-0.0000022
 8,0.03595423,-0.10298071,0.04526371,0.00074294,0.00276570,-0.00093964,
 0.00006738,0.00001577,0.00008131,0.00002036,0.00007901,-0.00009984,-0.
 01049884,0.01034884,-0.00532087,0.00566497,0.00038633,0.00369282,0.000
 18691,0.00014694,0.00038452,-0.00024627,-0.00013525,-0.00037495,0.0007
 4244,-0.00010474,0.00021770,-0.00020549,-0.00002537,-0.00006270,0.0005
 4536,0.00115921,0.00044816,-0.00003908,-0.00029081,-0.00014118,-0.0002
 4488,0.00127740,0.00184208,0.00032930,-0.00028927,-0.00054147,0.002427
 44,-0.00146318,0.00394982,0.00131036,-0.00186303,-0.00038685,0.0452126
 5,0.64723623,0.00050639,-0.00102481,-0.00018078,0.00173419,0.00097760,
 0.00123520,0.00035761,-0.00017246,0.00016635,-0.00853709,0.01297128,-0
 .01504794,-0.00047176,0.00054203,-0.00080749,-0.00005996,0.00004155,0.
 00005626,0.00001063,-0.00020447,0.00006549,-0.00000910,0.00004503,-0.0
 0003242,-0.08175892,0.01206885,-0.14652156,0.00050567,0.00058278,0.001
 17316,-0.00008002,0.00002836,-0.00007326,0.00001155,-0.00003615,0.0000
 8513,-0.02862261,0.01624429,-0.02664347,-0.00658917,0.00265616,0.00472
 237,-0.00021659,0.00035253,-0.00047184,0.00027135,-0.00010548,0.000524
 58,-0.00063896,0.00029585,-0.00014718,0.00038034,-0.00016865,0.0000768
 4,-0.00158257,0.00104452,-0.00028194,0.00053508,-0.00017858,0.00055047
 ,-0.00004638,0.00154307,-0.00079833,-0.00058035,-0.00055542,0.00048250
 ,-0.00133271,0.00302415,-0.00009357,-0.00025651,-0.00001305,-0.0024512
 0,0.12843410,-0.14323892,0.21454477,0.00026142,0.00014084,0.00005029,0
 .00066072,0.00102589,0.00009762,0.00001916,-0.00001180,-0.00000447,-0.
 00511864,0.00056749,-0.00325687,-0.00011622,0.00020087,-0.00029521,-0.
 00001226,0.00000725,0.00002561,0.00002440,0.00001535,-0.00001238,0.000
 00693,-0.00002451,0.00000720,0.00118219,0.03040043,-0.00712218,-0.0000
 6557,-0.00015137,0.00012756,0.00000023,-0.00000133,0.00000528,-0.00001
 281,-0.00000912,0.00000738,0.00073350,-0.00069122,-0.00053460,-0.00068
 290,0.00115902,-0.00006569,-0.00003762,-0.00003183,0.00006929,0.000041
 76,-0.00000052,-0.00001965,-0.00005572,-0.00003666,0.00004267,-0.00001
 391,0.00003590,-0.00003968,-0.00004450,-0.00025989,0.00013440,0.000023
 68,0.00001750,-0.00006267,0.00007061,-0.00003688,-0.00000507,-0.000064
 45,-0.00010649,-0.00014487,0.00052009,-0.00179349,0.00204639,0.0017690
 1,0.00059579,-0.00160939,-0.03801771,-0.10361299,-0.00196420,0.0389285
 9,-0.00007145,-0.00019765,0.00004328,-0.00053477,-0.00050270,-0.000216
 20,0.00006218,-0.00003322,0.00001580,0.00170174,-0.00034013,0.00250283
 ,0.00012568,-0.00000276,0.00009119,0.00003278,-0.00003366,-0.00002701,
 -0.00002699,0.00000067,0.00002706,-0.00000580,0.00001593,-0.00000822,-
 0.00516987,-0.01084020,-0.00256057,0.00002715,0.00056263,-0.00007174,-
 0.00000846,0.00000209,-0.00001795,0.00000613,-0.00000290,0.00000548,-0
 .00120606,0.00187562,-0.00084081,-0.00039296,0.00025843,-0.00081754,-0
 .00000311,0.00002634,-0.00011868,0.00001284,0.00000214,0.00008001,-0.0
 0007163,0.00005563,-0.00005682,0.00007136,-0.00003173,0.00003938,-0.00
 026001,0.00022482,-0.00028482,0.00004403,0.00003775,0.00010306,-0.0000
 2790,0.00023723,-0.00003119,0.00000121,-0.00004141,0.00012384,0.001007
 33,0.00107012,-0.00058290,-0.00007244,-0.00065631,-0.00013295,-0.06784
 277,-0.52591244,0.09327996,0.07260178,0.53422572,0.00017267,0.00019309
 ,0.00010013,0.00055370,0.00184226,0.00054709,-0.00005673,-0.00000823,-
 0.00000218,-0.00367101,0.00167455,-0.00504239,-0.00023545,0.00011885,-
 0.00045259,-0.00002455,-0.00001521,-0.00001167,-0.00000203,0.00010493,
 0.00002210,0.00000846,-0.00002995,0.00000424,0.00365358,0.03197000,-0.
 00722941,-0.00011906,-0.00008900,0.00011975,0.00000889,-0.00001265,0.0
 0000578,-0.00000906,-0.00000573,-0.00000525,0.00097442,0.00017438,-0.0
 0003262,-0.00011798,-0.00054281,0.00087730,0.00004439,-0.00014083,0.00
 003104,-0.00004890,0.00006272,-0.00006066,0.00005138,-0.00005063,-0.00
 001237,-0.00005830,0.00003982,0.00000141,0.00019848,-0.00039492,0.0000
 3018,-0.00010543,0.00010841,-0.00007288,0.00014384,-0.00057274,0.00012
 440,0.00000482,0.00021500,-0.00008514,-0.00064778,-0.00019264,0.000082
 56,-0.00006171,-0.00000940,-0.00010178,-0.01317991,0.05610523,-0.03013
 215,0.01252326,-0.09054451,0.04129512\\0.00001442,0.00000389,-0.000008
 74,0.00000140,-0.00000798,-0.00002537,-0.00000776,0.00000586,0.0000004
 8,-0.00000176,-0.00000554,-0.00000138,0.00000079,0.00000925,0.00000442
 ,-0.00000389,0.00000188,0.00000345,-0.00000737,0.00002244,0.00000211,0
 .00000832,0.00000204,0.00000691,0.00000513,0.00001207,0.00000962,-0.00
 000526,-0.00000099,0.00000406,0.00000054,-0.00000587,-0.00000292,0.000
 00024,-0.00000217,-0.00000076,0.00000228,-0.00000223,0.00000008,-0.000
 00369,-0.00000086,-0.00000159,-0.00000185,-0.00001249,-0.00000184,0.00
 000765,-0.00000775,-0.00000534,0.00000692,-0.00001267,-0.00001015,-0.0
 0000962,-0.00000874,0.00000714,-0.00000236,-0.00000568,0.00001098,-0.0
 0000409,0.00000624,-0.00001139,-0.00000087,0.00000911,0.00002736,0.000
 00418,-0.00000299,-0.00000292,-0.00000768,-0.00000100,-0.00000590,0.00
 000130,0.00000464,0.00000508,0.00000318,0.00000543,-0.00000732,-0.0000
 0015,-0.00000589,0.00000393\\\@
 The archive entry for this job was punched.


 THE HURRIEDER I GO, THE BEHINDER I GET.
 Job cpu time:       0 days 11 hours  7 minutes 10.7 seconds.
 Elapsed time:       0 days  0 hours 41 minutes 49.1 seconds.
 File lengths (MBytes):  RWF=    704 Int=      0 D2E=      0 Chk=     27 Scr=      1
 Normal termination of Gaussian 16 at Wed Sep 27 13:44:29 2023.
