 Entering Gaussian System, Link 0=/opt/software/gaussian/g16.c01/g16
 Initial command:
 /opt/software/gaussian/g16.c01/l1.exe "/scratch/arhender/14836893/Gau-276154.inp" -scrdir="/scratch/arhender/14836893/"
 Entering Link 1 = /opt/software/gaussian/g16.c01/l1.exe PID=    276155.
  
 Copyright (c) 1988-2019, Gaussian, Inc.  All Rights Reserved.
  
 This is part of the Gaussian(R) 16 program.  It is based on
 the Gaussian(R) 09 system (copyright 2009, Gaussian, Inc.),
 the Gaussian(R) 03 system (copyright 2003, Gaussian, Inc.),
 the Gaussian(R) 98 system (copyright 1998, Gaussian, Inc.),
 the Gaussian(R) 94 system (copyright 1995, Gaussian, Inc.),
 the Gaussian 92(TM) system (copyright 1992, Gaussian, Inc.),
 the Gaussian 90(TM) system (copyright 1990, Gaussian, Inc.),
 the Gaussian 88(TM) system (copyright 1988, Gaussian, Inc.),
 the Gaussian 86(TM) system (copyright 1986, Carnegie Mellon
 University), and the Gaussian 82(TM) system (copyright 1983,
 Carnegie Mellon University). Gaussian is a federally registered
 trademark of Gaussian, Inc.
  
 This software contains proprietary and confidential information,
 including trade secrets, belonging to Gaussian, Inc.
  
 This software is provided under written license and may be
 used, copied, transmitted, or stored only in accord with that
 written license.
  
 The following legend is applicable only to US Government
 contracts under FAR:
  
                    RESTRICTED RIGHTS LEGEND
  
 Use, reproduction and disclosure by the US Government is
 subject to restrictions as set forth in subparagraphs (a)
 and (c) of the Commercial Computer Software - Restricted
 Rights clause in FAR 52.227-19.
  
 Gaussian, Inc.
 340 Quinnipiac St., Bldg. 40, Wallingford CT 06492
  
  
 ---------------------------------------------------------------
 Warning -- This program may not be used in any manner that
 competes with the business of Gaussian, Inc. or will provide
 assistance to any competitor of Gaussian, Inc.  The licensee
 of this program is prohibited from giving any competitor of
 Gaussian, Inc. access to this program.  By using this program,
 the user acknowledges that Gaussian, Inc. is engaged in the
 business of creating and licensing software in the field of
 computational chemistry and represents and warrants to the
 licensee that it is not a competitor of Gaussian, Inc. and that
 it will not use this program in any manner prohibited above.
 ---------------------------------------------------------------
  

 Cite this work as:
 Gaussian 16, Revision C.01,
 M. J. Frisch, G. W. Trucks, H. B. Schlegel, G. E. Scuseria, 
 M. A. Robb, J. R. Cheeseman, G. Scalmani, V. Barone, 
 G. A. Petersson, H. Nakatsuji, X. Li, M. Caricato, A. V. Marenich, 
 J. Bloino, B. G. Janesko, R. Gomperts, B. Mennucci, H. P. Hratchian, 
 J. V. Ortiz, A. F. Izmaylov, J. L. Sonnenberg, D. Williams-Young, 
 F. Ding, F. Lipparini, F. Egidi, J. Goings, B. Peng, A. Petrone, 
 T. Henderson, D. Ranasinghe, V. G. Zakrzewski, J. Gao, N. Rega, 
 G. Zheng, W. Liang, M. Hada, M. Ehara, K. Toyota, R. Fukuda, 
 J. Hasegawa, M. Ishida, T. Nakajima, Y. Honda, O. Kitao, H. Nakai, 
 T. Vreven, K. Throssell, J. A. Montgomery, Jr., J. E. Peralta, 
 F. Ogliaro, M. J. Bearpark, J. J. Heyd, E. N. Brothers, K. N. Kudin, 
 V. N. Staroverov, T. A. Keith, R. Kobayashi, J. Normand, 
 K. Raghavachari, A. P. Rendell, J. C. Burant, S. S. Iyengar, 
 J. Tomasi, M. Cossi, J. M. Millam, M. Klene, C. Adamo, R. Cammi, 
 J. W. Ochterski, R. L. Martin, K. Morokuma, O. Farkas, 
 J. B. Foresman, and D. J. Fox, Gaussian, Inc., Wallingford CT, 2019.
 
 ******************************************
 Gaussian 16:  ES64L-G16RevC.01  3-Jul-2019
                11-Oct-2023 
 ******************************************
 %chk=MannitolConformerOpt_31.chk
 %mem=8GB
 %nprocs=16
 Will use up to   16 processors via shared memory.
 ---------------------------------------------
 # opt freq wb97xd/Def2TZVPP geom=connectivity
 ---------------------------------------------
 1/18=20,19=15,26=3,38=1,57=2/1,3;
 2/9=110,12=2,17=6,18=5,40=1/2;
 3/5=44,7=202,11=2,25=1,30=1,71=1,74=-58/1,2,3;
 4//1;
 5/5=2,38=5/2;
 6/7=2,8=2,9=2,10=2,28=1/1;
 7//1,2,3,16;
 1/18=20,19=15,26=3/3(2);
 2/9=110/2;
 99//99;
 2/9=110/2;
 3/5=44,7=202,11=2,25=1,30=1,71=1,74=-58/1,2,3;
 4/5=5,16=3,69=1/1;
 5/5=2,38=5/2;
 7//1,2,3,16;
 1/18=20,19=15,26=3/3(-5);
 2/9=110/2;
 6/7=2,8=2,9=2,10=2,19=2,28=1/1;
 99/9=1/99;
 -------------------
 Title Card Required
 -------------------
 Symbolic Z-matrix:
 Charge =  0 Multiplicity = 1
 C                     0.        0.        0. 
 C                     1.5413    0.        0. 
 C                    -0.7017    0.9065    1.0221 
 C                     2.2311   -0.847     1.0851 
 H                     1.9315    1.0223    0. 
 H                    -0.3759   -1.0258    0.0935 
 C                    -0.3334    2.3911    0.9162 
 H                    -0.5583    0.5544    2.0452 
 C                     1.9423   -0.4687    2.5335 
 H                     3.3136   -0.767     0.9209 
 H                    -0.5547    2.7863   -0.0801 
 H                     0.7148    2.5769    1.1592 
 H                     2.6593   -0.9728    3.192 
 H                     0.9494   -0.8087    2.8437 
 O                    -1.1497    3.1142    1.8471 
 H                    -0.8797    4.0481    1.7821 
 O                    -2.1239    0.8055    0.7688 
 H                    -2.5161    1.5161    1.3192 
 O                    -0.4231    0.4266   -1.3245 
 H                    -1.4006    0.4813   -1.2513 
 O                     1.9579   -0.5798   -1.2679 
 H                     1.2964   -0.2413   -1.9114 
 O                     1.902    -2.2299    0.8904 
 H                     2.0393   -2.3767   -0.0694 
 O                     2.0481    0.9333    2.732 
 H                     1.9837    1.0844    3.6928 
 

 GradGradGradGradGradGradGradGradGradGradGradGradGradGradGradGradGradGrad
 Berny optimization.
 Initialization pass.
                           ----------------------------
                           !    Initial Parameters    !
                           ! (Angstroms and Degrees)  !
 --------------------------                            --------------------------
 ! Name  Definition              Value          Derivative Info.                !
 --------------------------------------------------------------------------------
 ! R1    R(1,2)                  1.5413         estimate D2E/DX2                !
 ! R2    R(1,3)                  1.5358         estimate D2E/DX2                !
 ! R3    R(1,6)                  1.0965         estimate D2E/DX2                !
 ! R4    R(1,19)                 1.4544         estimate D2E/DX2                !
 ! R5    R(2,4)                  1.5397         estimate D2E/DX2                !
 ! R6    R(2,5)                  1.0942         estimate D2E/DX2                !
 ! R7    R(2,21)                 1.4551         estimate D2E/DX2                !
 ! R8    R(3,7)                  1.5333         estimate D2E/DX2                !
 ! R9    R(3,8)                  1.0915         estimate D2E/DX2                !
 ! R10   R(3,17)                 1.4481         estimate D2E/DX2                !
 ! R11   R(4,9)                  1.5246         estimate D2E/DX2                !
 ! R12   R(4,10)                 1.0978         estimate D2E/DX2                !
 ! R13   R(4,23)                 1.4348         estimate D2E/DX2                !
 ! R14   R(7,11)                 1.0944         estimate D2E/DX2                !
 ! R15   R(7,12)                 1.0919         estimate D2E/DX2                !
 ! R16   R(7,15)                 1.4338         estimate D2E/DX2                !
 ! R17   R(9,13)                 1.0963         estimate D2E/DX2                !
 ! R18   R(9,14)                 1.0944         estimate D2E/DX2                !
 ! R19   R(9,25)                 1.4199         estimate D2E/DX2                !
 ! R20   R(15,16)                0.9743         estimate D2E/DX2                !
 ! R21   R(17,18)                0.9807         estimate D2E/DX2                !
 ! R22   R(19,20)                0.9818         estimate D2E/DX2                !
 ! R23   R(21,22)                0.983          estimate D2E/DX2                !
 ! R24   R(23,24)                0.9806         estimate D2E/DX2                !
 ! R25   R(25,26)                0.9747         estimate D2E/DX2                !
 ! A1    A(2,1,3)              117.1861         estimate D2E/DX2                !
 ! A2    A(2,1,6)              110.0487         estimate D2E/DX2                !
 ! A3    A(2,1,19)             106.9124         estimate D2E/DX2                !
 ! A4    A(3,1,6)              109.8037         estimate D2E/DX2                !
 ! A5    A(3,1,19)             107.4589         estimate D2E/DX2                !
 ! A6    A(6,1,19)             104.6154         estimate D2E/DX2                !
 ! A7    A(1,2,4)              116.616          estimate D2E/DX2                !
 ! A8    A(1,2,5)              110.8913         estimate D2E/DX2                !
 ! A9    A(1,2,21)             106.6369         estimate D2E/DX2                !
 ! A10   A(4,2,5)              110.7435         estimate D2E/DX2                !
 ! A11   A(4,2,21)             105.4632         estimate D2E/DX2                !
 ! A12   A(5,2,21)             105.6745         estimate D2E/DX2                !
 ! A13   A(1,3,7)              114.5688         estimate D2E/DX2                !
 ! A14   A(1,3,8)              111.9246         estimate D2E/DX2                !
 ! A15   A(1,3,17)             106.9259         estimate D2E/DX2                !
 ! A16   A(7,3,8)              110.2149         estimate D2E/DX2                !
 ! A17   A(7,3,17)             106.9394         estimate D2E/DX2                !
 ! A18   A(8,3,17)             105.6939         estimate D2E/DX2                !
 ! A19   A(2,4,9)              116.6259         estimate D2E/DX2                !
 ! A20   A(2,4,10)             107.2335         estimate D2E/DX2                !
 ! A21   A(2,4,23)             109.3791         estimate D2E/DX2                !
 ! A22   A(9,4,10)             108.1076         estimate D2E/DX2                !
 ! A23   A(9,4,23)             108.9429         estimate D2E/DX2                !
 ! A24   A(10,4,23)            106.0285         estimate D2E/DX2                !
 ! A25   A(3,7,11)             111.3427         estimate D2E/DX2                !
 ! A26   A(3,7,12)             112.3322         estimate D2E/DX2                !
 ! A27   A(3,7,15)             107.8616         estimate D2E/DX2                !
 ! A28   A(11,7,12)            109.588          estimate D2E/DX2                !
 ! A29   A(11,7,15)            107.086          estimate D2E/DX2                !
 ! A30   A(12,7,15)            108.4349         estimate D2E/DX2                !
 ! A31   A(4,9,13)             109.4303         estimate D2E/DX2                !
 ! A32   A(4,9,14)             111.3494         estimate D2E/DX2                !
 ! A33   A(4,9,25)             111.3272         estimate D2E/DX2                !
 ! A34   A(13,9,14)            106.2761         estimate D2E/DX2                !
 ! A35   A(13,9,25)            108.7427         estimate D2E/DX2                !
 ! A36   A(14,9,25)            109.5562         estimate D2E/DX2                !
 ! A37   A(7,15,16)            106.3986         estimate D2E/DX2                !
 ! A38   A(3,17,18)            104.1266         estimate D2E/DX2                !
 ! A39   A(1,19,20)            103.7737         estimate D2E/DX2                !
 ! A40   A(2,21,22)            103.9183         estimate D2E/DX2                !
 ! A41   A(4,23,24)            104.1812         estimate D2E/DX2                !
 ! A42   A(9,25,26)            106.6146         estimate D2E/DX2                !
 ! D1    D(3,1,2,4)             79.5444         estimate D2E/DX2                !
 ! D2    D(3,1,2,5)            -48.4302         estimate D2E/DX2                !
 ! D3    D(3,1,2,21)          -163.0044         estimate D2E/DX2                !
 ! D4    D(6,1,2,4)            -46.8173         estimate D2E/DX2                !
 ! D5    D(6,1,2,5)           -174.792          estimate D2E/DX2                !
 ! D6    D(6,1,2,21)            70.6338         estimate D2E/DX2                !
 ! D7    D(19,1,2,4)          -159.8783         estimate D2E/DX2                !
 ! D8    D(19,1,2,5)            72.1471         estimate D2E/DX2                !
 ! D9    D(19,1,2,21)          -42.4271         estimate D2E/DX2                !
 ! D10   D(2,1,3,7)             57.877          estimate D2E/DX2                !
 ! D11   D(2,1,3,8)            -68.534          estimate D2E/DX2                !
 ! D12   D(2,1,3,17)           176.1712         estimate D2E/DX2                !
 ! D13   D(6,1,3,7)           -175.6408         estimate D2E/DX2                !
 ! D14   D(6,1,3,8)             57.9481         estimate D2E/DX2                !
 ! D15   D(6,1,3,17)           -57.3467         estimate D2E/DX2                !
 ! D16   D(19,1,3,7)           -62.4126         estimate D2E/DX2                !
 ! D17   D(19,1,3,8)           171.1764         estimate D2E/DX2                !
 ! D18   D(19,1,3,17)           55.8816         estimate D2E/DX2                !
 ! D19   D(2,1,19,20)         -175.5184         estimate D2E/DX2                !
 ! D20   D(3,1,19,20)          -48.9183         estimate D2E/DX2                !
 ! D21   D(6,1,19,20)           67.7644         estimate D2E/DX2                !
 ! D22   D(1,2,4,9)            -60.7751         estimate D2E/DX2                !
 ! D23   D(1,2,4,10)           177.9246         estimate D2E/DX2                !
 ! D24   D(1,2,4,23)            63.3697         estimate D2E/DX2                !
 ! D25   D(5,2,4,9)             67.2714         estimate D2E/DX2                !
 ! D26   D(5,2,4,10)           -54.0289         estimate D2E/DX2                !
 ! D27   D(5,2,4,23)          -168.5838         estimate D2E/DX2                !
 ! D28   D(21,2,4,9)          -178.8674         estimate D2E/DX2                !
 ! D29   D(21,2,4,10)           59.8323         estimate D2E/DX2                !
 ! D30   D(21,2,4,23)          -54.7226         estimate D2E/DX2                !
 ! D31   D(1,2,21,22)           37.0939         estimate D2E/DX2                !
 ! D32   D(4,2,21,22)          161.6913         estimate D2E/DX2                !
 ! D33   D(5,2,21,22)          -80.9664         estimate D2E/DX2                !
 ! D34   D(1,3,7,11)            57.7809         estimate D2E/DX2                !
 ! D35   D(1,3,7,12)           -65.5612         estimate D2E/DX2                !
 ! D36   D(1,3,7,15)           174.9958         estimate D2E/DX2                !
 ! D37   D(8,3,7,11)          -174.9292         estimate D2E/DX2                !
 ! D38   D(8,3,7,12)            61.7287         estimate D2E/DX2                !
 ! D39   D(8,3,7,15)           -57.7142         estimate D2E/DX2                !
 ! D40   D(17,3,7,11)          -60.5056         estimate D2E/DX2                !
 ! D41   D(17,3,7,12)          176.1522         estimate D2E/DX2                !
 ! D42   D(17,3,7,15)           56.7093         estimate D2E/DX2                !
 ! D43   D(1,3,17,18)         -169.7206         estimate D2E/DX2                !
 ! D44   D(7,3,17,18)          -46.5584         estimate D2E/DX2                !
 ! D45   D(8,3,17,18)           70.8789         estimate D2E/DX2                !
 ! D46   D(2,4,9,13)          -166.6331         estimate D2E/DX2                !
 ! D47   D(2,4,9,14)            76.1751         estimate D2E/DX2                !
 ! D48   D(2,4,9,25)           -46.4015         estimate D2E/DX2                !
 ! D49   D(10,4,9,13)          -45.795          estimate D2E/DX2                !
 ! D50   D(10,4,9,14)         -162.9868         estimate D2E/DX2                !
 ! D51   D(10,4,9,25)           74.4366         estimate D2E/DX2                !
 ! D52   D(23,4,9,13)           68.9995         estimate D2E/DX2                !
 ! D53   D(23,4,9,14)          -48.1923         estimate D2E/DX2                !
 ! D54   D(23,4,9,25)         -170.7688         estimate D2E/DX2                !
 ! D55   D(2,4,23,24)           46.8074         estimate D2E/DX2                !
 ! D56   D(9,4,23,24)          175.3435         estimate D2E/DX2                !
 ! D57   D(10,4,23,24)         -68.5215         estimate D2E/DX2                !
 ! D58   D(3,7,15,16)          178.2924         estimate D2E/DX2                !
 ! D59   D(11,7,15,16)         -61.7683         estimate D2E/DX2                !
 ! D60   D(12,7,15,16)          56.4065         estimate D2E/DX2                !
 ! D61   D(4,9,25,26)         -171.7669         estimate D2E/DX2                !
 ! D62   D(13,9,25,26)         -51.1303         estimate D2E/DX2                !
 ! D63   D(14,9,25,26)          64.6302         estimate D2E/DX2                !
 --------------------------------------------------------------------------------
 Trust Radius=3.00D-01 FncErr=1.00D-07 GrdErr=1.00D-06 EigMax=2.50D+02 EigMin=1.00D-04
 Number of steps in this run=    140 maximum allowed number of steps=    156.
 GradGradGradGradGradGradGradGradGradGradGradGradGradGradGradGradGradGrad

                          Input orientation:                          
 ---------------------------------------------------------------------
 Center     Atomic      Atomic             Coordinates (Angstroms)
 Number     Number       Type             X           Y           Z
 ---------------------------------------------------------------------
      1          6           0        0.000000    0.000000    0.000000
      2          6           0        1.541300    0.000000    0.000000
      3          6           0       -0.701700    0.906500    1.022100
      4          6           0        2.231100   -0.847000    1.085100
      5          1           0        1.931500    1.022300    0.000000
      6          1           0       -0.375900   -1.025800    0.093500
      7          6           0       -0.333400    2.391100    0.916200
      8          1           0       -0.558300    0.554400    2.045200
      9          6           0        1.942300   -0.468700    2.533500
     10          1           0        3.313600   -0.767000    0.920900
     11          1           0       -0.554700    2.786300   -0.080100
     12          1           0        0.714800    2.576900    1.159200
     13          1           0        2.659300   -0.972800    3.192000
     14          1           0        0.949400   -0.808700    2.843700
     15          8           0       -1.149700    3.114200    1.847100
     16          1           0       -0.879700    4.048100    1.782100
     17          8           0       -2.123900    0.805500    0.768800
     18          1           0       -2.516100    1.516100    1.319200
     19          8           0       -0.423100    0.426600   -1.324500
     20          1           0       -1.400600    0.481300   -1.251300
     21          8           0        1.957900   -0.579800   -1.267900
     22          1           0        1.296400   -0.241300   -1.911400
     23          8           0        1.902000   -2.229900    0.890400
     24          1           0        2.039300   -2.376700   -0.069400
     25          8           0        2.048100    0.933300    2.732000
     26          1           0        1.983700    1.084400    3.692800
 ---------------------------------------------------------------------
                    Distance matrix (angstroms):
                    1          2          3          4          5
     1  C    0.000000
     2  C    1.541300   0.000000
     3  C    1.535843   2.626305   0.000000
     4  C    2.621576   1.539700   3.417608   0.000000
     5  H    2.185358   1.094236   2.826984   2.182083   0.000000
     6  H    1.096498   2.176388   2.168462   2.794940   3.086673
     7  C    2.582235   3.173528   1.533263   4.134063   2.800501
     8  H    2.191324   2.983039   1.091454   3.265956   3.255899
     9  C    3.226582   2.607509   3.341593   1.524591   2.939697
    10  H    3.523676   2.139484   4.351262   1.097801   2.441281
    11  H    2.842108   3.487564   2.184056   4.724324   3.049476
    12  H    2.914635   2.944021   2.194426   3.745363   2.289298
    13  H    4.266976   3.519251   4.420018   2.153650   3.833925
    14  H    3.105155   3.015124   2.997711   2.176441   3.521890
    15  O    3.798925   4.511264   2.399014   5.263227   4.157116
    16  H    4.509641   5.042245   3.237118   5.841651   4.498243
    17  O    2.398090   3.830610   1.448107   4.668707   4.133319
    18  H    3.220187   4.527841   1.936989   5.308008   4.665327
    19  O    1.454408   2.407313   2.411318   3.804341   2.766460
    20  H    1.938835   3.232983   2.416113   4.518007   3.600184
    21  O    2.403562   1.455092   3.811386   2.383829   2.043280
    22  H    2.322139   1.942074   3.730318   3.196803   2.377706
    23  O    3.063147   2.428038   4.078432   1.434792   3.372015
    24  H    3.132453   2.429305   4.414052   1.926042   3.401417
    25  O    3.539716   2.931163   3.238190   2.432126   2.735935
    26  H    4.329868   3.874069   3.791525   3.254476   3.693691
                    6          7          8          9         10
     6  H    0.000000
     7  C    3.514804   0.000000
     8  H    2.517823   2.167646   0.000000
     9  C    3.411453   3.996614   2.745573   0.000000
    10  H    3.789984   4.824337   4.242848   2.137738   0.000000
    11  H    3.820237   1.094427   3.081930   4.864251   5.347119
    12  H    3.912134   1.091922   2.548781   3.559654   4.241723
    13  H    4.337736   5.044932   3.741716   1.096279   2.372416
    14  H    3.060580   3.949627   2.183759   1.094383   3.047678
    15  O    4.562179   1.433804   2.634687   4.782131   5.986870
    16  H    5.371187   1.947787   3.518303   5.378640   6.442873
    17  O    2.620151   2.396194   2.035522   4.612129   5.662358
    18  H    3.541758   2.385836   2.298896   5.029044   6.273483
    19  O    2.030374   2.981282   3.374832   4.613116   4.519893
    20  H    2.264917   3.079660   3.403193   5.138306   5.338575
    21  O    2.738421   4.341267   4.312111   3.803055   2.581436
    22  H    2.726106   4.192982   4.441591   4.497336   3.516729
    23  O    2.696986   5.133354   3.890882   2.408989   2.033131
    24  H    2.772122   5.415998   4.450888   3.228771   2.279401
    25  O    4.083568   3.330744   2.721871   1.419930   2.787937
    26  H    4.793289   3.845247   3.075264   1.938507   3.588836
                   11         12         13         14         15
    11  H    0.000000
    12  H    1.786433   0.000000
    13  H    5.930200   4.529208   0.000000
    14  H    4.871853   3.788781   1.752712   0.000000
    15  O    2.043439   2.058703   5.746373   4.559449   0.000000
    16  H    2.272785   2.257181   6.302521   5.297274   0.974317
    17  O    2.665819   3.368752   5.649181   4.044258   2.727983
    18  H    2.723699   3.404352   6.040428   4.442802   2.167868
    19  O    2.670961   3.476690   5.644314   4.558905   4.220212
    20  H    2.720346   3.831053   6.191939   4.894448   4.073720
    21  O    4.365164   4.171435   4.531790   4.239661   5.745088
    22  H    3.993319   4.208217   5.332662   4.801388   5.600813
    23  O    5.669172   4.958530   2.729682   2.596659   6.227965
    24  H    5.778020   5.272752   3.604451   3.483196   6.632697
    25  O    4.256299   2.636818   2.053870   2.062567   3.970554
    26  H    4.855380   3.202623   2.222455   2.318313   4.164720
                   16         17         18         19         20
    16  H    0.000000
    17  O    3.617909   0.000000
    18  H    3.050099   0.980670   0.000000
    19  O    4.793194   2.723636   3.543559   0.000000
    20  H    4.711148   2.170040   2.987076   0.981762   0.000000
    21  O    6.226711   4.767420   5.576967   2.585576   3.522177
    22  H    6.064347   4.469644   5.297206   1.935774   2.869092
    23  O    6.924324   5.043442   5.808269   4.167597   4.779608
    24  H    7.295661   5.306714   6.150916   3.936646   4.625793
    25  O    4.379075   4.612599   4.813271   4.776899   5.288149
    26  H    4.542395   5.049746   5.105736   5.603453   6.021739
                   21         22         23         24         25
    21  O    0.000000
    22  H    0.982984   0.000000
    23  O    2.717391   3.488748   0.000000
    24  H    2.161453   2.916299   0.980621   0.000000
    25  O    4.277477   4.848289   3.663150   4.336360   0.000000
    26  H    5.232473   5.799734   4.341049   5.112382   0.974739
                   26
    26  H    0.000000
 Stoichiometry    C6H14O6
 Framework group  C1[X(C6H14O6)]
 Deg. of freedom    72
 Full point group                 C1      NOp   1
 Largest Abelian subgroup         C1      NOp   1
 Largest concise Abelian subgroup C1      NOp   1
                         Standard orientation:                         
 ---------------------------------------------------------------------
 Center     Atomic      Atomic             Coordinates (Angstroms)
 Number     Number       Type             X           Y           Z
 ---------------------------------------------------------------------
      1          6           0       -0.065245   -0.989798    0.303051
      2          6           0        1.042490   -0.488977   -0.644424
      3          6           0       -1.268211   -0.061980    0.528527
      4          6           0        2.048233    0.518666   -0.058069
      5          1           0        0.615714   -0.111573   -1.578652
      6          1           0        0.367684   -1.278009    1.268357
      7          6           0       -2.023125    0.324909   -0.748703
      8          1           0       -0.993191    0.832811    1.089763
      9          6           0        1.477578    1.840549    0.443285
     10          1           0        2.782379    0.740037   -0.843685
     11          1           0       -2.385824   -0.560148   -1.280580
     12          1           0       -1.415327    0.933012   -1.421819
     13          1           0        2.295520    2.551430    0.608961
     14          1           0        0.977472    1.717912    1.408960
     15          8           0       -3.175197    1.087226   -0.364780
     16          1           0       -3.622657    1.344530   -1.191139
     17          8           0       -2.202746   -0.780228    1.369823
     18          1           0       -3.014733   -0.230724    1.348962
     19          8           0       -0.571725   -2.232511   -0.257702
     20          1           0       -1.317220   -2.469863    0.335389
     21          8           0        1.831755   -1.653860   -1.015102
     22          1           0        1.167211   -2.373602   -1.096402
     23          8           0        2.782009   -0.105126    1.005456
     24          1           0        3.049429   -0.973192    0.635909
     25          8           0        0.569837    2.399936   -0.494421
     26          1           0        0.351766    3.293658   -0.172208
 ---------------------------------------------------------------------
 Rotational constants (GHZ):           1.1260594           0.6750754           0.5122532
 Standard basis: def2TZVPP (5D, 7F)
 There are   642 symmetry adapted cartesian basis functions of A   symmetry.
 There are   568 symmetry adapted basis functions of A   symmetry.
   568 basis functions,   850 primitive gaussians,   642 cartesian basis functions
    49 alpha electrons       49 beta electrons
       nuclear repulsion energy       834.8390197697 Hartrees.
 NAtoms=   26 NActive=   26 NUniq=   26 SFac= 1.00D+00 NAtFMM=   60 NAOKFM=F Big=F
 Integral buffers will be    131072 words long.
 Raffenetti 2 integral format.
 Two-electron integral symmetry is turned on.
 Nuclear repulsion after empirical dispersion term =      834.8199552259 Hartrees.
 One-electron integrals computed using PRISM.
   1 Symmetry operations used in ECPInt.
 ECPInt:  NShTT=   23436 NPrTT=   62434 LenC2=   22114 LenP2D=   46003.
 LDataN:  DoStor=T MaxTD1= 6 Len=  172
 NBasis=   568 RedAO= T EigKep=  6.60D-05  NBF=   568
 NBsUse=   568 1.00D-06 EigRej= -1.00D+00 NBFU=   568
 ExpMin= 9.52D-02 ExpMax= 2.70D+04 ExpMxC= 9.22D+02 IAcc=3 IRadAn=         5 AccDes= 0.00D+00
 Harris functional with IExCor= 4639 and IRadAn=       5 diagonalized for initial guess.
 HarFok:  IExCor= 4639 AccDes= 0.00D+00 IRadAn=         5 IDoV= 1 UseB2=F ITyADJ=14
 ICtDFT=  3500011 ScaDFX=  1.000000  1.000000  1.000000  1.000000
 FoFCou: FMM=F IPFlag=           0 FMFlag=      100000 FMFlg1=           0
         NFxFlg=           0 DoJE=T BraDBF=F KetDBF=T FulRan=T
         wScrn=  0.000000 ICntrl=       500 IOpCl=  0 I1Cent=   200000004 NGrid=           0
         NMat0=    1 NMatS0=      1 NMatT0=    0 NMatD0=    1 NMtDS0=    0 NMtDT0=    0
 Petite list used in FoFCou.
 Requested convergence on RMS density matrix=1.00D-08 within 128 cycles.
 Requested convergence on MAX density matrix=1.00D-06.
 Requested convergence on             energy=1.00D-06.
 No special actions if energy rises.
 Integral accuracy reduced to 1.0D-05 until final iterations.
 Initial convergence to 1.0D-05 achieved.  Increase integral accuracy.
 SCF Done:  E(RwB97XD) =  -688.464448642     A.U. after   14 cycles
            NFock= 14  Conv=0.24D-08     -V/T= 2.0050

 **********************************************************************

            Population analysis using the SCF Density.

 **********************************************************************

 Orbital symmetries:
       Occupied  (A) (A) (A) (A) (A) (A) (A) (A) (A) (A) (A) (A)
                 (A) (A) (A) (A) (A) (A) (A) (A) (A) (A) (A) (A)
                 (A) (A) (A) (A) (A) (A) (A) (A) (A) (A) (A) (A)
                 (A) (A) (A) (A) (A) (A) (A) (A) (A) (A) (A) (A)
                 (A)
       Virtual   (A) (A) (A) (A) (A) (A) (A) (A) (A) (A) (A) (A)
                 (A) (A) (A) (A) (A) (A) (A) (A) (A) (A) (A) (A)
                 (A) (A) (A) (A) (A) (A) (A) (A) (A) (A) (A) (A)
                 (A) (A) (A) (A) (A) (A) (A) (A) (A) (A) (A) (A)
                 (A) (A) (A) (A) (A) (A) (A) (A) (A) (A) (A) (A)
                 (A) (A) (A) (A) (A) (A) (A) (A) (A) (A) (A) (A)
                 (A) (A) (A) (A) (A) (A) (A) (A) (A) (A) (A) (A)
                 (A) (A) (A) (A) (A) (A) (A) (A) (A) (A) (A) (A)
                 (A) (A) (A) (A) (A) (A) (A) (A) (A) (A) (A) (A)
                 (A) (A) (A) (A) (A) (A) (A) (A) (A) (A) (A) (A)
                 (A) (A) (A) (A) (A) (A) (A) (A) (A) (A) (A) (A)
                 (A) (A) (A) (A) (A) (A) (A) (A) (A) (A) (A) (A)
                 (A) (A) (A) (A) (A) (A) (A) (A) (A) (A) (A) (A)
                 (A) (A) (A) (A) (A) (A) (A) (A) (A) (A) (A) (A)
                 (A) (A) (A) (A) (A) (A) (A) (A) (A) (A) (A) (A)
                 (A) (A) (A) (A) (A) (A) (A) (A) (A) (A) (A) (A)
                 (A) (A) (A) (A) (A) (A) (A) (A) (A) (A) (A) (A)
                 (A) (A) (A) (A) (A) (A) (A) (A) (A) (A) (A) (A)
                 (A) (A) (A) (A) (A) (A) (A) (A) (A) (A) (A) (A)
                 (A) (A) (A) (A) (A) (A) (A) (A) (A) (A) (A) (A)
                 (A) (A) (A) (A) (A) (A) (A) (A) (A) (A) (A) (A)
                 (A) (A) (A) (A) (A) (A) (A) (A) (A) (A) (A) (A)
                 (A) (A) (A) (A) (A) (A) (A) (A) (A) (A) (A) (A)
                 (A) (A) (A) (A) (A) (A) (A) (A) (A) (A) (A) (A)
                 (A) (A) (A) (A) (A) (A) (A) (A) (A) (A) (A) (A)
                 (A) (A) (A) (A) (A) (A) (A) (A) (A) (A) (A) (A)
                 (A) (A) (A) (A) (A) (A) (A) (A) (A) (A) (A) (A)
                 (A) (A) (A) (A) (A) (A) (A) (A) (A) (A) (A) (A)
                 (A) (A) (A) (A) (A) (A) (A) (A) (A) (A) (A) (A)
                 (A) (A) (A) (A) (A) (A) (A) (A) (A) (A) (A) (A)
                 (A) (A) (A) (A) (A) (A) (A) (A) (A) (A) (A) (A)
                 (A) (A) (A) (A) (A) (A) (A) (A) (A) (A) (A) (A)
                 (A) (A) (A) (A) (A) (A) (A) (A) (A) (A) (A) (A)
                 (A) (A) (A) (A) (A) (A) (A) (A) (A) (A) (A) (A)
                 (A) (A) (A) (A) (A) (A) (A) (A) (A) (A) (A) (A)
                 (A) (A) (A) (A) (A) (A) (A) (A) (A) (A) (A) (A)
                 (A) (A) (A) (A) (A) (A) (A) (A) (A) (A) (A) (A)
                 (A) (A) (A) (A) (A) (A) (A) (A) (A) (A) (A) (A)
                 (A) (A) (A) (A) (A) (A) (A) (A) (A) (A) (A) (A)
                 (A) (A) (A) (A) (A) (A) (A) (A) (A) (A) (A) (A)
                 (A) (A) (A) (A) (A) (A) (A) (A) (A) (A) (A) (A)
                 (A) (A) (A) (A) (A) (A) (A) (A) (A) (A) (A) (A)
                 (A) (A) (A) (A) (A) (A) (A) (A) (A) (A) (A) (A)
                 (A) (A) (A)
 The electronic state is 1-A.
 Alpha  occ. eigenvalues --  -19.26774 -19.26545 -19.25869 -19.25641 -19.24882
 Alpha  occ. eigenvalues --  -19.24658 -10.34744 -10.34698 -10.34546 -10.34468
 Alpha  occ. eigenvalues --  -10.34135 -10.33534  -1.15170  -1.14242  -1.13735
 Alpha  occ. eigenvalues --   -1.12336  -1.11096  -1.09598  -0.88566  -0.84938
 Alpha  occ. eigenvalues --   -0.80148  -0.75760  -0.70445  -0.66358  -0.63626
 Alpha  occ. eigenvalues --   -0.62384  -0.62014  -0.60701  -0.58230  -0.56716
 Alpha  occ. eigenvalues --   -0.56622  -0.55310  -0.53934  -0.52071  -0.51006
 Alpha  occ. eigenvalues --   -0.49627  -0.48318  -0.46284  -0.45551  -0.44550
 Alpha  occ. eigenvalues --   -0.44019  -0.43038  -0.41553  -0.38506  -0.37736
 Alpha  occ. eigenvalues --   -0.37123  -0.36874  -0.36135  -0.35479
 Alpha virt. eigenvalues --    0.08763   0.09495   0.11416   0.12807   0.13563
 Alpha virt. eigenvalues --    0.15686   0.15772   0.16361   0.18306   0.18921
 Alpha virt. eigenvalues --    0.19200   0.20785   0.21231   0.22236   0.22293
 Alpha virt. eigenvalues --    0.22840   0.24220   0.24635   0.26639   0.26793
 Alpha virt. eigenvalues --    0.27626   0.29003   0.29527   0.32581   0.34049
 Alpha virt. eigenvalues --    0.35215   0.35537   0.37325   0.38073   0.38350
 Alpha virt. eigenvalues --    0.39046   0.39758   0.39848   0.41020   0.42221
 Alpha virt. eigenvalues --    0.42528   0.43009   0.44119   0.44274   0.44849
 Alpha virt. eigenvalues --    0.45891   0.46534   0.47124   0.47884   0.48654
 Alpha virt. eigenvalues --    0.49633   0.50432   0.51037   0.51830   0.51985
 Alpha virt. eigenvalues --    0.52400   0.52819   0.53375   0.53786   0.55059
 Alpha virt. eigenvalues --    0.56438   0.56670   0.57507   0.58618   0.59914
 Alpha virt. eigenvalues --    0.60298   0.60816   0.62942   0.64028   0.64366
 Alpha virt. eigenvalues --    0.64908   0.66559   0.67482   0.68037   0.68948
 Alpha virt. eigenvalues --    0.69656   0.71101   0.71765   0.73255   0.73799
 Alpha virt. eigenvalues --    0.74321   0.75353   0.75903   0.78021   0.78710
 Alpha virt. eigenvalues --    0.81745   0.82841   0.83166   0.84983   0.86523
 Alpha virt. eigenvalues --    0.87247   0.88764   0.89503   0.90684   0.91765
 Alpha virt. eigenvalues --    0.92434   0.93814   0.95085   0.95629   0.96608
 Alpha virt. eigenvalues --    0.97341   0.98826   0.99516   1.01121   1.02143
 Alpha virt. eigenvalues --    1.02654   1.03771   1.05123   1.06361   1.06803
 Alpha virt. eigenvalues --    1.08017   1.09356   1.10614   1.12579   1.13538
 Alpha virt. eigenvalues --    1.13612   1.14920   1.15436   1.16963   1.18226
 Alpha virt. eigenvalues --    1.19790   1.21700   1.22434   1.23729   1.24846
 Alpha virt. eigenvalues --    1.25304   1.26931   1.27866   1.28489   1.29428
 Alpha virt. eigenvalues --    1.29447   1.32375   1.33185   1.34093   1.35265
 Alpha virt. eigenvalues --    1.36342   1.37175   1.37949   1.39199   1.39983
 Alpha virt. eigenvalues --    1.41229   1.42192   1.44215   1.44665   1.46246
 Alpha virt. eigenvalues --    1.47700   1.48245   1.50511   1.51258   1.51919
 Alpha virt. eigenvalues --    1.52945   1.53168   1.55547   1.56397   1.58525
 Alpha virt. eigenvalues --    1.60311   1.60679   1.62404   1.63684   1.66840
 Alpha virt. eigenvalues --    1.67351   1.70397   1.70978   1.72202   1.72680
 Alpha virt. eigenvalues --    1.75464   1.77425   1.80655   1.83777   1.84782
 Alpha virt. eigenvalues --    1.87168   1.89241   1.90157   1.92767   1.93565
 Alpha virt. eigenvalues --    1.95089   1.96330   1.97318   1.97637   2.01046
 Alpha virt. eigenvalues --    2.01542   2.02760   2.03541   2.04647   2.05517
 Alpha virt. eigenvalues --    2.05713   2.07831   2.08716   2.09124   2.09720
 Alpha virt. eigenvalues --    2.11747   2.12860   2.13093   2.15494   2.16119
 Alpha virt. eigenvalues --    2.18264   2.19519   2.21469   2.22047   2.22819
 Alpha virt. eigenvalues --    2.25002   2.25921   2.29200   2.29479   2.32770
 Alpha virt. eigenvalues --    2.33861   2.35763   2.36737   2.40683   2.41987
 Alpha virt. eigenvalues --    2.42635   2.46736   2.47692   2.48492   2.49360
 Alpha virt. eigenvalues --    2.53298   2.56309   2.58545   2.60911   2.62169
 Alpha virt. eigenvalues --    2.66699   2.67700   2.69976   2.70472   2.72774
 Alpha virt. eigenvalues --    2.74117   2.75054   2.75401   2.77179   2.77630
 Alpha virt. eigenvalues --    2.78456   2.79229   2.80832   2.82074   2.83617
 Alpha virt. eigenvalues --    2.84890   2.86937   2.89232   2.90105   2.90978
 Alpha virt. eigenvalues --    2.91924   2.93318   2.93759   2.95002   2.97091
 Alpha virt. eigenvalues --    2.99866   3.00467   3.01262   3.03286   3.03945
 Alpha virt. eigenvalues --    3.05919   3.06950   3.08250   3.09472   3.09838
 Alpha virt. eigenvalues --    3.10246   3.12248   3.14321   3.15336   3.15643
 Alpha virt. eigenvalues --    3.17215   3.19189   3.19860   3.20806   3.22658
 Alpha virt. eigenvalues --    3.23901   3.24640   3.25180   3.26009   3.27189
 Alpha virt. eigenvalues --    3.28367   3.29193   3.30806   3.31690   3.31974
 Alpha virt. eigenvalues --    3.33433   3.34885   3.36282   3.37285   3.38850
 Alpha virt. eigenvalues --    3.40694   3.41443   3.41597   3.41851   3.43283
 Alpha virt. eigenvalues --    3.43868   3.44806   3.45310   3.47203   3.47583
 Alpha virt. eigenvalues --    3.49021   3.49619   3.50864   3.52278   3.53122
 Alpha virt. eigenvalues --    3.53713   3.54204   3.55184   3.56872   3.58231
 Alpha virt. eigenvalues --    3.61199   3.62542   3.63696   3.64434   3.65592
 Alpha virt. eigenvalues --    3.67915   3.68573   3.69804   3.71501   3.72755
 Alpha virt. eigenvalues --    3.73802   3.75031   3.75290   3.77562   3.78130
 Alpha virt. eigenvalues --    3.79591   3.80556   3.82063   3.82307   3.83755
 Alpha virt. eigenvalues --    3.86155   3.86424   3.88207   3.89121   3.90717
 Alpha virt. eigenvalues --    3.92248   3.93650   3.93856   3.94748   3.95708
 Alpha virt. eigenvalues --    3.96325   3.97430   3.99108   4.00754   4.01862
 Alpha virt. eigenvalues --    4.02904   4.04064   4.04911   4.05256   4.06432
 Alpha virt. eigenvalues --    4.08163   4.08778   4.09333   4.10217   4.11145
 Alpha virt. eigenvalues --    4.12041   4.12955   4.14141   4.15513   4.15994
 Alpha virt. eigenvalues --    4.17242   4.18308   4.20199   4.21006   4.22163
 Alpha virt. eigenvalues --    4.24213   4.24534   4.24852   4.26708   4.28189
 Alpha virt. eigenvalues --    4.29834   4.31030   4.32219   4.32964   4.35463
 Alpha virt. eigenvalues --    4.36648   4.37407   4.38718   4.39241   4.40305
 Alpha virt. eigenvalues --    4.43530   4.44288   4.45103   4.47524   4.48028
 Alpha virt. eigenvalues --    4.49682   4.51074   4.53276   4.55321   4.55545
 Alpha virt. eigenvalues --    4.57456   4.58612   4.60097   4.60448   4.62949
 Alpha virt. eigenvalues --    4.63384   4.67421   4.69100   4.70558   4.73466
 Alpha virt. eigenvalues --    4.73895   4.75679   4.77983   4.79754   4.82180
 Alpha virt. eigenvalues --    4.82477   4.82823   4.84327   4.86519   4.88817
 Alpha virt. eigenvalues --    4.90423   4.92021   4.93302   4.95294   4.95679
 Alpha virt. eigenvalues --    4.97023   5.00438   5.02067   5.02395   5.02652
 Alpha virt. eigenvalues --    5.03869   5.05794   5.06922   5.08278   5.11651
 Alpha virt. eigenvalues --    5.12418   5.13998   5.15222   5.17305   5.20445
 Alpha virt. eigenvalues --    5.22210   5.22944   5.25225   5.27271   5.28028
 Alpha virt. eigenvalues --    5.31626   5.34809   5.42048   5.42618   5.45954
 Alpha virt. eigenvalues --    5.47649   5.50148   5.54426   5.56481   5.58737
 Alpha virt. eigenvalues --    5.60217   5.62014   5.63312   5.64021   5.66010
 Alpha virt. eigenvalues --    5.68976   5.69543   5.71294   5.72107   5.74043
 Alpha virt. eigenvalues --    5.78364   5.80692   5.84040   5.85351   5.86872
 Alpha virt. eigenvalues --    5.87900   5.89390   5.91223   5.93367   5.97300
 Alpha virt. eigenvalues --    5.98783   6.03300   6.05415   6.10051   6.13241
 Alpha virt. eigenvalues --    6.15269   6.16802   6.17695   6.23195   6.52086
 Alpha virt. eigenvalues --    6.53811   6.54639   6.55729   6.56278   6.57538
 Alpha virt. eigenvalues --    6.71652   6.72343   6.74311   6.74723   6.75004
 Alpha virt. eigenvalues --    6.76037   6.76907   6.78168   6.78842   6.80286
 Alpha virt. eigenvalues --    6.80576   6.81534   6.82510   6.85084   6.86960
 Alpha virt. eigenvalues --    6.88267   6.92396   6.93635   6.96416   6.99481
 Alpha virt. eigenvalues --    7.01218   7.03701   7.05255   7.07973   7.14892
 Alpha virt. eigenvalues --    7.16791   7.19770   7.21717   7.22631   7.25080
 Alpha virt. eigenvalues --    7.40641   7.41830   7.42923   7.43947   7.46467
 Alpha virt. eigenvalues --    7.48331   7.49754   7.53510   7.54108   7.57018
 Alpha virt. eigenvalues --    7.57391   7.67443  23.13293  23.15645  23.19068
 Alpha virt. eigenvalues --   23.25296  23.42902  23.46219  44.10532  44.16171
 Alpha virt. eigenvalues --   44.23702  44.29839  44.32190  44.35650
          Condensed to atoms (all electrons):
               1          2          3          4          5          6
     1  C    5.104064   0.179645   0.181974  -0.028408  -0.015553   0.404362
     2  C    0.179645   5.007990  -0.027156   0.245311   0.421989  -0.039170
     3  C    0.181974  -0.027156   5.018813   0.028842  -0.009529  -0.020455
     4  C   -0.028408   0.245311   0.028842   4.938878  -0.038898  -0.001797
     5  H   -0.015553   0.421989  -0.009529  -0.038898   0.559602   0.005813
     6  H    0.404362  -0.039170  -0.020455  -0.001797   0.005813   0.550173
     7  C    0.002164   0.018649   0.257394  -0.007689   0.004473   0.006434
     8  H   -0.013480  -0.001691   0.388411  -0.006812   0.000924  -0.004006
     9  C    0.035344  -0.004767  -0.025411   0.218786  -0.001411  -0.007997
    10  H    0.008202  -0.049599   0.001500   0.428599  -0.001714   0.001651
    11  H    0.012492  -0.005970  -0.045187  -0.000102   0.001257   0.000494
    12  H   -0.013579   0.004864  -0.025808   0.000008  -0.003079  -0.000569
    13  H   -0.000989   0.009439  -0.001013  -0.014283  -0.000348  -0.000248
    14  H    0.001239  -0.021635   0.014884  -0.046927   0.001394   0.003285
    15  O    0.005122  -0.000644  -0.072271  -0.000022   0.000056  -0.000035
    16  H   -0.001624   0.000173   0.010891   0.000012   0.000004   0.000032
    17  O   -0.061862   0.006068   0.249394  -0.000643  -0.000063   0.003628
    18  H    0.005097  -0.001163  -0.039365   0.000135  -0.000000  -0.000348
    19  O    0.211661  -0.024298  -0.029669   0.003469   0.001128  -0.033272
    20  H   -0.050022   0.010651   0.002047  -0.000864  -0.000140  -0.004897
    21  O   -0.009238   0.243393   0.007947  -0.066274  -0.031000   0.003318
    22  H   -0.015135  -0.036797   0.003074   0.009273  -0.000485  -0.000327
    23  O   -0.016533  -0.042216   0.001555   0.298229   0.004006   0.026091
    24  H    0.002992  -0.004841  -0.000341  -0.053853   0.001395  -0.000593
    25  O   -0.003545   0.014798  -0.025561  -0.056418   0.002134   0.000367
    26  H    0.001362  -0.002038  -0.001918   0.010459  -0.000077  -0.000033
               7          8          9         10         11         12
     1  C    0.002164  -0.013480   0.035344   0.008202   0.012492  -0.013579
     2  C    0.018649  -0.001691  -0.004767  -0.049599  -0.005970   0.004864
     3  C    0.257394   0.388411  -0.025411   0.001500  -0.045187  -0.025808
     4  C   -0.007689  -0.006812   0.218786   0.428599  -0.000102   0.000008
     5  H    0.004473   0.000924  -0.001411  -0.001714   0.001257  -0.003079
     6  H    0.006434  -0.004006  -0.007997   0.001651   0.000494  -0.000569
     7  C    4.790277  -0.026137  -0.000201  -0.000393   0.415398   0.425322
     8  H   -0.026137   0.606637   0.008101  -0.000726   0.010183  -0.006524
     9  C   -0.000201   0.008101   4.839455  -0.036036   0.000582  -0.003283
    10  H   -0.000393  -0.000726  -0.036036   0.608796  -0.000053   0.000162
    11  H    0.415398   0.010183   0.000582  -0.000053   0.581546  -0.036844
    12  H    0.425322  -0.006524  -0.003283   0.000162  -0.036844   0.603715
    13  H    0.000214   0.001836   0.418962  -0.015774   0.000019  -0.000041
    14  H   -0.003122  -0.019295   0.415769   0.010963  -0.000177   0.001048
    15  O    0.269242   0.006347   0.000644  -0.000001  -0.050016  -0.041461
    16  H   -0.031212  -0.000051  -0.000015   0.000000  -0.004701  -0.005670
    17  O   -0.030205  -0.038740  -0.000283   0.000009  -0.001365   0.005926
    18  H   -0.007197  -0.003514  -0.000198  -0.000000  -0.002497   0.001856
    19  O   -0.020524   0.004037  -0.000128  -0.000148   0.018941   0.001436
    20  H   -0.001934   0.001332   0.000096   0.000031  -0.000190   0.000283
    21  O   -0.000914  -0.000069   0.004220   0.000620   0.000022   0.000066
    22  H   -0.000239  -0.000063  -0.001030  -0.000349   0.000092  -0.000011
    23  O    0.000053   0.000229  -0.047434  -0.041417  -0.000003   0.000017
    24  H    0.000055   0.000029   0.011434  -0.006927  -0.000001  -0.000000
    25  O    0.006979   0.016001   0.261720   0.006993   0.000820   0.004239
    26  H    0.000945   0.001292  -0.022773  -0.000369   0.000008  -0.001219
              13         14         15         16         17         18
     1  C   -0.000989   0.001239   0.005122  -0.001624  -0.061862   0.005097
     2  C    0.009439  -0.021635  -0.000644   0.000173   0.006068  -0.001163
     3  C   -0.001013   0.014884  -0.072271   0.010891   0.249394  -0.039365
     4  C   -0.014283  -0.046927  -0.000022   0.000012  -0.000643   0.000135
     5  H   -0.000348   0.001394   0.000056   0.000004  -0.000063  -0.000000
     6  H   -0.000248   0.003285  -0.000035   0.000032   0.003628  -0.000348
     7  C    0.000214  -0.003122   0.269242  -0.031212  -0.030205  -0.007197
     8  H    0.001836  -0.019295   0.006347  -0.000051  -0.038740  -0.003514
     9  C    0.418962   0.415769   0.000644  -0.000015  -0.000283  -0.000198
    10  H   -0.015774   0.010963  -0.000001   0.000000   0.000009  -0.000000
    11  H    0.000019  -0.000177  -0.050016  -0.004701  -0.001365  -0.002497
    12  H   -0.000041   0.001048  -0.041461  -0.005670   0.005926   0.001856
    13  H    0.571930  -0.038800   0.000004  -0.000000  -0.000008  -0.000002
    14  H   -0.038800   0.654091  -0.000133   0.000004   0.000172   0.000009
    15  O    0.000004  -0.000133   7.903002   0.327491  -0.009419   0.025322
    16  H   -0.000000   0.000004   0.327491   0.523500   0.000048  -0.001462
    17  O   -0.000008   0.000172  -0.009419   0.000048   7.929181   0.330842
    18  H   -0.000002   0.000009   0.025322  -0.001462   0.330842   0.486344
    19  O    0.000009  -0.000027   0.000204   0.000084  -0.013161   0.000069
    20  H   -0.000001   0.000020  -0.000037  -0.000007   0.028980  -0.001248
    21  O   -0.000125   0.000075   0.000000  -0.000001  -0.000102   0.000018
    22  H    0.000022   0.000006  -0.000000  -0.000001  -0.000035   0.000008
    23  O    0.002598   0.009048   0.000000  -0.000000   0.000028   0.000003
    24  H   -0.000342  -0.000390   0.000000   0.000000   0.000001  -0.000000
    25  O   -0.033176  -0.060180  -0.000326  -0.000008   0.000109  -0.000023
    26  H   -0.007860  -0.007308   0.000248  -0.000009  -0.000002   0.000002
              19         20         21         22         23         24
     1  C    0.211661  -0.050022  -0.009238  -0.015135  -0.016533   0.002992
     2  C   -0.024298   0.010651   0.243393  -0.036797  -0.042216  -0.004841
     3  C   -0.029669   0.002047   0.007947   0.003074   0.001555  -0.000341
     4  C    0.003469  -0.000864  -0.066274   0.009273   0.298229  -0.053853
     5  H    0.001128  -0.000140  -0.031000  -0.000485   0.004006   0.001395
     6  H   -0.033272  -0.004897   0.003318  -0.000327   0.026091  -0.000593
     7  C   -0.020524  -0.001934  -0.000914  -0.000239   0.000053   0.000055
     8  H    0.004037   0.001332  -0.000069  -0.000063   0.000229   0.000029
     9  C   -0.000128   0.000096   0.004220  -0.001030  -0.047434   0.011434
    10  H   -0.000148   0.000031   0.000620  -0.000349  -0.041417  -0.006927
    11  H    0.018941  -0.000190   0.000022   0.000092  -0.000003  -0.000001
    12  H    0.001436   0.000283   0.000066  -0.000011   0.000017  -0.000000
    13  H    0.000009  -0.000001  -0.000125   0.000022   0.002598  -0.000342
    14  H   -0.000027   0.000020   0.000075   0.000006   0.009048  -0.000390
    15  O    0.000204  -0.000037   0.000000  -0.000000   0.000000   0.000000
    16  H    0.000084  -0.000007  -0.000001  -0.000001  -0.000000   0.000000
    17  O   -0.013161   0.028980  -0.000102  -0.000035   0.000028   0.000001
    18  H    0.000069  -0.001248   0.000018   0.000008   0.000003  -0.000000
    19  O    7.953086   0.324736  -0.024536   0.031249   0.000017  -0.000089
    20  H    0.324736   0.486361   0.000262  -0.001977   0.000086  -0.000006
    21  O   -0.024536   0.000262   7.930237   0.334360  -0.014224   0.030757
    22  H    0.031249  -0.001977   0.334360   0.459630   0.000017  -0.001344
    23  O    0.000017   0.000086  -0.014224   0.000017   7.874165   0.328213
    24  H   -0.000089  -0.000006   0.030757  -0.001344   0.328213   0.488102
    25  O    0.000014  -0.000011   0.000035   0.000029   0.001724  -0.000284
    26  H   -0.000001  -0.000000  -0.000001  -0.000003  -0.000211   0.000033
              25         26
     1  C   -0.003545   0.001362
     2  C    0.014798  -0.002038
     3  C   -0.025561  -0.001918
     4  C   -0.056418   0.010459
     5  H    0.002134  -0.000077
     6  H    0.000367  -0.000033
     7  C    0.006979   0.000945
     8  H    0.016001   0.001292
     9  C    0.261720  -0.022773
    10  H    0.006993  -0.000369
    11  H    0.000820   0.000008
    12  H    0.004239  -0.001219
    13  H   -0.033176  -0.007860
    14  H   -0.060180  -0.007308
    15  O   -0.000326   0.000248
    16  H   -0.000008  -0.000009
    17  O    0.000109  -0.000002
    18  H   -0.000023   0.000002
    19  O    0.000014  -0.000001
    20  H   -0.000011  -0.000000
    21  O    0.000035  -0.000001
    22  H    0.000029  -0.000003
    23  O    0.001724  -0.000211
    24  H   -0.000284   0.000033
    25  O    7.890523   0.314933
    26  H    0.314933   0.531529
 Mulliken charges:
               1
     1  C    0.074247
     2  C    0.099014
     3  C    0.156958
     4  C    0.140991
     5  H    0.098123
     6  H    0.108101
     7  C   -0.067833
     8  H    0.075749
     9  C   -0.064148
    10  H    0.085981
    11  H    0.105252
    12  H    0.089146
    13  H    0.107977
    14  H    0.085988
    15  O   -0.363316
    16  H    0.182519
    17  O   -0.398498
    18  H    0.207314
    19  O   -0.404287
    20  H    0.206449
    21  O   -0.408849
    22  H    0.220036
    23  O   -0.384041
    24  H    0.206001
    25  O   -0.341886
    26  H    0.183011
 Sum of Mulliken charges =  -0.00000
 Mulliken charges with hydrogens summed into heavy atoms:
               1
     1  C    0.182348
     2  C    0.197138
     3  C    0.232706
     4  C    0.226972
     7  C    0.126566
     9  C    0.129817
    15  O   -0.180797
    17  O   -0.191184
    19  O   -0.197838
    21  O   -0.188813
    23  O   -0.178040
    25  O   -0.158875
 Electronic spatial extent (au):  <R**2>=           2309.0720
 Charge=             -0.0000 electrons
 Dipole moment (field-independent basis, Debye):
    X=             -2.1568    Y=              2.5156    Z=             -1.0857  Tot=              3.4869
 Quadrupole moment (field-independent basis, Debye-Ang):
   XX=            -72.1618   YY=            -64.6651   ZZ=            -74.4312
   XY=              0.3399   XZ=              4.1139   YZ=             -0.4575
 Traceless Quadrupole moment (field-independent basis, Debye-Ang):
   XX=             -1.7424   YY=              5.7542   ZZ=             -4.0118
   XY=              0.3399   XZ=              4.1139   YZ=             -0.4575
 Octapole moment (field-independent basis, Debye-Ang**2):
  XXX=            -39.9039  YYY=             24.3593  ZZZ=             -8.5783  XYY=              1.9894
  XXY=              4.8502  XXZ=            -22.0832  XZZ=            -19.2141  YZZ=              4.2495
  YYZ=              7.8893  XYZ=              2.8604
 Hexadecapole moment (field-independent basis, Debye-Ang**3):
 XXXX=          -1480.1055 YYYY=           -700.0126 ZZZZ=           -340.6631 XXXY=            -40.0131
 XXXZ=             31.7882 YYYX=              8.0475 YYYZ=              4.4857 ZZZX=             11.7540
 ZZZY=             -1.9874 XXYY=           -381.7092 XXZZ=           -303.6693 YYZZ=           -198.2425
 XXYZ=            -41.0960 YYXZ=             21.9202 ZZXY=            -23.2364
 N-N= 8.348199552259D+02 E-N=-3.287099478626D+03  KE= 6.850084622512D+02
   1 Symmetry operations used in ECPInt.
 ECPInt:  NShTT=   23436 NPrTT=   62434 LenC2=   22114 LenP2D=   46003.
 LDataN:  DoStor=T MaxTD1= 7 Len=  274
 Calling FoFJK, ICntrl=      2127 FMM=F ISym2X=0 I1Cent= 0 IOpClX= 0 NMat=1 NMatS=1 NMatT=0.
 ***** Axes restored to original set *****
 -------------------------------------------------------------------
 Center     Atomic                   Forces (Hartrees/Bohr)
 Number     Number              X              Y              Z
 -------------------------------------------------------------------
      1        6          -0.011620630    0.005390659   -0.010740245
      2        6           0.000913889   -0.002441958   -0.020150427
      3        6          -0.014146586    0.008436296   -0.001111779
      4        6           0.001062218   -0.010990314   -0.009332542
      5        1          -0.002658860   -0.000367481    0.006786256
      6        1           0.004634841    0.001658452    0.008756613
      7        6           0.000924291    0.005523125    0.003427217
      8        1           0.008199353    0.001081837   -0.000949912
      9        6          -0.001905845   -0.003120757    0.008446373
     10        1          -0.002197193    0.007624791   -0.000737277
     11        1           0.003138718   -0.007704756   -0.002370342
     12        1           0.000864198   -0.005796184   -0.001386005
     13        1          -0.000114331   -0.003365342   -0.004940951
     14        1          -0.001503938   -0.003055872   -0.005161846
     15        8           0.007116131    0.011034712   -0.000897419
     16        1          -0.008217496   -0.017540897    0.002975881
     17        8           0.005951823    0.011021284    0.009739870
     18        1           0.005100144   -0.013930564   -0.013069147
     19        8          -0.012198884    0.000317256    0.015436089
     20        1           0.019661506    0.000436901   -0.004076589
     21        8          -0.016084294    0.010398729    0.006555648
     22        1           0.013615565   -0.009307359    0.011036254
     23        8           0.001332581    0.011357152   -0.009227508
     24        1          -0.003680959    0.002461281    0.017711713
     25        8           0.000469540    0.001272216    0.012808389
     26        1           0.001344220   -0.000393208   -0.019528311
 -------------------------------------------------------------------
 Cartesian Forces:  Max     0.020150427 RMS     0.008523164

 GradGradGradGradGradGradGradGradGradGradGradGradGradGradGradGradGradGrad
 Berny optimization.
 FormGI is forming the generalized inverse of G from B-inverse, IUseBI=4.
 Internal  Forces:  Max     0.019856688 RMS     0.006329566
 Search for a local minimum.
 Step number   1 out of a maximum of  140
 All quantities printed in internal units (Hartrees-Bohrs-Radians)
 Mixed Optimization -- RFO/linear search
 Second derivative matrix not updated -- first step.
 ITU=  0
     Eigenvalues ---    0.00230   0.00241   0.00292   0.00326   0.00441
     Eigenvalues ---    0.00963   0.00972   0.01055   0.01232   0.01245
     Eigenvalues ---    0.01428   0.03526   0.03539   0.03723   0.03776
     Eigenvalues ---    0.04672   0.04693   0.04881   0.04906   0.04955
     Eigenvalues ---    0.05268   0.05508   0.05824   0.07898   0.07912
     Eigenvalues ---    0.08151   0.08175   0.11373   0.11599   0.13605
     Eigenvalues ---    0.13922   0.16000   0.16000   0.16000   0.16000
     Eigenvalues ---    0.16000   0.16000   0.16821   0.17105   0.17470
     Eigenvalues ---    0.17818   0.19075   0.19208   0.19403   0.20017
     Eigenvalues ---    0.21967   0.22009   0.28404   0.28546   0.28890
     Eigenvalues ---    0.29124   0.29929   0.33926   0.34072   0.34097
     Eigenvalues ---    0.34306   0.34311   0.34328   0.34591   0.34645
     Eigenvalues ---    0.37586   0.37673   0.38494   0.40308   0.40448
     Eigenvalues ---    0.42471   0.50810   0.51044   0.51255   0.51264
     Eigenvalues ---    0.52420   0.52504
 RFO step:  Lambda=-2.00856258D-02 EMin= 2.30000000D-03
 Linear search not attempted -- first point.
 Iteration  1 RMS(Cart)=  0.08801617 RMS(Int)=  0.00175838
 Iteration  2 RMS(Cart)=  0.00247522 RMS(Int)=  0.00057975
 Iteration  3 RMS(Cart)=  0.00000255 RMS(Int)=  0.00057975
 Iteration  4 RMS(Cart)=  0.00000000 RMS(Int)=  0.00057975
 Variable       Old X    -DE/DX   Delta X   Delta X   Delta X     New X
                                 (Linear)    (Quad)   (Total)
    R1        2.91263  -0.00941   0.00000  -0.03096  -0.03096   2.88168
    R2        2.90232  -0.01116   0.00000  -0.03612  -0.03612   2.86620
    R3        2.07208  -0.00239   0.00000  -0.00663  -0.00663   2.06545
    R4        2.74843  -0.01229   0.00000  -0.03098  -0.03098   2.71745
    R5        2.90961  -0.01033   0.00000  -0.03380  -0.03380   2.87581
    R6        2.06781  -0.00129   0.00000  -0.00356  -0.00356   2.06425
    R7        2.74973  -0.01647   0.00000  -0.04160  -0.04160   2.70813
    R8        2.89745  -0.01322   0.00000  -0.04247  -0.04247   2.85498
    R9        2.06255  -0.00016   0.00000  -0.00045  -0.00045   2.06210
   R10        2.73653  -0.01007   0.00000  -0.02486  -0.02486   2.71167
   R11        2.88106  -0.00978   0.00000  -0.03061  -0.03061   2.85045
   R12        2.07454  -0.00150   0.00000  -0.00418  -0.00418   2.07037
   R13        2.71136  -0.01393   0.00000  -0.03292  -0.03292   2.67845
   R14        2.06817  -0.00126   0.00000  -0.00346  -0.00346   2.06470
   R15        2.06343  -0.00046   0.00000  -0.00127  -0.00127   2.06216
   R16        2.70950  -0.00131   0.00000  -0.00308  -0.00308   2.70641
   R17        2.07167  -0.00150   0.00000  -0.00414  -0.00414   2.06753
   R18        2.06808   0.00085   0.00000   0.00235   0.00235   2.07043
   R19        2.68328   0.00007   0.00000   0.00015   0.00015   2.68343
   R20        1.84119  -0.01929   0.00000  -0.03538  -0.03538   1.80581
   R21        1.85320  -0.01947   0.00000  -0.03655  -0.03655   1.81665
   R22        1.85526  -0.01986   0.00000  -0.03743  -0.03743   1.81783
   R23        1.85757  -0.01959   0.00000  -0.03710  -0.03710   1.82047
   R24        1.85311  -0.01822   0.00000  -0.03421  -0.03421   1.81890
   R25        1.84199  -0.01940   0.00000  -0.03564  -0.03564   1.80635
    A1        2.04528   0.00079   0.00000  -0.01049  -0.01079   2.03449
    A2        1.92071  -0.00037   0.00000  -0.01463  -0.01496   1.90576
    A3        1.86597  -0.00488   0.00000  -0.02535  -0.02516   1.84081
    A4        1.91644  -0.00269   0.00000  -0.02240  -0.02329   1.89314
    A5        1.87551   0.00282   0.00000   0.01522   0.01497   1.89048
    A6        1.82588   0.00495   0.00000   0.06880   0.06897   1.89485
    A7        2.03533  -0.00176   0.00000  -0.02080  -0.02086   2.01448
    A8        1.93542  -0.00153   0.00000  -0.00799  -0.00914   1.92628
    A9        1.86116   0.00628   0.00000   0.03324   0.03252   1.89369
   A10        1.93284   0.00094   0.00000  -0.00969  -0.00970   1.92314
   A11        1.84068  -0.00669   0.00000  -0.03899  -0.03858   1.80210
   A12        1.84437   0.00331   0.00000   0.05318   0.05288   1.89725
   A13        1.99960   0.00104   0.00000  -0.00537  -0.00534   1.99426
   A14        1.95345   0.00042   0.00000  -0.01415  -0.01426   1.93920
   A15        1.86621  -0.00802   0.00000  -0.04152  -0.04123   1.82498
   A16        1.92361  -0.00348   0.00000  -0.02308  -0.02407   1.89954
   A17        1.86645   0.00652   0.00000   0.03895   0.03873   1.90517
   A18        1.84471   0.00399   0.00000   0.05286   0.05277   1.89747
   A19        2.03551   0.00019   0.00000  -0.01413  -0.01446   2.02105
   A20        1.87158  -0.00334   0.00000  -0.01801  -0.01836   1.85322
   A21        1.90903   0.00458   0.00000   0.01451   0.01356   1.92259
   A22        1.88683   0.00211   0.00000   0.01156   0.01183   1.89866
   A23        1.90141  -0.00737   0.00000  -0.04531  -0.04526   1.85615
   A24        1.85055   0.00439   0.00000   0.06015   0.06040   1.91095
   A25        1.94330  -0.00373   0.00000  -0.03586  -0.03554   1.90776
   A26        1.96057  -0.00180   0.00000  -0.02822  -0.02820   1.93236
   A27        1.88254  -0.01227   0.00000  -0.04930  -0.04917   1.83337
   A28        1.91267   0.00119   0.00000   0.00942   0.00700   1.91967
   A29        1.86900   0.00978   0.00000   0.06621   0.06503   1.93403
   A30        1.89255   0.00754   0.00000   0.04390   0.04251   1.93505
   A31        1.90992  -0.00152   0.00000  -0.01972  -0.01933   1.89058
   A32        1.94341  -0.00261   0.00000  -0.03064  -0.03053   1.91288
   A33        1.94303  -0.01220   0.00000  -0.05347  -0.05364   1.88939
   A34        1.85487   0.00164   0.00000   0.02086   0.01949   1.87436
   A35        1.89792   0.00764   0.00000   0.04643   0.04542   1.94334
   A36        1.91212   0.00797   0.00000   0.04183   0.04027   1.95239
   A37        1.85701   0.00616   0.00000   0.03418   0.03418   1.89119
   A38        1.81735   0.00573   0.00000   0.03184   0.03184   1.84919
   A39        1.81119   0.00544   0.00000   0.03022   0.03022   1.84141
   A40        1.81372   0.00517   0.00000   0.02874   0.02874   1.84245
   A41        1.81831   0.00102   0.00000   0.00567   0.00567   1.82397
   A42        1.86078   0.00486   0.00000   0.02701   0.02701   1.88778
    D1        1.38831  -0.00039   0.00000  -0.02678  -0.02660   1.36172
    D2       -0.84527   0.00124   0.00000   0.01267   0.01250  -0.83276
    D3       -2.84496  -0.00540   0.00000  -0.06471  -0.06489  -2.90985
    D4       -0.81712   0.00305   0.00000   0.02653   0.02675  -0.79036
    D5       -3.05070   0.00468   0.00000   0.06597   0.06585  -2.98484
    D6        1.23279  -0.00196   0.00000  -0.01140  -0.01154   1.22126
    D7       -2.79040   0.00000   0.00000  -0.03353  -0.03323  -2.82363
    D8        1.25920   0.00163   0.00000   0.00591   0.00587   1.26507
    D9       -0.74049  -0.00501   0.00000  -0.07146  -0.07152  -0.81201
   D10        1.01014  -0.00290   0.00000  -0.02169  -0.02195   0.98819
   D11       -1.19614   0.00067   0.00000   0.02694   0.02686  -1.16929
   D12        3.07477   0.00039   0.00000  -0.00458  -0.00480   3.06996
   D13       -3.06551  -0.00519   0.00000  -0.07107  -0.07090  -3.13641
   D14        1.01139  -0.00162   0.00000  -0.02244  -0.02209   0.98929
   D15       -1.00089  -0.00191   0.00000  -0.05397  -0.05375  -1.05464
   D16       -1.08930   0.00076   0.00000   0.00653   0.00640  -1.08290
   D17        2.98759   0.00433   0.00000   0.05516   0.05521   3.04280
   D18        0.97532   0.00405   0.00000   0.02364   0.02355   0.99887
   D19       -3.06337   0.00047   0.00000   0.02256   0.02238  -3.04099
   D20       -0.85379   0.00013   0.00000   0.00349   0.00288  -0.85090
   D21        1.18271   0.00072   0.00000   0.01801   0.01880   1.20151
   D22       -1.06073   0.00360   0.00000   0.02482   0.02520  -1.03552
   D23        3.10537   0.00331   0.00000   0.03317   0.03319   3.13856
   D24        1.10601  -0.00237   0.00000  -0.03514  -0.03499   1.07101
   D25        1.17411   0.00077   0.00000  -0.01372  -0.01354   1.16057
   D26       -0.94298   0.00048   0.00000  -0.00538  -0.00556  -0.94854
   D27       -2.94234  -0.00520   0.00000  -0.07368  -0.07374  -3.01608
   D28       -3.12183   0.00150   0.00000   0.02292   0.02295  -3.09887
   D29        1.04427   0.00121   0.00000   0.03127   0.03094   1.07521
   D30       -0.95509  -0.00448   0.00000  -0.03704  -0.03724  -0.99233
   D31        0.64741   0.00085   0.00000  -0.00973  -0.00878   0.63863
   D32        2.82205  -0.00152   0.00000  -0.03777  -0.03760   2.78445
   D33       -1.41313  -0.00200   0.00000  -0.04239  -0.04351  -1.45664
   D34        1.00847  -0.00304   0.00000  -0.02901  -0.02920   0.97927
   D35       -1.14426  -0.00049   0.00000   0.00634   0.00619  -1.13807
   D36        3.05425  -0.00071   0.00000   0.00124   0.00102   3.05528
   D37       -3.05309  -0.00459   0.00000  -0.07242  -0.07216  -3.12525
   D38        1.07737  -0.00204   0.00000  -0.03707  -0.03677   1.04060
   D39       -1.00730  -0.00227   0.00000  -0.04218  -0.04194  -1.04924
   D40       -1.05602   0.00190   0.00000  -0.00060  -0.00068  -1.05671
   D41        3.07444   0.00446   0.00000   0.03476   0.03470   3.10914
   D42        0.98976   0.00423   0.00000   0.02965   0.02954   1.01930
   D43       -2.96218   0.00029   0.00000   0.02873   0.02853  -2.93365
   D44       -0.81260   0.00068   0.00000   0.02091   0.01985  -0.79275
   D45        1.23707   0.00174   0.00000   0.03876   0.04001   1.27708
   D46       -2.90830   0.00011   0.00000  -0.02240  -0.02222  -2.93051
   D47        1.32951   0.00060   0.00000  -0.01749  -0.01683   1.31267
   D48       -0.80986   0.00089   0.00000  -0.01142  -0.01123  -0.82109
   D49       -0.79927  -0.00249   0.00000  -0.04658  -0.04680  -0.84607
   D50       -2.84466  -0.00200   0.00000  -0.04168  -0.04141  -2.88607
   D51        1.29916  -0.00171   0.00000  -0.03561  -0.03581   1.26335
   D52        1.20427  -0.00002   0.00000   0.00686   0.00640   1.21067
   D53       -0.84111   0.00047   0.00000   0.01176   0.01178  -0.82933
   D54       -2.98048   0.00076   0.00000   0.01783   0.01738  -2.96309
   D55        0.81694   0.00019   0.00000   0.00031   0.00077   0.81771
   D56        3.06032  -0.00160   0.00000  -0.04012  -0.03977   3.02055
   D57       -1.19593  -0.00044   0.00000  -0.01731  -0.01812  -1.21405
   D58        3.11179   0.00075   0.00000   0.01465   0.01486   3.12665
   D59       -1.07806  -0.00492   0.00000  -0.01801  -0.02018  -1.09824
   D60        0.98448   0.00577   0.00000   0.05218   0.05413   1.03861
   D61       -2.99790  -0.00064   0.00000  -0.00960  -0.00961  -3.00751
   D62       -0.89239  -0.00515   0.00000  -0.03714  -0.03876  -0.93116
   D63        1.12801   0.00544   0.00000   0.03663   0.03826   1.16626
         Item               Value     Threshold  Converged?
 Maximum Force            0.019857     0.000450     NO 
 RMS     Force            0.006330     0.000300     NO 
 Maximum Displacement     0.322200     0.001800     NO 
 RMS     Displacement     0.087762     0.001200     NO 
 Predicted change in Energy=-1.151547D-02
 GradGradGradGradGradGradGradGradGradGradGradGradGradGradGradGradGradGrad

                          Input orientation:                          
 ---------------------------------------------------------------------
 Center     Atomic      Atomic             Coordinates (Angstroms)
 Number     Number       Type             X           Y           Z
 ---------------------------------------------------------------------
      1          6           0        0.004120    0.011178    0.002272
      2          6           0        1.528876    0.018678   -0.018671
      3          6           0       -0.664431    0.894251    1.038461
      4          6           0        2.201192   -0.809484    1.066712
      5          1           0        1.904354    1.044249    0.002726
      6          1           0       -0.348258   -1.014001    0.141778
      7          6           0       -0.272528    2.351132    0.958449
      8          1           0       -0.468675    0.531744    2.048920
      9          6           0        1.874883   -0.419481    2.486806
     10          1           0        3.279987   -0.700306    0.909871
     11          1           0       -0.481065    2.726657   -0.046169
     12          1           0        0.785532    2.479672    1.192570
     13          1           0        2.573398   -0.933500    3.153806
     14          1           0        0.866263   -0.764308    2.740129
     15          8           0       -1.093624    3.010802    1.928890
     16          1           0       -0.873320    3.940654    1.927354
     17          8           0       -2.068063    0.768632    0.768047
     18          1           0       -2.498685    1.458247    1.281025
     19          8           0       -0.399636    0.460546   -1.302691
     20          1           0       -1.357016    0.544451   -1.260956
     21          8           0        1.970095   -0.607079   -1.230063
     22          1           0        1.334875   -0.342101   -1.904103
     23          8           0        1.839785   -2.173615    0.934504
     24          1           0        1.952630   -2.363214   -0.002386
     25          8           0        1.995463    0.990894    2.599620
     26          1           0        1.907446    1.224602    3.522299
 ---------------------------------------------------------------------
                    Distance matrix (angstroms):
                    1          2          3          4          5
     1  C    0.000000
     2  C    1.524919   0.000000
     3  C    1.516729   2.587422   0.000000
     4  C    2.575586   1.521814   3.333963   0.000000
     5  H    2.162898   1.092354   2.773789   2.157894   0.000000
     6  H    1.092988   2.148442   2.132001   2.719747   3.054504
     7  C    2.542871   3.104861   1.510792   4.015035   2.712963
     8  H    2.164091   2.920339   1.091218   3.145126   3.175033
     9  C    3.139766   2.566928   3.204951   1.508392   2.883405
    10  H    3.472931   2.108439   4.256475   1.095590   2.399739
    11  H    2.758909   3.372502   2.137231   4.575729   2.919437
    12  H    2.849716   2.841858   2.153997   3.583083   2.174381
    13  H    4.174418   3.473079   4.277720   2.123647   3.780002
    14  H    2.973303   2.943315   2.826573   2.141122   3.441205
    15  O    3.730234   4.429820   2.335992   5.117984   4.070051
    16  H    4.462805   4.993942   3.180305   5.723386   4.450711
    17  O    2.335400   3.757570   1.434952   4.561380   4.054847
    18  H    3.161211   4.470215   1.934274   5.222775   4.603498
    19  O    1.438012   2.358626   2.395665   3.740502   2.711678
    20  H    1.932050   3.185606   2.426800   4.462289   3.533161
    21  O    2.401239   1.433080   3.786941   2.317229   2.061790
    22  H    2.351591   1.929418   3.766228   3.129648   2.425339
    23  O    3.002006   2.410675   3.961528   1.417373   3.350676
    24  H    3.071555   2.419348   4.306211   1.902322   3.407809
    25  O    3.416359   2.831669   3.085708   2.373498   2.599039
    26  H    4.181583   3.759792   3.590701   3.202140   3.524192
                    6          7          8          9         10
     6  H    0.000000
     7  C    3.463640   0.000000
     8  H    2.457848   2.130204   0.000000
     9  C    3.285569   3.824074   2.566873   0.000000
    10  H    3.721899   4.683374   4.107048   2.130705   0.000000
    11  H    3.747730   1.092595   3.034335   4.675963   5.177219
    12  H    3.820392   1.091250   2.469979   3.356609   4.051479
    13  H    4.197006   4.869055   3.552734   1.094087   2.364084
    14  H    2.879034   3.765262   1.984838   1.095624   3.029852
    15  O    4.466361   1.432173   2.559433   4.570574   5.825736
    16  H    5.292691   1.956095   3.434994   5.184244   6.310605
    17  O    2.554941   2.400938   2.062715   4.462350   5.547930
    18  H    3.469038   2.420139   2.359875   4.909976   6.179818
    19  O    2.064805   2.950123   3.353078   4.506459   4.447767
    20  H    2.326806   3.060387   3.427038   5.041831   5.269128
    21  O    2.724389   4.309287   4.242198   3.722818   2.510742
    22  H    2.733133   4.246345   4.432018   4.424667   3.439509
    23  O    2.600126   4.993573   3.726912   2.342618   2.060444
    24  H    2.671188   5.300905   4.295504   3.159149   2.315028
    25  O    3.943807   3.112471   2.566333   1.420008   2.713928
    26  H    4.639770   3.548899   2.880425   1.943274   3.523339
                   11         12         13         14         15
    11  H    0.000000
    12  H    1.788782   0.000000
    13  H    5.741631   4.323500   0.000000
    14  H    4.665360   3.595117   1.764670   0.000000
    15  O    2.087301   2.086982   5.523132   4.330211   0.000000
    16  H    2.349988   2.329413   6.094377   5.081676   0.955595
    17  O    2.648655   3.354234   5.489285   3.853477   2.706365
    18  H    2.727838   3.440526   5.912172   4.288544   2.191883
    19  O    2.592439   3.421670   5.535581   4.409894   4.174751
    20  H    2.646700   3.788850   6.092833   4.760726   4.040716
    21  O    4.303904   4.098826   4.437210   4.123784   5.696879
    22  H    4.020800   4.225348   5.240814   4.686870   5.641932
    23  O    5.510057   4.778193   2.646010   2.488809   6.039195
    24  H    5.641948   5.122850   3.520083   3.355307   6.472213
    25  O    4.018241   2.379114   2.084328   2.091786   3.751316
    26  H    4.549188   2.874288   2.288380   2.377312   3.838735
                   16         17         18         19         20
    16  H    0.000000
    17  O    3.582335   0.000000
    18  H    3.036758   0.961327   0.000000
    19  O    4.771658   2.677037   3.475199   0.000000
    20  H    4.683319   2.161643   2.932593   0.961956   0.000000
    21  O    6.223839   4.710812   5.526403   2.600139   3.520887
    22  H    6.156149   4.467001   5.299290   2.003613   2.906181
    23  O    6.762468   4.894466   5.668582   4.118112   4.735765
    24  H    7.172771   5.154416   6.005407   3.898406   4.581733
    25  O    4.169286   4.462769   4.706855   4.609317   5.132492
    26  H    4.201601   4.857826   4.948928   5.402494   5.830853
                   21         22         23         24         25
    21  O    0.000000
    22  H    0.963352   0.000000
    23  O    2.675139   3.415709   0.000000
    24  H    2.142780   2.843070   0.962520   0.000000
    25  O    4.149775   4.743076   3.579240   4.245269   0.000000
    26  H    5.093518   5.676992   4.271901   5.029699   0.955879
                   26
    26  H    0.000000
 Stoichiometry    C6H14O6
 Framework group  C1[X(C6H14O6)]
 Deg. of freedom    72
 Full point group                 C1      NOp   1
 Largest Abelian subgroup         C1      NOp   1
 Largest concise Abelian subgroup C1      NOp   1
                         Standard orientation:                         
 ---------------------------------------------------------------------
 Center     Atomic      Atomic             Coordinates (Angstroms)
 Number     Number       Type             X           Y           Z
 ---------------------------------------------------------------------
      1          6           0       -0.033722   -0.990932    0.288743
      2          6           0        1.046902   -0.464194   -0.649434
      3          6           0       -1.235905   -0.093178    0.510693
      4          6           0        1.981522    0.576701   -0.050318
      5          1           0        0.598613   -0.083083   -1.569776
      6          1           0        0.413109   -1.217709    1.260101
      7          6           0       -1.961191    0.297542   -0.755716
      8          1           0       -0.955382    0.813073    1.049927
      9          6           0        1.323240    1.835452    0.457085
     10          1           0        2.689429    0.843569   -0.842761
     11          1           0       -2.260484   -0.605079   -1.293733
     12          1           0       -1.324242    0.916069   -1.390181
     13          1           0        2.103913    2.575806    0.655711
     14          1           0        0.818425    1.628850    1.407279
     15          8           0       -3.109320    1.031600   -0.315172
     16          1           0       -3.598847    1.315277   -1.085270
     17          8           0       -2.116490   -0.867298    1.337973
     18          1           0       -2.957905   -0.402361    1.335641
     19          8           0       -0.490211   -2.219350   -0.303275
     20          1           0       -1.233440   -2.504470    0.236796
     21          8           0        1.927863   -1.544912   -0.980602
     22          1           0        1.366024   -2.324365   -1.050154
     23          8           0        2.687232    0.024889    1.048055
     24          1           0        3.001681   -0.827076    0.729115
     25          8           0        0.416372    2.294000   -0.534755
     26          1           0        0.090465    3.151723   -0.266800
 ---------------------------------------------------------------------
 Rotational constants (GHZ):           1.1687531           0.7084729           0.5395024
 Standard basis: def2TZVPP (5D, 7F)
 There are   642 symmetry adapted cartesian basis functions of A   symmetry.
 There are   568 symmetry adapted basis functions of A   symmetry.
   568 basis functions,   850 primitive gaussians,   642 cartesian basis functions
    49 alpha electrons       49 beta electrons
       nuclear repulsion energy       849.8798903305 Hartrees.
 NAtoms=   26 NActive=   26 NUniq=   26 SFac= 1.00D+00 NAtFMM=   60 NAOKFM=F Big=F
 Integral buffers will be    131072 words long.
 Raffenetti 2 integral format.
 Two-electron integral symmetry is turned on.
 Nuclear repulsion after empirical dispersion term =      849.8601907997 Hartrees.
 One-electron integrals computed using PRISM.
   1 Symmetry operations used in ECPInt.
 ECPInt:  NShTT=   23436 NPrTT=   62434 LenC2=   22217 LenP2D=   46426.
 LDataN:  DoStor=T MaxTD1= 6 Len=  172
 NBasis=   568 RedAO= T EigKep=  5.31D-05  NBF=   568
[...]
 315,0.00208400,0.00925352,0.00112726,-0.00117147,0.00158096,0.65078110
 ,0.00689648,-0.08011948,0.04156326,0.00422728,0.00070923,-0.00032640,-
 0.00376873,0.00756646,-0.01761779,-0.00011154,-0.00062440,-0.00001251,
 0.00149599,0.00086417,-0.00019146,0.01346320,-0.00214514,0.03679571,-0
 .00228358,-0.00107526,0.00272344,0.00251827,-0.00183990,-0.00341803,-0
 .00034032,-0.00100231,-0.00042054,0.00014810,-0.00005005,0.00019662,0.
 00005641,0.00139508,-0.00257011,-0.00013614,-0.00011644,-0.00099501,0.
 00002313,0.00010656,0.00006652,0.00005321,-0.00008245,-0.00022721,0.00
 071896,0.00018630,-0.00231843,-0.00001269,0.00050030,0.00055613,0.0004
 2996,0.00271715,-0.00320468,-0.00047679,0.00011492,0.00013219,-0.08538
 826,0.08349295,-0.00660623,0.03695069,-0.19703692,-0.00823239,0.003027
 72,-0.01162449,-0.01337853,0.00556707,-0.05208285,0.00047031,-0.001545
 06,0.00162666,-0.00015339,-0.00071853,0.00068317,-0.00891081,0.0110206
 7,-0.02604129,-0.00002791,0.00373695,-0.00033032,0.00486962,-0.0055523
 0,-0.00361783,0.00121620,-0.00000420,0.00011346,-0.00050311,0.00045333
 ,-0.00050143,-0.00003547,-0.00154248,-0.00014599,0.00008584,-0.0000808
 3,-0.00024554,-0.00036940,0.00000276,-0.00000483,-0.00018528,-0.000374
 61,0.00047832,0.00083042,-0.00187299,0.00041372,-0.00000635,-0.0000635
 8,-0.00004291,-0.00036713,-0.00030994,0.00063438,-0.00127280,0.0009011
 7,-0.00009236,0.01413653,-0.05547458,0.33091798,-0.01617310,0.00115074
 ,-0.00408528,-0.00055412,0.00185819,-0.00138460,0.00320428,0.00002210,
 0.00125085,-0.00061942,-0.00028499,0.00010831,0.00026929,-0.00000858,-
 0.00000466,0.00062936,-0.00036253,0.00152539,-0.00016141,-0.00067967,-
 0.00060124,-0.00134862,0.00028634,0.00020359,-0.00005935,-0.00008396,-
 0.00003494,0.00005125,0.00006789,-0.00012052,-0.00003804,-0.00052933,-
 0.00003093,-0.00006746,-0.00017662,0.00014169,0.00003801,0.00000382,0.
 00003632,0.00002564,0.00000391,-0.00005243,-0.00069530,0.00047044,0.00
 041536,-0.00003112,-0.00000946,0.00000590,-0.00270031,-0.00025754,0.00
 095877,-0.00032809,0.00044851,-0.00010500,-0.51285123,0.05681835,0.016
 85555,0.53080582,0.01102029,-0.00072842,0.00208235,0.00016795,-0.00033
 132,-0.00020134,-0.00208324,0.00185476,-0.00181569,0.00025624,0.000298
 49,0.00033116,0.00000104,-0.00010472,0.00016693,0.00085790,-0.00039722
 ,0.00013360,0.00025539,-0.00015271,-0.00131583,0.00020116,-0.00009235,
 0.00042463,0.00007269,0.00025376,0.00010280,-0.00008497,-0.00006717,-0
 .00001620,-0.00050816,-0.00077803,0.00017774,0.00008973,0.00007301,0.0
 0044834,0.00002015,-0.00003502,-0.00001959,-0.00002281,0.00002662,-0.0
 0000851,0.00002137,0.00010627,0.00061814,-0.00006386,-0.00014237,-0.00
 019539,0.00072644,-0.00266296,0.00211129,-0.00003561,-0.00029776,-0.00
 088804,0.04722142,-0.01272200,0.00643874,-0.05840947,0.01670368,-0.044
 14798,0.00520807,-0.00313672,-0.00109498,0.00206367,-0.00803983,-0.006
 32817,-0.00112933,-0.00384684,-0.00186935,-0.00074424,0.00081414,-0.00
 001386,-0.00009184,0.00013351,-0.00000748,0.00094336,-0.00019131,0.000
 16551,-0.00071155,0.00007193,0.00055247,0.00029332,0.00074125,-0.00015
 128,0.00011899,0.00038986,-0.00034039,0.00041404,-0.00044859,-0.000142
 73,-0.00011384,-0.00004154,0.00018328,0.00044440,0.00010889,0.00008354
 ,-0.00002877,-0.00003831,0.00007789,0.00008907,-0.00005424,0.00032545,
 0.00063548,0.00008863,0.00015639,-0.00009414,0.00001355,0.00085404,0.0
 0140696,0.00119360,0.00108436,-0.00097216,0.00135989,0.06424971,0.0012
 6475,-0.04595750,-0.01478485,-0.00903195,0.05551264,-0.01825695,0.0214
 0494,0.03586932,-0.09982328,0.02302731,0.00638821,-0.00455166,-0.00422
 711,-0.00498630,0.00710005,-0.00722954,-0.01757469,0.00673064,0.001769
 12,-0.00340492,0.00198370,-0.00018612,-0.00026255,-0.00065661,-0.00102
 459,-0.00009951,-0.00005980,0.00011700,0.00059249,-0.00179990,0.003601
 03,-0.00167298,0.00213976,-0.00120661,0.00037659,-0.00008168,-0.000035
 27,-0.00000333,0.00019413,0.00019940,0.00013102,0.00032764,-0.00020443
 ,-0.00108263,0.00028772,0.00014695,-0.00057183,0.00014252,0.00104584,0
 .00039534,-0.00008406,-0.00004733,-0.00001489,-0.00310376,0.00290851,0
 .00250523,-0.00066858,-0.00054321,0.00005463,-0.01031833,0.00461226,0.
 00342726,0.00147072,0.00091607,0.00291588,0.38902793,0.00603810,-0.001
 21665,-0.00483729,0.02949485,-0.09786382,-0.04465154,-0.00027918,0.001
 40527,0.00067872,-0.00302482,0.00026536,0.01340278,0.01303115,-0.00960
 680,-0.03820885,0.00202171,0.00095654,-0.00008177,-0.00143102,0.000125
 38,-0.00008018,0.00004829,-0.00005916,-0.00024746,0.00155836,-0.003029
 67,0.00136797,-0.00040103,0.00060587,-0.00023000,-0.00012743,0.0000973
 0,-0.00000703,0.00059891,0.00035781,0.00054993,-0.00016975,0.00036908,
 0.00043662,0.00014030,0.00001928,-0.00009536,0.00109796,-0.00030003,-0
 .00042011,-0.00009599,0.00017254,0.00004972,0.00091857,-0.00014435,-0.
 00045891,-0.00003627,-0.00005731,-0.00001229,0.00337926,0.00194215,-0.
 00073886,-0.00030551,0.00043894,-0.00104824,-0.14597558,0.14611216,0.0
 1125572,-0.00980110,-0.02397399,0.04933960,-0.06245297,-0.18592229,-0.
 00026299,0.00270710,0.00365473,0.00946290,-0.00870614,-0.05306987,0.00
 486626,-0.01460141,-0.01772409,-0.00017511,0.00067970,0.00076929,-0.00
 094685,0.00060146,-0.00061609,-0.00032174,0.00017828,0.00037151,-0.004
 70917,0.00644394,-0.00103850,0.00089107,-0.00108902,0.00186501,0.00010
 358,-0.00030077,0.00011393,0.00033761,0.00046089,0.00036822,0.00039878
 ,-0.00067934,-0.00265265,0.00017110,0.00002671,-0.00007594,0.00103473,
 -0.00086076,-0.00013077,-0.00008429,0.00014893,-0.00012264,0.00293224,
 -0.00152642,-0.00010973,0.00033797,0.00022018,-0.00002406,-0.00814998,
 0.00229338,0.00406246,-0.00024795,0.00029979,0.00067524,0.18104929,0.0
 0851058,0.52695983,0.00173751,-0.00002378,0.00908495,0.01080805,-0.003
 97882,0.00851149,0.00022857,0.00015811,-0.00100035,-0.00191058,0.00079
 041,0.00361491,-0.00041286,0.00082151,0.00035884,-0.00023889,0.0001966
 8,-0.00072316,0.00034336,0.00028109,0.00029815,0.00030861,-0.00032705,
 -0.00053659,0.00116146,-0.00100193,0.00041885,-0.00001144,0.00022723,-
 0.00007665,0.00009163,0.00026516,-0.00002778,-0.00014563,-0.00018256,-
 0.00022636,-0.00010944,0.00010721,0.00051194,-0.00011453,-0.00009902,0
 .00006238,-0.00020699,-0.00037323,-0.00027831,0.00005262,0.00003208,0.
 00005782,-0.00042601,-0.00009462,-0.00089900,-0.00019326,0.00015163,0.
 00004443,-0.00076386,0.00028291,-0.00005018,-0.00109799,-0.00055168,-0
 .00218234,-0.27065979,0.09465292,-0.24732534,0.26207073,0.00059294,0.0
 0224317,-0.00206727,-0.01167255,0.00313295,-0.01287184,-0.00003293,0.0
 0001378,0.00055143,0.00083773,-0.00184702,-0.00039805,-0.00006846,-0.0
 0108460,-0.00219432,-0.00016241,-0.00030349,0.00069622,0.00007457,0.00
 003774,-0.00047116,-0.00009720,0.00004769,0.00013777,-0.00003549,0.000
 12511,-0.00008340,0.00004635,-0.00015338,0.00000872,0.00010818,-0.0001
 5429,0.00007079,-0.00000692,0.00002866,0.00000988,-0.00000389,0.000022
 62,-0.00000973,0.00001472,0.00000264,-0.00001307,-0.00006689,-0.000033
 63,0.00023797,0.00001240,-0.00004060,-0.00007224,0.00020186,-0.0002138
 0,0.00019505,0.00011875,0.00002954,-0.00001658,-0.00030926,-0.00188404
 ,-0.00093927,-0.00013342,-0.00094455,0.00112517,0.10203890,-0.04698777
 ,0.08030368,-0.09207394,0.04660444,0.00071034,0.00095811,-0.00192258,-
 0.02401419,0.00721507,-0.03426503,-0.00034066,-0.00046827,-0.00151137,
 0.00225099,-0.00323347,-0.00638885,-0.00022021,0.00019830,0.00008338,0
 .00014761,0.00001984,-0.00013480,0.00001128,-0.00028246,0.00003043,0.0
 0002322,-0.00001689,0.00008893,-0.00115190,0.00123836,-0.00045201,0.00
 013118,-0.00021372,0.00030015,-0.00001023,-0.00004667,0.00000764,-0.00
 002442,-0.00000325,-0.00002561,0.00015982,-0.00013454,-0.00044597,0.00
 003132,0.00005668,-0.00001835,-0.00017104,0.00041845,0.00017690,0.0000
 0896,-0.00004811,0.00001771,-0.00098642,0.00063116,0.00063053,-0.00008
 078,-0.00012319,0.00006765,-0.00241553,0.00050210,-0.00095915,-0.00025
 302,0.00041114,0.00079335,-0.20391488,0.05854099,-0.24955854,0.2299220
 7,-0.06554843,0.29247423,-0.00128795,-0.00172951,0.00335439,0.00643696
 ,0.01433317,0.00252957,0.00070138,0.00073432,-0.00089407,-0.07999328,-
 0.03969252,0.00314818,-0.00053658,0.00257659,-0.00294212,0.00167650,0.
 00208436,-0.00046491,-0.00039918,-0.00027628,0.00017949,-0.00006542,-0
 .00006698,0.00002480,0.00264925,0.00475509,0.00038309,-0.00045961,-0.0
 3943225,-0.00730029,0.00001554,-0.00003598,-0.00000276,0.00000004,0.00
 003854,-0.00002723,0.00015050,-0.00001452,0.00076074,0.00151300,0.0005
 3939,-0.00164275,-0.00006520,0.00058903,0.00022129,-0.00005066,-0.0000
 1911,0.00000325,-0.00016534,0.00026696,0.00014774,0.00005840,-0.000091
 83,-0.00002995,0.00060197,0.00128077,-0.00146532,0.00034433,-0.0002997
 2,0.00018285,0.00326409,0.00097648,0.00023660,-0.00033714,-0.00055205,
 0.00024926,0.07752625,-0.00444339,-0.00073842,-0.00065419,-0.00385701,
 -0.04919726,-0.00241101,-0.00120490,0.00024598,0.00048935,-0.04155550,
 -0.22560628,0.00291689,0.00335867,-0.00226702,0.00578119,0.00139358,0.
 00001788,-0.00002746,-0.00079033,0.00039864,0.00007497,-0.00007733,-0.
 00001782,0.00004481,-0.00398327,-0.02384836,-0.00621046,-0.01242697,-0
 .02635497,-0.00421598,-0.00002780,0.00006978,-0.00002967,0.00023664,0.
 00030414,0.00020072,-0.00085618,0.00091683,0.00002205,0.00090577,0.000
 81846,0.00110104,0.00081980,-0.00055389,-0.00040163,-0.00008949,0.0001
 5108,0.00001137,0.00118775,-0.00004427,-0.00013205,-0.00013364,-0.0000
 1337,0.00006902,0.00188139,0.00079621,0.00116720,-0.00009956,0.0000024
 0,0.00011024,0.00030432,0.00265261,-0.00143284,-0.00037234,0.00010873,
 -0.00097770,0.05879041,0.37276898,-0.00034936,-0.00086319,0.00123026,0
 .00600189,0.01872503,-0.00043354,-0.00004848,0.00030400,-0.00132700,-0
 .00327886,-0.04121745,-0.10206683,-0.00245315,0.00262442,-0.00281191,0
 .00014276,0.00053108,-0.00044109,-0.00019298,-0.00015346,0.00006147,-0
 .00023608,-0.00000875,0.00041295,-0.01000200,-0.04259200,-0.00239589,-
 0.00200861,0.00128009,0.00448083,0.00014501,-0.00014924,0.00010838,-0.
 00003701,0.00013938,-0.00023352,-0.00059931,-0.00022855,0.00214754,-0.
 00045469,0.00007939,0.00238188,-0.00003687,0.00028515,0.00031265,-0.00
 006097,0.00000356,-0.00005030,0.00004482,0.00017689,0.00059267,-0.0000
 5054,-0.00001343,-0.00004869,-0.00028976,0.00039764,0.00051115,0.00017
 647,-0.00015868,0.00006450,-0.00081255,0.00900687,-0.00174410,0.001083
 34,0.00159100,0.00120757,-0.03778864,0.09720211,0.61667605,-0.00017394
 ,0.00121109,-0.00059548,0.00163914,0.00121450,0.00121598,-0.00026797,-
 0.00027080,0.00052507,0.00092525,-0.00383124,-0.00972629,-0.00008286,-
 0.00039246,0.00018863,-0.00084293,-0.00005202,0.00039555,0.00013903,0.
 00015400,-0.00007415,0.00004168,-0.00002278,-0.00008985,-0.00096906,-0
 .00019013,0.00057776,-0.00016175,-0.00053832,-0.00105231,-0.00000029,0
 .00003422,-0.00000241,-0.00000161,-0.00001957,0.00001258,-0.00004969,-
 0.00014943,0.00021224,0.00024665,0.00006743,-0.00017871,0.00004766,-0.
 00028085,-0.00012256,0.00001698,0.00001702,0.00000169,0.00011454,-0.00
 014513,-0.00016122,-0.00002508,0.00004262,0.00001907,0.00003754,-0.000
 50925,0.00025638,-0.00012937,0.00016912,0.00003541,-0.00291102,-0.0019
 9470,-0.00022916,0.00001097,0.00114256,-0.00015069,-0.01300213,0.00009
 367,0.04925781,0.01470087,0.00090740,-0.00000206,0.00029482,0.00206180
 ,-0.00393260,-0.00402438,0.00012037,-0.00013624,-0.00056701,0.00320368
 ,-0.01549763,-0.04805620,-0.00038742,0.00083740,-0.00011762,0.00018077
 ,-0.00005242,-0.00001767,0.00007755,-0.00020478,-0.00005822,-0.0000479
 2,0.00000137,0.00010138,-0.00206908,-0.00684717,0.00208804,-0.00082550
 ,0.00019958,-0.00007409,0.00003415,-0.00005026,0.00002854,-0.00005443,
 -0.00001893,-0.00008209,-0.00024065,0.00017252,0.00017966,0.00011661,0
 .00004105,0.00029922,-0.00020989,0.00030162,0.00021819,0.00000676,-0.0
 0004526,-0.00002096,-0.00046208,0.00020104,0.00029127,0.00001162,-0.00
 003744,-0.00002543,-0.00093973,0.00019726,0.00001733,0.00013419,0.0000
 1596,0.00011565,-0.00111519,0.00229648,-0.00087534,0.00087171,0.001244
 87,0.00089436,-0.00595415,-0.05025970,-0.03813481,0.00422432,0.0730443
 2,0.00046064,-0.00033785,0.00020573,-0.00083779,0.00365657,0.00331187,
 0.00027673,0.00010122,0.00020057,0.00121327,-0.00607601,-0.00798514,0.
 00013725,-0.00037757,-0.00132073,0.00039993,-0.00005876,0.00007207,-0.
 00002121,-0.00000651,0.00003813,0.00004127,-0.00002713,-0.00011630,-0.
 00119296,-0.00122203,0.00003420,0.00061535,0.00155561,0.00032324,-0.00
 002317,0.00003998,-0.00002715,0.00002043,-0.00002893,0.00003269,0.0000
 5639,0.00020529,0.00003138,-0.00011119,0.00004476,0.00023173,0.0000052
 6,0.00000506,-0.00006377,0.00000864,0.00000223,0.00002094,-0.00000225,
 -0.00004439,-0.00020942,0.00002618,-0.00000421,0.00000836,0.00004391,-
 0.00005563,-0.00081140,-0.00005213,-0.00000269,-0.00009168,0.00042370,
 -0.00061728,-0.00212721,-0.00077096,-0.00017559,-0.00052166,0.03951256
 ,-0.08778822,-0.50616034,-0.04029675,0.09031712,0.51472231,-0.00061870
 ,0.00023319,0.00070294,-0.00040730,-0.00003699,0.00003493,0.00051787,-
 0.00097941,0.00221941,0.00200063,0.00553055,-0.00085583,-0.00000753,0.
 00013449,-0.00003792,0.00010617,0.00018600,-0.00005045,0.00047779,-0.0
 0010653,-0.00037890,-0.00084619,0.00055446,-0.00143293,-0.06915165,-0.
 02457069,0.00519340,0.00108904,-0.00000841,-0.00158544,-0.00038449,0.0
 0014745,-0.00018556,-0.00087481,-0.00007157,0.00000718,0.00923544,0.01
 714277,0.00591573,0.00323197,-0.03561702,-0.00751995,-0.00034539,0.000
 44692,0.00004665,0.00000671,-0.00016377,-0.00005882,-0.00133310,0.0000
 5461,-0.00121697,0.00024788,-0.00015968,0.00000228,0.00043627,-0.00016
 470,-0.00094118,0.00001754,0.00012992,0.00033625,0.00054811,-0.0001342
 9,0.00001691,-0.00030562,0.00004244,0.00013808,0.00124182,0.00114225,0
 .00202340,0.00046094,0.00043207,0.00004462,0.06598918,0.00079692,-0.00
 126721,0.00005965,0.00038209,-0.00156749,0.00077388,0.00007241,-0.0008
 0198,-0.00067041,-0.00440937,-0.01914338,-0.00334235,-0.00001892,0.000
 74336,-0.00063183,0.00039501,0.00048134,0.00034447,-0.00200120,-0.0006
 9932,0.00011529,0.00012811,-0.00128878,0.00044637,-0.02957768,-0.23797
 614,0.00198976,0.00104333,0.00081566,0.00038574,0.00081379,0.00010917,
 0.00028738,0.00119027,0.00026119,-0.00034586,-0.00473103,-0.03836098,-
 0.00752047,-0.00882549,-0.02671674,-0.00581202,0.00107308,0.00031682,0
 .00039868,-0.00035638,0.00020911,-0.00018859,0.00070480,0.00111181,0.0
 0054148,-0.00034561,-0.00034957,-0.00000567,-0.00093042,0.00118907,-0.
 00014427,0.00009933,-0.00035966,-0.00027756,-0.00046224,0.00119595,-0.
 00097513,0.00032257,-0.00003392,0.00002046,0.00082960,0.00045122,-0.00
 626967,0.00005457,-0.00079649,0.00094243,0.03629915,0.37524841,0.00065
 207,-0.00041888,0.00030453,-0.00092107,0.00188125,0.00069972,0.0002413
 1,0.00013401,-0.00024635,-0.00842468,-0.04195725,0.00070858,-0.0005765
 1,-0.00106047,-0.00111374,0.00004719,0.00001503,-0.00005724,0.00038377
 ,0.00026542,-0.00072421,-0.00047886,-0.00029916,-0.00032926,-0.0001959
 4,-0.04134618,-0.10056087,0.00005015,0.00052006,0.00161930,-0.00021573
 ,-0.00003491,0.00000038,-0.00073828,-0.00003883,-0.00071046,0.00644103
 ,0.01456308,0.00889238,-0.00277532,0.00283290,0.00418657,-0.00054332,0
 .00061529,0.00066506,-0.00010224,-0.00006406,-0.00010357,-0.00041496,0
 .00022201,0.00016427,0.00000200,-0.00005190,-0.00012389,-0.00056937,0.
 00032484,-0.00017821,0.00010249,-0.00006907,-0.00005509,0.00028154,-0.
 00061689,-0.00012528,0.00011299,-0.00004620,0.00033234,0.00144680,-0.0
 0520985,-0.01225495,-0.00001830,-0.00264678,0.00015402,-0.06587188,0.1
 2438269,0.62658834,0.00032930,-0.00021586,-0.00006019,0.00023845,-0.00
 006611,0.00006051,-0.00047729,0.00038205,-0.00085933,-0.00048049,-0.00
 012230,0.00040297,-0.00006179,-0.00004437,-0.00004585,0.00001139,-0.00
 000169,0.00001324,0.00003410,0.00004643,-0.00020739,-0.00026919,-0.000
 38384,0.00001969,-0.00067135,-0.00284470,-0.00676186,0.00014193,-0.000
 08725,-0.00023304,0.00004614,-0.00008670,0.00009192,0.00007769,0.00001
 095,-0.00019933,0.00035677,-0.00012990,0.00088890,0.00007218,-0.000361
 32,-0.00110707,0.00002841,-0.00005072,0.00034256,-0.00004146,0.0000799
 5,-0.00000178,0.00037510,0.00003682,0.00042502,-0.00011602,0.00003949,
 -0.00008577,-0.00017583,0.00016671,0.00035735,-0.00000127,-0.00006736,
 -0.00013961,-0.00024160,0.00001873,0.00001822,0.00012054,-0.00001600,-
 0.00005018,0.00018245,-0.00019654,-0.00017565,0.00023646,-0.00007694,0
 .00002228,-0.01133257,0.00745334,0.07208512,0.01161795,-0.00018764,0.0
 0012176,-0.00015715,-0.00031499,-0.00030282,0.00018256,-0.00020303,0.0
 0016436,-0.00017565,-0.00218952,-0.00702269,0.00232957,0.00001144,0.00
 038559,-0.00023421,0.00007036,-0.00003787,-0.00003144,-0.00002534,0.00
 015853,0.00036013,-0.00008693,0.00010621,0.00007363,0.00562247,-0.0124
 8606,-0.04644191,0.00018415,0.00012431,0.00024175,-0.00000631,-0.00005
 105,-0.00002815,-0.00014927,0.00028022,0.00019770,0.00130398,0.0007288
 3,0.00018002,-0.00096294,0.00064566,-0.00006410,0.00002679,-0.00034819
 ,-0.00047493,0.00013153,-0.00000525,0.00012910,0.00014125,-0.00023259,
 0.00004910,0.00005286,0.00011433,0.00002784,0.00012529,-0.00011632,0.0
 0007786,-0.00002318,0.00004236,0.00001045,0.00016558,0.00025284,0.0004
 2662,-0.00008225,0.00003916,-0.00000832,0.00037017,-0.00080159,-0.0025
 5742,-0.00002841,-0.00067251,-0.00004745,-0.00046320,-0.05277144,-0.05
 189614,-0.00348289,0.07168421,0.00008074,-0.00008788,-0.00014348,0.000
 04804,0.00061410,0.00013601,-0.00025244,0.00012974,-0.00038507,-0.0007
 0893,-0.00156125,0.00123334,-0.00003877,-0.00031650,0.00007813,-0.0000
 4921,-0.00002965,-0.00000053,-0.00011049,0.00014335,0.00003440,-0.0003
 1136,-0.00013178,0.00002637,0.00157686,0.00506975,-0.00570924,-0.00003
 939,0.00016085,0.00020774,0.00008403,-0.00005874,0.00004571,0.00002475
 ,0.00003162,-0.00025404,0.00043089,0.00148615,0.00136423,0.00009258,0.
 00132898,0.00041884,0.00011129,-0.00012042,-0.00000472,-0.00004095,0.0
 0005102,0.00002006,0.00035378,0.00000829,0.00019102,-0.00007436,0.0000
 2173,0.00001676,0.00001022,0.00001580,0.00023171,-0.00002315,-0.000023
 71,-0.00005931,-0.00000943,-0.00019210,0.00017554,0.00001485,-0.000020
 54,-0.00000692,0.00017744,0.00030008,-0.00021973,-0.00000032,-0.000144
 99,0.00004755,0.06345404,-0.10450445,-0.52773237,-0.06480073,0.0978305
 4,0.53028800\\-0.00000617,0.00000201,0.00000574,0.00000370,0.00001684,
 0.00001937,0.00003275,0.00000520,-0.00000769,0.00000840,0.00000749,-0.
 00003367,0.00000231,0.00000574,0.00000768,0.00000583,-0.00001127,-0.00
 000635,-0.00000302,-0.00000817,0.00000933,-0.00000438,-0.00000259,-0.0
 0000774,-0.00001806,-0.00000649,0.00000846,0.00000226,-0.00000682,0.00
 000685,0.00000227,-0.00000430,-0.00000737,0.00000428,0.00000087,0.0000
 0315,-0.00000361,-0.00000202,-0.00000188,0.00000091,0.00000066,-0.0000
 0597,0.00000128,-0.00000871,0.00000207,0.00000059,0.00000591,-0.000002
 36,-0.00002762,0.00000308,-0.00001619,-0.00000701,0.00000660,0.0000040
 9,-0.00000458,-0.00000347,0.00000977,-0.00000791,0.00001409,-0.0000060
 9,0.00001121,-0.00003253,0.00002070,0.00000711,0.00001114,0.00000120,0
 .00001485,-0.00000117,0.00000639,-0.00000920,0.00000093,-0.00000875,-0
 .00000491,0.00001238,-0.00000944,-0.00000127,-0.00000541,0.00000869\\\
 @
 The archive entry for this job was punched.


 AN OPTIMIST IS A GUY
 THAT HAS NEVER HAD
 MUCH EXPERIENCE
   (CERTAIN MAXIMS OF ARCHY  -- DON MARQUIS)
 Job cpu time:       0 days 12 hours  4 minutes 51.0 seconds.
 Elapsed time:       0 days  0 hours 45 minutes 29.1 seconds.
 File lengths (MBytes):  RWF=    704 Int=      0 D2E=      0 Chk=     27 Scr=      1
 Normal termination of Gaussian 16 at Wed Oct 11 15:41:43 2023.
