 Entering Gaussian System, Link 0=/opt/software/gaussian/g16.c01/g16
 Initial command:
 /opt/software/gaussian/g16.c01/l1.exe "/scratch/arhender/13209922/Gau-127831.inp" -scrdir="/scratch/arhender/13209922/"
 Entering Link 1 = /opt/software/gaussian/g16.c01/l1.exe PID=    127835.
  
 Copyright (c) 1988-2019, Gaussian, Inc.  All Rights Reserved.
  
 This is part of the Gaussian(R) 16 program.  It is based on
 the Gaussian(R) 09 system (copyright 2009, Gaussian, Inc.),
 the Gaussian(R) 03 system (copyright 2003, Gaussian, Inc.),
 the Gaussian(R) 98 system (copyright 1998, Gaussian, Inc.),
 the Gaussian(R) 94 system (copyright 1995, Gaussian, Inc.),
 the Gaussian 92(TM) system (copyright 1992, Gaussian, Inc.),
 the Gaussian 90(TM) system (copyright 1990, Gaussian, Inc.),
 the Gaussian 88(TM) system (copyright 1988, Gaussian, Inc.),
 the Gaussian 86(TM) system (copyright 1986, Carnegie Mellon
 University), and the Gaussian 82(TM) system (copyright 1983,
 Carnegie Mellon University). Gaussian is a federally registered
 trademark of Gaussian, Inc.
  
 This software contains proprietary and confidential information,
 including trade secrets, belonging to Gaussian, Inc.
  
 This software is provided under written license and may be
 used, copied, transmitted, or stored only in accord with that
 written license.
  
 The following legend is applicable only to US Government
 contracts under FAR:
  
                    RESTRICTED RIGHTS LEGEND
  
 Use, reproduction and disclosure by the US Government is
 subject to restrictions as set forth in subparagraphs (a)
 and (c) of the Commercial Computer Software - Restricted
 Rights clause in FAR 52.227-19.
  
 Gaussian, Inc.
 340 Quinnipiac St., Bldg. 40, Wallingford CT 06492
  
  
 ---------------------------------------------------------------
 Warning -- This program may not be used in any manner that
 competes with the business of Gaussian, Inc. or will provide
 assistance to any competitor of Gaussian, Inc.  The licensee
 of this program is prohibited from giving any competitor of
 Gaussian, Inc. access to this program.  By using this program,
 the user acknowledges that Gaussian, Inc. is engaged in the
 business of creating and licensing software in the field of
 computational chemistry and represents and warrants to the
 licensee that it is not a competitor of Gaussian, Inc. and that
 it will not use this program in any manner prohibited above.
 ---------------------------------------------------------------
  

 Cite this work as:
 Gaussian 16, Revision C.01,
 M. J. Frisch, G. W. Trucks, H. B. Schlegel, G. E. Scuseria, 
 M. A. Robb, J. R. Cheeseman, G. Scalmani, V. Barone, 
 G. A. Petersson, H. Nakatsuji, X. Li, M. Caricato, A. V. Marenich, 
 J. Bloino, B. G. Janesko, R. Gomperts, B. Mennucci, H. P. Hratchian, 
 J. V. Ortiz, A. F. Izmaylov, J. L. Sonnenberg, D. Williams-Young, 
 F. Ding, F. Lipparini, F. Egidi, J. Goings, B. Peng, A. Petrone, 
 T. Henderson, D. Ranasinghe, V. G. Zakrzewski, J. Gao, N. Rega, 
 G. Zheng, W. Liang, M. Hada, M. Ehara, K. Toyota, R. Fukuda, 
 J. Hasegawa, M. Ishida, T. Nakajima, Y. Honda, O. Kitao, H. Nakai, 
 T. Vreven, K. Throssell, J. A. Montgomery, Jr., J. E. Peralta, 
 F. Ogliaro, M. J. Bearpark, J. J. Heyd, E. N. Brothers, K. N. Kudin, 
 V. N. Staroverov, T. A. Keith, R. Kobayashi, J. Normand, 
 K. Raghavachari, A. P. Rendell, J. C. Burant, S. S. Iyengar, 
 J. Tomasi, M. Cossi, J. M. Millam, M. Klene, C. Adamo, R. Cammi, 
 J. W. Ochterski, R. L. Martin, K. Morokuma, O. Farkas, 
 J. B. Foresman, and D. J. Fox, Gaussian, Inc., Wallingford CT, 2019.
 
 ******************************************
 Gaussian 16:  ES64L-G16RevC.01  3-Jul-2019
                27-Sep-2023 
 ******************************************
 %chk=MannitolConformerOpt_15.chk
 %mem=8GB
 %nprocs=16
 Will use up to   16 processors via shared memory.
 ---------------------------------------------
 # opt freq wb97xd/def2tzvpp geom=connectivity
 ---------------------------------------------
 1/18=20,19=15,26=3,38=1,57=2/1,3;
 2/9=110,12=2,17=6,18=5,40=1/2;
 3/5=44,7=202,11=2,25=1,30=1,71=1,74=-58/1,2,3;
 4//1;
 5/5=2,38=5/2;
 6/7=2,8=2,9=2,10=2,28=1/1;
 7//1,2,3,16;
 1/18=20,19=15,26=3/3(2);
 2/9=110/2;
 99//99;
 2/9=110/2;
 3/5=44,7=202,11=2,25=1,30=1,71=1,74=-58/1,2,3;
 4/5=5,16=3,69=1/1;
 5/5=2,38=5/2;
 7//1,2,3,16;
 1/18=20,19=15,26=3/3(-5);
 2/9=110/2;
 6/7=2,8=2,9=2,10=2,19=2,28=1/1;
 99/9=1/99;
 --------------------------------
 Mannitol Conformer Optimziations
 --------------------------------
 Symbolic Z-matrix:
 Charge =  0 Multiplicity = 1
 C                     0.        0.        0. 
 C                     1.5406    0.        0. 
 C                    -0.605     0.7203   -1.2293 
 C                     2.2035   -0.713     1.1913 
 H                     1.9041    1.0342    0. 
 H                    -0.3648    0.4581    0.9257 
 C                    -0.1472    2.1693   -1.4078 
 H                    -1.6961    0.7034   -1.1202 
 C                     1.8515   -2.1912    1.3812 
 H                     2.0003   -0.1668    2.1196 
 H                    -0.7558    2.6543   -2.1794 
 H                     0.8922    2.2192   -1.7491 
 H                     1.9953   -2.7603    0.4579 
 H                     0.8333   -2.3237    1.7539 
 O                    -0.2728    2.898    -0.1949 
 H                    -0.0734    3.8285   -0.4027 
 O                    -0.3117   -0.0317   -2.4209 
 H                     0.6502   -0.2382   -2.3852 
 O                    -0.487    -1.355    -0.0284 
 H                    -0.4902   -1.6078   -0.9754 
 O                     2.0311   -0.576    -1.2316 
 H                     2.9917   -0.6996   -1.0629 
 O                     3.6331   -0.6389    0.9712 
 H                     4.0034   -1.2615    1.6341 
 O                     2.7516   -2.7331    2.3609 
 H                     2.4745   -3.6568    2.501 
 

 GradGradGradGradGradGradGradGradGradGradGradGradGradGradGradGradGradGrad
 Berny optimization.
 Initialization pass.
                           ----------------------------
                           !    Initial Parameters    !
                           ! (Angstroms and Degrees)  !
 --------------------------                            --------------------------
 ! Name  Definition              Value          Derivative Info.                !
 --------------------------------------------------------------------------------
 ! R1    R(1,2)                  1.5406         estimate D2E/DX2                !
 ! R2    R(1,3)                  1.5479         estimate D2E/DX2                !
 ! R3    R(1,6)                  1.0954         estimate D2E/DX2                !
 ! R4    R(1,19)                 1.4401         estimate D2E/DX2                !
 ! R5    R(2,4)                  1.5385         estimate D2E/DX2                !
 ! R6    R(2,5)                  1.0962         estimate D2E/DX2                !
 ! R7    R(2,21)                 1.4454         estimate D2E/DX2                !
 ! R8    R(3,7)                  1.53           estimate D2E/DX2                !
 ! R9    R(3,8)                  1.0967         estimate D2E/DX2                !
 ! R10   R(3,17)                 1.4392         estimate D2E/DX2                !
 ! R11   R(4,9)                  1.5314         estimate D2E/DX2                !
 ! R12   R(4,10)                 1.0961         estimate D2E/DX2                !
 ! R13   R(4,23)                 1.4483         estimate D2E/DX2                !
 ! R14   R(7,11)                 1.0959         estimate D2E/DX2                !
 ! R15   R(7,12)                 1.0951         estimate D2E/DX2                !
 ! R16   R(7,15)                 1.4205         estimate D2E/DX2                !
 ! R17   R(9,13)                 1.0941         estimate D2E/DX2                !
 ! R18   R(9,14)                 1.0923         estimate D2E/DX2                !
 ! R19   R(9,25)                 1.4365         estimate D2E/DX2                !
 ! R20   R(15,16)                0.974          estimate D2E/DX2                !
 ! R21   R(17,18)                0.9845         estimate D2E/DX2                !
 ! R22   R(19,20)                0.9802         estimate D2E/DX2                !
 ! R23   R(21,22)                0.9831         estimate D2E/DX2                !
 ! R24   R(23,24)                0.9819         estimate D2E/DX2                !
 ! R25   R(25,26)                0.9745         estimate D2E/DX2                !
 ! A1    A(2,1,3)              113.0073         estimate D2E/DX2                !
 ! A2    A(2,1,6)              109.4531         estimate D2E/DX2                !
 ! A3    A(2,1,19)             109.7649         estimate D2E/DX2                !
 ! A4    A(3,1,6)              110.2655         estimate D2E/DX2                !
 ! A5    A(3,1,19)             106.8576         estimate D2E/DX2                !
 ! A6    A(6,1,19)             107.3095         estimate D2E/DX2                !
 ! A7    A(1,2,4)              115.5229         estimate D2E/DX2                !
 ! A8    A(1,2,5)              109.3655         estimate D2E/DX2                !
 ! A9    A(1,2,21)             109.8373         estimate D2E/DX2                !
 ! A10   A(4,2,5)              107.1181         estimate D2E/DX2                !
 ! A11   A(4,2,21)             109.2011         estimate D2E/DX2                !
 ! A12   A(5,2,21)             105.2737         estimate D2E/DX2                !
 ! A13   A(1,3,7)              114.607          estimate D2E/DX2                !
 ! A14   A(1,3,8)              107.619          estimate D2E/DX2                !
 ! A15   A(1,3,17)             109.5561         estimate D2E/DX2                !
 ! A16   A(7,3,8)              108.8981         estimate D2E/DX2                !
 ! A17   A(7,3,17)             109.7097         estimate D2E/DX2                !
 ! A18   A(8,3,17)             106.0851         estimate D2E/DX2                !
 ! A19   A(2,4,9)              116.3806         estimate D2E/DX2                !
 ! A20   A(2,4,10)             110.1806         estimate D2E/DX2                !
 ! A21   A(2,4,23)             106.494          estimate D2E/DX2                !
 ! A22   A(9,4,10)             109.4746         estimate D2E/DX2                !
 ! A23   A(9,4,23)             107.1647         estimate D2E/DX2                !
 ! A24   A(10,4,23)            106.6307         estimate D2E/DX2                !
 ! A25   A(3,7,11)             109.5784         estimate D2E/DX2                !
 ! A26   A(3,7,12)             111.3145         estimate D2E/DX2                !
 ! A27   A(3,7,15)             111.0841         estimate D2E/DX2                !
 ! A28   A(11,7,12)            106.7076         estimate D2E/DX2                !
 ! A29   A(11,7,15)            108.9683         estimate D2E/DX2                !
 ! A30   A(12,7,15)            109.0651         estimate D2E/DX2                !
 ! A31   A(4,9,13)             111.5456         estimate D2E/DX2                !
 ! A32   A(4,9,14)             111.9417         estimate D2E/DX2                !
 ! A33   A(4,9,25)             107.7388         estimate D2E/DX2                !
 ! A34   A(13,9,14)            110.3255         estimate D2E/DX2                !
 ! A35   A(13,9,25)            107.2749         estimate D2E/DX2                !
 ! A36   A(14,9,25)            107.7944         estimate D2E/DX2                !
 ! A37   A(7,15,16)            106.8453         estimate D2E/DX2                !
 ! A38   A(3,17,18)            106.1821         estimate D2E/DX2                !
 ! A39   A(1,19,20)            105.2377         estimate D2E/DX2                !
 ! A40   A(2,21,22)            103.6192         estimate D2E/DX2                !
 ! A41   A(4,23,24)            103.7215         estimate D2E/DX2                !
 ! A42   A(9,25,26)            106.1076         estimate D2E/DX2                !
 ! D1    D(3,1,2,4)           -179.4671         estimate D2E/DX2                !
 ! D2    D(3,1,2,5)             59.6321         estimate D2E/DX2                !
 ! D3    D(3,1,2,21)           -55.4326         estimate D2E/DX2                !
 ! D4    D(6,1,2,4)             57.2301         estimate D2E/DX2                !
 ! D5    D(6,1,2,5)            -63.6706         estimate D2E/DX2                !
 ! D6    D(6,1,2,21)          -178.7354         estimate D2E/DX2                !
 ! D7    D(19,1,2,4)           -60.2999         estimate D2E/DX2                !
 ! D8    D(19,1,2,5)           178.7993         estimate D2E/DX2                !
 ! D9    D(19,1,2,21)           63.7345         estimate D2E/DX2                !
 ! D10   D(2,1,3,7)            -56.4953         estimate D2E/DX2                !
 ! D11   D(2,1,3,8)           -177.7753         estimate D2E/DX2                !
 ! D12   D(2,1,3,17)            67.3074         estimate D2E/DX2                !
 ! D13   D(6,1,3,7)             66.3569         estimate D2E/DX2                !
 ! D14   D(6,1,3,8)            -54.9231         estimate D2E/DX2                !
 ! D15   D(6,1,3,17)          -169.8404         estimate D2E/DX2                !
 ! D16   D(19,1,3,7)          -177.3292         estimate D2E/DX2                !
 ! D17   D(19,1,3,8)            61.3909         estimate D2E/DX2                !
 ! D18   D(19,1,3,17)          -53.5264         estimate D2E/DX2                !
 ! D19   D(2,1,19,20)          -84.5897         estimate D2E/DX2                !
 ! D20   D(3,1,19,20)           38.2879         estimate D2E/DX2                !
 ! D21   D(6,1,19,20)          156.5513         estimate D2E/DX2                !
 ! D22   D(1,2,4,9)             58.591          estimate D2E/DX2                !
 ! D23   D(1,2,4,10)           -66.7737         estimate D2E/DX2                !
 ! D24   D(1,2,4,23)           177.9594         estimate D2E/DX2                !
 ! D25   D(5,2,4,9)           -179.2996         estimate D2E/DX2                !
 ! D26   D(5,2,4,10)            55.3358         estimate D2E/DX2                !
 ! D27   D(5,2,4,23)           -59.9312         estimate D2E/DX2                !
 ! D28   D(21,2,4,9)           -65.7754         estimate D2E/DX2                !
 ! D29   D(21,2,4,10)          168.86           estimate D2E/DX2                !
 ! D30   D(21,2,4,23)           53.593          estimate D2E/DX2                !
 ! D31   D(1,2,21,22)         -168.9316         estimate D2E/DX2                !
 ! D32   D(4,2,21,22)          -41.2935         estimate D2E/DX2                !
 ! D33   D(5,2,21,22)           73.4272         estimate D2E/DX2                !
 ! D34   D(1,3,7,11)          -169.6281         estimate D2E/DX2                !
 ! D35   D(1,3,7,12)            72.5774         estimate D2E/DX2                !
 ! D36   D(1,3,7,15)           -49.1726         estimate D2E/DX2                !
 ! D37   D(8,3,7,11)           -49.0524         estimate D2E/DX2                !
 ! D38   D(8,3,7,12)          -166.8469         estimate D2E/DX2                !
 ! D39   D(8,3,7,15)            71.403          estimate D2E/DX2                !
 ! D40   D(17,3,7,11)           66.6512         estimate D2E/DX2                !
 ! D41   D(17,3,7,12)          -51.1433         estimate D2E/DX2                !
 ! D42   D(17,3,7,15)         -172.8934         estimate D2E/DX2                !
 ! D43   D(1,3,17,18)          -48.337          estimate D2E/DX2                !
 ! D44   D(7,3,17,18)           78.2925         estimate D2E/DX2                !
 ! D45   D(8,3,17,18)         -164.2326         estimate D2E/DX2                !
 ! D46   D(2,4,9,13)            51.4811         estimate D2E/DX2                !
 ! D47   D(2,4,9,14)           -72.6899         estimate D2E/DX2                !
 ! D48   D(2,4,9,25)           168.9652         estimate D2E/DX2                !
 ! D49   D(10,4,9,13)          177.202          estimate D2E/DX2                !
 ! D50   D(10,4,9,14)           53.0311         estimate D2E/DX2                !
 ! D51   D(10,4,9,25)          -65.3139         estimate D2E/DX2                !
 ! D52   D(23,4,9,13)          -67.5241         estimate D2E/DX2                !
 ! D53   D(23,4,9,14)          168.3049         estimate D2E/DX2                !
 ! D54   D(23,4,9,25)           49.96           estimate D2E/DX2                !
 ! D55   D(2,4,23,24)         -168.1796         estimate D2E/DX2                !
 ! D56   D(9,4,23,24)          -42.9775         estimate D2E/DX2                !
 ! D57   D(10,4,23,24)          74.179          estimate D2E/DX2                !
 ! D58   D(3,7,15,16)         -173.117          estimate D2E/DX2                !
 ! D59   D(11,7,15,16)         -52.3013         estimate D2E/DX2                !
 ! D60   D(12,7,15,16)          63.8295         estimate D2E/DX2                !
 ! D61   D(4,9,25,26)          176.8006         estimate D2E/DX2                !
 ! D62   D(13,9,25,26)         -62.9829         estimate D2E/DX2                !
 ! D63   D(14,9,25,26)          55.8234         estimate D2E/DX2                !
 --------------------------------------------------------------------------------
 Trust Radius=3.00D-01 FncErr=1.00D-07 GrdErr=1.00D-06 EigMax=2.50D+02 EigMin=1.00D-04
 Number of steps in this run=    140 maximum allowed number of steps=    156.
 GradGradGradGradGradGradGradGradGradGradGradGradGradGradGradGradGradGrad

                          Input orientation:                          
 ---------------------------------------------------------------------
 Center     Atomic      Atomic             Coordinates (Angstroms)
 Number     Number       Type             X           Y           Z
 ---------------------------------------------------------------------
      1          6           0        0.000000    0.000000    0.000000
      2          6           0        1.540600    0.000000    0.000000
      3          6           0       -0.605000    0.720300   -1.229300
      4          6           0        2.203500   -0.713000    1.191300
      5          1           0        1.904100    1.034200    0.000000
      6          1           0       -0.364800    0.458100    0.925700
      7          6           0       -0.147200    2.169300   -1.407800
      8          1           0       -1.696100    0.703400   -1.120200
      9          6           0        1.851500   -2.191200    1.381200
     10          1           0        2.000300   -0.166800    2.119600
     11          1           0       -0.755800    2.654300   -2.179400
     12          1           0        0.892200    2.219200   -1.749100
     13          1           0        1.995300   -2.760300    0.457900
     14          1           0        0.833300   -2.323700    1.753900
     15          8           0       -0.272800    2.898000   -0.194900
     16          1           0       -0.073400    3.828500   -0.402700
     17          8           0       -0.311700   -0.031700   -2.420900
     18          1           0        0.650200   -0.238200   -2.385200
     19          8           0       -0.487000   -1.355000   -0.028400
     20          1           0       -0.490200   -1.607800   -0.975400
     21          8           0        2.031100   -0.576000   -1.231600
     22          1           0        2.991700   -0.699600   -1.062900
     23          8           0        3.633100   -0.638900    0.971200
     24          1           0        4.003400   -1.261500    1.634100
     25          8           0        2.751600   -2.733100    2.360900
     26          1           0        2.474500   -3.656800    2.501000
 ---------------------------------------------------------------------
                    Distance matrix (angstroms):
                    1          2          3          4          5
     1  C    0.000000
     2  C    1.540600   0.000000
     3  C    1.547913   2.575580   0.000000
     4  C    2.604415   1.538506   3.975088   0.000000
     5  H    2.166833   1.096222   2.811636   2.135777   0.000000
     6  H    1.095379   2.167331   2.184141   2.835169   2.517284
     7  C    2.590257   3.088111   1.530047   4.537484   2.734627
     8  H    2.150901   3.496548   1.096671   4.749326   3.784933
     9  C    3.183885   2.608779   4.618001   1.531353   3.509086
    10  H    2.919200   2.175282   4.334705   1.096068   2.438106
    11  H    3.516579   4.131410   2.160043   5.608724   3.801260
    12  H    2.963144   2.899073   2.181399   4.354682   2.342545
    13  H    3.436590   2.834728   4.660770   2.184642   3.823117
    14  H    3.028223   2.996001   4.498236   2.188223   3.936784
    15  O    2.917329   3.424151   2.433663   4.592704   2.872391
    16  H    3.850320   4.174275   3.259873   5.324503   3.446852
    17  O    2.441090   3.048406   1.439250   4.454031   3.450604
    18  H    2.483682   2.557094   1.957129   3.928044   2.980008
    19  O    1.440139   2.438851   2.400616   3.023015   3.380302
    20  H    1.943379   2.767774   2.344716   3.570893   3.696518
    21  O    2.444173   1.445408   2.937588   2.432886   2.031185
    22  H    3.251071   1.929997   3.870408   2.388065   2.306229
    23  O    3.814556   2.393737   4.964989   1.448341   2.594597
    24  H    4.504318   3.213573   5.776153   1.933019   3.513913
    25  O    4.540373   3.809226   6.006852   2.397745   4.525998
    26  H    5.074479   4.527622   6.523608   3.233375   5.346573
                    6          7          8          9         10
     6  H    0.000000
     7  C    2.901858   0.000000
     8  H    2.453210   2.151899   0.000000
     9  C    3.484000   5.548629   5.217392   0.000000
    10  H    2.722057   4.744646   4.991686   2.159993   0.000000
    11  H    3.823326   1.095895   2.410825   6.553988   5.834046
    12  H    3.440360   1.095138   3.064712   5.492783   4.678431
    13  H    4.018334   5.689648   5.302269   1.094091   3.080181
    14  H    3.140027   5.580750   4.880743   1.092334   2.479484
    15  O    2.686507   1.420530   2.774569   5.735564   4.462835
    16  H    3.634440   1.941293   3.593635   6.566912   5.159908
    17  O    3.382670   2.428545   2.036849   4.878405   5.097032
    18  H    3.532296   2.717943   2.827005   4.409433   4.703306
    19  O    2.052455   3.799855   2.625064   2.855658   3.494622
    20  H    2.810311   3.817211   2.610902   3.373052   4.225884
    21  O    3.385800   3.508947   3.942245   3.076987   3.376231
    22  H    4.069508   4.266408   4.893584   3.081972   3.375656
    23  O    4.145924   5.276011   5.880144   2.398298   2.051277
    24  H    4.747634   6.184741   6.628069   2.357748   2.333771
    25  O    4.685670   6.829324   6.611325   1.436540   2.684879
    26  H    5.241717   7.489691   7.036927   1.946809   3.542659
                   11         12         13         14         15
    11  H    0.000000
    12  H    1.757946   0.000000
    13  H    6.621314   5.557256   0.000000
    14  H    6.540380   5.736935   1.794569   0.000000
    15  O    2.056920   2.057555   6.130806   5.682203   0.000000
    16  H    2.236309   2.309767   6.959342   6.581990   0.974049
    17  O    2.733156   2.639553   4.588572   4.898290   3.679637
    18  H    3.222692   2.549902   4.031563   4.638425   3.935110
    19  O    4.557800   4.199751   2.893643   2.420365   4.261644
    20  H    4.436852   4.141928   3.091976   3.116608   4.578065
    21  O    4.370352   3.062359   2.761677   3.660928   4.295507
    22  H    5.151599   3.660350   2.748114   3.902660   4.934887
    23  O    6.327234   4.804300   2.728773   3.360067   5.396805
    24  H    7.247500   5.765490   2.768088   3.345468   6.239597
    25  O    7.870213   6.698861   2.047960   2.053274   6.883923
    26  H    8.495350   7.422560   2.282017   2.242510   7.601377
                   16         17         18         19         20
    16  H    0.000000
    17  O    4.362461   0.000000
    18  H    4.581698   0.984463   0.000000
    19  O    5.213429   2.739691   2.845166   0.000000
    20  H    5.482250   2.146025   2.272411   0.980167   0.000000
    21  O    4.951325   2.683171   1.830789   2.897475   2.736275
    22  H    5.507667   3.633553   2.728368   3.687966   3.599460
    23  O    5.965183   5.237984   4.508179   4.299677   4.661504
    24  H    6.832053   6.047770   5.333467   4.789190   5.207865
    25  O    7.659811   6.288639   5.758982   4.253992   4.786070
    26  H    8.423359   6.717839   6.236172   4.524006   5.007315
                   21         22         23         24         25
    21  O    0.000000
    22  H    0.983102   0.000000
    23  O    2.724461   2.133692   0.000000
    24  H    3.545718   2.934805   0.981931   0.000000
    25  O    4.251853   3.989383   2.663453   2.064182   0.000000
    26  H    4.860065   4.659819   3.576362   2.970945   0.974492
                   26
    26  H    0.000000
 Stoichiometry    C6H14O6
 Framework group  C1[X(C6H14O6)]
 Deg. of freedom    72
 Full point group                 C1      NOp   1
 Largest Abelian subgroup         C1      NOp   1
 Largest concise Abelian subgroup C1      NOp   1
                         Standard orientation:                         
 ---------------------------------------------------------------------
 Center     Atomic      Atomic             Coordinates (Angstroms)
 Number     Number       Type             X           Y           Z
 ---------------------------------------------------------------------
      1          6           0       -0.691663    0.425511   -0.691499
      2          6           0        0.162567   -0.470134    0.225867
      3          6           0       -2.136165    0.621646   -0.170942
      4          6           0        1.614582   -0.693502   -0.231039
      5          1           0       -0.305528   -1.458005    0.307719
      6          1           0       -0.706627    0.003506   -1.702213
      7          6           0       -2.913872   -0.676566    0.054587
      8          1           0       -2.673180    1.234466   -0.904940
      9          6           0        2.475819    0.561554   -0.398805
     10          1           0        1.633536   -1.276421   -1.159053
     11          1           0       -3.968740   -0.445101    0.240773
     12          1           0       -2.548280   -1.211337    0.937588
     13          1           0        2.441371    1.194634    0.492856
     14          1           0        2.191881    1.136182   -1.283325
     15          8           0       -2.821279   -1.530825   -1.076595
     16          1           0       -3.421850   -2.280305   -0.914224
     17          8           0       -2.109551    1.389230    1.046246
     18          1           0       -1.423825    0.973885    1.617592
     19          8           0       -0.099174    1.734958   -0.782625
     20          1           0       -0.432326    2.223426   -0.000873
     21          8           0        0.163653    0.063190    1.569284
     22          1           0        0.864509   -0.455328    2.023628
     23          8           0        2.244222   -1.511275    0.785077
     24          1           0        3.199228   -1.466815    0.561076
     25          8           0        3.837949    0.138129   -0.568984
     26          1           0        4.355643    0.948893   -0.724837
 ---------------------------------------------------------------------
 Rotational constants (GHZ):           1.5407330           0.5069308           0.4710475
 Standard basis: def2TZVPP (5D, 7F)
 There are   642 symmetry adapted cartesian basis functions of A   symmetry.
 There are   568 symmetry adapted basis functions of A   symmetry.
   568 basis functions,   850 primitive gaussians,   642 cartesian basis functions
    49 alpha electrons       49 beta electrons
       nuclear repulsion energy       829.9017148852 Hartrees.
 NAtoms=   26 NActive=   26 NUniq=   26 SFac= 1.00D+00 NAtFMM=   60 NAOKFM=F Big=F
 Integral buffers will be    131072 words long.
 Raffenetti 2 integral format.
 Two-electron integral symmetry is turned on.
 Nuclear repulsion after empirical dispersion term =      829.8833335494 Hartrees.
 One-electron integrals computed using PRISM.
   1 Symmetry operations used in ECPInt.
 ECPInt:  NShTT=   23436 NPrTT=   62434 LenC2=   21806 LenP2D=   45311.
 LDataN:  DoStor=T MaxTD1= 6 Len=  172
 NBasis=   568 RedAO= T EigKep=  4.78D-05  NBF=   568
 NBsUse=   568 1.00D-06 EigRej= -1.00D+00 NBFU=   568
 ExpMin= 9.52D-02 ExpMax= 2.70D+04 ExpMxC= 9.22D+02 IAcc=3 IRadAn=         5 AccDes= 0.00D+00
 Harris functional with IExCor= 4639 and IRadAn=       5 diagonalized for initial guess.
 HarFok:  IExCor= 4639 AccDes= 0.00D+00 IRadAn=         5 IDoV= 1 UseB2=F ITyADJ=14
 ICtDFT=  3500011 ScaDFX=  1.000000  1.000000  1.000000  1.000000
 FoFCou: FMM=F IPFlag=           0 FMFlag=      100000 FMFlg1=           0
         NFxFlg=           0 DoJE=T BraDBF=F KetDBF=T FulRan=T
         wScrn=  0.000000 ICntrl=       500 IOpCl=  0 I1Cent=   200000004 NGrid=           0
         NMat0=    1 NMatS0=      1 NMatT0=    0 NMatD0=    1 NMtDS0=    0 NMtDT0=    0
 Petite list used in FoFCou.
 Requested convergence on RMS density matrix=1.00D-08 within 128 cycles.
 Requested convergence on MAX density matrix=1.00D-06.
 Requested convergence on             energy=1.00D-06.
 No special actions if energy rises.
 Integral accuracy reduced to 1.0D-05 until final iterations.
 Initial convergence to 1.0D-05 achieved.  Increase integral accuracy.
 SCF Done:  E(RwB97XD) =  -688.469838144     A.U. after   13 cycles
            NFock= 13  Conv=0.97D-08     -V/T= 2.0050

 **********************************************************************

            Population analysis using the SCF Density.

 **********************************************************************

 Orbital symmetries:
       Occupied  (A) (A) (A) (A) (A) (A) (A) (A) (A) (A) (A) (A)
                 (A) (A) (A) (A) (A) (A) (A) (A) (A) (A) (A) (A)
                 (A) (A) (A) (A) (A) (A) (A) (A) (A) (A) (A) (A)
                 (A) (A) (A) (A) (A) (A) (A) (A) (A) (A) (A) (A)
                 (A)
       Virtual   (A) (A) (A) (A) (A) (A) (A) (A) (A) (A) (A) (A)
                 (A) (A) (A) (A) (A) (A) (A) (A) (A) (A) (A) (A)
                 (A) (A) (A) (A) (A) (A) (A) (A) (A) (A) (A) (A)
                 (A) (A) (A) (A) (A) (A) (A) (A) (A) (A) (A) (A)
                 (A) (A) (A) (A) (A) (A) (A) (A) (A) (A) (A) (A)
                 (A) (A) (A) (A) (A) (A) (A) (A) (A) (A) (A) (A)
                 (A) (A) (A) (A) (A) (A) (A) (A) (A) (A) (A) (A)
                 (A) (A) (A) (A) (A) (A) (A) (A) (A) (A) (A) (A)
                 (A) (A) (A) (A) (A) (A) (A) (A) (A) (A) (A) (A)
                 (A) (A) (A) (A) (A) (A) (A) (A) (A) (A) (A) (A)
                 (A) (A) (A) (A) (A) (A) (A) (A) (A) (A) (A) (A)
                 (A) (A) (A) (A) (A) (A) (A) (A) (A) (A) (A) (A)
                 (A) (A) (A) (A) (A) (A) (A) (A) (A) (A) (A) (A)
                 (A) (A) (A) (A) (A) (A) (A) (A) (A) (A) (A) (A)
                 (A) (A) (A) (A) (A) (A) (A) (A) (A) (A) (A) (A)
                 (A) (A) (A) (A) (A) (A) (A) (A) (A) (A) (A) (A)
                 (A) (A) (A) (A) (A) (A) (A) (A) (A) (A) (A) (A)
                 (A) (A) (A) (A) (A) (A) (A) (A) (A) (A) (A) (A)
                 (A) (A) (A) (A) (A) (A) (A) (A) (A) (A) (A) (A)
                 (A) (A) (A) (A) (A) (A) (A) (A) (A) (A) (A) (A)
                 (A) (A) (A) (A) (A) (A) (A) (A) (A) (A) (A) (A)
                 (A) (A) (A) (A) (A) (A) (A) (A) (A) (A) (A) (A)
                 (A) (A) (A) (A) (A) (A) (A) (A) (A) (A) (A) (A)
                 (A) (A) (A) (A) (A) (A) (A) (A) (A) (A) (A) (A)
                 (A) (A) (A) (A) (A) (A) (A) (A) (A) (A) (A) (A)
                 (A) (A) (A) (A) (A) (A) (A) (A) (A) (A) (A) (A)
                 (A) (A) (A) (A) (A) (A) (A) (A) (A) (A) (A) (A)
                 (A) (A) (A) (A) (A) (A) (A) (A) (A) (A) (A) (A)
                 (A) (A) (A) (A) (A) (A) (A) (A) (A) (A) (A) (A)
                 (A) (A) (A) (A) (A) (A) (A) (A) (A) (A) (A) (A)
                 (A) (A) (A) (A) (A) (A) (A) (A) (A) (A) (A) (A)
                 (A) (A) (A) (A) (A) (A) (A) (A) (A) (A) (A) (A)
                 (A) (A) (A) (A) (A) (A) (A) (A) (A) (A) (A) (A)
                 (A) (A) (A) (A) (A) (A) (A) (A) (A) (A) (A) (A)
                 (A) (A) (A) (A) (A) (A) (A) (A) (A) (A) (A) (A)
                 (A) (A) (A) (A) (A) (A) (A) (A) (A) (A) (A) (A)
                 (A) (A) (A) (A) (A) (A) (A) (A) (A) (A) (A) (A)
                 (A) (A) (A) (A) (A) (A) (A) (A) (A) (A) (A) (A)
                 (A) (A) (A) (A) (A) (A) (A) (A) (A) (A) (A) (A)
                 (A) (A) (A) (A) (A) (A) (A) (A) (A) (A) (A) (A)
                 (A) (A) (A) (A) (A) (A) (A) (A) (A) (A) (A) (A)
                 (A) (A) (A) (A) (A) (A) (A) (A) (A) (A) (A) (A)
                 (A) (A) (A) (A) (A) (A) (A) (A) (A) (A) (A) (A)
                 (A) (A) (A)
 The electronic state is 1-A.
 Alpha  occ. eigenvalues --  -19.26678 -19.26243 -19.26057 -19.25764 -19.24768
 Alpha  occ. eigenvalues --  -19.24614 -10.34920 -10.34788 -10.34573 -10.34327
 Alpha  occ. eigenvalues --  -10.33521 -10.33197  -1.15554  -1.14110  -1.13288
 Alpha  occ. eigenvalues --   -1.12326  -1.10837  -1.10215  -0.88337  -0.84993
 Alpha  occ. eigenvalues --   -0.80170  -0.75068  -0.70998  -0.67411  -0.63749
 Alpha  occ. eigenvalues --   -0.62276  -0.60491  -0.59931  -0.59447  -0.56935
 Alpha  occ. eigenvalues --   -0.55717  -0.55115  -0.53475  -0.52536  -0.51305
 Alpha  occ. eigenvalues --   -0.49795  -0.47962  -0.47053  -0.45767  -0.45274
 Alpha  occ. eigenvalues --   -0.43947  -0.41911  -0.40898  -0.38360  -0.37533
 Alpha  occ. eigenvalues --   -0.37412  -0.36867  -0.36484  -0.35497
 Alpha virt. eigenvalues --    0.09283   0.09507   0.11209   0.13648   0.13882
 Alpha virt. eigenvalues --    0.14991   0.16165   0.17105   0.18038   0.18922
 Alpha virt. eigenvalues --    0.20027   0.20759   0.21020   0.21753   0.22670
 Alpha virt. eigenvalues --    0.23301   0.23832   0.24609   0.25928   0.26768
 Alpha virt. eigenvalues --    0.27576   0.28491   0.29963   0.31317   0.32870
 Alpha virt. eigenvalues --    0.34829   0.34996   0.37332   0.37799   0.38542
 Alpha virt. eigenvalues --    0.39140   0.39633   0.40669   0.41065   0.41746
 Alpha virt. eigenvalues --    0.42439   0.43319   0.43535   0.44115   0.44929
 Alpha virt. eigenvalues --    0.45650   0.46170   0.47603   0.47858   0.49085
 Alpha virt. eigenvalues --    0.49461   0.49564   0.50219   0.51236   0.51611
 Alpha virt. eigenvalues --    0.52063   0.52817   0.53585   0.54570   0.54642
 Alpha virt. eigenvalues --    0.55876   0.56190   0.57960   0.58413   0.58591
 Alpha virt. eigenvalues --    0.59814   0.61424   0.61981   0.63749   0.64268
 Alpha virt. eigenvalues --    0.65364   0.65904   0.67218   0.67611   0.68297
 Alpha virt. eigenvalues --    0.68741   0.71062   0.72323   0.73603   0.74461
 Alpha virt. eigenvalues --    0.75287   0.76610   0.76893   0.78138   0.81167
 Alpha virt. eigenvalues --    0.82159   0.83859   0.85429   0.86251   0.86509
 Alpha virt. eigenvalues --    0.87124   0.88122   0.88638   0.89333   0.90719
 Alpha virt. eigenvalues --    0.92142   0.93514   0.94122   0.94754   0.96045
 Alpha virt. eigenvalues --    0.96762   0.98248   0.98925   0.99503   1.01707
 Alpha virt. eigenvalues --    1.03597   1.05376   1.05978   1.07204   1.08095
 Alpha virt. eigenvalues --    1.08586   1.08915   1.09851   1.10731   1.13371
 Alpha virt. eigenvalues --    1.13617   1.15014   1.16126   1.17551   1.18239
 Alpha virt. eigenvalues --    1.18980   1.20785   1.22757   1.24135   1.25628
 Alpha virt. eigenvalues --    1.27075   1.27806   1.29163   1.30099   1.31193
 Alpha virt. eigenvalues --    1.32295   1.32768   1.33777   1.35033   1.36784
 Alpha virt. eigenvalues --    1.37469   1.38023   1.38649   1.39321   1.40034
 Alpha virt. eigenvalues --    1.42216   1.42632   1.44949   1.46017   1.47079
 Alpha virt. eigenvalues --    1.48269   1.49191   1.50061   1.50340   1.51533
 Alpha virt. eigenvalues --    1.53116   1.53815   1.55133   1.56891   1.58180
 Alpha virt. eigenvalues --    1.59262   1.60983   1.62567   1.63800   1.64304
 Alpha virt. eigenvalues --    1.64528   1.67272   1.68987   1.70780   1.72901
 Alpha virt. eigenvalues --    1.73718   1.76876   1.81056   1.81548   1.83606
 Alpha virt. eigenvalues --    1.85885   1.88917   1.90596   1.93091   1.93431
 Alpha virt. eigenvalues --    1.94121   1.94589   1.96627   1.97483   2.00735
 Alpha virt. eigenvalues --    2.01069   2.02688   2.03983   2.05006   2.05522
 Alpha virt. eigenvalues --    2.06909   2.07255   2.08004   2.09155   2.10396
 Alpha virt. eigenvalues --    2.11006   2.13381   2.14175   2.15376   2.17350
 Alpha virt. eigenvalues --    2.19861   2.20668   2.21219   2.23259   2.26004
 Alpha virt. eigenvalues --    2.26452   2.28327   2.30942   2.32493   2.33583
 Alpha virt. eigenvalues --    2.34523   2.35899   2.38109   2.40138   2.41699
 Alpha virt. eigenvalues --    2.43827   2.46096   2.48030   2.49432   2.51404
 Alpha virt. eigenvalues --    2.56371   2.57291   2.58898   2.62687   2.64972
 Alpha virt. eigenvalues --    2.67742   2.69455   2.70030   2.71337   2.72055
 Alpha virt. eigenvalues --    2.73136   2.74571   2.75757   2.77198   2.78365
 Alpha virt. eigenvalues --    2.79065   2.79970   2.80378   2.82279   2.84045
 Alpha virt. eigenvalues --    2.84685   2.86131   2.87546   2.88706   2.89814
 Alpha virt. eigenvalues --    2.92833   2.93558   2.94397   2.97641   2.99017
 Alpha virt. eigenvalues --    2.99484   3.01724   3.02550   3.04478   3.05286
 Alpha virt. eigenvalues --    3.06705   3.07500   3.08155   3.09136   3.11284
 Alpha virt. eigenvalues --    3.11975   3.13930   3.14836   3.15252   3.17461
 Alpha virt. eigenvalues --    3.17901   3.18085   3.19201   3.20960   3.22247
 Alpha virt. eigenvalues --    3.23018   3.24123   3.24672   3.25818   3.28154
 Alpha virt. eigenvalues --    3.28531   3.29849   3.30986   3.31980   3.32999
 Alpha virt. eigenvalues --    3.34249   3.34821   3.36186   3.36797   3.38134
 Alpha virt. eigenvalues --    3.39106   3.39986   3.41337   3.41694   3.41862
 Alpha virt. eigenvalues --    3.43571   3.45159   3.45654   3.47447   3.48281
 Alpha virt. eigenvalues --    3.50262   3.50903   3.51920   3.52210   3.53705
 Alpha virt. eigenvalues --    3.54848   3.55518   3.57484   3.58429   3.58877
 Alpha virt. eigenvalues --    3.61435   3.62160   3.63393   3.64656   3.65314
 Alpha virt. eigenvalues --    3.66099   3.69441   3.70257   3.71462   3.71525
 Alpha virt. eigenvalues --    3.71896   3.73395   3.76156   3.76891   3.78510
 Alpha virt. eigenvalues --    3.79411   3.79712   3.81667   3.82149   3.82753
 Alpha virt. eigenvalues --    3.84221   3.86320   3.87756   3.89706   3.90357
 Alpha virt. eigenvalues --    3.91225   3.92237   3.93005   3.94126   3.95002
 Alpha virt. eigenvalues --    3.97660   3.97808   3.98763   3.99735   4.01233
 Alpha virt. eigenvalues --    4.01453   4.02477   4.04325   4.05574   4.07196
 Alpha virt. eigenvalues --    4.07779   4.08715   4.08995   4.11119   4.12825
 Alpha virt. eigenvalues --    4.13397   4.13779   4.16165   4.16259   4.17121
 Alpha virt. eigenvalues --    4.18210   4.19372   4.20086   4.20908   4.22473
 Alpha virt. eigenvalues --    4.23155   4.25435   4.26709   4.27642   4.28830
 Alpha virt. eigenvalues --    4.30775   4.31355   4.32898   4.34988   4.35933
 Alpha virt. eigenvalues --    4.36369   4.37554   4.38804   4.40459   4.40809
 Alpha virt. eigenvalues --    4.41306   4.42879   4.45315   4.46039   4.47565
 Alpha virt. eigenvalues --    4.49224   4.49989   4.52513   4.54047   4.55167
 Alpha virt. eigenvalues --    4.55653   4.58464   4.58888   4.60079   4.61549
 Alpha virt. eigenvalues --    4.63279   4.65508   4.66422   4.68089   4.70758
 Alpha virt. eigenvalues --    4.73072   4.74630   4.76819   4.80070   4.81203
 Alpha virt. eigenvalues --    4.82859   4.84546   4.84765   4.87131   4.88325
 Alpha virt. eigenvalues --    4.89702   4.93715   4.95049   4.95808   4.96759
 Alpha virt. eigenvalues --    4.99391   5.00776   5.01771   5.02803   5.03528
 Alpha virt. eigenvalues --    5.04255   5.06170   5.08741   5.10376   5.12808
 Alpha virt. eigenvalues --    5.15035   5.15991   5.16847   5.19284   5.21086
 Alpha virt. eigenvalues --    5.21376   5.22716   5.24160   5.26898   5.30662
 Alpha virt. eigenvalues --    5.31134   5.34676   5.36229   5.41336   5.42465
 Alpha virt. eigenvalues --    5.46591   5.49308   5.54165   5.55625   5.57741
 Alpha virt. eigenvalues --    5.59494   5.60956   5.63914   5.64171   5.66079
 Alpha virt. eigenvalues --    5.68166   5.70496   5.70927   5.73251   5.74942
 Alpha virt. eigenvalues --    5.75509   5.77093   5.82176   5.83107   5.85772
 Alpha virt. eigenvalues --    5.86663   5.87810   5.91546   5.95044   5.95942
 Alpha virt. eigenvalues --    5.99977   6.02070   6.03209   6.10443   6.12977
 Alpha virt. eigenvalues --    6.14332   6.16179   6.18509   6.20413   6.52773
 Alpha virt. eigenvalues --    6.53424   6.55492   6.56533   6.57439   6.57549
 Alpha virt. eigenvalues --    6.70189   6.72732   6.74953   6.75803   6.76021
 Alpha virt. eigenvalues --    6.76550   6.77438   6.78852   6.79596   6.80577
 Alpha virt. eigenvalues --    6.82829   6.82926   6.83816   6.85243   6.87572
 Alpha virt. eigenvalues --    6.88562   6.91779   6.96370   6.98155   7.00150
 Alpha virt. eigenvalues --    7.02793   7.04465   7.06240   7.07267   7.14802
 Alpha virt. eigenvalues --    7.16648   7.20368   7.20797   7.23297   7.27320
 Alpha virt. eigenvalues --    7.41043   7.41900   7.43621   7.44777   7.48849
 Alpha virt. eigenvalues --    7.50100   7.51246   7.51552   7.57642   7.59401
 Alpha virt. eigenvalues --    7.65050   7.76632  23.09381  23.15790  23.19380
 Alpha virt. eigenvalues --   23.21454  23.44465  23.47625  44.12168  44.14693
 Alpha virt. eigenvalues --   44.24144  44.30473  44.33358  44.42280
          Condensed to atoms (all electrons):
               1          2          3          4          5          6
     1  C    4.893990   0.139626   0.299944   0.029765  -0.009215   0.417801
     2  C    0.139626   5.241688   0.037597   0.148255   0.404385  -0.047895
     3  C    0.299944   0.037597   4.827037  -0.010992  -0.024331  -0.016488
     4  C    0.029765   0.148255  -0.010992   4.934214  -0.011462   0.003065
     5  H   -0.009215   0.404385  -0.024331  -0.011462   0.564781   0.004537
     6  H    0.417801  -0.047895  -0.016488   0.003065   0.004537   0.550090
     7  C   -0.054938   0.019809   0.307959   0.002697   0.001180  -0.007240
     8  H   -0.051776   0.007282   0.405938  -0.000165  -0.001347  -0.002809
     9  C    0.002025  -0.005344   0.001449   0.293590   0.007381  -0.000612
    10  H   -0.008740  -0.024611  -0.000096   0.419266  -0.005873   0.002083
    11  H    0.013566  -0.002484  -0.034907  -0.000161   0.001405   0.000252
    12  H   -0.021601   0.008853  -0.035278   0.000214  -0.016971   0.000537
    13  H   -0.008802   0.016062  -0.000064  -0.044471   0.000668   0.000251
    14  H    0.002141  -0.017869  -0.000225  -0.010725  -0.000764   0.000376
    15  O    0.014624  -0.014278  -0.075909  -0.002441   0.011656   0.007973
    16  H   -0.002294   0.001423   0.013185   0.000092  -0.000375  -0.000603
    17  O   -0.030459  -0.008324   0.242760   0.002044   0.001069   0.003456
    18  H   -0.002908  -0.006825  -0.035805   0.000091   0.000818   0.000055
    19  O    0.272995  -0.052164  -0.031779  -0.015618   0.003523  -0.021632
    20  H   -0.050004   0.002276  -0.012154  -0.000453   0.000332   0.006439
    21  O   -0.024740   0.201636  -0.008615  -0.011726  -0.036733   0.002616
    22  H    0.005296  -0.043129   0.000054   0.000164  -0.005027  -0.000261
    23  O    0.004360  -0.071334  -0.000205   0.272923   0.003025   0.000109
    24  H   -0.000890   0.007723   0.000001  -0.039900  -0.000246   0.000003
    25  O   -0.000097   0.007725  -0.000019  -0.075518  -0.000074  -0.000024
    26  H    0.000060  -0.001817  -0.000007   0.011713   0.000038   0.000003
               7          8          9         10         11         12
     1  C   -0.054938  -0.051776   0.002025  -0.008740   0.013566  -0.021601
     2  C    0.019809   0.007282  -0.005344  -0.024611  -0.002484   0.008853
     3  C    0.307959   0.405938   0.001449  -0.000096  -0.034907  -0.035278
     4  C    0.002697  -0.000165   0.293590   0.419266  -0.000161   0.000214
     5  H    0.001180  -0.001347   0.007381  -0.005873   0.001405  -0.016971
     6  H   -0.007240  -0.002809  -0.000612   0.002083   0.000252   0.000537
     7  C    4.759802  -0.022577  -0.000237  -0.000025   0.425524   0.419479
     8  H   -0.022577   0.601851  -0.000078   0.000020  -0.014335   0.009639
     9  C   -0.000237  -0.000078   4.746345  -0.042722   0.000010   0.000028
    10  H   -0.000025   0.000020  -0.042722   0.609063   0.000006  -0.000091
    11  H    0.425524  -0.014335   0.000010   0.000006   0.588381  -0.037426
    12  H    0.419479   0.009639   0.000028  -0.000091  -0.037426   0.636872
    13  H   -0.000026   0.000005   0.408647   0.009449   0.000000  -0.000014
    14  H    0.000037   0.000002   0.429102  -0.005657   0.000001  -0.000005
    15  O    0.282983   0.008190   0.000032   0.000193  -0.038498  -0.052337
    16  H   -0.027118  -0.000600  -0.000004  -0.000003  -0.007801  -0.007109
    17  O   -0.025611  -0.032511  -0.000662   0.000016   0.005258   0.001724
    18  H   -0.003398   0.007228   0.000235  -0.000047   0.000294   0.004121
    19  O    0.006931   0.004311   0.010669   0.000150  -0.000255   0.000068
    20  H    0.001537  -0.003141   0.000333  -0.000075  -0.000150  -0.000060
    21  O   -0.006153  -0.000666  -0.019455   0.003502   0.000212   0.005473
    22  H    0.000260   0.000072  -0.002828   0.002040  -0.000002   0.000079
    23  O   -0.000060   0.000002  -0.035504  -0.037199   0.000000  -0.000019
    24  H    0.000001  -0.000001  -0.006838  -0.003974   0.000000  -0.000001
    25  O   -0.000001  -0.000000   0.268764   0.005972   0.000000   0.000000
    26  H    0.000000  -0.000000  -0.032516  -0.000138   0.000000  -0.000000
              13         14         15         16         17         18
     1  C   -0.008802   0.002141   0.014624  -0.002294  -0.030459  -0.002908
     2  C    0.016062  -0.017869  -0.014278   0.001423  -0.008324  -0.006825
     3  C   -0.000064  -0.000225  -0.075909   0.013185   0.242760  -0.035805
     4  C   -0.044471  -0.010725  -0.002441   0.000092   0.002044   0.000091
     5  H    0.000668  -0.000764   0.011656  -0.000375   0.001069   0.000818
     6  H    0.000251   0.000376   0.007973  -0.000603   0.003456   0.000055
     7  C   -0.000026   0.000037   0.282983  -0.027118  -0.025611  -0.003398
     8  H    0.000005   0.000002   0.008190  -0.000600  -0.032511   0.007228
     9  C    0.408647   0.429102   0.000032  -0.000004  -0.000662   0.000235
    10  H    0.009449  -0.005657   0.000193  -0.000003   0.000016  -0.000047
    11  H    0.000000   0.000001  -0.038498  -0.007801   0.005258   0.000294
    12  H   -0.000014  -0.000005  -0.052337  -0.007109   0.001724   0.004121
    13  H    0.597417  -0.030207  -0.000001  -0.000000   0.000026   0.000032
    14  H   -0.030207   0.579843   0.000004  -0.000000   0.000006  -0.000015
    15  O   -0.000001   0.000004   7.879922   0.318206   0.002347   0.000067
    16  H   -0.000000  -0.000000   0.318206   0.533978  -0.000324  -0.000045
    17  O    0.000026   0.000006   0.002347  -0.000324   7.921422   0.331091
    18  H    0.000032  -0.000015   0.000067  -0.000045   0.331091   0.453078
    19  O    0.002560   0.002423  -0.000085   0.000005  -0.016088   0.001145
    20  H   -0.000029  -0.000872  -0.000120   0.000010   0.036144  -0.002911
    21  O    0.015040   0.001154   0.000510  -0.000014  -0.021525   0.038572
    22  H    0.000366   0.000211   0.000031  -0.000003   0.000962  -0.001878
    23  O    0.000583   0.004718   0.000009  -0.000000  -0.000005  -0.000026
    24  H   -0.001586   0.001692   0.000000   0.000000  -0.000000   0.000007
    25  O   -0.049906  -0.045218   0.000000  -0.000000  -0.000000   0.000003
    26  H   -0.004077  -0.006008   0.000000  -0.000000   0.000000   0.000000
              19         20         21         22         23         24
     1  C    0.272995  -0.050004  -0.024740   0.005296   0.004360  -0.000890
     2  C   -0.052164   0.002276   0.201636  -0.043129  -0.071334   0.007723
     3  C   -0.031779  -0.012154  -0.008615   0.000054  -0.000205   0.000001
     4  C   -0.015618  -0.000453  -0.011726   0.000164   0.272923  -0.039900
     5  H    0.003523   0.000332  -0.036733  -0.005027   0.003025  -0.000246
     6  H   -0.021632   0.006439   0.002616  -0.000261   0.000109   0.000003
     7  C    0.006931   0.001537  -0.006153   0.000260  -0.000060   0.000001
     8  H    0.004311  -0.003141  -0.000666   0.000072   0.000002  -0.000001
     9  C    0.010669   0.000333  -0.019455  -0.002828  -0.035504  -0.006838
    10  H    0.000150  -0.000075   0.003502   0.002040  -0.037199  -0.003974
    11  H   -0.000255  -0.000150   0.000212  -0.000002   0.000000   0.000000
    12  H    0.000068  -0.000060   0.005473   0.000079  -0.000019  -0.000001
    13  H    0.002560  -0.000029   0.015040   0.000366   0.000583  -0.001586
    14  H    0.002423  -0.000872   0.001154   0.000211   0.004718   0.001692
    15  O   -0.000085  -0.000120   0.000510   0.000031   0.000009   0.000000
    16  H    0.000005   0.000010  -0.000014  -0.000003  -0.000000   0.000000
    17  O   -0.016088   0.036144  -0.021525   0.000962  -0.000005  -0.000000
    18  H    0.001145  -0.002911   0.038572  -0.001878  -0.000026   0.000007
    19  O    7.894592   0.329056  -0.000551  -0.000501   0.000123   0.000049
    20  H    0.329056   0.490955   0.002974  -0.000173   0.000032   0.000001
    21  O   -0.000551   0.002974   7.947497   0.319285  -0.013707   0.000285
    22  H   -0.000501  -0.000173   0.319285   0.493119   0.032871  -0.001697
    23  O    0.000123   0.000032  -0.013707   0.032871   7.922426   0.332721
    24  H    0.000049   0.000001   0.000285  -0.001697   0.332721   0.471723
    25  O    0.000716  -0.000016   0.000106  -0.000061  -0.013907   0.028531
    26  H    0.000075  -0.000003   0.000063  -0.000011   0.000221  -0.001719
              25         26
     1  C   -0.000097   0.000060
     2  C    0.007725  -0.001817
     3  C   -0.000019  -0.000007
     4  C   -0.075518   0.011713
     5  H   -0.000074   0.000038
     6  H   -0.000024   0.000003
     7  C   -0.000001   0.000000
     8  H   -0.000000  -0.000000
     9  C    0.268764  -0.032516
    10  H    0.005972  -0.000138
    11  H    0.000000   0.000000
    12  H    0.000000  -0.000000
    13  H   -0.049906  -0.004077
    14  H   -0.045218  -0.006008
    15  O    0.000000   0.000000
    16  H   -0.000000  -0.000000
    17  O   -0.000000   0.000000
    18  H    0.000003   0.000000
    19  O    0.000716   0.000075
    20  H   -0.000016  -0.000003
    21  O    0.000106   0.000063
    22  H   -0.000061  -0.000011
    23  O   -0.013907   0.000221
    24  H    0.028531  -0.001719
    25  O    7.909352   0.327722
    26  H    0.327722   0.523132
 Mulliken charges:
               1
     1  C    0.170272
     2  C    0.051733
     3  C    0.150947
     4  C    0.105542
     5  H    0.107621
     6  H    0.097918
     7  C   -0.080817
     8  H    0.085467
     9  C   -0.021810
    10  H    0.077491
    11  H    0.101110
    12  H    0.083824
    13  H    0.088075
    14  H    0.095855
    15  O   -0.343076
    16  H    0.179396
    17  O   -0.412817
    18  H    0.217019
    19  O   -0.390717
    20  H    0.200072
    21  O   -0.395041
    22  H    0.200758
    23  O   -0.402158
    24  H    0.214116
    25  O   -0.364050
    26  H    0.183269
 Sum of Mulliken charges =  -0.00000
 Mulliken charges with hydrogens summed into heavy atoms:
               1
     1  C    0.268190
     2  C    0.159354
     3  C    0.236414
     4  C    0.183033
     7  C    0.104117
     9  C    0.162121
    15  O   -0.163680
    17  O   -0.195797
    19  O   -0.190644
    21  O   -0.194283
    23  O   -0.188042
    25  O   -0.180782
 Electronic spatial extent (au):  <R**2>=           2522.0917
 Charge=             -0.0000 electrons
 Dipole moment (field-independent basis, Debye):
    X=              0.4423    Y=             -1.0517    Z=             -0.0028  Tot=              1.1409
 Quadrupole moment (field-independent basis, Debye-Ang):
   XX=            -61.8059   YY=            -71.8975   ZZ=            -74.4376
   XY=             12.9961   XZ=              0.0632   YZ=             -0.7643
 Traceless Quadrupole moment (field-independent basis, Debye-Ang):
   XX=              7.5745   YY=             -2.5172   ZZ=             -5.0573
   XY=             12.9961   XZ=              0.0632   YZ=             -0.7643
 Octapole moment (field-independent basis, Debye-Ang**2):
  XXX=             10.5752  YYY=             -7.4911  ZZZ=             11.2266  XYY=             -1.6789
  XXY=             -3.9539  XXZ=             -7.3302  XZZ=             11.0463  YZZ=             -1.4970
  YYZ=             -0.8911  XYZ=              2.8234
 Hexadecapole moment (field-independent basis, Debye-Ang**3):
 XXXX=          -1836.0920 YYYY=           -509.5792 ZZZZ=           -344.6541 XXXY=            205.0946
 XXXZ=             12.8540 YYYX=             71.7365 YYYZ=             21.8848 ZZZX=              3.3890
 ZZZY=             -1.7021 XXYY=           -354.1064 XXZZ=           -437.1475 YYZZ=           -159.0084
 XXYZ=            -34.2941 YYXZ=              8.9156 ZZXY=              5.4585
 N-N= 8.298833335494D+02 E-N=-3.277292456400D+03  KE= 6.850334534848D+02
   1 Symmetry operations used in ECPInt.
 ECPInt:  NShTT=   23436 NPrTT=   62434 LenC2=   21806 LenP2D=   45311.
 LDataN:  DoStor=T MaxTD1= 7 Len=  274
 Calling FoFJK, ICntrl=      2127 FMM=F ISym2X=0 I1Cent= 0 IOpClX= 0 NMat=1 NMatS=1 NMatT=0.
 ***** Axes restored to original set *****
 -------------------------------------------------------------------
 Center     Atomic                   Forces (Hartrees/Bohr)
 Number     Number              X              Y              Z
 -------------------------------------------------------------------
      1        6           0.000308214   -0.018912838   -0.008212448
      2        6           0.007178103   -0.000592484   -0.005712140
      3        6           0.006837913   -0.001258471   -0.005097183
      4        6           0.013581080   -0.005952737    0.001687701
      5        1          -0.003798855    0.000451243    0.006763637
      6        1           0.002611813   -0.000697696   -0.003868930
      7        6           0.000761414    0.007746619   -0.001727893
      8        1           0.004432689   -0.000961719    0.000467346
      9        6          -0.001836205   -0.006114557    0.006455449
     10        1          -0.005838193   -0.000189861   -0.002189393
     11        1          -0.000387366   -0.005581984   -0.001698889
     12        1           0.000989071   -0.006240796   -0.001405362
     13        1          -0.004770693    0.005998804   -0.002627061
     14        1           0.000222143    0.004212452   -0.006507958
     15        8           0.001881691    0.012365921   -0.002766823
     16        1          -0.004251922   -0.017273256    0.006483535
     17        8           0.009474094    0.005013723    0.013107145
     18        1          -0.015547763    0.004937397   -0.002392736
     19        8           0.001560575    0.010818962   -0.013957988
     20        1          -0.000482844    0.004466417    0.016890563
     21        8           0.015138622   -0.001593332    0.016381442
     22        1          -0.018447745    0.000831250   -0.006452430
     23        8          -0.008413841   -0.009987425    0.011564374
     24        1          -0.004107242    0.011500114   -0.015689000
     25        8          -0.005785472   -0.011058735    0.001425587
     26        1           0.008690718    0.018072989   -0.000920545
 -------------------------------------------------------------------
 Cartesian Forces:  Max     0.018912838 RMS     0.008118531

 GradGradGradGradGradGradGradGradGradGradGradGradGradGradGradGradGradGrad
 Berny optimization.
 FormGI is forming the generalized inverse of G from B-inverse, IUseBI=4.
 Internal  Forces:  Max     0.019734142 RMS     0.005992555
 Search for a local minimum.
 Step number   1 out of a maximum of  140
 All quantities printed in internal units (Hartrees-Bohrs-Radians)
 Mixed Optimization -- RFO/linear search
 Second derivative matrix not updated -- first step.
 ITU=  0
     Eigenvalues ---    0.00230   0.00230   0.00257   0.00351   0.00368
     Eigenvalues ---    0.01052   0.01091   0.01161   0.01173   0.01208
     Eigenvalues ---    0.01420   0.03718   0.03718   0.03890   0.04038
     Eigenvalues ---    0.04586   0.04671   0.04800   0.04834   0.04913
     Eigenvalues ---    0.05348   0.05495   0.05763   0.07500   0.07642
     Eigenvalues ---    0.07762   0.08002   0.11354   0.11575   0.13579
     Eigenvalues ---    0.13894   0.16000   0.16000   0.16000   0.16000
     Eigenvalues ---    0.16000   0.16000   0.16679   0.17233   0.17403
     Eigenvalues ---    0.17593   0.19301   0.19547   0.19994   0.20001
     Eigenvalues ---    0.21977   0.22038   0.27829   0.28466   0.28652
     Eigenvalues ---    0.29299   0.29419   0.34053   0.34103   0.34121
     Eigenvalues ---    0.34140   0.34198   0.34226   0.34344   0.34544
     Eigenvalues ---    0.38463   0.38853   0.39566   0.39689   0.40064
     Eigenvalues ---    0.42381   0.50528   0.50787   0.51012   0.51352
     Eigenvalues ---    0.52470   0.52558
 RFO step:  Lambda=-1.75469401D-02 EMin= 2.30000000D-03
 Linear search not attempted -- first point.
 Iteration  1 RMS(Cart)=  0.09670492 RMS(Int)=  0.00289430
 Iteration  2 RMS(Cart)=  0.00448009 RMS(Int)=  0.00055722
 Iteration  3 RMS(Cart)=  0.00000691 RMS(Int)=  0.00055719
 Iteration  4 RMS(Cart)=  0.00000000 RMS(Int)=  0.00055719
 Variable       Old X    -DE/DX   Delta X   Delta X   Delta X     New X
                                 (Linear)    (Quad)   (Total)
    R1        2.91131  -0.00819   0.00000  -0.02709  -0.02709   2.88422
    R2        2.92513  -0.00617   0.00000  -0.02085  -0.02085   2.90428
    R3        2.06997  -0.00443   0.00000  -0.01232  -0.01232   2.05764
    R4        2.72147  -0.01480   0.00000  -0.03583  -0.03583   2.68564
    R5        2.90736  -0.01183   0.00000  -0.03890  -0.03890   2.86845
    R6        2.07156  -0.00083   0.00000  -0.00233  -0.00233   2.06923
    R7        2.73143  -0.00928   0.00000  -0.02285  -0.02285   2.70858
    R8        2.89137  -0.00868   0.00000  -0.02783  -0.02783   2.86354
    R9        2.07241  -0.00435   0.00000  -0.01214  -0.01214   2.06026
   R10        2.71979  -0.01531   0.00000  -0.03694  -0.03694   2.68285
   R11        2.89384  -0.01019   0.00000  -0.03283  -0.03283   2.86101
   R12        2.07127  -0.00087   0.00000  -0.00242  -0.00242   2.06885
   R13        2.73697  -0.01165   0.00000  -0.02898  -0.02898   2.70799
   R14        2.07094  -0.00106   0.00000  -0.00295  -0.00295   2.06799
   R15        2.06951   0.00109   0.00000   0.00304   0.00304   2.07255
   R16        2.68441   0.00087   0.00000   0.00196   0.00196   2.68638
   R17        2.06753  -0.00153   0.00000  -0.00424  -0.00424   2.06329
   R18        2.06421  -0.00294   0.00000  -0.00809  -0.00809   2.05612
   R19        2.71467  -0.00048   0.00000  -0.00115  -0.00115   2.71352
   R20        1.84069  -0.01875   0.00000  -0.03453  -0.03453   1.80616
   R21        1.86037  -0.01631   0.00000  -0.03121  -0.03121   1.82916
   R22        1.85225  -0.01747   0.00000  -0.03290  -0.03290   1.81935
   R23        1.85779  -0.01924   0.00000  -0.03661  -0.03661   1.82118
   R24        1.85558  -0.01943   0.00000  -0.03683  -0.03683   1.81875
   R25        1.84152  -0.01973   0.00000  -0.03639  -0.03639   1.80513
    A1        1.97235  -0.00103   0.00000   0.00335   0.00187   1.97422
    A2        1.91032  -0.00248   0.00000  -0.03700  -0.03717   1.87314
    A3        1.91576   0.00518   0.00000   0.04983   0.04935   1.96511
    A4        1.92450  -0.00048   0.00000  -0.02739  -0.02781   1.89669
    A5        1.86502   0.00023   0.00000   0.02284   0.02183   1.88685
    A6        1.87290  -0.00131   0.00000  -0.01008  -0.00925   1.86366
    A7        2.01626   0.00320   0.00000   0.00503   0.00489   2.02114
    A8        1.90879  -0.00204   0.00000  -0.02258  -0.02283   1.88596
    A9        1.91702  -0.00199   0.00000  -0.00630  -0.00625   1.91077
   A10        1.86956  -0.00247   0.00000  -0.02520  -0.02547   1.84409
   A11        1.90592  -0.00096   0.00000  -0.00136  -0.00132   1.90460
   A12        1.83737   0.00444   0.00000   0.05514   0.05532   1.89269
   A13        2.00027  -0.00359   0.00000  -0.01304  -0.01315   1.98712
   A14        1.87831  -0.00146   0.00000  -0.01646  -0.01639   1.86192
   A15        1.91211   0.00590   0.00000   0.03498   0.03508   1.94720
   A16        1.90063   0.00276   0.00000   0.01019   0.01002   1.91065
   A17        1.91480  -0.00185   0.00000  -0.00414  -0.00413   1.91066
   A18        1.85153  -0.00166   0.00000  -0.01208  -0.01193   1.83961
   A19        2.03122   0.00262   0.00000   0.00265   0.00282   2.03405
   A20        1.92301  -0.00027   0.00000  -0.01337  -0.01309   1.90993
   A21        1.85867  -0.00877   0.00000  -0.05159  -0.05142   1.80725
   A22        1.91069  -0.00244   0.00000  -0.00629  -0.00689   1.90381
   A23        1.87038   0.00535   0.00000   0.02788   0.02754   1.89792
   A24        1.86106   0.00376   0.00000   0.04565   0.04515   1.90621
   A25        1.91250  -0.00162   0.00000  -0.02058  -0.02023   1.89227
   A26        1.94281  -0.00315   0.00000  -0.03462  -0.03454   1.90827
   A27        1.93878  -0.01122   0.00000  -0.04896  -0.04906   1.88973
   A28        1.86240   0.00154   0.00000   0.01787   0.01632   1.87872
   A29        1.90186   0.00745   0.00000   0.04788   0.04696   1.94881
   A30        1.90354   0.00781   0.00000   0.04316   0.04164   1.94518
   A31        1.94684  -0.00201   0.00000  -0.03031  -0.02997   1.91687
   A32        1.95375  -0.00045   0.00000  -0.01896  -0.01856   1.93519
   A33        1.88040  -0.01504   0.00000  -0.05820  -0.05784   1.82255
   A34        1.92554  -0.00114   0.00000  -0.01065  -0.01316   1.91238
   A35        1.87230   0.00983   0.00000   0.06279   0.06140   1.93370
   A36        1.88137   0.00937   0.00000   0.06145   0.06039   1.94176
   A37        1.86480   0.00478   0.00000   0.02693   0.02693   1.89173
   A38        1.85323   0.00151   0.00000   0.00850   0.00850   1.86173
   A39        1.83674   0.00042   0.00000   0.00237   0.00237   1.83912
   A40        1.80850   0.00657   0.00000   0.03701   0.03701   1.84550
   A41        1.81028   0.00674   0.00000   0.03796   0.03796   1.84824
   A42        1.85193   0.00666   0.00000   0.03751   0.03751   1.88944
    D1       -3.13229  -0.00326   0.00000  -0.07878  -0.07879   3.07210
    D2        1.04078  -0.00068   0.00000  -0.03199  -0.03212   1.00866
    D3       -0.96748  -0.00375   0.00000  -0.08196  -0.08199  -1.04948
    D4        0.99885  -0.00009   0.00000  -0.01833  -0.01858   0.98028
    D5       -1.11126   0.00249   0.00000   0.02846   0.02810  -1.08316
    D6       -3.11952  -0.00058   0.00000  -0.02150  -0.02178  -3.14130
    D7       -1.05243  -0.00007   0.00000  -0.01348  -0.01308  -1.06551
    D8        3.12064   0.00251   0.00000   0.03331   0.03360  -3.12895
    D9        1.11238  -0.00056   0.00000  -0.01666  -0.01628   1.09610
   D10       -0.98603   0.00402   0.00000   0.06188   0.06187  -0.92416
   D11       -3.10276   0.00389   0.00000   0.06933   0.06915  -3.03362
   D12        1.17474   0.00358   0.00000   0.07443   0.07439   1.24913
   D13        1.15815  -0.00030   0.00000  -0.00420  -0.00403   1.15412
   D14       -0.95859  -0.00043   0.00000   0.00325   0.00326  -0.95533
   D15       -2.96427  -0.00073   0.00000   0.00835   0.00850  -2.95577
   D16       -3.09498  -0.00197   0.00000  -0.01759  -0.01755  -3.11253
   D17        1.07147  -0.00210   0.00000  -0.01013  -0.01027   1.06121
   D18       -0.93421  -0.00240   0.00000  -0.00503  -0.00502  -0.93924
   D19       -1.47637  -0.00124   0.00000  -0.03355  -0.03413  -1.51050
   D20        0.66825   0.00073   0.00000   0.01433   0.01500   0.68325
   D21        2.73234  -0.00037   0.00000  -0.01096  -0.01105   2.72128
   D22        1.02261  -0.00071   0.00000   0.00725   0.00710   1.02971
   D23       -1.16542   0.00078   0.00000   0.02539   0.02551  -1.13991
   D24        3.10598   0.00128   0.00000   0.00652   0.00640   3.11238
   D25       -3.12937  -0.00310   0.00000  -0.03765  -0.03767   3.11615
   D26        0.96579  -0.00161   0.00000  -0.01951  -0.01926   0.94653
   D27       -1.04600  -0.00111   0.00000  -0.03838  -0.03837  -1.08436
   D28       -1.14800   0.00033   0.00000   0.01302   0.01288  -1.13511
   D29        2.94716   0.00183   0.00000   0.03116   0.03129   2.97845
   D30        0.93537   0.00233   0.00000   0.01229   0.01219   0.94756
   D31       -2.94841  -0.00081   0.00000   0.00559   0.00562  -2.94279
   D32       -0.72071   0.00117   0.00000   0.00654   0.00647  -0.71424
   D33        1.28155   0.00013   0.00000   0.00488   0.00492   1.28647
   D34       -2.96057   0.00104   0.00000  -0.00179  -0.00187  -2.96244
   D35        1.26672   0.00207   0.00000   0.01014   0.01042   1.27713
   D36       -0.85822   0.00210   0.00000   0.01316   0.01300  -0.84522
   D37       -0.85613  -0.00120   0.00000  -0.02420  -0.02433  -0.88045
   D38       -2.91203  -0.00017   0.00000  -0.01228  -0.01205  -2.92407
   D39        1.24622  -0.00014   0.00000  -0.00926  -0.00946   1.23676
   D40        1.16328  -0.00266   0.00000  -0.03522  -0.03530   1.12799
   D41       -0.89262  -0.00163   0.00000  -0.02329  -0.02301  -0.91563
   D42       -3.01756  -0.00160   0.00000  -0.02028  -0.02042  -3.03798
   D43       -0.84364  -0.00066   0.00000  -0.05023  -0.05032  -0.89396
   D44        1.36646  -0.00237   0.00000  -0.04497  -0.04489   1.32157
   D45       -2.86640  -0.00098   0.00000  -0.04176  -0.04175  -2.90815
   D46        0.89851  -0.00348   0.00000  -0.03597  -0.03611   0.86241
   D47       -1.26868  -0.00012   0.00000   0.01514   0.01501  -1.25367
   D48        2.94900  -0.00186   0.00000  -0.01242  -0.01241   2.93659
   D49        3.09276  -0.00389   0.00000  -0.05761  -0.05761   3.03515
   D50        0.92557  -0.00053   0.00000  -0.00650  -0.00649   0.91908
   D51       -1.13994  -0.00227   0.00000  -0.03406  -0.03391  -1.17385
   D52       -1.17852   0.00216   0.00000   0.00786   0.00783  -1.17069
   D53        2.93747   0.00552   0.00000   0.05897   0.05895   2.99642
   D54        0.87197   0.00378   0.00000   0.03140   0.03153   0.90350
   D55       -2.93529  -0.00002   0.00000   0.04278   0.04249  -2.89280
   D56       -0.75010   0.00107   0.00000   0.03186   0.03114  -0.71896
   D57        1.29467   0.00276   0.00000   0.06119   0.06220   1.35687
   D58       -3.02146  -0.00061   0.00000  -0.00694  -0.00697  -3.02843
   D59       -0.91283  -0.00482   0.00000  -0.03207  -0.03369  -0.94652
   D60        1.11404   0.00545   0.00000   0.03961   0.04126   1.15530
   D61        3.08575   0.00088   0.00000   0.01774   0.01783   3.10359
   D62       -1.09926  -0.00429   0.00000  -0.01530  -0.01762  -1.11688
   D63        0.97430   0.00463   0.00000   0.03855   0.04078   1.01508
         Item               Value     Threshold  Converged?
 Maximum Force            0.019734     0.000450     NO 
 RMS     Force            0.005993     0.000300     NO 
 Maximum Displacement     0.400649     0.001800     NO 
 RMS     Displacement     0.096712     0.001200     NO 
 Predicted change in Energy=-9.960310D-03
 GradGradGradGradGradGradGradGradGradGradGradGradGradGradGradGradGradGrad

                          Input orientation:                          
 ---------------------------------------------------------------------
 Center     Atomic      Atomic             Coordinates (Angstroms)
 Number     Number       Type             X           Y           Z
 ---------------------------------------------------------------------
      1          6           0       -0.006318   -0.055026   -0.059298
      2          6           0        1.519348   -0.036163   -0.021044
      3          6           0       -0.589533    0.718385   -1.252485
      4          6           0        2.158337   -0.702033    1.184108
      5          1           0        1.845170    1.008729    0.011280
      6          1           0       -0.359459    0.406528    0.861500
      7          6           0       -0.076512    2.139236   -1.371578
      8          1           0       -1.671297    0.732690   -1.117523
      9          6           0        1.837377   -2.166140    1.397451
     10          1           0        1.898951   -0.143233    2.089107
     11          1           0       -0.675566    2.661222   -2.124061
     12          1           0        0.961192    2.122113   -1.726159
     13          1           0        1.989184   -2.717893    0.467581
     14          1           0        0.810172   -2.293029    1.733013
     15          8           0       -0.179995    2.758860   -0.096347
     16          1           0        0.046605    3.682581   -0.190686
     17          8           0       -0.371253    0.032273   -2.476069
     18          1           0        0.572469   -0.180123   -2.510771
     19          8           0       -0.535523   -1.373722   -0.086424
     20          1           0       -0.555560   -1.621623   -1.016504
     21          8           0        2.034886   -0.635118   -1.216816
     22          1           0        2.977349   -0.761838   -1.060373
     23          8           0        3.563323   -0.570225    0.934807
     24          1           0        3.997527   -1.170347    1.549314
     25          8           0        2.769814   -2.594039    2.402120
     26          1           0        2.591714   -3.510362    2.604857
 ---------------------------------------------------------------------
                    Distance matrix (angstroms):
                    1          2          3          4          5
     1  C    0.000000
     2  C    1.526262   0.000000
     3  C    1.536880   2.556007   0.000000
     4  C    2.578839   1.517920   3.937685   0.000000
     5  H    2.136484   1.094991   2.758474   2.097690   0.000000
     6  H    1.088858   2.122446   2.149214   2.769889   2.438423
     7  C    2.557693   3.017130   1.515319   4.427064   2.623586
     8  H    2.124263   3.460292   1.090245   4.692764   3.703503
     9  C    3.158818   2.578773   4.607877   1.513982   3.464293
    10  H    2.872886   2.146695   4.254547   1.094789   2.376399
    11  H    3.476944   4.064015   2.131118   5.503315   3.693849
    12  H    2.907651   2.806619   2.144660   4.228310   2.244935
    13  H    3.369049   2.766076   4.627787   2.146093   3.757215
    14  H    2.981223   2.945011   4.465532   2.156412   3.864866
    15  O    2.819484   3.271940   2.380738   4.368654   2.678774
    16  H    3.740291   4.003350   3.212250   5.057105   3.228794
    17  O    2.445727   3.099388   1.419702   4.509426   3.471729
    18  H    2.521975   2.667591   1.934127   4.054565   3.064943
    19  O    1.421180   2.452720   2.395730   3.053245   3.369468
    20  H    1.916281   2.794614   2.352122   3.612973   3.706561
    21  O    2.417202   1.433317   2.953103   2.405027   2.060691
    22  H    3.225523   1.931987   3.866602   2.389989   2.359063
    23  O    3.741124   2.318772   4.867337   1.433006   2.509591
    24  H    4.456719   3.145436   5.697237   1.932696   3.427326
    25  O    4.495784   3.738732   5.967705   2.331768   4.421653
    26  H    5.078074   4.485017   6.548413   3.176957   5.263663
                    6          7          8          9         10
     6  H    0.000000
     7  C    2.840594   0.000000
     8  H    2.396629   2.141554   0.000000
     9  C    3.425194   5.465049   5.199914   0.000000
    10  H    2.628626   4.592218   4.878154   2.138770   0.000000
    11  H    3.754616   1.094333   2.392454   6.482233   5.678370
    12  H    3.373919   1.096745   3.038245   5.377151   4.535134
    13  H    3.928525   5.589393   5.274296   1.091849   3.044070
    14  H    3.068416   5.483581   4.841303   1.088050   2.435953
    15  O    2.546201   1.421569   2.715170   5.527825   4.185733
    16  H    3.464752   1.947199   3.537241   6.319540   4.823432
    17  O    3.358507   2.397095   2.006576   4.971440   5.101516
    18  H    3.547514   2.664275   2.794433   4.562724   4.787462
    19  O    2.024561   3.768711   2.605785   2.908688   3.489084
    20  H    2.771056   3.807837   2.607271   3.442357   4.225527
    21  O    3.337261   3.489841   3.951778   3.036022   3.345080
    22  H    4.024048   4.223641   4.883317   3.051638   3.385977
    23  O    4.043221   5.090087   5.771559   2.395803   2.069992
    24  H    4.684331   6.006891   6.547453   2.383468   2.397992
    25  O    4.601007   6.689264   6.571033   1.435931   2.619700
    26  H    5.204877   7.406040   7.073391   1.958006   3.476130
                   11         12         13         14         15
    11  H    0.000000
    12  H    1.768599   0.000000
    13  H    6.538530   5.412478   0.000000
    14  H    6.452056   5.610895   1.780982   0.000000
    15  O    2.089676   2.089029   5.917615   5.463384   0.000000
    16  H    2.302748   2.372596   6.721086   6.323888   0.955777
    17  O    2.669811   2.589441   4.669063   4.951682   3.624077
    18  H    3.127359   2.463130   4.161483   4.746638   3.877275
    19  O    4.522427   4.141225   2.913394   2.442616   4.147858
    20  H    4.425363   4.101183   3.143253   3.142587   4.491811
    21  O    4.362969   3.002427   2.679036   3.598622   4.204787
    22  H    5.117867   3.581247   2.671566   3.852817   4.826331
    23  O    6.145494   4.593529   2.703459   3.344402   5.114539
    24  H    7.071944   5.548724   2.756535   3.384287   5.966452
    25  O    7.744335   6.523487   2.089776   2.092489   6.602820
    26  H    8.433637   7.289792   2.357752   2.327210   7.367633
                   16         17         18         19         20
    16  H    0.000000
    17  O    4.326932   0.000000
    18  H    4.536498   0.967950   0.000000
    19  O    5.090771   2.777446   2.920579   0.000000
    20  H    5.401774   2.213519   2.362880   0.962759   0.000000
    21  O    4.862996   2.796540   2.004994   2.903502   2.779159
    22  H    5.394300   3.721282   2.868012   3.696383   3.636289
    23  O    5.632087   5.241943   4.579235   4.299890   4.677418
    24  H    6.495252   6.061043   5.403319   4.823437   5.245729
    25  O    7.316725   6.368716   5.898458   4.313616   4.867309
    26  H    8.125950   6.866239   6.429424   4.646271   5.156251
                   21         22         23         24         25
    21  O    0.000000
    22  H    0.963726   0.000000
    23  O    2.640040   2.088259   0.000000
    24  H    3.433643   2.831626   0.962443   0.000000
    25  O    4.180214   3.922867   2.622686   2.064330   0.000000
    26  H    4.814797   4.597500   3.518166   2.926800   0.955233
                   26
    26  H    0.000000
 Stoichiometry    C6H14O6
 Framework group  C1[X(C6H14O6)]
 Deg. of freedom    72
 Full point group                 C1      NOp   1
 Largest Abelian subgroup         C1      NOp   1
 Largest concise Abelian subgroup C1      NOp   1
                         Standard orientation:                         
 ---------------------------------------------------------------------
 Center     Atomic      Atomic             Coordinates (Angstroms)
 Number     Number       Type             X           Y           Z
 ---------------------------------------------------------------------
      1          6           0       -0.690634    0.446549   -0.664309
      2          6           0        0.174503   -0.415707    0.250857
      3          6           0       -2.147966    0.556876   -0.188904
      4          6           0        1.602261   -0.643394   -0.211469
      5          1           0       -0.279534   -1.410435    0.308916
      6          1           0       -0.679633   -0.015109   -1.650393
      7          6           0       -2.814327   -0.781117    0.059953
      8          1           0       -2.691015    1.094267   -0.966685
      9          6           0        2.454502    0.592200   -0.409293
     10          1           0        1.596429   -1.226249   -1.138189
     11          1           0       -3.884618   -0.611335    0.212326
     12          1           0       -2.413080   -1.220889    0.981067
     13          1           0        2.382086    1.236595    0.469140
     14          1           0        2.139047    1.143466   -1.292721
     15          8           0       -2.570416   -1.616472   -1.064123
     16          1           0       -3.072792   -2.422294   -0.955585
     17          8           0       -2.257863    1.363886    0.973942
     18          1           0       -1.613977    1.022283    1.610845
     19          8           0       -0.176455    1.762103   -0.821432
     20          1           0       -0.535723    2.266312   -0.084136
     21          8           0        0.191902    0.152308    1.566704
     22          1           0        0.884855   -0.316757    2.044786
     23          8           0        2.173335   -1.433299    0.838975
     24          1           0        3.125380   -1.407758    0.700215
     25          8           0        3.789434    0.085433   -0.561083
     26          1           0        4.373051    0.823792   -0.724446
 ---------------------------------------------------------------------
 Rotational constants (GHZ):           1.5362603           0.5248385           0.4855040
 Standard basis: def2TZVPP (5D, 7F)
 There are   642 symmetry adapted cartesian basis functions of A   symmetry.
 There are   568 symmetry adapted basis functions of A   symmetry.
   568 basis functions,   850 primitive gaussians,   642 cartesian basis functions
    49 alpha electrons       49 beta electrons
       nuclear repulsion energy       837.6342968626 Hartrees.
 NAtoms=   26 NActive=   26 NUniq=   26 SFac= 1.00D+00 NAtFMM=   60 NAOKFM=F Big=F
 Integral buffers will be    131072 words long.
 Raffenetti 2 integral format.
 Two-electron integral symmetry is turned on.
 Nuclear repulsion after empirical dispersion term =      837.6156078477 Hartrees.
 One-electron integrals computed using PRISM.
   1 Symmetry operations used in ECPInt.
 ECPInt:  NShTT=   23436 NPrTT=   62434 LenC2=   21888 LenP2D=   45562.
 LDataN:  DoStor=T MaxTD1= 6 Len=  172
[...]
 ,-0.00163235,0.00200633,-0.00271717,0.00126852,0.00004998,-0.01088136,
 -0.02594477,-0.00149759,0.00439422,0.00047010,0.00720231,-0.00034282,0
 .00130597,-0.00181459,-0.00148135,-0.00146374,0.00024799,0.00013468,0.
 00033636,0.00024933,-0.00084794,-0.00286334,0.00033938,-0.00038554,-0.
 00010607,0.00003092,-0.00109049,0.00049956,0.00083001,0.00212111,-0.00
 074366,-0.00058810,0.00014631,0.00004973,-0.00049772,-0.00002067,0.000
 37677,0.00041705,-0.00022777,0.00531017,-0.00237495,-0.00040501,-0.001
 44176,0.00063613,0.11278978,0.36695085,-0.00654121,-0.02684776,-0.0971
 2884,0.00110521,-0.00406697,0.00115768,0.01027346,0.02774708,-0.005706
 45,0.00166988,-0.00009715,-0.00037281,-0.00112730,0.00023299,0.0009924
 1,-0.01471263,-0.03124918,0.00432584,-0.00315845,0.00009614,-0.0059180
 1,0.00092759,-0.00049712,0.00108299,0.00120138,0.00137279,-0.00316120,
 0.00005363,0.00002283,0.00018787,0.00068657,0.00149061,0.00001650,0.00
 019351,0.00006619,0.00003794,-0.00027791,0.00027988,0.00026815,-0.0040
 2479,0.00042134,-0.00073804,0.00003472,-0.00013931,0.00186303,-0.00005
 598,-0.00016516,0.00026142,0.00243043,0.01041902,-0.00207501,-0.001633
 83,0.00009452,-0.00012442,0.02075649,0.11841457,0.58272040,-0.00206858
 ,-0.00761234,-0.01579079,-0.00046145,-0.00381068,-0.00307855,0.0025035
 7,-0.00018688,-0.00014187,0.00001188,-0.00018815,-0.00001127,-0.000508
 30,0.00028407,0.00048462,-0.00011656,0.00051133,0.00073744,-0.00012890
 ,0.00012333,0.00038109,-0.00056074,0.00063740,0.00005820,0.00013701,-0
 .00005982,-0.00123773,0.00003473,0.00007676,0.00014571,-0.00003504,-0.
 00005301,-0.00000090,-0.00012661,-0.00022616,0.00002544,-0.00039476,0.
 00036814,0.00013026,-0.00034915,-0.00001635,-0.00002598,-0.00013025,0.
 00008281,-0.00013435,0.00005637,0.00001391,-0.00000172,-0.00310916,0.0
 0191327,-0.00034322,-0.00023282,-0.00244523,0.00183460,-0.01147764,-0.
 01745301,-0.00399994,0.01653597,-0.00331531,-0.02170631,-0.04269751,-0
 .00033488,-0.00066500,-0.00065775,0.00071826,-0.00430673,-0.00372451,-
 0.00004143,0.00002017,-0.00025976,-0.00014186,0.00011111,0.00008240,-0
 .00331241,-0.00633687,0.00062895,-0.00036640,-0.00052975,-0.00132172,0
 .00027792,-0.00029662,0.00038894,-0.00026518,0.00008350,0.00078210,-0.
 00002214,-0.00009997,0.00004289,0.00011764,0.00027837,0.00002879,0.000
 08889,0.00015280,-0.00000925,0.00042944,-0.00007283,-0.00019741,0.0000
 4469,0.00032385,-0.00006441,0.00005267,0.00042168,0.00083070,-0.000018
 01,-0.00008287,0.00009922,0.00105141,0.00526618,-0.00270623,-0.0017836
 3,-0.00019259,0.00103695,-0.02011609,-0.07228496,-0.09994161,0.0262283
 6,0.10047507,-0.00039273,-0.00441321,0.00013749,-0.00002749,0.00126911
 ,0.00049773,-0.00038005,0.00646675,0.00389433,-0.00044947,-0.00012526,
 -0.00032481,0.00083537,0.00015209,-0.00009600,-0.00090384,0.00130406,0
 .00089683,0.00010280,0.00007787,-0.00126382,0.00025983,-0.00039228,-0.
 00011897,-0.00016844,0.00013637,-0.00064788,0.00000446,0.00007873,-0.0
 0000467,0.00008128,0.00052877,0.00002319,0.00010955,0.00006327,-0.0000
 0139,-0.00026277,0.00010803,0.00019248,-0.00013911,-0.00007733,-0.0002
 4107,-0.00019822,-0.00087653,-0.00053909,0.00004330,-0.00009029,-0.000
 15917,-0.00082643,-0.00589953,0.00119748,0.00255162,0.00129931,-0.0006
 0717,-0.02047908,-0.14652114,-0.48119586,0.01957925,0.14665479,0.47924
 343,-0.01792055,0.02160978,0.04362175,-0.10798968,0.02736718,0.0499533
 3,0.00379665,-0.00257413,-0.00135498,-0.00148720,-0.00368552,-0.002510
 75,0.00508647,0.00356426,-0.00126551,-0.00876890,-0.00063153,-0.000523
 55,-0.00076636,-0.00033178,0.00051137,0.00031122,-0.00006920,0.0003766
 6,0.00042272,0.00126414,0.00072244,0.00025289,0.00100985,-0.00188048,0
 .00007326,0.00012760,-0.00014715,0.00014483,0.00017730,0.00003983,-0.0
 0025189,-0.00040586,-0.00033157,0.00013519,0.00027569,-0.00057899,0.00
 013186,0.00093830,0.00003389,-0.00008810,-0.00003111,-0.00010151,-0.00
 987713,0.00322594,-0.00714826,-0.00458686,0.00136934,0.00286242,0.0024
 9122,0.00008423,-0.00091567,0.00052846,0.00019235,0.00010407,0.6399039
 1,0.00136516,-0.00331343,-0.00563762,0.01514835,-0.09657609,-0.0596275
 5,-0.00105390,-0.00031277,-0.00063649,-0.00192827,0.00736127,0.0055743
 6,0.01685262,-0.01110973,-0.03788613,0.00041948,0.00091474,0.00038887,
 -0.00168322,-0.00048899,-0.00029774,0.00006622,0.00008073,0.00000917,-
 0.00214528,-0.00166030,-0.00234509,0.00122702,0.00011772,0.00295730,0.
 00045766,-0.00001954,0.00008083,0.00052073,0.00018471,-0.00048007,-0.0
 0010752,0.00180678,0.00173177,-0.00013085,0.00013197,0.00093911,0.0015
 1674,-0.00079959,0.00009977,-0.00018102,0.00031161,0.00006357,0.001382
 47,0.00248365,0.00191133,0.00194612,-0.00273892,-0.00037400,-0.0002997
 4,0.00440728,0.00204973,0.00130666,-0.00044609,0.00025941,-0.09122977,
 0.11176813,0.00615872,-0.00445163,-0.00634495,0.00426628,-0.05206099,-
 0.17830954,0.00029328,-0.00061301,-0.00484961,0.01640464,-0.01847577,-
 0.04876401,0.00774922,-0.01418026,-0.01713398,-0.00033525,0.00040698,0
 .00118871,0.00104188,-0.00045407,-0.00164620,0.00001233,0.00003291,0.0
 0087481,0.00059364,-0.00357887,0.00129538,-0.00479648,0.00436515,-0.00
 585334,-0.00016126,-0.00025688,0.00026595,-0.00073199,-0.00025059,-0.0
 0016322,-0.00010583,0.00126244,-0.00060776,-0.00019736,0.00001014,-0.0
 0052971,0.00040531,0.00057335,0.00209729,-0.00010110,0.00001425,-0.000
 02714,-0.00662141,0.00239819,0.00330128,0.00238896,0.00028271,-0.00180
 727,0.00031415,0.00106849,0.00288617,0.00065976,0.00068286,-0.00113573
 ,0.01907885,0.09075099,0.30672003,0.00013034,0.00205285,0.00271835,-0.
 01906660,0.00269234,0.00397961,-0.00014610,0.00001939,0.00008366,0.002
 83422,-0.00022490,-0.00135389,0.00075980,-0.00069462,-0.00138404,-0.00
 053333,-0.00012743,-0.00040954,-0.00022165,0.00008297,0.00008996,0.000
 08425,-0.00002263,0.00000911,-0.00005979,-0.00063942,0.00073887,-0.001
 28153,0.00015340,-0.00035159,0.00011001,-0.00003635,0.00000026,0.00004
 517,0.00021612,-0.00008940,-0.00002590,-0.00048556,0.00017626,-0.00003
 434,-0.00017738,-0.00011837,0.00019317,-0.00026652,-0.00013683,-0.0000
 0060,0.00006458,0.00001566,0.00133109,-0.00017420,-0.00016792,-0.00173
 733,0.00003943,-0.00050206,0.00098776,0.00022673,-0.00023588,-0.000148
 39,-0.00000782,-0.00008427,-0.50429469,0.05608431,-0.04653978,0.523911
 91,-0.00023506,-0.00168263,-0.00221523,0.01917750,-0.00230351,-0.00182
 210,-0.00037550,0.00015447,-0.00006279,-0.00064800,0.00231220,0.000537
 57,0.00099460,-0.00047927,0.00001645,0.00056557,0.00032324,0.00006490,
 0.00039164,-0.00004102,-0.00020698,-0.00005321,-0.00003245,0.00000016,
 0.00017464,0.00040544,0.00133472,0.00005151,-0.00023792,-0.00019918,-0
 .00010493,-0.00001305,0.00002319,-0.00003369,-0.00005816,0.00008402,-0
 .00037667,-0.00085242,-0.00013863,0.00004466,-0.00014724,-0.00045878,-
 0.00023493,0.00007818,0.00013035,0.00009934,-0.00006796,-0.00001646,0.
 00008087,0.00043857,0.00008412,0.00015000,-0.00073657,0.00003780,-0.00
 024697,0.00013843,0.00042022,0.00033043,0.00027790,-0.00000877,0.03943
 444,-0.01625963,-0.00861381,-0.05914241,0.02199242,0.00132049,-0.00359
 141,-0.00705084,0.04092275,-0.00531429,0.00183824,-0.00005107,-0.00044
 384,-0.00098161,0.00676680,0.00013048,-0.00366489,-0.00002224,-0.00098
 123,-0.00006610,0.00200781,-0.00006034,0.00009625,-0.00019754,0.000031
 47,0.00017333,-0.00004394,0.00010971,0.00006848,-0.00026289,0.00057959
 ,-0.00032199,-0.00066463,-0.00012663,0.00085141,-0.00000072,-0.0000180
 4,-0.00000852,0.00000308,0.00002250,0.00002077,0.00022970,0.00025254,-
 0.00000598,-0.00011902,-0.00038318,0.00035306,0.00006037,-0.00003281,-
 0.00014169,-0.00001255,0.00001660,0.00007501,-0.00225666,0.00081913,-0
 .00070664,0.00109051,-0.00052963,0.00231792,-0.00051727,0.00045311,0.0
 0026361,0.00002319,0.00017037,-0.00006759,-0.09042186,-0.00266324,-0.0
 5098213,0.04400392,0.01117306,0.05340051,0.00239710,0.00344389,-0.0054
 2742,-0.04327376,0.00046819,-0.00391583,-0.00181883,-0.00073721,0.0019
 8222,-0.21109230,-0.03118093,0.03866300,0.00138202,-0.00063113,0.00118
 727,0.00071970,-0.00029457,0.00016848,-0.00023931,-0.00045092,-0.00007
 859,-0.00036381,0.00034462,-0.00069059,-0.03722403,-0.00930022,0.00515
 759,-0.03125145,0.00010408,0.00885429,-0.00003546,0.00023082,-0.000082
 85,0.00009191,-0.00003665,0.00007026,0.00147849,0.00022295,-0.00102045
 ,0.00145664,-0.00528264,0.00110571,0.00001149,0.00053731,0.00003563,-0
 .00005836,-0.00010847,-0.00009177,0.00026490,0.00009792,-0.00127584,-0
 .00025077,-0.00007849,0.00049542,-0.00076163,-0.00085559,-0.00053183,0
 .00012368,0.00013761,0.00040622,0.00061687,0.00017124,-0.00005149,-0.0
 0185809,0.00047687,-0.00030504,0.44786898,-0.00063409,-0.00328513,0.00
 476735,0.02407873,0.00264627,-0.00240036,0.00138699,0.00029926,-0.0008
 6949,0.00823610,-0.08667323,0.01663665,0.00017106,0.00199425,-0.001753
 51,-0.00046622,0.00009947,0.00006200,-0.00007120,0.00013838,-0.0001687
 0,0.00027581,-0.00021452,0.00041308,-0.04030341,-0.00696303,0.01057913
 ,0.01370145,0.00686816,0.00055223,0.00003086,-0.00004685,0.00004138,-0
 .00002436,-0.00000035,-0.00006001,0.00055396,0.00334070,-0.00004517,-0
 .00104255,-0.00785373,0.00204502,0.00018085,-0.00004724,0.00013661,-0.
 00010654,0.00006110,-0.00002670,-0.00007961,0.00035387,0.00043852,0.00
 003093,-0.00008958,-0.00013034,0.00036647,0.00207279,-0.00037269,0.000
 14064,-0.00020087,0.00005684,0.00006410,0.00302739,0.00017774,-0.00045
 238,-0.00318939,-0.00044031,-0.12152816,0.33701942,0.00042395,0.003067
 85,-0.00507602,-0.03175574,-0.00201230,-0.00304113,-0.00140526,-0.0004
 6763,0.00041920,0.01204346,0.01443432,-0.08474485,0.00039403,-0.001070
 34,0.00145470,-0.00038220,0.00015950,0.00024682,0.00019996,-0.00048058
 ,-0.00029719,-0.00031530,0.00026316,-0.00043061,0.00420634,0.00421814,
 -0.00082369,0.03220600,0.00485732,0.00223226,-0.00004496,0.00008852,0.
 00002368,-0.00004490,-0.00005746,0.00008709,-0.00038370,0.00175171,0.0
 0081142,-0.00039056,0.00092749,0.00158754,-0.00005881,0.00043378,0.000
 46503,-0.00000330,-0.00006111,-0.00008860,-0.00061042,0.00026760,-0.00
 010580,0.00068236,-0.00022687,0.00073393,-0.00023982,-0.00079150,0.000
 54970,0.00025005,0.00019230,-0.00002953,-0.00894527,0.00204127,-0.0002
 7694,0.00004360,-0.00082740,0.00344405,0.09221568,-0.24033147,0.271695
 55,0.00013542,0.00139411,-0.00186408,-0.00819028,-0.00098413,0.0020592
 7,-0.00064288,-0.00006411,0.00028309,-0.02840169,0.02883463,-0.0258705
 2,0.00018773,-0.00018723,0.00043284,0.00008064,0.00000390,0.00001551,-
 0.00006310,-0.00003607,0.00002149,-0.00006628,0.00008284,-0.00015481,-
 0.00297198,-0.00022642,-0.00271730,-0.00020968,0.00041579,0.00007845,0
 .00003558,-0.00000384,0.00000727,0.00002519,0.00003078,-0.00002649,0.0
 0001919,-0.00024458,0.00020644,0.00022443,0.00090074,-0.00035060,0.000
 06618,-0.00005295,0.00001739,-0.00001539,0.00002831,-0.00000048,0.0001
 6265,-0.00014279,0.00003036,-0.00013604,0.00005467,-0.00012591,0.00029
 270,-0.00046184,0.00024321,-0.00009702,0.00003518,-0.00006464,0.001185
 96,-0.00015732,0.00127155,-0.00023542,-0.00031625,-0.00108151,-0.13375
 360,0.12272213,-0.10319841,0.17084299,0.00019618,0.00117793,-0.0006284
 7,-0.00230726,-0.00086842,-0.00076017,-0.00031318,-0.00005089,0.000160
 68,-0.00031359,0.00465181,-0.00338188,-0.00000135,0.00011357,0.0001497
 5,0.00002705,-0.00002323,0.00001678,0.00004291,-0.00003806,0.00006105,
 -0.00008257,0.00005442,-0.00010615,-0.00690817,0.00198464,-0.00246310,
 -0.00032632,-0.00025272,0.00069190,-0.00001996,0.00000813,-0.00001442,
 -0.00001012,-0.00002029,0.00001979,0.00024531,-0.00034054,0.00019812,0
 .00089487,-0.00044269,0.00059073,-0.00007875,0.00001705,-0.00005038,0.
 00003953,-0.00001982,0.00001659,-0.00010722,-0.00008254,-0.00009685,0.
 00013182,0.00001823,0.00013807,0.00013285,-0.00062978,0.00018242,-0.00
 000582,0.00009837,-0.00004516,-0.00138843,-0.00012419,-0.00091144,0.00
 051007,0.00023621,0.00134004,0.16011709,-0.24722062,0.20907513,-0.1537
 1116,0.24374648,0.00006353,-0.00005434,0.00016643,0.00013810,0.0002905
 0,-0.00120563,0.00000131,0.00005555,-0.00002900,0.00222702,-0.00472997
 ,0.00390146,0.00007119,-0.00000796,-0.00008039,-0.00004807,0.00001957,
 0.00003440,-0.00004022,0.00004483,0.00003271,0.00002956,-0.00001686,0.
 00001251,0.00212491,0.00029468,0.00266663,0.00206708,-0.00055099,-0.00
 030856,0.00001139,-0.00001545,0.00000196,0.00001640,0.00000193,-0.0000
 1460,-0.00063074,-0.00023127,-0.00063978,-0.00027975,0.00068092,-0.000
 94523,0.00003765,-0.00007231,-0.00004114,-0.00001017,0.00001881,0.0000
 1892,0.00000912,0.00000078,0.00007693,-0.00002266,0.00001402,-0.000003
 87,0.00010318,0.00008348,-0.00000851,-0.00003868,0.00001303,-0.0000168
 2,-0.00118765,-0.00014683,0.00017953,0.00000748,0.00109273,0.00081728,
 -0.13525499,0.20798667,-0.18957798,0.13093977,-0.20418053,0.18769587,-
 0.00081987,-0.00231794,0.00030465,0.00085670,-0.00106607,0.00172799,0.
 00030749,0.00000511,0.00029479,-0.00408799,0.00192717,-0.00265100,-0.0
 0005942,0.00032661,-0.00038782,0.00009855,-0.00001844,0.00002359,-0.00
 009418,-0.00015786,-0.00021796,0.00002769,-0.00003180,0.00003143,-0.14
 103157,0.00878958,-0.07419551,0.00030563,-0.00002000,0.00038314,-0.000
 00858,0.00012389,-0.00003434,0.00003732,0.00000368,0.00002073,-0.00199
 270,0.00261997,-0.00976115,-0.02246308,0.01761236,-0.03408305,0.000004
 16,0.00026709,0.00009475,-0.00001418,-0.00005243,-0.00004737,0.0000779
 4,0.00041716,-0.00056756,-0.00011940,-0.00010131,0.00021427,-0.0017099
 7,0.00223455,-0.00248949,0.00000411,0.00030643,0.00035257,0.00088610,0
 .00048894,-0.00098142,-0.00069897,-0.00010722,-0.00030887,0.00506528,-
 0.00494594,0.00309085,-0.00037184,0.00206440,0.00112526,0.19193199,-0.
 00180561,-0.00038633,-0.00009990,-0.00377323,-0.00776961,-0.00411915,0
 .00012864,0.00019489,-0.00049585,0.02776976,-0.02390593,0.03952872,0.0
 0117462,-0.00124439,0.00232003,0.00001530,0.00005703,-0.00000361,-0.00
 020978,0.00016881,0.00005752,0.00015786,-0.00006785,0.00016284,0.03849
 150,-0.10361822,0.04271132,0.00044187,0.00267315,-0.00079544,0.0001314
 4,-0.00009295,0.00002903,0.00010504,0.00008776,-0.00014141,-0.00838701
 ,0.00827809,-0.00260610,0.00384688,0.00193318,0.00022727,0.00027953,-0
 .00029699,0.00001102,-0.00007574,0.00011096,0.00003437,0.00019627,0.00
 004071,0.00052505,-0.00025851,0.00000100,-0.00037242,0.00066692,0.0012
 8707,0.00032576,-0.00003049,-0.00031932,-0.00007371,-0.00029928,0.0009
 5000,0.00184739,0.00032010,-0.00017498,-0.00061453,0.00305447,-0.00320
 952,0.00474405,0.00183867,-0.00141299,-0.00026426,-0.00311684,0.673695
 77,0.00036620,-0.00101084,-0.00017423,0.00110043,0.00013600,0.00100401
 ,0.00016065,-0.00018521,0.00019971,-0.00613363,0.01090179,-0.00953406,
 -0.00031942,0.00040240,-0.00054933,-0.00005116,0.00007009,0.00005333,0
 .00011637,-0.00025325,-0.00023802,-0.00009282,0.00002681,-0.00005690,-
 0.07748428,0.00854930,-0.14258370,0.00044515,0.00084752,0.00116170,-0.
 00006987,0.00011134,-0.00002072,-0.00005400,-0.00005402,0.00009084,-0.
 03072119,0.01721618,-0.02651813,-0.00675407,0.00219247,0.00384804,-0.0
 0016740,0.00039487,0.00019394,0.00004016,-0.00009498,-0.00006299,-0.00
 025098,0.00039141,-0.00035874,0.00026299,-0.00022960,0.00039380,-0.001
 51379,0.00109562,-0.00017062,0.00062014,-0.00016115,0.00041938,-0.0001
 7872,0.00180600,-0.00045854,-0.00048634,-0.00063839,0.00033480,-0.0010
 7660,0.00285568,0.00066894,-0.00015575,0.00006622,-0.00246395,0.138578
 79,-0.08400121,0.19585423,0.00026146,0.00018104,0.00007914,0.00064159,
 0.00102449,0.00031938,-0.00002858,-0.00000869,-0.00002942,-0.00527233,
 0.00043508,-0.00358427,-0.00012389,0.00021617,-0.00027838,-0.00002267,
 0.00000598,0.00000105,0.00003331,0.00000442,0.00000905,-0.00001528,0.0
 0000813,-0.00001190,-0.00078225,0.03105055,-0.00358382,-0.00002734,-0.
 00020895,0.00011346,-0.00000573,-0.00001204,0.00000653,-0.00001863,-0.
 00000576,0.00000703,0.00088745,-0.00072476,-0.00051081,-0.00076890,0.0
 0103509,0.00011710,-0.00001937,-0.00001152,0.00000667,0.00000417,0.000
 00249,-0.00000100,-0.00002889,-0.00004931,0.00006965,0.00003828,0.0000
 0703,-0.00001756,-0.00004282,-0.00034763,0.00012881,0.00000959,0.00004
 432,-0.00005379,0.00006376,-0.00003681,-0.00001520,-0.00004499,-0.0000
 9722,-0.00016281,0.00050433,-0.00228562,0.00202239,0.00189656,0.001171
 83,-0.00146002,-0.02613121,-0.06066239,-0.01618086,0.02899237,-0.00008
 033,-0.00023882,0.00000601,-0.00044188,-0.00062544,-0.00038371,0.00004
 213,-0.00001998,0.00005914,0.00145742,-0.00055686,0.00270900,0.0001539
 6,-0.00000414,0.00013313,0.00002021,-0.00001201,0.00000075,-0.00000226
 ,-0.00002433,-0.00002522,-0.00000377,0.00000084,-0.00000037,-0.0044480
 3,-0.01158617,-0.00369724,-0.00001589,0.00052572,-0.00003351,-0.000006
 05,0.00002172,-0.00000952,0.00000252,-0.00000335,0.00000605,-0.0013710
 8,0.00167971,-0.00070794,-0.00033213,0.00045432,-0.00088106,-0.0000181
 8,0.00004601,0.00000382,0.00000869,-0.00001342,-0.00000293,-0.00002019
 ,0.00006007,-0.00011028,0.00002005,-0.00002509,0.00006462,-0.00030537,
 0.00030230,-0.00025916,0.00007083,0.00003179,0.00006782,-0.00005788,0.
 00030328,-0.00002627,-0.00001066,-0.00008086,0.00010092,0.00107794,0.0
 0107299,-0.00019547,0.00024694,-0.00058006,-0.00032672,-0.02525108,-0.
 54697930,0.03956493,0.02926407,0.55625111,0.00017184,0.00016078,0.0000
 5384,0.00030333,0.00176537,0.00074495,-0.00005146,0.00003546,0.0000519
 3,-0.00355497,0.00177370,-0.00471471,-0.00021090,0.00013760,-0.0004480
 8,-0.00000719,-0.00001430,-0.00001737,-0.00000649,0.00003723,0.0000355
 8,0.00000343,-0.00000130,-0.00000789,0.00060174,0.03218448,-0.00422347
 ,-0.00011857,-0.00004337,0.00008710,-0.00000450,-0.00000766,0.00000260
 ,-0.00000479,0.00000132,-0.00000079,0.00085919,0.00042969,-0.00011921,
 -0.00017011,-0.00056338,0.00074727,0.00001060,-0.00005268,-0.00004668,
 -0.00000620,0.00000874,0.00000674,0.00005769,-0.00010736,-0.00002468,-
 0.00005433,0.00006832,-0.00003452,0.00016831,-0.00034775,-0.00001392,-
 0.00012476,0.00010703,-0.00005276,0.00018730,-0.00056870,0.00008093,-0
 .00000684,0.00020924,-0.00005675,-0.00053848,-0.00015014,0.00007244,0.
 00000385,-0.00006873,-0.00026917,-0.02051727,0.00106322,-0.02103279,0.
 02300959,-0.03605680,0.02917942\\0.00000418,-0.00000734,0.00000245,0.0
 0000160,0.00000211,-0.00000123,0.00000049,0.00000135,-0.00000375,-0.00
 000203,-0.00000284,-0.00000656,-0.00000012,0.00000217,0.00000345,-0.00
 000295,0.00000351,-0.00000226,0.00000176,0.00000551,-0.00000869,-0.000
 00004,0.00000086,-0.00000146,-0.00000513,0.00000874,0.00000145,-0.0000
 0082,-0.00000294,0.00000377,-0.00000004,-0.00000234,0.00000078,-0.0000
 0093,-0.00000156,0.00000179,0.00000125,-0.00000004,0.00000120,-0.00000
 202,-0.00000250,-0.00000046,0.00000266,0.00000069,0.00000364,-0.000004
 11,0.00000043,-0.00000186,-0.00000049,-0.00000305,-0.00000193,0.000007
 45,-0.00000021,-0.00000127,0.00000998,-0.00000277,0.00000034,-0.000005
 46,-0.00000042,-0.00000513,-0.00000136,0.00000153,0.00000359,-0.000003
 33,0.00000001,-0.00000018,0.00000227,-0.00000251,0.00000123,-0.0000046
 1,0.00000733,0.00000277,0.00000104,-0.00000407,0.00000551,0.00000073,-
 0.00000165,0.00000281\\\@
 The archive entry for this job was punched.


 "WOULD YOU TELL ME PLEASE, WHICH WAY I OUGHT TO WALK FROM HERE?"
 "THAT DEPENDS A GREAT DEAL ON WHERE YOU WANT TO GO," SAID THE CAT.
 "I DON'T MUCH CARE WHERE -- ", SAID ALICE.
 "THEN IT DOESN'T MATTER WHICH WAY YOU WALK," SAID THE CAT.

                                      -- LEWIS CARROLL
 Job cpu time:       0 days 10 hours 29 minutes 43.8 seconds.
 Elapsed time:       0 days  0 hours 39 minutes 43.2 seconds.
 File lengths (MBytes):  RWF=    704 Int=      0 D2E=      0 Chk=     27 Scr=      1
 Normal termination of Gaussian 16 at Wed Sep 27 12:35:14 2023.
