 Entering Gaussian System, Link 0=/opt/software/gaussian/g16.c01/g16
 Initial command:
 /opt/software/gaussian/g16.c01/l1.exe "/scratch/arhender/13209898/Gau-152113.inp" -scrdir="/scratch/arhender/13209898/"
 Entering Link 1 = /opt/software/gaussian/g16.c01/l1.exe PID=    152117.
  
 Copyright (c) 1988-2019, Gaussian, Inc.  All Rights Reserved.
  
 This is part of the Gaussian(R) 16 program.  It is based on
 the Gaussian(R) 09 system (copyright 2009, Gaussian, Inc.),
 the Gaussian(R) 03 system (copyright 2003, Gaussian, Inc.),
 the Gaussian(R) 98 system (copyright 1998, Gaussian, Inc.),
 the Gaussian(R) 94 system (copyright 1995, Gaussian, Inc.),
 the Gaussian 92(TM) system (copyright 1992, Gaussian, Inc.),
 the Gaussian 90(TM) system (copyright 1990, Gaussian, Inc.),
 the Gaussian 88(TM) system (copyright 1988, Gaussian, Inc.),
 the Gaussian 86(TM) system (copyright 1986, Carnegie Mellon
 University), and the Gaussian 82(TM) system (copyright 1983,
 Carnegie Mellon University). Gaussian is a federally registered
 trademark of Gaussian, Inc.
  
 This software contains proprietary and confidential information,
 including trade secrets, belonging to Gaussian, Inc.
  
 This software is provided under written license and may be
 used, copied, transmitted, or stored only in accord with that
 written license.
  
 The following legend is applicable only to US Government
 contracts under FAR:
  
                    RESTRICTED RIGHTS LEGEND
  
 Use, reproduction and disclosure by the US Government is
 subject to restrictions as set forth in subparagraphs (a)
 and (c) of the Commercial Computer Software - Restricted
 Rights clause in FAR 52.227-19.
  
 Gaussian, Inc.
 340 Quinnipiac St., Bldg. 40, Wallingford CT 06492
  
  
 ---------------------------------------------------------------
 Warning -- This program may not be used in any manner that
 competes with the business of Gaussian, Inc. or will provide
 assistance to any competitor of Gaussian, Inc.  The licensee
 of this program is prohibited from giving any competitor of
 Gaussian, Inc. access to this program.  By using this program,
 the user acknowledges that Gaussian, Inc. is engaged in the
 business of creating and licensing software in the field of
 computational chemistry and represents and warrants to the
 licensee that it is not a competitor of Gaussian, Inc. and that
 it will not use this program in any manner prohibited above.
 ---------------------------------------------------------------
  

 Cite this work as:
 Gaussian 16, Revision C.01,
 M. J. Frisch, G. W. Trucks, H. B. Schlegel, G. E. Scuseria, 
 M. A. Robb, J. R. Cheeseman, G. Scalmani, V. Barone, 
 G. A. Petersson, H. Nakatsuji, X. Li, M. Caricato, A. V. Marenich, 
 J. Bloino, B. G. Janesko, R. Gomperts, B. Mennucci, H. P. Hratchian, 
 J. V. Ortiz, A. F. Izmaylov, J. L. Sonnenberg, D. Williams-Young, 
 F. Ding, F. Lipparini, F. Egidi, J. Goings, B. Peng, A. Petrone, 
 T. Henderson, D. Ranasinghe, V. G. Zakrzewski, J. Gao, N. Rega, 
 G. Zheng, W. Liang, M. Hada, M. Ehara, K. Toyota, R. Fukuda, 
 J. Hasegawa, M. Ishida, T. Nakajima, Y. Honda, O. Kitao, H. Nakai, 
 T. Vreven, K. Throssell, J. A. Montgomery, Jr., J. E. Peralta, 
 F. Ogliaro, M. J. Bearpark, J. J. Heyd, E. N. Brothers, K. N. Kudin, 
 V. N. Staroverov, T. A. Keith, R. Kobayashi, J. Normand, 
 K. Raghavachari, A. P. Rendell, J. C. Burant, S. S. Iyengar, 
 J. Tomasi, M. Cossi, J. M. Millam, M. Klene, C. Adamo, R. Cammi, 
 J. W. Ochterski, R. L. Martin, K. Morokuma, O. Farkas, 
 J. B. Foresman, and D. J. Fox, Gaussian, Inc., Wallingford CT, 2019.
 
 ******************************************
 Gaussian 16:  ES64L-G16RevC.01  3-Jul-2019
                27-Sep-2023 
 ******************************************
 %chk=MannitolConformerOpt_1.chk
 %mem=8GB
 %nprocs=16
 Will use up to   16 processors via shared memory.
 ---------------------------------------------
 # opt freq wb97xd/Def2TZVPP geom=connectivity
 ---------------------------------------------
 1/18=20,19=15,26=3,38=1,57=2/1,3;
 2/9=110,12=2,17=6,18=5,40=1/2;
 3/5=44,7=202,11=2,25=1,30=1,71=1,74=-58/1,2,3;
 4//1;
 5/5=2,38=5/2;
 6/7=2,8=2,9=2,10=2,28=1/1;
 7//1,2,3,16;
 1/18=20,19=15,26=3/3(2);
 2/9=110/2;
 99//99;
 2/9=110/2;
 3/5=44,7=202,11=2,25=1,30=1,71=1,74=-58/1,2,3;
 4/5=5,16=3,69=1/1;
 5/5=2,38=5/2;
 7//1,2,3,16;
 1/18=20,19=15,26=3/3(-5);
 2/9=110/2;
 6/7=2,8=2,9=2,10=2,19=2,28=1/1;
 99/9=1/99;
 --------------------------------
 Mannitol Conformer Optimziations
 --------------------------------
 Symbolic Z-matrix:
 Charge =  0 Multiplicity = 1
 C                     0.        0.        0. 
 C                     1.5398    0.        0. 
 C                    -0.6136    0.6431    1.2494 
 C                     2.2346   -0.7796    1.1246 
 H                     1.9047    1.0349    0. 
 H                    -0.3639   -1.0279   -0.1125 
 C                    -2.1342    0.8005    1.1284 
 H                    -0.1742    1.6323    1.4257 
 C                     1.8193   -2.2506    1.229 
 H                     2.1081   -0.2785    2.089 
 H                    -2.6135   -0.1621    0.9236 
 H                    -2.4073    1.5226    0.3533 
 H                     2.0745   -2.7959    0.315 
 H                     0.7546   -2.3839    1.4353 
 O                    -2.6316    1.2647    2.3905 
 H                    -3.5827    1.4342    2.2638 
 O                    -0.3408   -0.1505    2.4143 
 H                    -0.9729    0.1923    3.0838 
 O                    -0.4349    0.7066   -1.1753 
 H                     0.1699    0.3975   -1.8839 
 O                     1.9653   -0.5372   -1.2756 
 H                     2.9376   -0.6326   -1.1807 
 O                     3.655    -0.7498    0.8482 
 H                     4.0378   -1.4463    1.4216 
 O                     2.5663   -2.8557    2.2921 
 H                     2.1529   -2.5603    3.1244 
 

 GradGradGradGradGradGradGradGradGradGradGradGradGradGradGradGradGradGrad
 Berny optimization.
 Initialization pass.
                           ----------------------------
                           !    Initial Parameters    !
                           ! (Angstroms and Degrees)  !
 --------------------------                            --------------------------
 ! Name  Definition              Value          Derivative Info.                !
 --------------------------------------------------------------------------------
 ! R1    R(1,2)                  1.5398         estimate D2E/DX2                !
 ! R2    R(1,3)                  1.5333         estimate D2E/DX2                !
 ! R3    R(1,6)                  1.0962         estimate D2E/DX2                !
 ! R4    R(1,19)                 1.4387         estimate D2E/DX2                !
 ! R5    R(2,4)                  1.5347         estimate D2E/DX2                !
 ! R6    R(2,5)                  1.0973         estimate D2E/DX2                !
 ! R7    R(2,21)                 1.448          estimate D2E/DX2                !
 ! R8    R(3,7)                  1.5335         estimate D2E/DX2                !
 ! R9    R(3,8)                  1.0967         estimate D2E/DX2                !
 ! R10   R(3,17)                 1.4357         estimate D2E/DX2                !
 ! R11   R(4,9)                  1.5321         estimate D2E/DX2                !
 ! R12   R(4,10)                 1.0942         estimate D2E/DX2                !
 ! R13   R(4,23)                 1.4473         estimate D2E/DX2                !
 ! R14   R(7,11)                 1.0947         estimate D2E/DX2                !
 ! R15   R(7,12)                 1.094          estimate D2E/DX2                !
 ! R16   R(7,15)                 1.4338         estimate D2E/DX2                !
 ! R17   R(9,13)                 1.0945         estimate D2E/DX2                !
 ! R18   R(9,14)                 1.0927         estimate D2E/DX2                !
 ! R19   R(9,25)                 1.4333         estimate D2E/DX2                !
 ! R20   R(15,16)                0.9744         estimate D2E/DX2                !
 ! R21   R(17,18)                0.9825         estimate D2E/DX2                !
 ! R22   R(19,20)                0.9815         estimate D2E/DX2                !
 ! R23   R(21,22)                0.9816         estimate D2E/DX2                !
 ! R24   R(23,24)                0.98           estimate D2E/DX2                !
 ! R25   R(25,26)                0.9751         estimate D2E/DX2                !
 ! A1    A(2,1,3)              113.5892         estimate D2E/DX2                !
 ! A2    A(2,1,6)              109.3881         estimate D2E/DX2                !
 ! A3    A(2,1,19)             107.5955         estimate D2E/DX2                !
 ! A4    A(3,1,6)              110.1246         estimate D2E/DX2                !
 ! A5    A(3,1,19)             109.7977         estimate D2E/DX2                !
 ! A6    A(6,1,19)             106.0429         estimate D2E/DX2                !
 ! A7    A(1,2,4)              116.9191         estimate D2E/DX2                !
 ! A8    A(1,2,5)              109.4224         estimate D2E/DX2                !
 ! A9    A(1,2,21)             107.0884         estimate D2E/DX2                !
 ! A10   A(4,2,5)              109.1798         estimate D2E/DX2                !
 ! A11   A(4,2,21)             108.9074         estimate D2E/DX2                !
 ! A12   A(5,2,21)             104.6055         estimate D2E/DX2                !
 ! A13   A(1,3,7)              112.0592         estimate D2E/DX2                !
 ! A14   A(1,3,8)              110.4244         estimate D2E/DX2                !
 ! A15   A(1,3,17)             110.6872         estimate D2E/DX2                !
 ! A16   A(7,3,8)              108.5057         estimate D2E/DX2                !
 ! A17   A(7,3,17)             108.0093         estimate D2E/DX2                !
 ! A18   A(8,3,17)             106.9794         estimate D2E/DX2                !
 ! A19   A(2,4,9)              114.5164         estimate D2E/DX2                !
 ! A20   A(2,4,10)             111.1555         estimate D2E/DX2                !
 ! A21   A(2,4,23)             107.0917         estimate D2E/DX2                !
 ! A22   A(9,4,10)             110.3848         estimate D2E/DX2                !
 ! A23   A(9,4,23)             107.386          estimate D2E/DX2                !
 ! A24   A(10,4,23)            105.8045         estimate D2E/DX2                !
 ! A25   A(3,7,11)             111.0188         estimate D2E/DX2                !
 ! A26   A(3,7,12)             111.7892         estimate D2E/DX2                !
 ! A27   A(3,7,15)             107.9246         estimate D2E/DX2                !
 ! A28   A(11,7,12)            109.7902         estimate D2E/DX2                !
 ! A29   A(11,7,15)            107.3068         estimate D2E/DX2                !
 ! A30   A(12,7,15)            108.8666         estimate D2E/DX2                !
 ! A31   A(4,9,13)             110.9933         estimate D2E/DX2                !
 ! A32   A(4,9,14)             113.212          estimate D2E/DX2                !
 ! A33   A(4,9,25)             108.3375         estimate D2E/DX2                !
 ! A34   A(13,9,14)            108.9107         estimate D2E/DX2                !
 ! A35   A(13,9,25)            106.7112         estimate D2E/DX2                !
 ! A36   A(14,9,25)            108.439          estimate D2E/DX2                !
 ! A37   A(7,15,16)            106.2893         estimate D2E/DX2                !
 ! A38   A(3,17,18)            103.7562         estimate D2E/DX2                !
 ! A39   A(1,19,20)            104.4084         estimate D2E/DX2                !
 ! A40   A(2,21,22)            104.0023         estimate D2E/DX2                !
 ! A41   A(4,23,24)            104.89           estimate D2E/DX2                !
 ! A42   A(9,25,26)            106.5131         estimate D2E/DX2                !
 ! D1    D(3,1,2,4)             61.9667         estimate D2E/DX2                !
 ! D2    D(3,1,2,5)            -62.7639         estimate D2E/DX2                !
 ! D3    D(3,1,2,21)          -175.6016         estimate D2E/DX2                !
 ! D4    D(6,1,2,4)            -61.5153         estimate D2E/DX2                !
 ! D5    D(6,1,2,5)            173.754          estimate D2E/DX2                !
 ! D6    D(6,1,2,21)            60.9164         estimate D2E/DX2                !
 ! D7    D(19,1,2,4)          -176.284          estimate D2E/DX2                !
 ! D8    D(19,1,2,5)            58.9854         estimate D2E/DX2                !
 ! D9    D(19,1,2,21)          -53.8523         estimate D2E/DX2                !
 ! D10   D(2,1,3,7)            172.1007         estimate D2E/DX2                !
 ! D11   D(2,1,3,8)             51.0134         estimate D2E/DX2                !
 ! D12   D(2,1,3,17)           -67.262          estimate D2E/DX2                !
 ! D13   D(6,1,3,7)            -64.8202         estimate D2E/DX2                !
 ! D14   D(6,1,3,8)            174.0925         estimate D2E/DX2                !
 ! D15   D(6,1,3,17)            55.8171         estimate D2E/DX2                !
 ! D16   D(19,1,3,7)            51.5854         estimate D2E/DX2                !
 ! D17   D(19,1,3,8)           -69.5019         estimate D2E/DX2                !
 ! D18   D(19,1,3,17)          172.2227         estimate D2E/DX2                !
 ! D19   D(2,1,19,20)           41.5067         estimate D2E/DX2                !
 ! D20   D(3,1,19,20)          165.5867         estimate D2E/DX2                !
 ! D21   D(6,1,19,20)          -75.4658         estimate D2E/DX2                !
 ! D22   D(1,2,4,9)             55.5485         estimate D2E/DX2                !
 ! D23   D(1,2,4,10)           -70.3956         estimate D2E/DX2                !
 ! D24   D(1,2,4,23)           174.484          estimate D2E/DX2                !
 ! D25   D(5,2,4,9)           -179.5985         estimate D2E/DX2                !
 ! D26   D(5,2,4,10)            54.4573         estimate D2E/DX2                !
 ! D27   D(5,2,4,23)           -60.663          estimate D2E/DX2                !
 ! D28   D(21,2,4,9)           -65.9359         estimate D2E/DX2                !
 ! D29   D(21,2,4,10)          168.12           estimate D2E/DX2                !
 ! D30   D(21,2,4,23)           52.9996         estimate D2E/DX2                !
 ! D31   D(1,2,21,22)         -172.4732         estimate D2E/DX2                !
 ! D32   D(4,2,21,22)          -45.1758         estimate D2E/DX2                !
 ! D33   D(5,2,21,22)           71.4475         estimate D2E/DX2                !
 ! D34   D(1,3,7,11)            56.2411         estimate D2E/DX2                !
 ! D35   D(1,3,7,12)           -66.7301         estimate D2E/DX2                !
 ! D36   D(1,3,7,15)           173.5792         estimate D2E/DX2                !
 ! D37   D(8,3,7,11)           178.4291         estimate D2E/DX2                !
 ! D38   D(8,3,7,12)            55.4578         estimate D2E/DX2                !
 ! D39   D(8,3,7,15)           -64.2329         estimate D2E/DX2                !
 ! D40   D(17,3,7,11)          -65.9364         estimate D2E/DX2                !
 ! D41   D(17,3,7,12)          171.0923         estimate D2E/DX2                !
 ! D42   D(17,3,7,15)           51.4016         estimate D2E/DX2                !
 ! D43   D(1,3,17,18)         -164.3597         estimate D2E/DX2                !
 ! D44   D(7,3,17,18)          -41.3425         estimate D2E/DX2                !
 ! D45   D(8,3,17,18)           75.2876         estimate D2E/DX2                !
 ! D46   D(2,4,9,13)            61.7579         estimate D2E/DX2                !
 ! D47   D(2,4,9,14)           -61.0805         estimate D2E/DX2                !
 ! D48   D(2,4,9,25)           178.6077         estimate D2E/DX2                !
 ! D49   D(10,4,9,13)         -171.8978         estimate D2E/DX2                !
 ! D50   D(10,4,9,14)           65.2638         estimate D2E/DX2                !
 ! D51   D(10,4,9,25)          -55.0479         estimate D2E/DX2                !
 ! D52   D(23,4,9,13)          -57.0119         estimate D2E/DX2                !
 ! D53   D(23,4,9,14)         -179.8503         estimate D2E/DX2                !
 ! D54   D(23,4,9,25)           59.838          estimate D2E/DX2                !
 ! D55   D(2,4,23,24)         -164.7222         estimate D2E/DX2                !
 ! D56   D(9,4,23,24)          -41.2738         estimate D2E/DX2                !
 ! D57   D(10,4,23,24)          76.6287         estimate D2E/DX2                !
 ! D58   D(3,7,15,16)          174.9376         estimate D2E/DX2                !
 ! D59   D(11,7,15,16)         -65.3506         estimate D2E/DX2                !
 ! D60   D(12,7,15,16)          53.4163         estimate D2E/DX2                !
 ! D61   D(4,9,25,26)           76.8396         estimate D2E/DX2                !
 ! D62   D(13,9,25,26)        -163.5844         estimate D2E/DX2                !
 ! D63   D(14,9,25,26)         -46.4038         estimate D2E/DX2                !
 --------------------------------------------------------------------------------
 Trust Radius=3.00D-01 FncErr=1.00D-07 GrdErr=1.00D-06 EigMax=2.50D+02 EigMin=1.00D-04
 Number of steps in this run=    140 maximum allowed number of steps=    156.
 GradGradGradGradGradGradGradGradGradGradGradGradGradGradGradGradGradGrad

                          Input orientation:                          
 ---------------------------------------------------------------------
 Center     Atomic      Atomic             Coordinates (Angstroms)
 Number     Number       Type             X           Y           Z
 ---------------------------------------------------------------------
      1          6           0        0.000000    0.000000    0.000000
      2          6           0        1.539800    0.000000    0.000000
      3          6           0       -0.613600    0.643100    1.249400
      4          6           0        2.234600   -0.779600    1.124600
      5          1           0        1.904700    1.034900    0.000000
      6          1           0       -0.363900   -1.027900   -0.112500
      7          6           0       -2.134200    0.800500    1.128400
      8          1           0       -0.174200    1.632300    1.425700
      9          6           0        1.819300   -2.250600    1.229000
     10          1           0        2.108100   -0.278500    2.089000
     11          1           0       -2.613500   -0.162100    0.923600
     12          1           0       -2.407300    1.522600    0.353300
     13          1           0        2.074500   -2.795900    0.315000
     14          1           0        0.754600   -2.383900    1.435300
     15          8           0       -2.631600    1.264700    2.390500
     16          1           0       -3.582700    1.434200    2.263800
     17          8           0       -0.340800   -0.150500    2.414300
     18          1           0       -0.972900    0.192300    3.083800
     19          8           0       -0.434900    0.706600   -1.175300
     20          1           0        0.169900    0.397500   -1.883900
     21          8           0        1.965300   -0.537200   -1.275600
     22          1           0        2.937600   -0.632600   -1.180700
     23          8           0        3.655000   -0.749800    0.848200
     24          1           0        4.037800   -1.446300    1.421600
     25          8           0        2.566300   -2.855700    2.292100
     26          1           0        2.152900   -2.560300    3.124400
 ---------------------------------------------------------------------
                    Distance matrix (angstroms):
                    1          2          3          4          5
     1  C    0.000000
     2  C    1.539800   0.000000
     3  C    1.533324   2.571324   0.000000
     4  C    2.620294   1.534682   3.186204   0.000000
     5  H    2.167695   1.097347   2.838370   2.160086   0.000000
     6  H    1.096202   2.166404   2.170107   2.888645   3.068281
     7  C    2.543403   3.925858   1.533506   4.645766   4.200112
     8  H    2.174251   2.763118   1.096663   3.422023   2.590624
     9  C    3.144121   2.579489   3.780598   1.532062   3.508881
    10  H    2.980867   2.182762   2.993648   1.094153   2.475947
    11  H    2.776634   4.257842   2.180388   4.891399   4.764449
    12  H    2.870231   4.245319   2.189492   5.238536   4.353851
    13  H    3.495688   2.863946   4.463822   2.178658   3.847478
    14  H    2.883138   2.891298   3.327050   2.204702   3.882140
    15  O    3.773496   4.971371   2.400171   5.427851   5.132769
    16  H    4.474088   5.781153   3.235800   6.327690   5.949436
    17  O    2.442875   3.064009   1.435692   2.948182   3.503753
    18  H    3.239342   3.982520   1.922847   3.882153   4.301207
    19  O    1.438663   2.404174   2.432105   3.824207   2.638719
    20  H    1.932861   2.362988   3.239099   3.834009   2.639108
    21  O    2.403777   1.448030   3.797296   2.427394   2.025420
    22  H    3.228580   1.935996   4.488186   2.414586   2.289430
    23  O    3.826313   2.399107   4.508002   1.447350   2.639725
    24  H    4.518469   3.217567   5.102036   1.945309   3.567550
    25  O    4.471537   3.802952   4.841548   2.404844   4.563793
    26  H    4.577334   4.085695   4.629354   2.678949   4.769585
                    6          7          8          9         10
     6  H    0.000000
     7  C    2.831403   0.000000
     8  H    3.078751   2.149855   0.000000
     9  C    2.839186   4.994947   4.369170   0.000000
    10  H    3.393963   4.481529   3.049593   2.170757   0.000000
    11  H    2.623702   1.094655   3.069554   4.909666   4.864690
    12  H    3.301137   1.093980   2.479680   5.733065   5.161923
    13  H    3.042100   5.595433   5.089132   1.094475   3.079855
    14  H    2.342107   4.310424   4.122211   1.092664   2.586889
    15  O    4.082093   1.433801   2.665480   5.789381   4.993708
    16  H    4.697809   1.946500   3.515612   6.620435   5.945511
    17  O    2.674899   2.402961   2.045351   3.237497   2.473725
    18  H    3.475069   2.354170   2.336839   4.147822   3.271672
    19  O    2.035455   2.864170   2.773100   4.427991   4.253578
    20  H    2.335501   3.813822   3.549167   4.407165   4.471860
    21  O    2.649294   4.937060   4.072003   3.038104   3.377551
    22  H    3.492451   5.754031   4.648268   3.110494   3.391813
    23  O    4.141478   5.999732   4.546502   2.401500   2.038286
    24  H    4.680116   6.574775   5.217158   2.367643   2.352216
    25  O    4.208209   6.067676   5.329459   1.433296   2.625482
    26  H    4.377220   5.801570   5.087128   1.949293   2.506127
                   11         12         13         14         15
    11  H    0.000000
    12  H    1.790524   0.000000
    13  H    5.411528   6.223941   0.000000
    14  H    4.067226   5.140922   1.779593   0.000000
    15  O    2.046431   2.065673   6.553133   5.068633   0.000000
    16  H    2.298621   2.244859   7.327720   5.837506   0.974358
    17  O    2.717993   3.364135   4.151973   2.673278   2.692791
    18  H    2.735623   3.358993   5.087459   3.512636   2.093321
    19  O    3.147431   2.625421   4.559121   4.216792   4.225150
    20  H    3.992809   3.593449   4.319776   4.369800   5.183718
    21  O    5.093387   5.100561   2.764717   3.496437   6.149685
    22  H    5.955179   5.963724   2.768019   3.830926   6.882529
    23  O    6.296441   6.493089   2.639850   3.380427   6.779251
    24  H    6.792420   7.175998   2.626886   3.414481   7.264240
    25  O    5.996549   6.903995   2.038227   2.058873   6.633667
    26  H    5.771781   6.718965   2.820351   2.199868   6.169333
                   16         17         18         19         20
    16  H    0.000000
    17  O    3.611626   0.000000
    18  H    3.004292   0.982493   0.000000
    19  O    4.718629   3.691707   4.323642   0.000000
    20  H    5.688600   4.362985   5.101582   0.981550   0.000000
    21  O    6.869794   4.368409   5.307500   2.705191   2.113564
    22  H    7.658365   4.889208   5.844521   3.628669   3.035747
    23  O    7.691429   4.333388   5.225219   4.789878   4.574559
    24  H    8.190153   4.672974   5.527661   5.602135   5.411708
    25  O    7.497616   3.972942   4.737407   5.806896   5.810768
    26  H    7.042284   3.539762   4.165223   5.988052   6.145237
                   21         22         23         24         25
    21  O    0.000000
    22  H    0.981567   0.000000
    23  O    2.722281   2.155188   0.000000
    24  H    3.520882   2.940155   0.980018   0.000000
    25  O    4.297107   4.140094   2.775776   2.215737   0.000000
    26  H    4.846455   4.781806   3.273423   2.773693   0.975133
                   26
    26  H    0.000000
 Stoichiometry    C6H14O6
 Framework group  C1[X(C6H14O6)]
 Deg. of freedom    72
 Full point group                 C1      NOp   1
 Largest Abelian subgroup         C1      NOp   1
 Largest concise Abelian subgroup C1      NOp   1
                         Standard orientation:                         
 ---------------------------------------------------------------------
 Center     Atomic      Atomic             Coordinates (Angstroms)
 Number     Number       Type             X           Y           Z
 ---------------------------------------------------------------------
      1          6           0       -0.633579    0.873518   -0.323677
      2          6           0        0.720597    1.018672    0.394740
      3          6           0       -1.581942   -0.125037    0.350547
      4          6           0        1.599662   -0.236372    0.480511
      5          1           0        0.557045    1.414017    1.405246
      6          1           0       -0.462728    0.585610   -1.367505
      7          6           0       -2.982486   -0.100657   -0.273570
      8          1           0       -1.673777    0.097000    1.420564
      9          6           0        1.914042   -0.885916   -0.870959
     10          1           0        1.170715   -0.972785    1.166712
     11          1           0       -2.935738   -0.290604   -1.350606
     12          1           0       -3.493894    0.848193   -0.086652
     13          1           0        2.472521   -0.199782   -1.515316
     14          1           0        1.022313   -1.225141   -1.403558
     15          8           0       -3.746005   -1.162496    0.314072
     16          1           0       -4.650876   -1.074895   -0.036511
     17          8           0       -1.070924   -1.462323    0.242200
     18          1           0       -1.844999   -2.026628    0.460510
     19          8           0       -1.245532    2.174877   -0.365247
     20          1           0       -0.507872    2.784821   -0.582652
     21          8           0        1.456220    2.060860   -0.290455
     22          1           0        2.347788    2.030755    0.119025
     23          8           0        2.858703    0.165651    1.070439
     24          1           0        3.471986   -0.575853    0.884719
     25          8           0        2.762627   -2.017832   -0.640730
     26          1           0        2.189045   -2.729856   -0.301748
 ---------------------------------------------------------------------
 Rotational constants (GHZ):           1.2928252           0.5488042           0.4262932
 Standard basis: def2TZVPP (5D, 7F)
 There are   642 symmetry adapted cartesian basis functions of A   symmetry.
 There are   568 symmetry adapted basis functions of A   symmetry.
   568 basis functions,   850 primitive gaussians,   642 cartesian basis functions
    49 alpha electrons       49 beta electrons
       nuclear repulsion energy       819.0747812256 Hartrees.
 NAtoms=   26 NActive=   26 NUniq=   26 SFac= 1.00D+00 NAtFMM=   60 NAOKFM=F Big=F
 Integral buffers will be    131072 words long.
 Raffenetti 2 integral format.
 Two-electron integral symmetry is turned on.
 Nuclear repulsion after empirical dispersion term =      819.0567872523 Hartrees.
 One-electron integrals computed using PRISM.
   1 Symmetry operations used in ECPInt.
 ECPInt:  NShTT=   23436 NPrTT=   62434 LenC2=   21732 LenP2D=   44984.
 LDataN:  DoStor=T MaxTD1= 6 Len=  172
 NBasis=   568 RedAO= T EigKep=  5.68D-05  NBF=   568
 NBsUse=   568 1.00D-06 EigRej= -1.00D+00 NBFU=   568
 ExpMin= 9.52D-02 ExpMax= 2.70D+04 ExpMxC= 9.22D+02 IAcc=3 IRadAn=         5 AccDes= 0.00D+00
 Harris functional with IExCor= 4639 and IRadAn=       5 diagonalized for initial guess.
 HarFok:  IExCor= 4639 AccDes= 0.00D+00 IRadAn=         5 IDoV= 1 UseB2=F ITyADJ=14
 ICtDFT=  3500011 ScaDFX=  1.000000  1.000000  1.000000  1.000000
 FoFCou: FMM=F IPFlag=           0 FMFlag=      100000 FMFlg1=           0
         NFxFlg=           0 DoJE=T BraDBF=F KetDBF=T FulRan=T
         wScrn=  0.000000 ICntrl=       500 IOpCl=  0 I1Cent=   200000004 NGrid=           0
         NMat0=    1 NMatS0=      1 NMatT0=    0 NMatD0=    1 NMtDS0=    0 NMtDT0=    0
 Petite list used in FoFCou.
 Requested convergence on RMS density matrix=1.00D-08 within 128 cycles.
 Requested convergence on MAX density matrix=1.00D-06.
 Requested convergence on             energy=1.00D-06.
 No special actions if energy rises.
 Integral accuracy reduced to 1.0D-05 until final iterations.
 Initial convergence to 1.0D-05 achieved.  Increase integral accuracy.
 SCF Done:  E(RwB97XD) =  -688.469225780     A.U. after   14 cycles
            NFock= 14  Conv=0.26D-08     -V/T= 2.0050

 **********************************************************************

            Population analysis using the SCF Density.

 **********************************************************************

 Orbital symmetries:
       Occupied  (A) (A) (A) (A) (A) (A) (A) (A) (A) (A) (A) (A)
                 (A) (A) (A) (A) (A) (A) (A) (A) (A) (A) (A) (A)
                 (A) (A) (A) (A) (A) (A) (A) (A) (A) (A) (A) (A)
                 (A) (A) (A) (A) (A) (A) (A) (A) (A) (A) (A) (A)
                 (A)
       Virtual   (A) (A) (A) (A) (A) (A) (A) (A) (A) (A) (A) (A)
                 (A) (A) (A) (A) (A) (A) (A) (A) (A) (A) (A) (A)
                 (A) (A) (A) (A) (A) (A) (A) (A) (A) (A) (A) (A)
                 (A) (A) (A) (A) (A) (A) (A) (A) (A) (A) (A) (A)
                 (A) (A) (A) (A) (A) (A) (A) (A) (A) (A) (A) (A)
                 (A) (A) (A) (A) (A) (A) (A) (A) (A) (A) (A) (A)
                 (A) (A) (A) (A) (A) (A) (A) (A) (A) (A) (A) (A)
                 (A) (A) (A) (A) (A) (A) (A) (A) (A) (A) (A) (A)
                 (A) (A) (A) (A) (A) (A) (A) (A) (A) (A) (A) (A)
                 (A) (A) (A) (A) (A) (A) (A) (A) (A) (A) (A) (A)
                 (A) (A) (A) (A) (A) (A) (A) (A) (A) (A) (A) (A)
                 (A) (A) (A) (A) (A) (A) (A) (A) (A) (A) (A) (A)
                 (A) (A) (A) (A) (A) (A) (A) (A) (A) (A) (A) (A)
                 (A) (A) (A) (A) (A) (A) (A) (A) (A) (A) (A) (A)
                 (A) (A) (A) (A) (A) (A) (A) (A) (A) (A) (A) (A)
                 (A) (A) (A) (A) (A) (A) (A) (A) (A) (A) (A) (A)
                 (A) (A) (A) (A) (A) (A) (A) (A) (A) (A) (A) (A)
                 (A) (A) (A) (A) (A) (A) (A) (A) (A) (A) (A) (A)
                 (A) (A) (A) (A) (A) (A) (A) (A) (A) (A) (A) (A)
                 (A) (A) (A) (A) (A) (A) (A) (A) (A) (A) (A) (A)
                 (A) (A) (A) (A) (A) (A) (A) (A) (A) (A) (A) (A)
                 (A) (A) (A) (A) (A) (A) (A) (A) (A) (A) (A) (A)
                 (A) (A) (A) (A) (A) (A) (A) (A) (A) (A) (A) (A)
                 (A) (A) (A) (A) (A) (A) (A) (A) (A) (A) (A) (A)
                 (A) (A) (A) (A) (A) (A) (A) (A) (A) (A) (A) (A)
                 (A) (A) (A) (A) (A) (A) (A) (A) (A) (A) (A) (A)
                 (A) (A) (A) (A) (A) (A) (A) (A) (A) (A) (A) (A)
                 (A) (A) (A) (A) (A) (A) (A) (A) (A) (A) (A) (A)
                 (A) (A) (A) (A) (A) (A) (A) (A) (A) (A) (A) (A)
                 (A) (A) (A) (A) (A) (A) (A) (A) (A) (A) (A) (A)
                 (A) (A) (A) (A) (A) (A) (A) (A) (A) (A) (A) (A)
                 (A) (A) (A) (A) (A) (A) (A) (A) (A) (A) (A) (A)
                 (A) (A) (A) (A) (A) (A) (A) (A) (A) (A) (A) (A)
                 (A) (A) (A) (A) (A) (A) (A) (A) (A) (A) (A) (A)
                 (A) (A) (A) (A) (A) (A) (A) (A) (A) (A) (A) (A)
                 (A) (A) (A) (A) (A) (A) (A) (A) (A) (A) (A) (A)
                 (A) (A) (A) (A) (A) (A) (A) (A) (A) (A) (A) (A)
                 (A) (A) (A) (A) (A) (A) (A) (A) (A) (A) (A) (A)
                 (A) (A) (A) (A) (A) (A) (A) (A) (A) (A) (A) (A)
                 (A) (A) (A) (A) (A) (A) (A) (A) (A) (A) (A) (A)
                 (A) (A) (A) (A) (A) (A) (A) (A) (A) (A) (A) (A)
                 (A) (A) (A) (A) (A) (A) (A) (A) (A) (A) (A) (A)
                 (A) (A) (A) (A) (A) (A) (A) (A) (A) (A) (A) (A)
                 (A) (A) (A)
 The electronic state is 1-A.
 Alpha  occ. eigenvalues --  -19.26966 -19.26143 -19.25964 -19.25537 -19.25332
 Alpha  occ. eigenvalues --  -19.25189 -10.35059 -10.34992 -10.34535 -10.34033
 Alpha  occ. eigenvalues --  -10.33986 -10.33207  -1.15171  -1.14638  -1.13402
 Alpha  occ. eigenvalues --   -1.12090  -1.11513  -1.10139  -0.88656  -0.85080
 Alpha  occ. eigenvalues --   -0.79975  -0.75218  -0.70853  -0.67619  -0.63312
 Alpha  occ. eigenvalues --   -0.62694  -0.61113  -0.60008  -0.59039  -0.56861
 Alpha  occ. eigenvalues --   -0.56438  -0.55547  -0.53716  -0.51647  -0.50958
 Alpha  occ. eigenvalues --   -0.50505  -0.48467  -0.46328  -0.45679  -0.44704
 Alpha  occ. eigenvalues --   -0.43506  -0.43141  -0.41396  -0.39429  -0.38264
 Alpha  occ. eigenvalues --   -0.37093  -0.36831  -0.36340  -0.35352
 Alpha virt. eigenvalues --    0.08836   0.10113   0.11458   0.12603   0.13427
 Alpha virt. eigenvalues --    0.14928   0.16407   0.17073   0.17656   0.18593
 Alpha virt. eigenvalues --    0.19466   0.20231   0.20561   0.21163   0.21825
 Alpha virt. eigenvalues --    0.22236   0.23574   0.24997   0.25963   0.26829
 Alpha virt. eigenvalues --    0.27757   0.29456   0.30360   0.31825   0.32856
 Alpha virt. eigenvalues --    0.34384   0.36000   0.37198   0.37649   0.37956
 Alpha virt. eigenvalues --    0.39228   0.39917   0.40075   0.41237   0.42285
 Alpha virt. eigenvalues --    0.42698   0.43135   0.43981   0.44625   0.44811
 Alpha virt. eigenvalues --    0.45631   0.45777   0.46269   0.47894   0.48741
 Alpha virt. eigenvalues --    0.48912   0.49555   0.49906   0.50224   0.51191
 Alpha virt. eigenvalues --    0.51909   0.52471   0.52914   0.54268   0.54481
 Alpha virt. eigenvalues --    0.55948   0.56065   0.56672   0.57270   0.58055
 Alpha virt. eigenvalues --    0.59932   0.61382   0.62175   0.62881   0.64667
 Alpha virt. eigenvalues --    0.66014   0.66478   0.66668   0.68140   0.69023
 Alpha virt. eigenvalues --    0.69379   0.70218   0.70469   0.70960   0.72195
 Alpha virt. eigenvalues --    0.74531   0.74768   0.75354   0.78059   0.80188
 Alpha virt. eigenvalues --    0.81417   0.82355   0.83090   0.84653   0.85462
 Alpha virt. eigenvalues --    0.86899   0.88200   0.88669   0.89210   0.90098
 Alpha virt. eigenvalues --    0.92263   0.93889   0.94448   0.95683   0.96223
 Alpha virt. eigenvalues --    0.96920   0.97495   0.98244   0.99404   1.00011
 Alpha virt. eigenvalues --    1.02751   1.03427   1.04133   1.05645   1.05957
 Alpha virt. eigenvalues --    1.07112   1.08418   1.09972   1.11499   1.13118
 Alpha virt. eigenvalues --    1.14228   1.15127   1.15850   1.17801   1.18491
 Alpha virt. eigenvalues --    1.18756   1.20063   1.20159   1.22858   1.23538
 Alpha virt. eigenvalues --    1.26177   1.26753   1.27242   1.27663   1.29256
 Alpha virt. eigenvalues --    1.30068   1.31079   1.31424   1.33579   1.34056
 Alpha virt. eigenvalues --    1.34923   1.37124   1.37616   1.37953   1.39045
 Alpha virt. eigenvalues --    1.40488   1.42182   1.43867   1.44734   1.46220
 Alpha virt. eigenvalues --    1.47699   1.49577   1.50227   1.51107   1.51786
 Alpha virt. eigenvalues --    1.52855   1.54051   1.55563   1.56434   1.58362
 Alpha virt. eigenvalues --    1.59422   1.59905   1.60813   1.63440   1.63806
 Alpha virt. eigenvalues --    1.65650   1.67190   1.69463   1.71782   1.72742
 Alpha virt. eigenvalues --    1.73814   1.75174   1.79104   1.80172   1.85782
 Alpha virt. eigenvalues --    1.87128   1.88586   1.89831   1.92094   1.92482
 Alpha virt. eigenvalues --    1.93330   1.94790   1.95816   1.98849   1.99110
 Alpha virt. eigenvalues --    2.00586   2.01943   2.02339   2.03563   2.04301
 Alpha virt. eigenvalues --    2.05426   2.05915   2.06818   2.09443   2.10251
 Alpha virt. eigenvalues --    2.11833   2.12357   2.12609   2.13753   2.14331
 Alpha virt. eigenvalues --    2.16455   2.17425   2.18896   2.22908   2.23018
 Alpha virt. eigenvalues --    2.25899   2.25921   2.28718   2.30419   2.32143
 Alpha virt. eigenvalues --    2.33053   2.35179   2.36062   2.39281   2.41674
 Alpha virt. eigenvalues --    2.42225   2.44779   2.48475   2.49096   2.50686
 Alpha virt. eigenvalues --    2.52263   2.56765   2.58244   2.59064   2.63649
 Alpha virt. eigenvalues --    2.65268   2.68241   2.68846   2.70906   2.71596
 Alpha virt. eigenvalues --    2.73651   2.74558   2.75564   2.76322   2.77181
 Alpha virt. eigenvalues --    2.78196   2.79829   2.82368   2.83644   2.85407
 Alpha virt. eigenvalues --    2.86626   2.87110   2.88529   2.88929   2.90125
 Alpha virt. eigenvalues --    2.92487   2.94767   2.95138   2.97056   2.98535
 Alpha virt. eigenvalues --    2.98956   3.00090   3.00905   3.02688   3.03804
 Alpha virt. eigenvalues --    3.04202   3.05582   3.07891   3.08382   3.10413
 Alpha virt. eigenvalues --    3.12272   3.12971   3.13365   3.14488   3.16477
 Alpha virt. eigenvalues --    3.16814   3.18155   3.19125   3.20139   3.21808
 Alpha virt. eigenvalues --    3.22131   3.22979   3.25571   3.27133   3.27960
 Alpha virt. eigenvalues --    3.28559   3.29746   3.30262   3.31663   3.32648
 Alpha virt. eigenvalues --    3.33082   3.33708   3.35052   3.35525   3.36478
 Alpha virt. eigenvalues --    3.37910   3.38532   3.39398   3.40707   3.42248
 Alpha virt. eigenvalues --    3.42654   3.43849   3.44501   3.46095   3.46574
 Alpha virt. eigenvalues --    3.47675   3.50143   3.50512   3.51373   3.52602
 Alpha virt. eigenvalues --    3.53028   3.54695   3.56707   3.57209   3.58202
 Alpha virt. eigenvalues --    3.59699   3.61668   3.62406   3.63247   3.65295
 Alpha virt. eigenvalues --    3.66273   3.68798   3.70563   3.71681   3.73110
 Alpha virt. eigenvalues --    3.73673   3.74858   3.76644   3.77319   3.78419
 Alpha virt. eigenvalues --    3.79087   3.80655   3.81422   3.82352   3.84269
 Alpha virt. eigenvalues --    3.84836   3.86233   3.88143   3.88644   3.90084
 Alpha virt. eigenvalues --    3.91125   3.91409   3.93005   3.94729   3.96619
 Alpha virt. eigenvalues --    3.97759   3.98418   3.99571   3.99924   4.01180
 Alpha virt. eigenvalues --    4.01761   4.02670   4.03878   4.04918   4.05637
 Alpha virt. eigenvalues --    4.06994   4.08121   4.08568   4.09818   4.11124
 Alpha virt. eigenvalues --    4.11860   4.12197   4.15180   4.16199   4.16525
 Alpha virt. eigenvalues --    4.17831   4.18356   4.20165   4.20702   4.21665
 Alpha virt. eigenvalues --    4.23472   4.24504   4.25297   4.26794   4.27656
 Alpha virt. eigenvalues --    4.28290   4.31079   4.31433   4.32520   4.32841
 Alpha virt. eigenvalues --    4.34502   4.35113   4.37023   4.38094   4.39743
 Alpha virt. eigenvalues --    4.42708   4.43895   4.44445   4.47671   4.48043
 Alpha virt. eigenvalues --    4.49424   4.49986   4.51626   4.53905   4.54870
 Alpha virt. eigenvalues --    4.57349   4.57668   4.59333   4.61902   4.63092
 Alpha virt. eigenvalues --    4.63374   4.65161   4.68084   4.70156   4.71915
 Alpha virt. eigenvalues --    4.73853   4.75396   4.75918   4.77541   4.80104
 Alpha virt. eigenvalues --    4.82432   4.83016   4.84833   4.85714   4.87427
 Alpha virt. eigenvalues --    4.89343   4.90937   4.93058   4.94218   4.96806
 Alpha virt. eigenvalues --    4.97829   4.99063   5.01783   5.03178   5.04249
 Alpha virt. eigenvalues --    5.05634   5.06647   5.07808   5.09268   5.10784
 Alpha virt. eigenvalues --    5.13475   5.14229   5.17694   5.19543   5.20808
 Alpha virt. eigenvalues --    5.21820   5.23469   5.24883   5.26650   5.28120
 Alpha virt. eigenvalues --    5.30647   5.33023   5.39934   5.43538   5.46014
 Alpha virt. eigenvalues --    5.46769   5.50096   5.54541   5.57308   5.59355
 Alpha virt. eigenvalues --    5.61464   5.62926   5.63378   5.64973   5.66510
 Alpha virt. eigenvalues --    5.67829   5.68650   5.70949   5.73344   5.75349
 Alpha virt. eigenvalues --    5.77906   5.81485   5.82064   5.83579   5.85441
 Alpha virt. eigenvalues --    5.86923   5.88879   5.92379   5.93438   5.96057
 Alpha virt. eigenvalues --    5.97703   5.98966   6.01122   6.12280   6.13020
 Alpha virt. eigenvalues --    6.14255   6.17366   6.18957   6.22186   6.52514
 Alpha virt. eigenvalues --    6.53093   6.54700   6.55678   6.55829   6.56694
 Alpha virt. eigenvalues --    6.70789   6.72252   6.73476   6.74558   6.74579
 Alpha virt. eigenvalues --    6.76777   6.76972   6.78234   6.78878   6.79833
 Alpha virt. eigenvalues --    6.80304   6.80884   6.81853   6.82465   6.86572
 Alpha virt. eigenvalues --    6.89529   6.92001   6.92483   6.95896   6.98716
 Alpha virt. eigenvalues --    7.00684   7.04450   7.05333   7.08389   7.15241
 Alpha virt. eigenvalues --    7.15443   7.21186   7.22501   7.22978   7.23859
 Alpha virt. eigenvalues --    7.39706   7.41134   7.41861   7.42948   7.44682
 Alpha virt. eigenvalues --    7.47136   7.49267   7.52083   7.55530   7.57261
 Alpha virt. eigenvalues --    7.59816   7.61807  23.09623  23.14672  23.21369
 Alpha virt. eigenvalues --   23.24815  23.40221  23.43648  44.10193  44.10975
 Alpha virt. eigenvalues --   44.23988  44.25898  44.28329  44.35729
          Condensed to atoms (all electrons):
               1          2          3          4          5          6
     1  C    5.106695   0.218138   0.093132  -0.034743  -0.053955   0.397111
     2  C    0.218138   5.052606   0.028564   0.145826   0.431200  -0.016413
     3  C    0.093132   0.028564   5.032313   0.007882  -0.001366  -0.027651
     4  C   -0.034743   0.145826   0.007882   5.028111  -0.027539  -0.000718
     5  H   -0.053955   0.431200  -0.001366  -0.027539   0.577158   0.008339
     6  H    0.397111  -0.016413  -0.027651  -0.000718   0.008339   0.603178
     7  C    0.014644  -0.009958   0.270892   0.001428  -0.000951  -0.017183
     8  H   -0.037234  -0.007267   0.404106   0.001164   0.007146   0.008463
     9  C    0.028871  -0.007532  -0.012652   0.290164   0.007578  -0.001201
    10  H   -0.010646  -0.025761   0.003543   0.419269  -0.004748   0.000057
    11  H    0.013740   0.000722  -0.054578  -0.000436   0.000046   0.005742
    12  H   -0.014035  -0.000134  -0.023343   0.000291   0.000120   0.001624
    13  H   -0.008231  -0.002848   0.002474  -0.016954   0.000342   0.001179
    14  H    0.010572  -0.003672  -0.008383  -0.058082  -0.000806   0.000296
    15  O    0.005660  -0.000174  -0.068272  -0.000011   0.000003  -0.000305
    16  H   -0.001031   0.000019   0.010365   0.000001  -0.000000  -0.000037
    17  O   -0.042569  -0.011585   0.265426  -0.007111   0.000340   0.003900
    18  H    0.005475   0.002272  -0.036082  -0.002497  -0.000094  -0.000055
    19  O    0.274195  -0.024764  -0.049709   0.009847   0.007187  -0.040149
    20  H   -0.047858  -0.002350   0.010556   0.001804  -0.001249  -0.004036
    21  O   -0.045197   0.261660   0.004108  -0.038877  -0.039334   0.004105
    22  H    0.012100  -0.050921  -0.000882  -0.000171  -0.006272  -0.000389
    23  O    0.008866  -0.071115  -0.001014   0.256139   0.000477  -0.000186
    24  H   -0.001301   0.008719  -0.000031  -0.041440  -0.000561   0.000010
    25  O   -0.001512   0.011816   0.000486  -0.050826  -0.000399   0.000086
    26  H   -0.000756   0.000404   0.000423   0.009608  -0.000056  -0.000027
               7          8          9         10         11         12
     1  C    0.014644  -0.037234   0.028871  -0.010646   0.013740  -0.014035
     2  C   -0.009958  -0.007267  -0.007532  -0.025761   0.000722  -0.000134
     3  C    0.270892   0.404106  -0.012652   0.003543  -0.054578  -0.023343
     4  C    0.001428   0.001164   0.290164   0.419269  -0.000436   0.000291
     5  H   -0.000951   0.007146   0.007578  -0.004748   0.000046   0.000120
     6  H   -0.017183   0.008463  -0.001201   0.000057   0.005742   0.001624
     7  C    4.728516  -0.025766  -0.000108  -0.000324   0.420343   0.434331
     8  H   -0.025766   0.623503  -0.000570  -0.002274   0.009821  -0.005110
     9  C   -0.000108  -0.000570   4.782888  -0.033564  -0.000112  -0.000048
    10  H   -0.000324  -0.002274  -0.033564   0.596376  -0.000059  -0.000060
    11  H    0.420343   0.009821  -0.000112  -0.000059   0.609167  -0.035632
    12  H    0.434331  -0.005110  -0.000048  -0.000060  -0.035632   0.574781
    13  H   -0.000076   0.000050   0.378067   0.006503   0.000006  -0.000001
    14  H    0.000336   0.000689   0.430779  -0.000398   0.000222   0.000055
    15  O    0.276207   0.006122  -0.000016  -0.000013  -0.051624  -0.044252
    16  H   -0.029435  -0.000178   0.000003   0.000004  -0.004719  -0.005679
    17  O   -0.020006  -0.045621  -0.009425   0.015355   0.000245   0.004283
    18  H   -0.008605  -0.004744   0.000645   0.000383  -0.001809   0.001526
    19  O    0.003387   0.003730  -0.000648  -0.000217  -0.000433   0.008671
    20  H   -0.000220  -0.000586  -0.000039  -0.000061  -0.000270  -0.000170
    21  O   -0.000032  -0.000138  -0.015449   0.003962  -0.000013  -0.000005
    22  H    0.000047  -0.000046  -0.001239   0.001716  -0.000001   0.000001
    23  O    0.000001  -0.000067  -0.034073  -0.037220   0.000000   0.000000
    24  H   -0.000008  -0.000002  -0.011717  -0.002551  -0.000000   0.000000
    25  O   -0.000024  -0.000000   0.236800  -0.002262   0.000000   0.000000
    26  H   -0.000009   0.000008  -0.051277   0.004992   0.000002  -0.000000
              13         14         15         16         17         18
     1  C   -0.008231   0.010572   0.005660  -0.001031  -0.042569   0.005475
     2  C   -0.002848  -0.003672  -0.000174   0.000019  -0.011585   0.002272
     3  C    0.002474  -0.008383  -0.068272   0.010365   0.265426  -0.036082
     4  C   -0.016954  -0.058082  -0.000011   0.000001  -0.007111  -0.002497
     5  H    0.000342  -0.000806   0.000003  -0.000000   0.000340  -0.000094
     6  H    0.001179   0.000296  -0.000305  -0.000037   0.003900  -0.000055
     7  C   -0.000076   0.000336   0.276207  -0.029435  -0.020006  -0.008605
     8  H    0.000050   0.000689   0.006122  -0.000178  -0.045621  -0.004744
     9  C    0.378067   0.430779  -0.000016   0.000003  -0.009425   0.000645
    10  H    0.006503  -0.000398  -0.000013   0.000004   0.015355   0.000383
    11  H    0.000006   0.000222  -0.051624  -0.004719   0.000245  -0.001809
    12  H   -0.000001   0.000055  -0.044252  -0.005679   0.004283   0.001526
    13  H    0.567546  -0.022119   0.000000  -0.000000   0.000486  -0.000012
    14  H   -0.022119   0.603472   0.000009  -0.000001   0.012004  -0.000428
    15  O    0.000000   0.000009   7.893459   0.327144  -0.015027   0.028056
    16  H   -0.000000  -0.000001   0.327144   0.521761   0.000530  -0.001816
    17  O    0.000486   0.012004  -0.015027   0.000530   7.902448   0.327729
    18  H   -0.000012  -0.000428   0.028056  -0.001816   0.327729   0.486917
    19  O   -0.000006   0.000042   0.000068   0.000046   0.001758  -0.000175
    20  H   -0.000037  -0.000058  -0.000003  -0.000004  -0.000217   0.000038
    21  O    0.015555   0.000174   0.000000  -0.000000  -0.000047   0.000010
    22  H    0.000754   0.000269  -0.000000   0.000000  -0.000006  -0.000002
    23  O    0.000215   0.006376  -0.000000   0.000000   0.000306  -0.000011
    24  H   -0.002130   0.002089  -0.000000  -0.000000   0.000006   0.000001
    25  O   -0.028462  -0.034272   0.000000  -0.000000  -0.000053  -0.000011
    26  H    0.009784  -0.011511   0.000000  -0.000000   0.001022  -0.000061
              19         20         21         22         23         24
     1  C    0.274195  -0.047858  -0.045197   0.012100   0.008866  -0.001301
     2  C   -0.024764  -0.002350   0.261660  -0.050921  -0.071115   0.008719
     3  C   -0.049709   0.010556   0.004108  -0.000882  -0.001014  -0.000031
     4  C    0.009847   0.001804  -0.038877  -0.000171   0.256139  -0.041440
     5  H    0.007187  -0.001249  -0.039334  -0.006272   0.000477  -0.000561
     6  H   -0.040149  -0.004036   0.004105  -0.000389  -0.000186   0.000010
     7  C    0.003387  -0.000220  -0.000032   0.000047   0.000001  -0.000008
     8  H    0.003730  -0.000586  -0.000138  -0.000046  -0.000067  -0.000002
     9  C   -0.000648  -0.000039  -0.015449  -0.001239  -0.034073  -0.011717
    10  H   -0.000217  -0.000061   0.003962   0.001716  -0.037220  -0.002551
    11  H   -0.000433  -0.000270  -0.000013  -0.000001   0.000000  -0.000000
    12  H    0.008671  -0.000170  -0.000005   0.000001   0.000000   0.000000
    13  H   -0.000006  -0.000037   0.015555   0.000754   0.000215  -0.002130
    14  H    0.000042  -0.000058   0.000174   0.000269   0.006376   0.002089
    15  O    0.000068  -0.000003   0.000000  -0.000000  -0.000000  -0.000000
    16  H    0.000046  -0.000004  -0.000000   0.000000   0.000000  -0.000000
    17  O    0.001758  -0.000217  -0.000047  -0.000006   0.000306   0.000006
    18  H   -0.000175   0.000038   0.000010  -0.000002  -0.000011   0.000001
    19  O    7.870530   0.332480  -0.014293   0.000025  -0.000087   0.000017
    20  H    0.332480   0.478280   0.023760  -0.001328  -0.000017   0.000007
    21  O   -0.014293   0.023760   7.925766   0.330394  -0.012593  -0.000066
    22  H    0.000025  -0.001328   0.330394   0.477403   0.031278  -0.001411
    23  O   -0.000087  -0.000017  -0.012593   0.031278   7.936152   0.327771
    24  H    0.000017   0.000007  -0.000066  -0.001411   0.327771   0.487383
    25  O    0.000000   0.000001  -0.000065  -0.000081  -0.012371   0.029846
    26  H   -0.000001  -0.000000  -0.000009   0.000008  -0.000173  -0.001919
              25         26
     1  C   -0.001512  -0.000756
     2  C    0.011816   0.000404
     3  C    0.000486   0.000423
     4  C   -0.050826   0.009608
     5  H   -0.000399  -0.000056
     6  H    0.000086  -0.000027
     7  C   -0.000024  -0.000009
     8  H   -0.000000   0.000008
     9  C    0.236800  -0.051277
    10  H   -0.002262   0.004992
    11  H    0.000000   0.000002
    12  H    0.000000  -0.000000
    13  H   -0.028462   0.009784
    14  H   -0.034272  -0.011511
    15  O    0.000000   0.000000
    16  H   -0.000000  -0.000000
    17  O   -0.000053   0.001022
    18  H   -0.000011  -0.000061
    19  O    0.000000  -0.000001
    20  H    0.000001  -0.000000
    21  O   -0.000065  -0.000009
    22  H   -0.000081   0.000008
    23  O   -0.012371  -0.000173
    24  H    0.029846  -0.001919
    25  O    7.911046   0.312667
    26  H    0.312667   0.537309
 Mulliken charges:
               1
     1  C    0.109869
     2  C    0.072549
     3  C    0.149694
     4  C    0.107872
     5  H    0.097396
     6  H    0.074258
     7  C   -0.037427
     8  H    0.064803
     9  C    0.023878
    10  H    0.067999
    11  H    0.089627
    12  H    0.102786
    13  H    0.097920
    14  H    0.072347
    15  O   -0.357030
    16  H    0.183029
    17  O   -0.384170
    18  H    0.203352
    19  O   -0.381504
    20  H    0.211581
    21  O   -0.403375
    22  H    0.208754
    23  O   -0.398656
    24  H    0.207287
    25  O   -0.372412
    26  H    0.189573
 Sum of Mulliken charges =  -0.00000
 Mulliken charges with hydrogens summed into heavy atoms:
               1
     1  C    0.184127
     2  C    0.169945
     3  C    0.214496
     4  C    0.175871
     7  C    0.154987
     9  C    0.194145
    15  O   -0.174001
    17  O   -0.180818
    19  O   -0.169923
    21  O   -0.194622
    23  O   -0.191369
    25  O   -0.182838
 Electronic spatial extent (au):  <R**2>=           2610.0268
 Charge=              0.0000 electrons
 Dipole moment (field-independent basis, Debye):
    X=             -2.3047    Y=             -1.4376    Z=             -0.3443  Tot=              2.7380
 Quadrupole moment (field-independent basis, Debye-Ang):
   XX=            -65.1715   YY=            -72.6435   ZZ=            -73.8028
   XY=              2.9580   XZ=              3.6835   YZ=             -0.8658
 Traceless Quadrupole moment (field-independent basis, Debye-Ang):
   XX=              5.3677   YY=             -2.1042   ZZ=             -3.2636
   XY=              2.9580   XZ=              3.6835   YZ=             -0.8658
 Octapole moment (field-independent basis, Debye-Ang**2):
  XXX=            -75.6031  YYY=            -18.7696  ZZZ=             -2.0368  XYY=              8.6369
  XXY=             -2.7487  XXZ=             -8.7553  XZZ=             -4.3035  YZZ=             -0.3024
  YYZ=              6.4676  XYZ=            -10.3144
 Hexadecapole moment (field-independent basis, Debye-Ang**3):
 XXXX=          -1663.2284 YYYY=           -720.7213 ZZZZ=           -243.0421 XXXY=             98.8609
 XXXZ=             83.4336 YYYX=             15.5549 YYYZ=            -17.5297 ZZZX=             -4.9241
 ZZZY=             -4.1276 XXYY=           -500.0453 XXZZ=           -411.3488 YYZZ=           -179.1633
 XXYZ=            -13.2582 YYXZ=             20.2233 ZZXY=              2.7803
 N-N= 8.190567872523D+02 E-N=-3.255520759283D+03  KE= 6.850131463459D+02
   1 Symmetry operations used in ECPInt.
 ECPInt:  NShTT=   23436 NPrTT=   62434 LenC2=   21732 LenP2D=   44984.
 LDataN:  DoStor=T MaxTD1= 7 Len=  274
 Calling FoFJK, ICntrl=      2127 FMM=F ISym2X=0 I1Cent= 0 IOpClX= 0 NMat=1 NMatS=1 NMatT=0.
 ***** Axes restored to original set *****
 -------------------------------------------------------------------
 Center     Atomic                   Forces (Hartrees/Bohr)
 Number     Number              X              Y              Z
 -------------------------------------------------------------------
      1        6           0.005035150    0.000912315   -0.012881438
      2        6           0.011534439   -0.004248777   -0.009586373
      3        6          -0.008437049    0.000403262    0.007991407
      4        6           0.011542999   -0.004404806   -0.003191758
      5        1          -0.005057992    0.000667404    0.007812807
      6        1           0.001651329   -0.001194760    0.007053125
      7        6          -0.003944930    0.003639366    0.001914875
      8        1          -0.000507533    0.000936613   -0.005800077
      9        6           0.000680277   -0.001219390    0.009640277
     10        1          -0.008786609   -0.001264645   -0.002604218
     11        1           0.004905459   -0.001511798   -0.005008235
     12        1           0.005076387   -0.003763859   -0.002005281
     13        1           0.000041390    0.003865519    0.002612520
     14        1           0.000226525    0.004894697   -0.003239689
     15        8          -0.011924498    0.003328390   -0.006869597
     16        1           0.018429203   -0.002945938    0.006437993
     17        8          -0.014605950    0.008960371    0.001125762
     18        1           0.013424421   -0.009120205   -0.012059323
     19        8           0.014583632   -0.007562475    0.002964511
     20        1          -0.012367273    0.007260974    0.013278959
     21        8           0.009637486   -0.000802447    0.015076038
     22        1          -0.018855634    0.000570621   -0.003636325
     23        8          -0.005976888   -0.010686951    0.007091895
     24        1          -0.006677605    0.012969421   -0.011256017
     25        8          -0.008532344    0.006203941    0.009246255
     26        1           0.008905607   -0.005886843   -0.014108092
 -------------------------------------------------------------------
 Cartesian Forces:  Max     0.018855634 RMS     0.007980349

 GradGradGradGradGradGradGradGradGradGradGradGradGradGradGradGradGradGrad
 Berny optimization.
 FormGI is forming the generalized inverse of G from B-inverse, IUseBI=4.
 Internal  Forces:  Max     0.020036676 RMS     0.005994269
 Search for a local minimum.
 Step number   1 out of a maximum of  140
 All quantities printed in internal units (Hartrees-Bohrs-Radians)
 Mixed Optimization -- RFO/linear search
 Second derivative matrix not updated -- first step.
 ITU=  0
     Eigenvalues ---    0.00239   0.00307   0.00323   0.00325   0.00342
     Eigenvalues ---    0.01056   0.01065   0.01180   0.01220   0.01245
     Eigenvalues ---    0.01251   0.03602   0.03829   0.03986   0.04226
     Eigenvalues ---    0.04631   0.04742   0.04776   0.04920   0.05148
     Eigenvalues ---    0.05286   0.05520   0.05572   0.07402   0.07640
     Eigenvalues ---    0.07872   0.08090   0.11321   0.11453   0.13603
     Eigenvalues ---    0.13658   0.16000   0.16000   0.16000   0.16000
     Eigenvalues ---    0.16000   0.16000   0.16686   0.16872   0.16916
     Eigenvalues ---    0.17577   0.19291   0.19641   0.19664   0.19774
     Eigenvalues ---    0.21986   0.22026   0.28537   0.28995   0.29102
     Eigenvalues ---    0.29119   0.29234   0.33977   0.34054   0.34106
     Eigenvalues ---    0.34280   0.34301   0.34337   0.34357   0.34507
     Eigenvalues ---    0.38504   0.38594   0.39769   0.40182   0.40448
     Eigenvalues ---    0.40519   0.50904   0.51082   0.51085   0.51381
     Eigenvalues ---    0.52342   0.52496
 RFO step:  Lambda=-1.76289219D-02 EMin= 2.39469827D-03
 Linear search not attempted -- first point.
 Iteration  1 RMS(Cart)=  0.06205409 RMS(Int)=  0.00120311
 Iteration  2 RMS(Cart)=  0.00169473 RMS(Int)=  0.00045692
 Iteration  3 RMS(Cart)=  0.00000158 RMS(Int)=  0.00045692
 Iteration  4 RMS(Cart)=  0.00000000 RMS(Int)=  0.00045692
 Variable       Old X    -DE/DX   Delta X   Delta X   Delta X     New X
                                 (Linear)    (Quad)   (Total)
    R1        2.90980  -0.01131   0.00000  -0.03734  -0.03734   2.87246
    R2        2.89756  -0.01262   0.00000  -0.04087  -0.04087   2.85669
    R3        2.07152  -0.00015   0.00000  -0.00042  -0.00042   2.07110
    R4        2.71868  -0.01409   0.00000  -0.03392  -0.03392   2.68476
    R5        2.90013  -0.01042   0.00000  -0.03386  -0.03386   2.86627
    R6        2.07368  -0.00105   0.00000  -0.00294  -0.00294   2.07074
    R7        2.73638  -0.01270   0.00000  -0.03154  -0.03154   2.70484
    R8        2.89791  -0.01213   0.00000  -0.03930  -0.03930   2.85861
    R9        2.07239  -0.00029   0.00000  -0.00081  -0.00081   2.07158
   R10        2.71307  -0.00901   0.00000  -0.02147  -0.02147   2.69159
   R11        2.89518  -0.00762   0.00000  -0.02460  -0.02460   2.87058
   R12        2.06765  -0.00186   0.00000  -0.00515  -0.00515   2.06250
   R13        2.73509  -0.01158   0.00000  -0.02868  -0.02868   2.70641
   R14        2.06860   0.00012   0.00000   0.00033   0.00033   2.06893
   R15        2.06732  -0.00233   0.00000  -0.00646  -0.00646   2.06087
   R16        2.70949  -0.00251   0.00000  -0.00595  -0.00595   2.70354
   R17        2.06826  -0.00410   0.00000  -0.01136  -0.01136   2.05690
   R18        2.06484  -0.00143   0.00000  -0.00394  -0.00394   2.06089
   R19        2.70854  -0.00355   0.00000  -0.00838  -0.00838   2.70015
   R20        1.84127  -0.01934   0.00000  -0.03564  -0.03564   1.80563
   R21        1.85664  -0.02004   0.00000  -0.03804  -0.03804   1.81860
   R22        1.85486  -0.01949   0.00000  -0.03689  -0.03689   1.81797
   R23        1.85489  -0.01909   0.00000  -0.03612  -0.03612   1.81878
   R24        1.85197  -0.01841   0.00000  -0.03465  -0.03465   1.81732
   R25        1.84273  -0.01760   0.00000  -0.03253  -0.03253   1.81020
    A1        1.98251   0.00378   0.00000   0.00510   0.00505   1.98755
    A2        1.90918  -0.00199   0.00000  -0.00003  -0.00051   1.90867
    A3        1.87790   0.00315   0.00000   0.01382   0.01331   1.89120
    A4        1.92204  -0.00114   0.00000  -0.01593  -0.01552   1.90652
    A5        1.91633  -0.00855   0.00000  -0.05488  -0.05475   1.86159
    A6        1.85080   0.00493   0.00000   0.05625   0.05579   1.90659
    A7        2.04062   0.00308   0.00000  -0.00109  -0.00130   2.03932
    A8        1.90978  -0.00147   0.00000  -0.01941  -0.01914   1.89064
    A9        1.86905  -0.00655   0.00000  -0.03953  -0.03940   1.82964
   A10        1.90555  -0.00225   0.00000  -0.01002  -0.01066   1.89488
   A11        1.90079   0.00210   0.00000   0.00850   0.00803   1.90883
   A12        1.82571   0.00545   0.00000   0.07036   0.07026   1.89597
   A13        1.95580  -0.00150   0.00000  -0.01930  -0.01939   1.93641
   A14        1.92727   0.00018   0.00000  -0.01149  -0.01130   1.91596
   A15        1.93186  -0.00555   0.00000  -0.03719  -0.03696   1.89490
   A16        1.89378  -0.00074   0.00000   0.00024  -0.00054   1.89324
   A17        1.88512   0.00464   0.00000   0.02226   0.02145   1.90657
   A18        1.86714   0.00334   0.00000   0.04996   0.04964   1.91678
   A19        1.99869   0.00310   0.00000   0.00383   0.00386   2.00255
   A20        1.94003  -0.00096   0.00000  -0.02138  -0.02131   1.91872
   A21        1.86910  -0.00750   0.00000  -0.04010  -0.03993   1.82917
   A22        1.92658  -0.00325   0.00000  -0.01974  -0.02051   1.90607
   A23        1.87424   0.00429   0.00000   0.02716   0.02702   1.90126
   A24        1.84664   0.00456   0.00000   0.05644   0.05627   1.90290
   A25        1.93764  -0.00242   0.00000  -0.02881  -0.02853   1.90912
   A26        1.95109  -0.00144   0.00000  -0.02526  -0.02513   1.92596
   A27        1.88364  -0.01214   0.00000  -0.04807  -0.04786   1.83578
   A28        1.91620   0.00000   0.00000  -0.00094  -0.00308   1.91312
   A29        1.87286   0.00876   0.00000   0.05964   0.05862   1.93148
   A30        1.90008   0.00773   0.00000   0.04808   0.04695   1.94703
   A31        1.93720  -0.00232   0.00000  -0.02475  -0.02508   1.91211
   A32        1.97592  -0.00539   0.00000  -0.03066  -0.03133   1.94459
   A33        1.89085   0.00378   0.00000   0.01940   0.01948   1.91033
   A34        1.90085   0.00213   0.00000   0.00452   0.00372   1.90457
   A35        1.86246  -0.00175   0.00000  -0.01148  -0.01131   1.85116
   A36        1.89262   0.00388   0.00000   0.04580   0.04603   1.93865
   A37        1.85510   0.00719   0.00000   0.04045   0.04045   1.89555
   A38        1.81089   0.00492   0.00000   0.02769   0.02769   1.83857
   A39        1.82227   0.00250   0.00000   0.01410   0.01410   1.83637
   A40        1.81518   0.00396   0.00000   0.02227   0.02227   1.83746
   A41        1.83068   0.00114   0.00000   0.00643   0.00643   1.83710
   A42        1.85900   0.00320   0.00000   0.01802   0.01802   1.87703
    D1        1.08152   0.00147   0.00000   0.01182   0.01183   1.09335
    D2       -1.09544   0.00341   0.00000   0.04310   0.04326  -1.05217
    D3       -3.06483   0.00112   0.00000  -0.00926  -0.00912  -3.07394
    D4       -1.07364   0.00177   0.00000   0.02896   0.02883  -1.04482
    D5        3.03258   0.00371   0.00000   0.06024   0.06026   3.09284
    D6        1.06319   0.00142   0.00000   0.00789   0.00788   1.07108
    D7       -3.07674  -0.00470   0.00000  -0.04461  -0.04477  -3.12150
    D8        1.02949  -0.00276   0.00000  -0.01333  -0.01333   1.01616
    D9       -0.93990  -0.00505   0.00000  -0.06569  -0.06571  -1.00561
   D10        3.00372  -0.00091   0.00000  -0.02302  -0.02307   2.98065
   D11        0.89035   0.00092   0.00000  -0.00221  -0.00205   0.88830
   D12       -1.17394   0.00014   0.00000  -0.03358  -0.03327  -1.20721
   D13       -1.13133  -0.00165   0.00000  -0.03149  -0.03186  -1.16319
   D14        3.03849   0.00018   0.00000  -0.01067  -0.01084   3.02765
   D15        0.97419  -0.00059   0.00000  -0.04204  -0.04205   0.93214
   D16        0.90034  -0.00135   0.00000  -0.00473  -0.00488   0.89546
   D17       -1.21304   0.00048   0.00000   0.01609   0.01614  -1.19689
   D18        3.00585  -0.00030   0.00000  -0.01529  -0.01507   2.99078
   D19        0.72443  -0.00014   0.00000   0.00906   0.00954   0.73397
   D20        2.89003   0.00120   0.00000  -0.01006  -0.00947   2.88056
   D21       -1.31713  -0.00185   0.00000  -0.02584  -0.02690  -1.34403
   D22        0.96950  -0.00278   0.00000  -0.02461  -0.02473   0.94477
   D23       -1.22864  -0.00005   0.00000   0.01727   0.01729  -1.21134
   D24        3.04532  -0.00070   0.00000  -0.01596  -0.01617   3.02915
   D25       -3.13459  -0.00433   0.00000  -0.06057  -0.06049   3.08810
   D26        0.95046  -0.00160   0.00000  -0.01869  -0.01847   0.93199
   D27       -1.05877  -0.00226   0.00000  -0.05192  -0.05193  -1.11070
   D28       -1.15080   0.00204   0.00000   0.02185   0.02184  -1.12896
   D29        2.93425   0.00477   0.00000   0.06374   0.06387   2.99811
   D30        0.92502   0.00412   0.00000   0.03050   0.03040   0.95542
   D31       -3.01023  -0.00060   0.00000   0.01716   0.01665  -2.99357
   D32       -0.78847   0.00022   0.00000  -0.00497  -0.00544  -0.79391
   D33        1.24699   0.00139   0.00000   0.02356   0.02454   1.27154
   D34        0.98159  -0.00269   0.00000  -0.02531  -0.02544   0.95616
   D35       -1.16466   0.00011   0.00000   0.01493   0.01480  -1.14986
   D36        3.02953  -0.00073   0.00000   0.00181   0.00165   3.03118
   D37        3.11417  -0.00394   0.00000  -0.05218  -0.05217   3.06201
   D38        0.96792  -0.00115   0.00000  -0.01194  -0.01193   0.95599
   D39       -1.12108  -0.00199   0.00000  -0.02506  -0.02508  -1.14615
   D40       -1.15081   0.00205   0.00000   0.01845   0.01860  -1.13221
   D41        2.98612   0.00485   0.00000   0.05870   0.05884   3.04496
   D42        0.89713   0.00401   0.00000   0.04557   0.04569   0.94282
   D43       -2.86862   0.00082   0.00000   0.02131   0.02113  -2.84749
   D44       -0.72156  -0.00148   0.00000  -0.01149  -0.01213  -0.73369
   D45        1.31402   0.00173   0.00000   0.02585   0.02668   1.34069
   D46        1.07788  -0.00222   0.00000  -0.03215  -0.03198   1.04590
   D47       -1.06606   0.00069   0.00000   0.00317   0.00273  -1.06332
   D48        3.11729  -0.00339   0.00000  -0.04846  -0.04846   3.06883
   D49       -3.00018  -0.00377   0.00000  -0.07470  -0.07425  -3.07443
   D50        1.13907  -0.00086   0.00000  -0.03938  -0.03954   1.09953
   D51       -0.96077  -0.00494   0.00000  -0.09101  -0.09073  -1.05150
   D52       -0.99504   0.00234   0.00000  -0.00292  -0.00276  -0.99780
   D53       -3.13898   0.00525   0.00000   0.03240   0.03195  -3.10703
   D54        1.04437   0.00117   0.00000  -0.01923  -0.01924   1.02513
   D55       -2.87494  -0.00122   0.00000   0.00341   0.00311  -2.87184
   D56       -0.72036   0.00062   0.00000   0.00042  -0.00041  -0.72077
   D57        1.33742   0.00126   0.00000   0.01928   0.02041   1.35784
   D58        3.05324   0.00050   0.00000   0.01334   0.01344   3.06668
   D59       -1.14058  -0.00415   0.00000  -0.01405  -0.01594  -1.15652
   D60        0.93229   0.00496   0.00000   0.04440   0.04619   0.97848
   D61        1.34110  -0.00033   0.00000   0.00024   0.00067   1.34177
   D62       -2.85509  -0.00202   0.00000  -0.02496  -0.02497  -2.88005
   D63       -0.80990   0.00153   0.00000  -0.00245  -0.00287  -0.81277
         Item               Value     Threshold  Converged?
 Maximum Force            0.020037     0.000450     NO 
 RMS     Force            0.005994     0.000300     NO 
 Maximum Displacement     0.187815     0.001800     NO 
 RMS     Displacement     0.062000     0.001200     NO 
 Predicted change in Energy=-9.974745D-03
 GradGradGradGradGradGradGradGradGradGradGradGradGradGradGradGradGradGrad

                          Input orientation:                          
 ---------------------------------------------------------------------
 Center     Atomic      Atomic             Coordinates (Angstroms)
 Number     Number       Type             X           Y           Z
 ---------------------------------------------------------------------
      1          6           0        0.011837   -0.011603    0.024684
      2          6           0        1.531847   -0.002792    0.027523
      3          6           0       -0.606111    0.631374    1.245317
      4          6           0        2.219155   -0.770342    1.140647
      5          1           0        1.870289    1.038873    0.061342
      6          1           0       -0.345322   -1.044344   -0.059296
      7          6           0       -2.100779    0.790093    1.074822
      8          1           0       -0.167339    1.623307    1.404299
      9          6           0        1.793116   -2.222818    1.268332
     10          1           0        2.060452   -0.264363    2.094593
     11          1           0       -2.544271   -0.181536    0.834186
     12          1           0       -2.318086    1.499686    0.275707
     13          1           0        2.012276   -2.749626    0.341406
     14          1           0        0.727497   -2.307752    1.484206
     15          8           0       -2.574181    1.261805    2.339791
     16          1           0       -3.509364    1.443679    2.266795
     17          8           0       -0.347959   -0.197597    2.374423
     18          1           0       -0.967981    0.092913    3.050674
     19          8           0       -0.437842    0.732122   -1.099187
     20          1           0        0.139721    0.470393   -1.822665
     21          8           0        1.903836   -0.563673   -1.235716
     22          1           0        2.857092   -0.687344   -1.187465
     23          8           0        3.612374   -0.721836    0.812468
     24          1           0        4.024503   -1.398458    1.357599
     25          8           0        2.574790   -2.860848    2.280034
     26          1           0        2.231251   -2.581512    3.129480
 ---------------------------------------------------------------------
                    Distance matrix (angstroms):
                    1          2          3          4          5
     1  C    0.000000
     2  C    1.520039   0.000000
     3  C    1.511695   2.540876   0.000000
     4  C    2.587143   1.516762   3.155612   0.000000
     5  H    2.135108   1.095788   2.774961   2.135383   0.000000
     6  H    1.095978   2.148518   2.139639   2.844552   3.043563
     7  C    2.491717   3.862833   1.512711   4.593595   4.105900
     8  H    2.146712   2.725242   1.096233   3.390342   2.509387
     9  C    3.099853   2.556635   3.728703   1.519046   3.478708
    10  H    2.923224   2.149563   2.938396   1.091428   2.422539
    11  H    2.686607   4.159014   2.141569   4.809453   4.644892
    12  H    2.788467   4.140172   2.150574   5.146620   4.219098
    13  H    3.405707   2.806141   4.370831   2.144563   3.801489
    14  H    2.813303   2.842841   3.236362   2.169494   3.811878
    15  O    3.697131   4.879063   2.338508   5.342624   4.999434
    16  H    4.420833   5.702669   3.183102   6.243879   5.828255
    17  O    2.384391   3.013231   1.424330   2.905222   3.435088
    18  H    3.182386   3.923996   1.918386   3.814609   4.229270
    19  O    1.420713   2.385215   2.352693   3.786012   2.601613
    20  H    1.913472   2.363285   3.161439   3.826838   2.620595
    21  O    2.339456   1.431341   3.726056   2.406083   2.061950
    22  H    3.165661   1.923819   4.432970   2.415359   2.348004
    23  O    3.753519   2.337040   4.451309   1.432172   2.588271
    24  H    4.449889   3.151240   5.057213   1.923767   3.501642
    25  O    4.446743   3.785501   4.835740   2.407259   4.541666
    26  H    4.601086   4.094032   4.682236   2.689971   4.759302
                    6          7          8          9         10
     6  H    0.000000
     7  C    2.780830   0.000000
     8  H    3.047975   2.130961   0.000000
     9  C    2.779265   4.927220   4.319091   0.000000
    10  H    3.321951   4.412217   3.000476   2.142364   0.000000
    11  H    2.525495   1.094830   3.038469   4.813340   4.774826
    12  H    3.236683   1.090563   2.432019   5.634210   5.058835
    13  H    2.937144   5.475832   5.000300   1.088462   3.041795
    14  H    2.264848   4.214664   4.032412   1.090577   2.514912
    15  O    4.005216   1.430654   2.607435   5.688928   4.885605
    16  H    4.648884   1.957572   3.456197   6.523528   5.828372
    17  O    2.576815   2.395178   2.071101   3.147881   2.425532
    18  H    3.369417   2.381867   2.386145   4.020324   3.195801
    19  O    2.060526   2.737706   2.671110   4.394769   4.175487
    20  H    2.374692   3.676612   3.440464   4.420562   4.424250
    21  O    2.583354   4.817490   4.005287   3.005874   3.347398
    22  H    3.414040   5.646349   4.604729   3.085557   3.403741
    23  O    4.065383   5.915647   4.487337   2.402179   2.064362
    24  H    4.607423   6.510668   5.167666   2.380467   2.384707
    25  O    4.159231   6.053334   5.328586   1.428859   2.653425
    26  H    4.378345   5.861385   5.139065   1.945378   2.543491
                   11         12         13         14         15
    11  H    0.000000
    12  H    1.785935   0.000000
    13  H    5.253574   6.067372   0.000000
    14  H    3.955729   5.023209   1.775359   0.000000
    15  O    2.085900   2.093470   6.412543   4.937089   0.000000
    16  H    2.371729   2.320929   7.195793   5.712852   0.955497
    17  O    2.682606   3.341673   4.026999   2.530187   2.662164
    18  H    2.733649   3.391495   4.929715   3.330415   2.109868
    19  O    3.001624   2.452510   4.494547   4.156053   4.083024
    20  H    3.832451   3.391670   4.307921   4.358780   5.031664
    21  O    4.920994   4.936241   2.697677   3.438540   6.014088
    22  H    5.789442   5.805725   2.702622   3.781365   6.763094
    23  O    6.180346   6.355599   2.625671   3.359893   6.673906
    24  H    6.701018   7.056781   2.628185   3.422439   7.182223
    25  O    5.956004   6.853599   2.021650   2.086085   6.596343
    26  H    5.816690   6.745122   2.801708   2.245696   6.203779
                   16         17         18         19         20
    16  H    0.000000
    17  O    3.563686   0.000000
    18  H    2.982896   0.962361   0.000000
    19  O    4.611984   3.597003   4.232138   0.000000
    20  H    5.566578   4.277803   5.011879   0.962030   0.000000
    21  O    6.752761   4.270562   5.201113   2.679773   2.127417
    22  H    7.550162   4.816560   5.762101   3.588770   3.021249
    23  O    7.584437   4.289379   5.162658   4.708787   4.519365
    24  H    8.103304   4.646980   5.478648   5.521566   5.357071
    25  O    7.452923   3.955284   4.676517   5.779665   5.818837
    26  H    7.064068   3.592421   4.170593   5.998822   6.181615
                   21         22         23         24         25
    21  O    0.000000
    22  H    0.962455   0.000000
    23  O    2.671923   2.138076   0.000000
    24  H    3.452444   2.888923   0.961684   0.000000
    25  O    4.252962   4.102116   2.793869   2.256355   0.000000
    26  H    4.820147   4.755582   3.276347   2.784768   0.957918
                   26
    26  H    0.000000
 Stoichiometry    C6H14O6
 Framework group  C1[X(C6H14O6)]
 Deg. of freedom    72
 Full point group                 C1      NOp   1
 Largest Abelian subgroup         C1      NOp   1
 Largest concise Abelian subgroup C1      NOp   1
                         Standard orientation:                         
 ---------------------------------------------------------------------
 Center     Atomic      Atomic             Coordinates (Angstroms)
 Number     Number       Type             X           Y           Z
 ---------------------------------------------------------------------
      1          6           0       -0.631295    0.835506   -0.326488
      2          6           0        0.697848    1.009321    0.390231
      3          6           0       -1.565608   -0.144310    0.346002
      4          6           0        1.585741   -0.216062    0.493429
      5          1           0        0.497992    1.381579    1.401286
      6          1           0       -0.448518    0.510870   -1.357203
      7          6           0       -2.940073   -0.100664   -0.284265
      8          1           0       -1.662765    0.105610    1.408935
      9          6           0        1.892200   -0.892431   -0.831753
     10          1           0        1.138363   -0.943605    1.172949
     11          1           0       -2.850871   -0.268101   -1.362533
     12          1           0       -3.410511    0.866110   -0.101608
     13          1           0        2.400578   -0.190411   -1.490137
     14          1           0        0.982236   -1.244415   -1.319022
     15          8           0       -3.669454   -1.165236    0.333359
     16          1           0       -4.571015   -1.140297    0.017858
     17          8           0       -1.026208   -1.455026    0.205329
     18          1           0       -1.756250   -2.052561    0.395404
     19          8           0       -1.298641    2.089633   -0.342034
     20          1           0       -0.616140    2.736314   -0.545743
     21          8           0        1.380454    2.029465   -0.346038
     22          1           0        2.272012    2.049989    0.015933
     23          8           0        2.808411    0.264917    1.063389
     24          1           0        3.452229   -0.431979    0.906326
     25          8           0        2.808645   -1.967374   -0.616665
     26          1           0        2.314120   -2.698293   -0.244094
 ---------------------------------------------------------------------
 Rotational constants (GHZ):           1.3392016           0.5622457           0.4382848
 Standard basis: def2TZVPP (5D, 7F)
 There are   642 symmetry adapted cartesian basis functions of A   symmetry.
 There are   568 symmetry adapted basis functions of A   symmetry.
   568 basis functions,   850 primitive gaussians,   642 cartesian basis functions
    49 alpha electrons       49 beta electrons
       nuclear repulsion energy       829.6409298252 Hartrees.
 NAtoms=   26 NActive=   26 NUniq=   26 SFac= 1.00D+00 NAtFMM=   60 NAOKFM=F Big=F
 Integral buffers will be    131072 words long.
 Raffenetti 2 integral format.
 Two-electron integral symmetry is turned on.
 Nuclear repulsion after empirical dispersion term =      829.6226107171 Hartrees.
 One-electron integrals computed using PRISM.
   1 Symmetry operations used in ECPInt.
 ECPInt:  NShTT=   23436 NPrTT=   62434 LenC2=   21802 LenP2D=   45241.
 LDataN:  DoStor=T MaxTD1= 6 Len=  172
[...]
 0192244,0.00031034,-0.00010836,-0.00029135,-0.00075849,0.00082451,0.00
 612365,0.00026183,-0.00017083,0.00098778,0.32231098,0.04185578,-0.1205
 1179,0.04866412,0.00676562,-0.00405513,0.00832514,-0.00503947,0.007189
 83,-0.00460587,-0.00019099,0.00207249,-0.00155088,0.00164108,0.0019951
 7,-0.00054021,0.01448078,-0.01717542,0.03820542,0.00112603,-0.00094241
 ,0.00096428,-0.00020617,0.00180563,0.00114337,-0.00139736,0.00012457,-
 0.00009509,0.00015481,-0.00002608,0.00033645,0.00018579,0.00029030,-0.
 00009858,0.00003302,0.00054321,-0.00122526,-0.00021906,0.00011834,0.00
 008392,0.00055104,0.00016960,-0.00058135,-0.00027598,0.00069299,-0.000
 74432,-0.00011240,-0.00014761,0.00007722,0.00133849,0.00115719,-0.0036
 7969,0.00014294,0.00044571,-0.00065337,-0.16202175,0.18817509,-0.04778
 213,0.07308577,-0.18253811,-0.01249361,0.01165739,-0.02302387,-0.01336
 826,0.02412180,-0.03484095,-0.00002654,-0.00156974,0.00416587,0.001042
 76,-0.00065170,0.00042878,-0.00346025,0.01567539,-0.01104229,0.0007802
 2,-0.00021295,0.00016528,-0.00085612,-0.00054627,0.00156109,0.00072015
 ,-0.00075406,-0.00005674,0.00033263,-0.00011967,0.00030191,0.00030058,
 0.00064378,-0.00005564,0.00133941,-0.00003624,-0.00208479,-0.00000969,
 0.00018856,-0.00003800,-0.00014753,-0.00036615,0.00029653,0.00025891,-
 0.00014091,-0.00051973,-0.00023228,0.00007577,0.00015907,0.00574985,-0
 .00415912,-0.00970250,-0.00157367,0.00126347,-0.00154044,-0.17293729,-
 0.00550532,0.55738691,0.00912944,-0.00429823,-0.01262445,0.00133165,-0
 .00023940,-0.00799180,-0.00206231,0.00178573,-0.00195306,0.00018912,0.
 00016949,0.00055080,-0.00036435,0.00014700,0.00027540,-0.00022694,0.00
 099835,-0.00018506,-0.00034647,0.00077519,0.00008148,-0.00000383,-0.00
 015692,0.00009117,0.00034760,0.00029826,-0.00025662,0.00026489,-0.0001
 6583,0.00043617,0.00002977,-0.00005502,-0.00007873,0.00003195,-0.00023
 125,0.00030344,0.00006700,0.00018969,-0.00003336,-0.00011033,-0.000142
 18,0.00018576,0.00007230,-0.00023654,0.00006922,0.00001097,0.00002534,
 0.00003758,0.00062174,-0.00010719,-0.00187511,-0.00007643,0.00024806,-
 0.00026942,-0.20634032,0.09692306,0.24056205,0.19692080,-0.01237316,0.
 00472881,0.02060312,0.00080124,0.00255346,0.00278804,0.00145485,-0.001
 80568,0.00067171,-0.00011434,-0.00027940,-0.00063194,-0.00032713,-0.00
 058346,-0.00074354,-0.00026734,-0.00077119,0.00144586,0.00037028,-0.00
 026725,0.00005527,-0.00006810,0.00004868,0.00018858,0.00011832,0.00007
 928,0.00030712,-0.00012024,0.00006416,-0.00018388,0.00001357,0.0000839
 2,-0.00010057,-0.00022560,0.00019819,-0.00014765,0.00006268,-0.0001328
 3,-0.00001048,-0.00002293,0.00003155,-0.00000060,0.00003776,-0.0000028
 2,-0.00022361,-0.00001801,0.00003065,-0.00000042,-0.00023691,0.0001767
 2,0.00117601,0.00017529,0.00005744,0.00022019,0.10635998,-0.06273582,-
 0.11182872,-0.09388487,0.06025308,0.01965161,-0.00840544,-0.03597343,-
 0.00043316,-0.00097930,-0.00075407,-0.00265530,0.00489430,-0.00285707,
 0.00021351,0.00003191,-0.00147750,-0.00045273,-0.00011472,-0.00018095,
 0.00044071,-0.00027091,0.00072390,-0.00015554,0.00025887,0.00006956,-0
 .00008310,-0.00015419,0.00019680,0.00001395,0.00031593,-0.00003859,-0.
 00000071,0.00003832,0.00007322,0.00010064,0.00001424,-0.00002796,0.000
 18471,-0.00015639,-0.00004268,-0.00000601,0.00003374,0.00000241,0.0000
 3675,-0.00001341,-0.00003094,-0.00029425,0.00007870,0.00054205,0.00006
 624,-0.00000803,-0.00000363,0.00093129,-0.00079002,-0.00133673,-0.0002
 2445,0.00021221,-0.00042161,0.20044568,-0.08087053,-0.30294231,-0.2210
 6772,0.08756876,0.34350444,-0.02238926,0.02363763,0.04181394,-0.102441
 41,0.02150590,0.04498736,-0.00891911,0.00038452,-0.00549600,-0.0015529
 5,-0.00419343,-0.00677858,0.00606075,0.00208906,-0.00327099,0.00314228
 ,-0.00009801,-0.00004519,0.00153846,0.00062815,0.00211373,-0.00014852,
 -0.00001368,0.00006929,0.00026694,0.00062913,0.00059354,-0.00029176,0.
 00156981,-0.00207019,-0.00005366,-0.00015001,0.00000437,0.00013051,-0.
 00004428,-0.00003140,-0.00029433,-0.00028211,-0.00007552,0.00027535,0.
 00037958,-0.00048505,-0.00202459,0.00048896,0.00099728,0.00002748,0.00
 009156,0.00020381,0.00073996,-0.00092710,0.00110480,0.00007174,-0.0000
 0753,-0.00017874,-0.00410904,0.00236660,0.00563071,0.00169117,-0.00182
 109,0.00205703,0.63974079,0.00532667,-0.00170591,-0.00374597,0.0075977
 9,-0.09504838,-0.05875982,0.00081679,-0.00024792,0.00145342,-0.0014368
 1,0.00842707,0.00834630,0.01302304,-0.01105151,-0.03931366,0.00132318,
 0.00139737,0.00069233,-0.00038080,0.00028585,-0.00019218,-0.00024390,0
 .00081391,0.00047830,-0.00178460,-0.00181889,-0.00201184,0.00178090,-0
 .00048168,0.00314290,0.00020234,0.00004624,-0.00001082,-0.00012778,0.0
 0003891,-0.00002054,0.00009696,0.00194628,0.00166649,-0.00007416,-0.00
 009621,0.00076136,0.00047080,-0.00005133,-0.00039134,-0.00005698,-0.00
 004212,-0.00000528,-0.00002884,0.00086722,-0.00107154,-0.00006614,-0.0
 0000703,0.00002884,0.00304020,0.00117635,-0.00219055,-0.00111392,-0.00
 127909,-0.00062410,-0.09145832,0.10940976,0.00910432,-0.00533322,-0.01
 437361,0.00256416,-0.05235914,-0.18858406,0.00047464,0.00031123,0.0016
 7586,0.01178344,-0.01502086,-0.05102710,0.00603216,-0.01522161,-0.0186
 5483,-0.00050747,0.00062572,0.00060603,-0.00067094,0.00003511,-0.00075
 430,-0.00016401,0.00037002,0.00016467,0.00012167,-0.00360877,0.0010316
 9,-0.00525562,0.00498379,-0.00488459,0.00017619,0.00008600,-0.00006160
 ,0.00015982,-0.00018149,0.00004740,0.00005722,0.00127674,-0.00074582,-
 0.00007823,0.00003005,-0.00031752,0.00078861,-0.00028038,0.00001342,-0
 .00004690,0.00000054,-0.00004322,0.00076953,0.00020087,0.00037299,-0.0
 0020863,-0.00003070,0.00018561,-0.00223950,0.00031823,0.00390771,0.001
 43865,0.00041996,-0.00046760,-0.02112204,0.09459434,0.31098231,-0.0004
 1764,0.00190568,0.00159002,-0.01419639,0.00180462,0.00431320,-0.000340
 81,-0.00013856,-0.00012175,0.00311594,-0.00023352,-0.00160683,0.000598
 77,-0.00081558,-0.00144979,0.00034892,0.00006334,-0.00002818,-0.000030
 20,0.00009999,0.00018920,0.00000744,0.00005980,0.00000809,-0.00024407,
 -0.00048730,0.00070919,-0.00129985,0.00021871,-0.00021831,0.00000231,-
 0.00000878,-0.00000988,-0.00001660,0.00001442,-0.00000181,0.00001285,-
 0.00049566,0.00017080,-0.00006935,-0.00018545,-0.00005953,0.00007594,-
 0.00007248,-0.00015212,-0.00001932,0.00000959,0.00002370,0.00001172,0.
 00006469,-0.00018550,-0.00002273,0.00000420,0.00003118,0.00116958,-0.0
 0043001,0.00013318,-0.00075402,-0.00011571,0.00002473,-0.51347045,0.06
 274008,-0.00380128,0.52835552,-0.00004983,-0.00117178,-0.00058291,0.01
 760947,-0.00259965,-0.00354740,0.00042441,0.00053648,-0.00029676,-0.00
 104262,0.00207326,0.00092764,0.00081010,-0.00034161,-0.00011721,0.0000
 4927,0.00009233,-0.00007256,0.00009537,-0.00000384,-0.00012821,-0.0000
 1448,-0.00001588,0.00006517,0.00020681,0.00024965,0.00114688,0.0001201
 9,-0.00020364,-0.00025664,-0.00002269,-0.00000060,0.00000918,0.0000154
 9,-0.00000771,0.00000255,-0.00042853,-0.00080714,0.00005016,0.00004799
 ,-0.00001635,-0.00038404,-0.00001358,-0.00001822,0.00006505,0.00000225
 ,0.00000722,-0.00001361,0.00008147,-0.00026005,0.00014591,0.00001109,0
 .00001376,-0.00000861,0.00069004,0.00000950,-0.00049437,-0.00069635,-0
 .00018546,-0.00037396,0.04632975,-0.01671944,-0.01184747,-0.06447923,0
 .02253360,0.00106318,-0.00283026,-0.00804306,0.04297942,-0.00613794,-0
 .00359299,0.00217728,-0.00018506,0.00125457,0.00597719,0.00004446,-0.0
 0358399,-0.00008695,-0.00092618,-0.00005519,-0.00025450,0.00009820,0.0
 0005449,-0.00021263,-0.00014928,-0.00058003,-0.00002050,0.00002122,0.0
 0001996,-0.00016053,0.00082556,-0.00030819,-0.00039446,-0.00021802,0.0
 0082978,0.00001577,0.00002086,0.00000136,-0.00000268,-0.00001631,0.000
 01627,0.00021148,0.00028779,-0.00003885,-0.00020672,-0.00040150,0.0002
 7176,0.00027944,-0.00002427,-0.00007678,0.00002955,-0.00003928,-0.0000
 5961,-0.00046838,0.00029842,-0.00015538,0.00003397,-0.00000398,-0.0000
 0377,-0.00215422,0.00106153,0.00064778,0.00139023,-0.00120221,0.000627
 33,-0.04949776,-0.00689916,-0.04013427,0.00030753,0.01630517,0.0478066
 7,0.00452874,0.00180365,-0.00291156,-0.04317599,0.00189143,-0.00103103
 ,0.00069184,-0.00112527,0.00036546,-0.20776154,-0.02375050,0.04883034,
 0.00153279,-0.00016031,0.00087223,-0.00008802,-0.00011476,0.00024882,0
 .00050161,-0.00010729,-0.00018500,0.00005677,0.00016276,0.00000113,-0.
 04013153,-0.00618762,0.00729607,-0.02540663,0.00154922,0.01036657,0.00
 001421,-0.00001556,0.00005167,-0.00007192,0.00006339,-0.00003241,0.001
 51348,0.00084956,-0.00098205,0.00036483,-0.00612093,0.00106110,-0.0007
 6283,0.00044992,0.00043252,0.00010446,-0.00004371,-0.00007604,-0.00190
 951,0.00046175,0.00040335,0.00001490,-0.00002977,-0.00046029,-0.003393
 21,0.00134209,-0.00289895,-0.00020430,0.00015328,0.00095284,0.00003223
 ,0.00048683,0.00032348,-0.00189729,0.00048071,0.00029684,0.43451642,-0
 .00205929,-0.00204339,0.00384050,0.02826722,0.00189414,-0.00437919,-0.
 00055450,-0.00001096,0.00059327,0.01819842,-0.08757412,0.01223448,-0.0
 0032211,0.00180808,-0.00173221,0.00079020,0.00040097,0.00009511,-0.000
 22896,-0.00002214,-0.00000438,-0.00007546,0.00016379,-0.00008008,-0.03
 803671,-0.00374985,0.01249540,0.01428311,0.00580695,-0.00084824,0.0000
 6191,0.00003384,0.00000922,-0.00003238,0.00003006,0.00000175,0.0007044
 3,0.00342500,0.00028663,-0.00194890,-0.00757553,0.00149614,0.00026032,
 -0.00001388,-0.00019979,-0.00002804,-0.00004035,0.00001543,0.00075856,
 0.00071052,-0.00060721,0.00004449,-0.00001527,0.00011072,0.00256116,-0
 .00027551,0.00146384,-0.00004895,-0.00021289,-0.00047022,0.00048392,0.
 00304727,-0.00014884,-0.00039351,-0.00311579,-0.00057202,-0.15127002,0
 .39887908,0.00096726,0.00241574,-0.00370264,-0.02679322,-0.00045419,-0
 .00087071,-0.00051585,0.00064941,-0.00202470,0.02519256,0.01461290,-0.
 08702584,0.00045410,-0.00066321,0.00119192,-0.00008840,-0.00023194,0.0
 0004510,0.00023218,-0.00007175,0.00006829,-0.00008463,0.00000502,0.000
 12983,0.00443932,0.00357775,-0.00128143,0.03420064,0.00322000,0.000465
 86,0.00002363,0.00002197,-0.00001009,0.00016116,-0.00010124,0.00000782
 ,-0.00034131,0.00179917,0.00078620,-0.00005305,0.00067932,0.00160620,-
 0.00013058,-0.00000143,0.00037315,-0.00000142,0.00001341,0.00003253,0.
 00177044,-0.00051210,0.00083375,0.00005199,0.00000523,0.00019504,-0.00
 255875,0.00056764,-0.00029341,0.00075535,-0.00027507,0.00055352,-0.009
 34916,0.00286202,0.00059149,0.00047668,-0.00134704,0.00393825,0.043111
 22,-0.22255676,0.21624666,0.00076589,0.00114666,-0.00143364,-0.0083048
 4,-0.00072076,0.00253549,0.00002534,0.00010612,-0.00029695,-0.02767815
 ,0.03314663,-0.02070170,0.00021983,-0.00014717,0.00035509,-0.00011737,
 -0.00014518,-0.00000717,-0.00002222,0.00004524,0.00004718,-0.00000370,
 -0.00003113,0.00003996,-0.00338306,0.00025059,-0.00276768,-0.00031952,
 0.00034621,0.00021856,-0.00000708,-0.00000204,-0.00001300,0.00002446,-
 0.00002627,0.00000177,-0.00011366,-0.00041563,0.00004781,0.00045237,0.
 00094724,-0.00036226,0.00006606,-0.00007309,-0.00001156,-0.00001583,0.
 00002016,0.00001387,0.00018750,-0.00027151,0.00017420,-0.00004656,0.00
 000828,0.00003975,-0.00074101,0.00001311,-0.00032495,-0.00011347,0.000
 10758,0.00007336,0.00099452,-0.00032947,0.00116178,-0.00022981,-0.0001
 2310,-0.00088722,-0.12460794,0.13546240,-0.07725156,0.15980673,0.00028
 660,0.00074203,-0.00046274,-0.00200014,-0.00072924,-0.00062990,0.00004
 783,0.00003075,-0.00013127,0.00161594,0.00275918,-0.00138281,-0.000078
 76,0.00007941,0.00010145,-0.00009652,-0.00009512,-0.00004142,0.0000748
 7,0.00000668,0.00001524,0.00000783,-0.00006634,0.00000910,-0.00628015,
 0.00173201,-0.00155206,-0.00012539,-0.00034865,0.00057447,-0.00002591,
 -0.00001518,-0.00000438,0.00000879,-0.00000791,-0.00000339,0.00009009,
 -0.00015166,-0.00012060,0.00073943,-0.00066791,0.00058991,-0.00008856,
 -0.00000513,0.00005618,0.00000968,0.00001776,-0.00000663,-0.00021919,-
 0.00024026,0.00008291,0.00001594,0.00002986,-0.00003188,-0.00060267,0.
 00002293,-0.00021325,0.00012720,0.00000706,0.00012391,-0.00138204,-0.0
 0002370,-0.00077249,0.00057082,0.00007321,0.00120176,0.17532900,-0.309
 71700,0.19301677,-0.17177617,0.30594554,0.00010100,0.00001840,0.000016
 08,0.00003788,0.00049906,-0.00142784,-0.00007172,0.00001349,0.00009994
 ,0.00398932,-0.00732916,0.00436473,0.00004867,0.00000046,-0.00012774,0
 .00002739,0.00001505,0.00000508,-0.00003886,0.00001881,0.00001612,-0.0
 0001608,0.00000645,-0.00000642,0.00296730,0.00027385,0.00358075,0.0020
 1147,-0.00064174,-0.00063903,0.00000212,-0.00000414,-0.00000190,-0.000
 00338,0.00000130,-0.00000301,-0.00053803,-0.00030555,-0.00053154,-0.00
 027799,0.00068615,-0.00093307,0.00004680,-0.00002064,-0.00005526,-0.00
 000318,-0.00000269,0.00000777,0.00011699,0.00003992,-0.00020799,0.0000
 5994,-0.00001456,0.00006282,-0.00001581,0.00005176,-0.00001061,-0.0000
 5790,0.00001970,0.00004984,-0.00129592,-0.00023237,0.00014517,0.000139
 78,0.00118591,0.00102025,-0.10471345,0.19668231,-0.13348214,0.09959597
 ,-0.18896361,0.13133682,-0.00049511,-0.00192433,0.00060155,0.00099282,
 -0.00005645,0.00228206,0.00029901,-0.00062468,0.00032218,-0.00692344,0
 .00429014,-0.00531445,-0.00020363,0.00061696,-0.00067035,0.00064272,0.
 00083024,0.00030282,0.00020731,-0.00016621,-0.00017962,-0.00004624,0.0
 0028504,-0.00002589,-0.14010923,0.06105476,-0.03285555,0.00006043,0.00
 007469,0.00063381,0.00007516,0.00001776,0.00005102,-0.00003549,0.00006
 114,-0.00000341,0.00063627,0.00082157,-0.00360714,-0.02288598,0.023046
 71,-0.03234075,-0.00033923,0.00028579,0.00022071,0.00005838,-0.0000521
 0,-0.00005169,-0.00044148,0.00116622,0.00066540,0.00003997,0.00016655,
 -0.00024807,0.00006482,0.00103276,-0.00087263,-0.00018287,-0.00004638,
 0.00017135,0.00113030,-0.00008726,-0.00084488,-0.00066798,-0.00007526,
 -0.00048643,0.00653404,-0.00563591,0.00561395,0.00288555,0.00279935,-0
 .00374215,0.21907895,-0.00205249,0.00004342,-0.00038490,-0.00524426,-0
 .00755353,-0.00469839,-0.00018633,0.00015191,0.00055004,0.02731410,-0.
 02688125,0.03613047,0.00153004,-0.00156793,0.00235320,0.00032193,0.000
 14279,-0.00003984,-0.00038200,0.00006439,0.00004858,-0.00004241,0.0001
 1154,0.00002097,0.05720491,-0.10355395,0.02350766,0.00042357,0.0035179
 2,-0.00060996,0.00004565,0.00003263,-0.00001240,-0.00001662,0.00000172
 ,0.00000356,-0.00622765,0.00785941,-0.00272880,0.00551753,-0.00079293,
 0.00429828,0.00048871,-0.00014149,-0.00035751,-0.00005872,-0.00003383,
 0.00004564,0.00061561,0.00026352,-0.00069232,-0.00009004,-0.00017895,0
 .00021996,0.00128945,-0.00011368,0.00075701,-0.00038755,-0.00006024,-0
 .00039647,-0.00008797,0.00123144,0.00233076,0.00028964,-0.00013096,-0.
 00075487,0.00362949,-0.00069185,0.00343495,0.00262527,-0.00019527,-0.0
 0303490,-0.13789752,0.17806072,0.00063246,-0.00101590,0.00041021,0.001
 54427,0.00197593,0.00195732,0.00018454,0.00007354,-0.00072659,-0.00821
 840,0.01237715,-0.01140404,-0.00068710,0.00079856,-0.00112827,0.000215
 39,0.00021613,0.00001167,0.00034795,-0.00017517,-0.00010113,-0.0000028
 9,0.00002703,0.00005777,-0.07117765,0.05174910,-0.14522898,0.00057323,
 0.00095119,0.00251146,0.00000669,0.00000509,0.00001658,0.00004203,-0.0
 0000387,0.00000566,-0.02767366,0.02274599,-0.02665842,-0.00375785,-0.0
 0034151,0.00339421,-0.00041825,0.00018242,0.00040618,0.00004900,0.0000
 0451,-0.00004490,-0.00026745,-0.00005512,0.00088400,-0.00003733,0.0001
 5279,-0.00025290,-0.00071894,0.00051133,-0.00052507,0.00027111,-0.0001
 2489,0.00028870,0.00010262,0.00137073,-0.00025641,-0.00050133,-0.00044
 183,0.00031882,-0.00133254,0.00280599,0.00128149,-0.00085976,-0.002027
 52,-0.00236808,-0.02706565,0.04037910,0.65349219,0.00013427,0.00008757
 ,-0.00011223,0.00010905,-0.00005022,-0.00013536,0.00004280,0.00030465,
 -0.00051302,0.00041729,0.00012804,0.00025045,-0.00003048,0.00002654,-0
 .00000562,-0.00002349,-0.00004554,-0.00005439,0.00001798,-0.00001607,0
 .00006201,-0.00000445,-0.00010471,0.00007644,0.00280868,-0.00506499,-0
 .03276698,0.00032456,0.00024668,0.00027264,-0.00002106,-0.00000112,-0.
 00001962,0.00004448,-0.00003040,0.00000642,-0.00305549,0.00291712,-0.0
 0403349,0.00028539,-0.00081177,-0.00089187,0.00002690,-0.00008263,0.00
 004161,-0.00001435,0.00003105,0.00000896,0.00005521,-0.00058801,0.0004
 9482,-0.00007296,0.00012684,-0.00001525,-0.00013485,-0.00005981,0.0001
 3347,0.00007726,-0.00001304,0.00000856,-0.00014741,0.00028341,-0.00001
 617,-0.00002248,-0.00002872,0.00007110,-0.00099560,-0.00124140,-0.0002
 8255,0.00027598,0.00095214,0.00162986,-0.06037506,0.05137764,0.1387494
 9,0.06027781,0.00025272,0.00016663,0.00002997,0.00031515,-0.00073390,0
 .00018584,0.00002928,-0.00013313,0.00020126,-0.00058870,0.00140079,0.0
 0347373,0.00000789,-0.00003359,0.00006650,-0.00008142,-0.00004324,-0.0
 0002368,0.00007955,0.00003719,-0.00004701,0.00001349,-0.00002390,-0.00
 001513,-0.00302731,0.00229658,0.02279577,0.00034325,-0.00092837,-0.000
 90900,-0.00002016,-0.00002000,-0.00000172,-0.00002898,0.00000886,-0.00
 000431,0.00103344,-0.00078912,0.00107660,0.00046530,0.00061324,-0.0003
 0350,-0.00012065,0.00002063,0.00004413,0.00001866,0.00001551,-0.000021
 39,-0.00037458,0.00000521,-0.00027309,0.00012916,0.00004031,-0.0000225
 3,-0.00019589,-0.00000543,-0.00014376,0.00007680,0.00000314,0.00005679
 ,-0.00011902,-0.00011446,-0.00077840,0.00001021,0.00000913,0.00019539,
 0.00027266,-0.00114116,-0.00066656,-0.00016397,0.00081697,0.00103673,0
 .05001639,-0.04958554,-0.13214078,-0.04834326,0.04811764,-0.00022277,0
 .00017625,-0.00005073,-0.00038840,-0.00024291,-0.00042079,-0.00007219,
 0.00010557,0.00004453,0.00108758,0.00066378,0.00104773,0.00009566,-0.0
 0017348,0.00018535,-0.00002459,-0.00006240,-0.00005646,-0.00009728,0.0
 0004817,0.00005431,-0.00000442,-0.00001518,0.00000673,0.00732848,-0.00
 892818,-0.02672330,0.00015833,0.00073840,-0.00028002,-0.00000245,-0.00
 000146,-0.00001028,0.00000130,-0.00000740,-0.00000222,-0.00380596,0.00
 333986,-0.00075929,0.00032050,-0.00121086,0.00281978,0.00013417,-0.000
 06605,-0.00011840,-0.00001651,-0.00000072,0.00002202,0.00019284,-0.000
 07872,-0.00029968,0.00002461,-0.00007385,0.00013595,0.00020237,-0.0001
 5994,0.00019354,-0.00005519,0.00000926,-0.00007671,0.00001806,0.000072
 13,0.00058059,0.00001904,0.00000899,-0.00017517,0.00000966,-0.00053184
 ,0.00034383,0.00061267,0.00057225,-0.00091073,0.09744380,-0.10036982,-
 0.47634147,-0.10295929,0.10618814,0.50079090\\0.00000361,0.00000296,-0
 .00001008,0.00000936,0.00000300,-0.00000846,-0.00000632,0.00000165,0.0
 0000865,0.00000099,-0.00001018,0.00000049,-0.00000345,0.00000688,-0.00
 000046,-0.00000272,-0.00000454,-0.00000396,0.00000516,-0.00000142,0.00
 000810,-0.00000302,0.00000211,-0.00000912,0.00002150,-0.00000455,0.000
 00717,0.00000224,-0.00000194,-0.00000011,0.00000343,-0.00000417,0.0000
 0153,0.00000201,0.00000146,-0.00000709,-0.00000230,-0.00000179,-0.0000
 0066,-0.00000783,0.00000467,0.00000235,0.00000877,0.00000127,0.0000042
 4,-0.00000378,-0.00000009,0.00000123,-0.00000865,-0.00000244,-0.000002
 91,0.00000485,0.00000600,0.00000577,-0.00001103,-0.00000570,0.00000941
 ,0.00000508,-0.00000375,0.00000019,-0.00001879,0.00000748,0.00000094,0
 .00000811,-0.00001224,0.00000402,-0.00000228,0.00000125,-0.00000900,-0
 .00000080,0.00000368,-0.00000320,0.00000113,0.00001132,-0.00000410,-0.
 00000530,-0.00000094,0.00000504\\\@
 The archive entry for this job was punched.


 HE THAT RISETH LATE MUST TROT ALL DAY.

                  -- BENJAMIN FRANKLIN
 Job cpu time:       0 days 10 hours 30 minutes 54.3 seconds.
 Elapsed time:       0 days  0 hours 39 minutes 41.5 seconds.
 File lengths (MBytes):  RWF=    704 Int=      0 D2E=      0 Chk=     27 Scr=      1
 Normal termination of Gaussian 16 at Wed Sep 27 12:14:42 2023.
