 Entering Gaussian System, Link 0=/opt/software/gaussian/g16.c01/g16
 Initial command:
 /opt/software/gaussian/g16.c01/l1.exe "/scratch/arhender/14836891/Gau-41960.inp" -scrdir="/scratch/arhender/14836891/"
 Entering Link 1 = /opt/software/gaussian/g16.c01/l1.exe PID=     41977.
  
 Copyright (c) 1988-2019, Gaussian, Inc.  All Rights Reserved.
  
 This is part of the Gaussian(R) 16 program.  It is based on
 the Gaussian(R) 09 system (copyright 2009, Gaussian, Inc.),
 the Gaussian(R) 03 system (copyright 2003, Gaussian, Inc.),
 the Gaussian(R) 98 system (copyright 1998, Gaussian, Inc.),
 the Gaussian(R) 94 system (copyright 1995, Gaussian, Inc.),
 the Gaussian 92(TM) system (copyright 1992, Gaussian, Inc.),
 the Gaussian 90(TM) system (copyright 1990, Gaussian, Inc.),
 the Gaussian 88(TM) system (copyright 1988, Gaussian, Inc.),
 the Gaussian 86(TM) system (copyright 1986, Carnegie Mellon
 University), and the Gaussian 82(TM) system (copyright 1983,
 Carnegie Mellon University). Gaussian is a federally registered
 trademark of Gaussian, Inc.
  
 This software contains proprietary and confidential information,
 including trade secrets, belonging to Gaussian, Inc.
  
 This software is provided under written license and may be
 used, copied, transmitted, or stored only in accord with that
 written license.
  
 The following legend is applicable only to US Government
 contracts under FAR:
  
                    RESTRICTED RIGHTS LEGEND
  
 Use, reproduction and disclosure by the US Government is
 subject to restrictions as set forth in subparagraphs (a)
 and (c) of the Commercial Computer Software - Restricted
 Rights clause in FAR 52.227-19.
  
 Gaussian, Inc.
 340 Quinnipiac St., Bldg. 40, Wallingford CT 06492
  
  
 ---------------------------------------------------------------
 Warning -- This program may not be used in any manner that
 competes with the business of Gaussian, Inc. or will provide
 assistance to any competitor of Gaussian, Inc.  The licensee
 of this program is prohibited from giving any competitor of
 Gaussian, Inc. access to this program.  By using this program,
 the user acknowledges that Gaussian, Inc. is engaged in the
 business of creating and licensing software in the field of
 computational chemistry and represents and warrants to the
 licensee that it is not a competitor of Gaussian, Inc. and that
 it will not use this program in any manner prohibited above.
 ---------------------------------------------------------------
  

 Cite this work as:
 Gaussian 16, Revision C.01,
 M. J. Frisch, G. W. Trucks, H. B. Schlegel, G. E. Scuseria, 
 M. A. Robb, J. R. Cheeseman, G. Scalmani, V. Barone, 
 G. A. Petersson, H. Nakatsuji, X. Li, M. Caricato, A. V. Marenich, 
 J. Bloino, B. G. Janesko, R. Gomperts, B. Mennucci, H. P. Hratchian, 
 J. V. Ortiz, A. F. Izmaylov, J. L. Sonnenberg, D. Williams-Young, 
 F. Ding, F. Lipparini, F. Egidi, J. Goings, B. Peng, A. Petrone, 
 T. Henderson, D. Ranasinghe, V. G. Zakrzewski, J. Gao, N. Rega, 
 G. Zheng, W. Liang, M. Hada, M. Ehara, K. Toyota, R. Fukuda, 
 J. Hasegawa, M. Ishida, T. Nakajima, Y. Honda, O. Kitao, H. Nakai, 
 T. Vreven, K. Throssell, J. A. Montgomery, Jr., J. E. Peralta, 
 F. Ogliaro, M. J. Bearpark, J. J. Heyd, E. N. Brothers, K. N. Kudin, 
 V. N. Staroverov, T. A. Keith, R. Kobayashi, J. Normand, 
 K. Raghavachari, A. P. Rendell, J. C. Burant, S. S. Iyengar, 
 J. Tomasi, M. Cossi, J. M. Millam, M. Klene, C. Adamo, R. Cammi, 
 J. W. Ochterski, R. L. Martin, K. Morokuma, O. Farkas, 
 J. B. Foresman, and D. J. Fox, Gaussian, Inc., Wallingford CT, 2019.
 
 ******************************************
 Gaussian 16:  ES64L-G16RevC.01  3-Jul-2019
                11-Oct-2023 
 ******************************************
 %chk=MannitolConformerOpt_41.chk
 %mem=8GB
 %nprocs=16
 Will use up to   16 processors via shared memory.
 ---------------------------------------------
 # opt freq wb97xd/Def2TZVPP geom=connectivity
 ---------------------------------------------
 1/18=20,19=15,26=3,38=1,57=2/1,3;
 2/9=110,12=2,17=6,18=5,40=1/2;
 3/5=44,7=202,11=2,25=1,30=1,71=1,74=-58/1,2,3;
 4//1;
 5/5=2,38=5/2;
 6/7=2,8=2,9=2,10=2,28=1/1;
 7//1,2,3,16;
 1/18=20,19=15,26=3/3(2);
 2/9=110/2;
 99//99;
 2/9=110/2;
 3/5=44,7=202,11=2,25=1,30=1,71=1,74=-58/1,2,3;
 4/5=5,16=3,69=1/1;
 5/5=2,38=5/2;
 7//1,2,3,16;
 1/18=20,19=15,26=3/3(-5);
 2/9=110/2;
 6/7=2,8=2,9=2,10=2,19=2,28=1/1;
 99/9=1/99;
 -------------------
 Title Card Required
 -------------------
 Symbolic Z-matrix:
 Charge =  0 Multiplicity = 1
 C                     0.        0.        0. 
 C                     1.5423    0.        0. 
 C                    -0.6042    0.6411    1.2614 
 C                     2.2485   -0.7738    1.1339 
 H                     1.9037    1.0357    0. 
 H                    -0.3616   -1.0278   -0.119 
 C                    -2.1013    0.9495    1.1234 
 H                    -0.0797    1.5746    1.4941 
 C                     1.8596   -2.2538    1.2151 
 H                     2.0785   -0.2902    2.0998 
 H                    -2.3196    1.6486    0.3103 
 H                    -2.478     1.38      2.057 
 H                     0.7955   -2.3901    1.4202 
 H                     2.4289   -2.7646    1.9992 
 O                    -2.8201   -0.269     0.9161 
 H                    -2.8192   -0.4211   -0.0483 
 O                    -0.4314   -0.2532    2.3702 
 H                    -1.257    -0.7817    2.4114 
 O                    -0.4362    0.7131   -1.171 
 H                     0.2084    0.4788   -1.8724 
 O                     1.9783   -0.5286   -1.2799 
 H                     1.8624   -1.5049   -1.2244 
 O                     3.6709   -0.7243    0.8838 
 H                     3.7729   -0.5883   -0.08 
 O                     2.1585   -2.9005   -0.0288 
 H                     3.1275   -3.035    -0.0142 
 

 GradGradGradGradGradGradGradGradGradGradGradGradGradGradGradGradGradGrad
 Berny optimization.
 Initialization pass.
                           ----------------------------
                           !    Initial Parameters    !
                           ! (Angstroms and Degrees)  !
 --------------------------                            --------------------------
 ! Name  Definition              Value          Derivative Info.                !
 --------------------------------------------------------------------------------
 ! R1    R(1,2)                  1.5423         estimate D2E/DX2                !
 ! R2    R(1,3)                  1.5386         estimate D2E/DX2                !
 ! R3    R(1,6)                  1.096          estimate D2E/DX2                !
 ! R4    R(1,19)                 1.4388         estimate D2E/DX2                !
 ! R5    R(2,4)                  1.5438         estimate D2E/DX2                !
 ! R6    R(2,5)                  1.0969         estimate D2E/DX2                !
 ! R7    R(2,21)                 1.4518         estimate D2E/DX2                !
 ! R8    R(3,7)                  1.5348         estimate D2E/DX2                !
 ! R9    R(3,8)                  1.0958         estimate D2E/DX2                !
 ! R10   R(3,17)                 1.4349         estimate D2E/DX2                !
 ! R11   R(4,9)                  1.5324         estimate D2E/DX2                !
 ! R12   R(4,10)                 1.0935         estimate D2E/DX2                !
 ! R13   R(4,23)                 1.4451         estimate D2E/DX2                !
 ! R14   R(7,11)                 1.0943         estimate D2E/DX2                !
 ! R15   R(7,12)                 1.0949         estimate D2E/DX2                !
 ! R16   R(7,15)                 1.4298         estimate D2E/DX2                !
 ! R17   R(9,13)                 1.0922         estimate D2E/DX2                !
 ! R18   R(9,14)                 1.0954         estimate D2E/DX2                !
 ! R19   R(9,25)                 1.4335         estimate D2E/DX2                !
 ! R20   R(15,16)                0.9763         estimate D2E/DX2                !
 ! R21   R(17,18)                0.9811         estimate D2E/DX2                !
 ! R22   R(19,20)                0.981          estimate D2E/DX2                !
 ! R23   R(21,22)                0.9847         estimate D2E/DX2                !
 ! R24   R(23,24)                0.9787         estimate D2E/DX2                !
 ! R25   R(25,26)                0.9784         estimate D2E/DX2                !
 ! A1    A(2,1,3)              113.1228         estimate D2E/DX2                !
 ! A2    A(2,1,6)              109.2637         estimate D2E/DX2                !
 ! A3    A(2,1,19)             107.6486         estimate D2E/DX2                !
 ! A4    A(3,1,6)              110.4996         estimate D2E/DX2                !
 ! A5    A(3,1,19)             109.98           estimate D2E/DX2                !
 ! A6    A(6,1,19)             106.0448         estimate D2E/DX2                !
 ! A7    A(1,2,4)              117.2229         estimate D2E/DX2                !
 ! A8    A(1,2,5)              109.2361         estimate D2E/DX2                !
 ! A9    A(1,2,21)             107.4769         estimate D2E/DX2                !
 ! A10   A(4,2,5)              108.8169         estimate D2E/DX2                !
 ! A11   A(4,2,21)             109.1266         estimate D2E/DX2                !
 ! A12   A(5,2,21)             104.172          estimate D2E/DX2                !
 ! A13   A(1,3,7)              113.1463         estimate D2E/DX2                !
 ! A14   A(1,3,8)              109.9452         estimate D2E/DX2                !
 ! A15   A(1,3,17)             109.0582         estimate D2E/DX2                !
 ! A16   A(7,3,8)              108.3505         estimate D2E/DX2                !
 ! A17   A(7,3,17)             108.1908         estimate D2E/DX2                !
 ! A18   A(8,3,17)             108.0114         estimate D2E/DX2                !
 ! A19   A(2,4,9)              114.0121         estimate D2E/DX2                !
 ! A20   A(2,4,10)             110.855          estimate D2E/DX2                !
 ! A21   A(2,4,23)             107.8175         estimate D2E/DX2                !
 ! A22   A(9,4,10)             109.9299         estimate D2E/DX2                !
 ! A23   A(9,4,23)             106.9812         estimate D2E/DX2                !
 ! A24   A(10,4,23)            106.9031         estimate D2E/DX2                !
 ! A25   A(3,7,11)             112.9405         estimate D2E/DX2                !
 ! A26   A(3,7,12)             109.7516         estimate D2E/DX2                !
 ! A27   A(3,7,15)             109.401          estimate D2E/DX2                !
 ! A28   A(11,7,12)            108.2845         estimate D2E/DX2                !
 ! A29   A(11,7,15)            109.6587         estimate D2E/DX2                !
 ! A30   A(12,7,15)            106.6028         estimate D2E/DX2                !
 ! A31   A(4,9,13)             112.1929         estimate D2E/DX2                !
 ! A32   A(4,9,14)             110.88           estimate D2E/DX2                !
 ! A33   A(4,9,25)             109.6831         estimate D2E/DX2                !
 ! A34   A(13,9,14)            108.2846         estimate D2E/DX2                !
 ! A35   A(13,9,25)            108.0469         estimate D2E/DX2                !
 ! A36   A(14,9,25)            107.6026         estimate D2E/DX2                !
 ! A37   A(7,15,16)            105.9926         estimate D2E/DX2                !
 ! A38   A(3,17,18)            105.4754         estimate D2E/DX2                !
 ! A39   A(1,19,20)            105.3273         estimate D2E/DX2                !
 ! A40   A(2,21,22)            106.019          estimate D2E/DX2                !
 ! A41   A(4,23,24)            106.1282         estimate D2E/DX2                !
 ! A42   A(9,25,26)            104.808          estimate D2E/DX2                !
 ! D1    D(3,1,2,4)             61.2523         estimate D2E/DX2                !
 ! D2    D(3,1,2,5)            -63.0583         estimate D2E/DX2                !
 ! D3    D(3,1,2,21)          -175.499          estimate D2E/DX2                !
 ! D4    D(6,1,2,4)            -62.2938         estimate D2E/DX2                !
 ! D5    D(6,1,2,5)            173.3956         estimate D2E/DX2                !
 ! D6    D(6,1,2,21)            60.955          estimate D2E/DX2                !
 ! D7    D(19,1,2,4)          -177.0295         estimate D2E/DX2                !
 ! D8    D(19,1,2,5)            58.66           estimate D2E/DX2                !
 ! D9    D(19,1,2,21)          -53.7807         estimate D2E/DX2                !
 ! D10   D(2,1,3,7)            166.1652         estimate D2E/DX2                !
 ! D11   D(2,1,3,8)             44.8753         estimate D2E/DX2                !
 ! D12   D(2,1,3,17)           -73.3783         estimate D2E/DX2                !
 ! D13   D(6,1,3,7)            -70.9716         estimate D2E/DX2                !
 ! D14   D(6,1,3,8)            167.7385         estimate D2E/DX2                !
 ! D15   D(6,1,3,17)            49.4849         estimate D2E/DX2                !
 ! D16   D(19,1,3,7)            45.7659         estimate D2E/DX2                !
 ! D17   D(19,1,3,8)           -75.524          estimate D2E/DX2                !
 ! D18   D(19,1,3,17)          166.2224         estimate D2E/DX2                !
 ! D19   D(2,1,19,20)           36.6626         estimate D2E/DX2                !
 ! D20   D(3,1,19,20)          160.3156         estimate D2E/DX2                !
 ! D21   D(6,1,19,20)          -80.193          estimate D2E/DX2                !
 ! D22   D(1,2,4,9)             57.2069         estimate D2E/DX2                !
 ! D23   D(1,2,4,10)           -67.4762         estimate D2E/DX2                !
 ! D24   D(1,2,4,23)           175.8279         estimate D2E/DX2                !
 ! D25   D(5,2,4,9)           -178.2716         estimate D2E/DX2                !
 ! D26   D(5,2,4,10)            57.0454         estimate D2E/DX2                !
 ! D27   D(5,2,4,23)           -59.6505         estimate D2E/DX2                !
 ! D28   D(21,2,4,9)           -65.196          estimate D2E/DX2                !
 ! D29   D(21,2,4,10)          170.1209         estimate D2E/DX2                !
 ! D30   D(21,2,4,23)           53.425          estimate D2E/DX2                !
 ! D31   D(1,2,21,22)          -77.3629         estimate D2E/DX2                !
 ! D32   D(4,2,21,22)           50.7204         estimate D2E/DX2                !
 ! D33   D(5,2,21,22)          166.8038         estimate D2E/DX2                !
 ! D34   D(1,3,7,11)           -60.4324         estimate D2E/DX2                !
 ! D35   D(1,3,7,12)           178.6402         estimate D2E/DX2                !
 ! D36   D(1,3,7,15)            62.0037         estimate D2E/DX2                !
 ! D37   D(8,3,7,11)            61.7527         estimate D2E/DX2                !
 ! D38   D(8,3,7,12)           -59.1747         estimate D2E/DX2                !
 ! D39   D(8,3,7,15)          -175.8112         estimate D2E/DX2                !
 ! D40   D(17,3,7,11)          178.6188         estimate D2E/DX2                !
 ! D41   D(17,3,7,12)           57.6914         estimate D2E/DX2                !
 ! D42   D(17,3,7,15)          -58.9451         estimate D2E/DX2                !
 ! D43   D(1,3,17,18)          -93.3543         estimate D2E/DX2                !
 ! D44   D(7,3,17,18)           30.1003         estimate D2E/DX2                !
 ! D45   D(8,3,17,18)          147.1852         estimate D2E/DX2                !
 ! D46   D(2,4,9,13)           -61.8595         estimate D2E/DX2                !
 ! D47   D(2,4,9,14)           176.9241         estimate D2E/DX2                !
 ! D48   D(2,4,9,25)            58.2249         estimate D2E/DX2                !
 ! D49   D(10,4,9,13)           63.3161         estimate D2E/DX2                !
 ! D50   D(10,4,9,14)          -57.9004         estimate D2E/DX2                !
 ! D51   D(10,4,9,25)         -176.5996         estimate D2E/DX2                !
 ! D52   D(23,4,9,13)          179.044          estimate D2E/DX2                !
 ! D53   D(23,4,9,14)           57.8275         estimate D2E/DX2                !
 ! D54   D(23,4,9,25)          -60.8716         estimate D2E/DX2                !
 ! D55   D(2,4,23,24)          -24.7865         estimate D2E/DX2                !
 ! D56   D(9,4,23,24)           98.2424         estimate D2E/DX2                !
 ! D57   D(10,4,23,24)        -144.028          estimate D2E/DX2                !
 ! D58   D(3,7,15,16)          -87.7938         estimate D2E/DX2                !
 ! D59   D(11,7,15,16)          36.5826         estimate D2E/DX2                !
 ! D60   D(12,7,15,16)         153.5939         estimate D2E/DX2                !
 ! D61   D(4,9,25,26)           77.0582         estimate D2E/DX2                !
 ! D62   D(13,9,25,26)        -160.3618         estimate D2E/DX2                !
 ! D63   D(14,9,25,26)         -43.6468         estimate D2E/DX2                !
 --------------------------------------------------------------------------------
 Trust Radius=3.00D-01 FncErr=1.00D-07 GrdErr=1.00D-06 EigMax=2.50D+02 EigMin=1.00D-04
 Number of steps in this run=    140 maximum allowed number of steps=    156.
 GradGradGradGradGradGradGradGradGradGradGradGradGradGradGradGradGradGrad

                          Input orientation:                          
 ---------------------------------------------------------------------
 Center     Atomic      Atomic             Coordinates (Angstroms)
 Number     Number       Type             X           Y           Z
 ---------------------------------------------------------------------
      1          6           0        0.000000    0.000000    0.000000
      2          6           0        1.542300    0.000000    0.000000
      3          6           0       -0.604200    0.641100    1.261400
      4          6           0        2.248500   -0.773800    1.133900
      5          1           0        1.903700    1.035700    0.000000
      6          1           0       -0.361600   -1.027800   -0.119000
      7          6           0       -2.101300    0.949500    1.123400
      8          1           0       -0.079700    1.574600    1.494100
      9          6           0        1.859600   -2.253800    1.215100
     10          1           0        2.078500   -0.290200    2.099800
     11          1           0       -2.319600    1.648600    0.310300
     12          1           0       -2.478000    1.380000    2.057000
     13          1           0        0.795500   -2.390100    1.420200
     14          1           0        2.428900   -2.764600    1.999200
     15          8           0       -2.820100   -0.269000    0.916100
     16          1           0       -2.819200   -0.421100   -0.048300
     17          8           0       -0.431400   -0.253200    2.370200
     18          1           0       -1.257000   -0.781700    2.411400
     19          8           0       -0.436200    0.713100   -1.171000
     20          1           0        0.208400    0.478800   -1.872400
     21          8           0        1.978300   -0.528600   -1.279900
     22          1           0        1.862400   -1.504900   -1.224400
     23          8           0        3.670900   -0.724300    0.883800
     24          1           0        3.772900   -0.588300   -0.080000
     25          8           0        2.158500   -2.900500   -0.028800
     26          1           0        3.127500   -3.035000   -0.014200
 ---------------------------------------------------------------------
                    Distance matrix (angstroms):
                    1          2          3          4          5
     1  C    0.000000
     2  C    1.542300   0.000000
     3  C    1.538570   2.570915   0.000000
     4  C    2.634435   1.543766   3.186863   0.000000
     5  H    2.167198   1.096943   2.834855   2.163078   0.000000
     6  H    1.096033   2.166880   2.179355   2.906354   3.066558
     7  C    2.564964   3.929300   1.534752   4.678743   4.160467
     8  H    2.172108   2.709720   1.095752   3.326446   2.540989
     9  C    3.164521   2.580070   3.801697   1.532396   3.507025
    10  H    2.968760   2.186524   2.960931   1.093495   2.489523
    11  H    2.862641   4.210515   2.205050   5.235826   4.278808
    12  H    3.503731   4.722125   2.165659   5.275488   4.852740
    13  H    2.891776   2.878760   3.342537   2.192168   3.870553
    14  H    4.188003   3.525035   4.619831   2.178204   4.326074
    15  O    2.977342   4.465662   2.420274   5.098330   4.985556
    16  H    2.850885   4.382048   2.783848   5.215705   4.942710
    17  O    2.422409   3.094746   1.434946   2.996886   3.568165
    18  H    2.829479   3.776504   1.942423   3.731032   4.371249
    19  O    1.438757   2.407118   2.439258   3.838105   2.636369
    20  H    1.943852   2.348280   3.241506   3.843027   2.586515
    21  O    2.414795   1.451778   3.807323   2.441221   2.022559
    22  H    2.689315   1.966302   4.107144   2.499032   2.820551
    23  O    3.844635   2.415916   4.503707   1.445068   2.646072
    24  H    3.819329   2.308262   4.740230   1.957488   2.477435
    25  O    3.615640   2.965372   4.673335   2.425453   3.944543
    26  H    4.358060   3.424074   5.391331   2.683990   4.250704
                    6          7          8          9         10
     6  H    0.000000
     7  C    2.912015   0.000000
     8  H    3.074743   2.148263   0.000000
     9  C    2.866466   5.094926   4.300625   0.000000
    10  H    3.379529   4.467767   2.915850   2.164795   0.000000
    11  H    3.343827   1.094316   2.534563   5.789050   5.128795
    12  H    3.874484   1.094916   2.471147   5.720845   4.853153
    13  H    2.358787   4.430854   4.060823   1.092224   2.552944
    14  H    3.910260   5.923198   5.037545   1.095368   2.501111
    15  O    2.773343   1.429821   3.353019   5.091996   5.039631
    16  H    2.532367   1.940826   3.723799   5.181326   5.349667
    17  O    2.607872   2.406151   2.057206   3.253512   2.524695
    18  H    2.695409   2.317076   2.789198   3.648480   3.385886
    19  O    2.035437   2.844770   2.823479   4.445972   4.245993
    20  H    2.380999   3.811967   3.552056   4.441421   4.457242
    21  O    2.659327   4.960218   4.043994   3.035693   3.389579
    22  H    2.528974   5.219881   4.543712   2.551866   3.545772
    23  O    4.166386   6.014757   4.441217   2.393729   2.050082
    24  H    4.157977   6.190253   4.690251   2.848138   2.776938
    25  O    3.141026   5.856275   5.230228   1.433475   3.369125
    26  H    4.026618   6.671636   5.814595   1.931068   3.619851
                   11         12         13         14         15
    11  H    0.000000
    12  H    1.774316   0.000000
    13  H    5.219849   5.033386   0.000000
    14  H    6.699028   6.423295   1.772988   0.000000
    15  O    2.072362   2.034179   4.222055   5.912117   0.000000
    16  H    2.159132   2.791535   4.370299   6.101377   0.976321
    17  O    3.380138   2.637045   2.640857   3.824407   2.796524
    18  H    3.383799   2.507865   2.789657   4.205670   2.223076
    19  O    2.572276   3.877330   4.226258   5.509389   3.317150
    20  H    3.538841   4.844491   4.406414   5.517205   4.184107
    21  O    5.073547   5.885258   3.486365   3.994400   5.283413
    22  H    5.457929   6.158677   2.985928   3.507045   5.294808
    23  O    6.468821   6.604048   3.366087   2.636191   6.507029
    24  H    6.501893   6.893093   3.789722   3.296315   6.675464
    25  O    6.392392   6.646080   2.053747   2.050456   5.709999
    26  H    7.191127   7.429921   2.812761   2.148241   6.624965
                   16         17         18         19         20
    16  H    0.000000
    17  O    3.402781   0.000000
    18  H    2.936090   0.981135   0.000000
    19  O    2.868023   3.670675   3.967585   0.000000
    20  H    3.647399   4.352565   4.699702   0.981003   0.000000
    21  O    4.954231   4.382434   4.914969   2.717258   2.120957
    22  H    4.947243   4.444032   4.844865   3.194673   2.662834
    23  O    6.563699   4.388643   5.159560   4.812130   4.586174
    24  H    6.594296   4.877695   5.616438   4.538771   4.130019
    25  O    5.561052   4.412593   4.702077   4.592950   4.315254
    26  H    6.495912   5.107792   5.494064   5.299660   4.931617
                   21         22         23         24         25
    21  O    0.000000
    22  H    0.984721   0.000000
    23  O    2.754050   2.885224   0.000000
    24  H    2.159610   2.408281   0.978678   0.000000
    25  O    2.687682   1.861406   2.802863   2.820492   0.000000
    26  H    3.033925   2.325138   2.537917   2.531247   0.978399
                   26
    26  H    0.000000
 Stoichiometry    C6H14O6
 Framework group  C1[X(C6H14O6)]
 Deg. of freedom    72
 Full point group                 C1      NOp   1
 Largest Abelian subgroup         C1      NOp   1
 Largest concise Abelian subgroup C1      NOp   1
                         Standard orientation:                         
 ---------------------------------------------------------------------
 Center     Atomic      Atomic             Coordinates (Angstroms)
 Number     Number       Type             X           Y           Z
 ---------------------------------------------------------------------
      1          6           0        0.662929    0.629335    0.052711
      2          6           0       -0.746665    0.728235   -0.565312
      3          6           0        1.611058   -0.280488   -0.747582
      4          6           0       -1.561124   -0.578257   -0.679106
      5          1           0       -0.674285    1.187711   -1.558755
      6          1           0        0.579969    0.280831    1.088545
      7          6           0        3.083204   -0.121727   -0.343793
      8          1           0        1.521690   -0.064123   -1.818036
      9          6           0       -1.771674   -1.300121    0.656116
     10          1           0       -1.105427   -1.259256   -1.403200
     11          1           0        3.459998    0.894365   -0.495812
     12          1           0        3.703414   -0.809129   -0.928309
     13          1           0       -0.828282   -1.611322    1.110118
     14          1           0       -2.399427   -2.188147    0.525085
     15          8           0        3.242297   -0.493590    1.027628
     16          1           0        3.070213    0.314857    1.547247
     17          8           0        1.234334   -1.649239   -0.538610
     18          1           0        1.788203   -1.962089    0.208369
     19          8           0        1.202707    1.961134    0.123257
     20          1           0        0.440927    2.538302    0.344471
     21          8           0       -1.499477    1.691401    0.217786
     22          1           0       -1.766685    1.222482    1.041431
     23          8           0       -2.870967   -0.239935   -1.187115
     24          1           0       -3.023368    0.695817   -0.944316
     25          8           0       -2.440915   -0.428066    1.576162
     26          1           0       -3.377135   -0.435797    1.292089
 ---------------------------------------------------------------------
 Rotational constants (GHZ):           1.4647732           0.5604747           0.5073404
 Standard basis: def2TZVPP (5D, 7F)
 There are   642 symmetry adapted cartesian basis functions of A   symmetry.
 There are   568 symmetry adapted basis functions of A   symmetry.
   568 basis functions,   850 primitive gaussians,   642 cartesian basis functions
    49 alpha electrons       49 beta electrons
       nuclear repulsion energy       838.9149533571 Hartrees.
 NAtoms=   26 NActive=   26 NUniq=   26 SFac= 1.00D+00 NAtFMM=   60 NAOKFM=F Big=F
 Integral buffers will be    131072 words long.
 Raffenetti 2 integral format.
 Two-electron integral symmetry is turned on.
 Nuclear repulsion after empirical dispersion term =      838.8953418280 Hartrees.
 One-electron integrals computed using PRISM.
   1 Symmetry operations used in ECPInt.
 ECPInt:  NShTT=   23436 NPrTT=   62434 LenC2=   22061 LenP2D=   45934.
 LDataN:  DoStor=T MaxTD1= 6 Len=  172
 NBasis=   568 RedAO= T EigKep=  3.94D-05  NBF=   568
 NBsUse=   568 1.00D-06 EigRej= -1.00D+00 NBFU=   568
 ExpMin= 9.52D-02 ExpMax= 2.70D+04 ExpMxC= 9.22D+02 IAcc=3 IRadAn=         5 AccDes= 0.00D+00
 Harris functional with IExCor= 4639 and IRadAn=       5 diagonalized for initial guess.
 HarFok:  IExCor= 4639 AccDes= 0.00D+00 IRadAn=         5 IDoV= 1 UseB2=F ITyADJ=14
 ICtDFT=  3500011 ScaDFX=  1.000000  1.000000  1.000000  1.000000
 FoFCou: FMM=F IPFlag=           0 FMFlag=      100000 FMFlg1=           0
         NFxFlg=           0 DoJE=T BraDBF=F KetDBF=T FulRan=T
         wScrn=  0.000000 ICntrl=       500 IOpCl=  0 I1Cent=   200000004 NGrid=           0
         NMat0=    1 NMatS0=      1 NMatT0=    0 NMatD0=    1 NMtDS0=    0 NMtDT0=    0
 Petite list used in FoFCou.
 Requested convergence on RMS density matrix=1.00D-08 within 128 cycles.
 Requested convergence on MAX density matrix=1.00D-06.
 Requested convergence on             energy=1.00D-06.
 No special actions if energy rises.
 Integral accuracy reduced to 1.0D-05 until final iterations.
 Initial convergence to 1.0D-05 achieved.  Increase integral accuracy.
 SCF Done:  E(RwB97XD) =  -688.474440844     A.U. after   14 cycles
            NFock= 14  Conv=0.23D-08     -V/T= 2.0050

 **********************************************************************

            Population analysis using the SCF Density.

 **********************************************************************

 Orbital symmetries:
       Occupied  (A) (A) (A) (A) (A) (A) (A) (A) (A) (A) (A) (A)
                 (A) (A) (A) (A) (A) (A) (A) (A) (A) (A) (A) (A)
                 (A) (A) (A) (A) (A) (A) (A) (A) (A) (A) (A) (A)
                 (A) (A) (A) (A) (A) (A) (A) (A) (A) (A) (A) (A)
                 (A)
       Virtual   (A) (A) (A) (A) (A) (A) (A) (A) (A) (A) (A) (A)
                 (A) (A) (A) (A) (A) (A) (A) (A) (A) (A) (A) (A)
                 (A) (A) (A) (A) (A) (A) (A) (A) (A) (A) (A) (A)
                 (A) (A) (A) (A) (A) (A) (A) (A) (A) (A) (A) (A)
                 (A) (A) (A) (A) (A) (A) (A) (A) (A) (A) (A) (A)
                 (A) (A) (A) (A) (A) (A) (A) (A) (A) (A) (A) (A)
                 (A) (A) (A) (A) (A) (A) (A) (A) (A) (A) (A) (A)
                 (A) (A) (A) (A) (A) (A) (A) (A) (A) (A) (A) (A)
                 (A) (A) (A) (A) (A) (A) (A) (A) (A) (A) (A) (A)
                 (A) (A) (A) (A) (A) (A) (A) (A) (A) (A) (A) (A)
                 (A) (A) (A) (A) (A) (A) (A) (A) (A) (A) (A) (A)
                 (A) (A) (A) (A) (A) (A) (A) (A) (A) (A) (A) (A)
                 (A) (A) (A) (A) (A) (A) (A) (A) (A) (A) (A) (A)
                 (A) (A) (A) (A) (A) (A) (A) (A) (A) (A) (A) (A)
                 (A) (A) (A) (A) (A) (A) (A) (A) (A) (A) (A) (A)
                 (A) (A) (A) (A) (A) (A) (A) (A) (A) (A) (A) (A)
                 (A) (A) (A) (A) (A) (A) (A) (A) (A) (A) (A) (A)
                 (A) (A) (A) (A) (A) (A) (A) (A) (A) (A) (A) (A)
                 (A) (A) (A) (A) (A) (A) (A) (A) (A) (A) (A) (A)
                 (A) (A) (A) (A) (A) (A) (A) (A) (A) (A) (A) (A)
                 (A) (A) (A) (A) (A) (A) (A) (A) (A) (A) (A) (A)
                 (A) (A) (A) (A) (A) (A) (A) (A) (A) (A) (A) (A)
                 (A) (A) (A) (A) (A) (A) (A) (A) (A) (A) (A) (A)
                 (A) (A) (A) (A) (A) (A) (A) (A) (A) (A) (A) (A)
                 (A) (A) (A) (A) (A) (A) (A) (A) (A) (A) (A) (A)
                 (A) (A) (A) (A) (A) (A) (A) (A) (A) (A) (A) (A)
                 (A) (A) (A) (A) (A) (A) (A) (A) (A) (A) (A) (A)
                 (A) (A) (A) (A) (A) (A) (A) (A) (A) (A) (A) (A)
                 (A) (A) (A) (A) (A) (A) (A) (A) (A) (A) (A) (A)
                 (A) (A) (A) (A) (A) (A) (A) (A) (A) (A) (A) (A)
                 (A) (A) (A) (A) (A) (A) (A) (A) (A) (A) (A) (A)
                 (A) (A) (A) (A) (A) (A) (A) (A) (A) (A) (A) (A)
                 (A) (A) (A) (A) (A) (A) (A) (A) (A) (A) (A) (A)
                 (A) (A) (A) (A) (A) (A) (A) (A) (A) (A) (A) (A)
                 (A) (A) (A) (A) (A) (A) (A) (A) (A) (A) (A) (A)
                 (A) (A) (A) (A) (A) (A) (A) (A) (A) (A) (A) (A)
                 (A) (A) (A) (A) (A) (A) (A) (A) (A) (A) (A) (A)
                 (A) (A) (A) (A) (A) (A) (A) (A) (A) (A) (A) (A)
                 (A) (A) (A) (A) (A) (A) (A) (A) (A) (A) (A) (A)
                 (A) (A) (A) (A) (A) (A) (A) (A) (A) (A) (A) (A)
                 (A) (A) (A) (A) (A) (A) (A) (A) (A) (A) (A) (A)
                 (A) (A) (A) (A) (A) (A) (A) (A) (A) (A) (A) (A)
                 (A) (A) (A) (A) (A) (A) (A) (A) (A) (A) (A) (A)
                 (A) (A) (A)
 The electronic state is 1-A.
 Alpha  occ. eigenvalues --  -19.27416 -19.26675 -19.26203 -19.25997 -19.25550
 Alpha  occ. eigenvalues --  -19.25256 -10.35209 -10.34910 -10.34758 -10.34480
 Alpha  occ. eigenvalues --  -10.34000 -10.33930  -1.16096  -1.14927  -1.13606
 Alpha  occ. eigenvalues --   -1.12043  -1.11863  -1.10559  -0.88570  -0.85139
 Alpha  occ. eigenvalues --   -0.80691  -0.75759  -0.71295  -0.69238  -0.63793
 Alpha  occ. eigenvalues --   -0.62751  -0.60634  -0.59787  -0.59389  -0.57865
 Alpha  occ. eigenvalues --   -0.57530  -0.55430  -0.53522  -0.51896  -0.51291
 Alpha  occ. eigenvalues --   -0.50217  -0.49059  -0.47234  -0.45692  -0.44508
 Alpha  occ. eigenvalues --   -0.43956  -0.43425  -0.41750  -0.40228  -0.39231
 Alpha  occ. eigenvalues --   -0.38837  -0.36602  -0.36371  -0.35506
 Alpha virt. eigenvalues --    0.09005   0.09855   0.12149   0.12269   0.14579
 Alpha virt. eigenvalues --    0.15143   0.15432   0.16382   0.17214   0.18099
 Alpha virt. eigenvalues --    0.18480   0.19463   0.20376   0.20543   0.22347
 Alpha virt. eigenvalues --    0.22919   0.23207   0.24944   0.25262   0.27283
 Alpha virt. eigenvalues --    0.27746   0.29111   0.30317   0.31949   0.32274
 Alpha virt. eigenvalues --    0.34894   0.35825   0.36483   0.37079   0.37289
 Alpha virt. eigenvalues --    0.38503   0.40075   0.40578   0.41009   0.41620
 Alpha virt. eigenvalues --    0.42351   0.42712   0.43206   0.43916   0.44290
 Alpha virt. eigenvalues --    0.44916   0.45353   0.46690   0.47027   0.47227
 Alpha virt. eigenvalues --    0.47834   0.49027   0.49760   0.50748   0.50880
 Alpha virt. eigenvalues --    0.51098   0.51671   0.53271   0.53892   0.54330
 Alpha virt. eigenvalues --    0.55387   0.56637   0.56982   0.58433   0.59745
 Alpha virt. eigenvalues --    0.59874   0.60256   0.61042   0.61826   0.62487
 Alpha virt. eigenvalues --    0.63922   0.65956   0.66447   0.68323   0.68743
 Alpha virt. eigenvalues --    0.70350   0.70627   0.71281   0.72520   0.73439
 Alpha virt. eigenvalues --    0.74418   0.74726   0.77331   0.77784   0.79456
 Alpha virt. eigenvalues --    0.81051   0.81529   0.82934   0.84673   0.85336
 Alpha virt. eigenvalues --    0.86583   0.89046   0.90151   0.90370   0.91335
 Alpha virt. eigenvalues --    0.92925   0.93705   0.95508   0.95695   0.97417
 Alpha virt. eigenvalues --    0.98666   0.99613   1.00290   1.01550   1.02782
 Alpha virt. eigenvalues --    1.03984   1.04226   1.05555   1.07279   1.08134
 Alpha virt. eigenvalues --    1.08283   1.10340   1.10964   1.12276   1.13500
 Alpha virt. eigenvalues --    1.14936   1.15573   1.15911   1.17116   1.18935
 Alpha virt. eigenvalues --    1.19810   1.21186   1.22248   1.23392   1.25271
 Alpha virt. eigenvalues --    1.25750   1.26894   1.27597   1.27960   1.29338
 Alpha virt. eigenvalues --    1.29915   1.30570   1.33030   1.34157   1.35513
 Alpha virt. eigenvalues --    1.36016   1.37337   1.38181   1.39913   1.41248
 Alpha virt. eigenvalues --    1.41625   1.42895   1.45324   1.46416   1.46894
 Alpha virt. eigenvalues --    1.47650   1.47894   1.49851   1.49996   1.51694
 Alpha virt. eigenvalues --    1.53241   1.55152   1.55808   1.56508   1.57363
 Alpha virt. eigenvalues --    1.57834   1.59014   1.61551   1.63276   1.64066
 Alpha virt. eigenvalues --    1.65011   1.66036   1.68822   1.69269   1.71266
 Alpha virt. eigenvalues --    1.74596   1.76533   1.80922   1.83529   1.84955
 Alpha virt. eigenvalues --    1.87389   1.88113   1.89775   1.91051   1.93164
 Alpha virt. eigenvalues --    1.94556   1.96599   1.97120   1.98836   1.99504
 Alpha virt. eigenvalues --    2.01126   2.01882   2.03040   2.03723   2.04380
 Alpha virt. eigenvalues --    2.06220   2.07142   2.08631   2.09278   2.11749
 Alpha virt. eigenvalues --    2.12116   2.12497   2.17117   2.18466   2.18605
 Alpha virt. eigenvalues --    2.20118   2.21703   2.24380   2.24759   2.26390
 Alpha virt. eigenvalues --    2.26936   2.27367   2.29155   2.30457   2.31973
 Alpha virt. eigenvalues --    2.33174   2.34735   2.39079   2.41161   2.42766
 Alpha virt. eigenvalues --    2.44681   2.46759   2.47992   2.51294   2.53147
 Alpha virt. eigenvalues --    2.56124   2.58431   2.58806   2.60716   2.63687
 Alpha virt. eigenvalues --    2.66425   2.67108   2.69571   2.70479   2.71487
 Alpha virt. eigenvalues --    2.72281   2.72457   2.73362   2.76774   2.78392
 Alpha virt. eigenvalues --    2.78819   2.80246   2.81411   2.81781   2.83963
 Alpha virt. eigenvalues --    2.85466   2.87916   2.89416   2.91462   2.93453
 Alpha virt. eigenvalues --    2.94744   2.95760   2.96788   2.97563   2.98786
 Alpha virt. eigenvalues --    3.00168   3.01514   3.02138   3.04220   3.05777
 Alpha virt. eigenvalues --    3.07350   3.08360   3.09639   3.10072   3.11211
 Alpha virt. eigenvalues --    3.12365   3.13608   3.14351   3.15535   3.18138
 Alpha virt. eigenvalues --    3.18401   3.19103   3.19670   3.20782   3.21758
 Alpha virt. eigenvalues --    3.22863   3.23644   3.25146   3.25757   3.27082
 Alpha virt. eigenvalues --    3.28825   3.29205   3.29895   3.31511   3.32507
 Alpha virt. eigenvalues --    3.32876   3.34973   3.35434   3.36397   3.37913
 Alpha virt. eigenvalues --    3.38373   3.40282   3.40450   3.42129   3.43412
 Alpha virt. eigenvalues --    3.43801   3.44920   3.45345   3.46101   3.46814
 Alpha virt. eigenvalues --    3.48813   3.49708   3.51109   3.51945   3.53074
 Alpha virt. eigenvalues --    3.53675   3.54890   3.56941   3.59050   3.60127
 Alpha virt. eigenvalues --    3.61637   3.62914   3.64469   3.65853   3.66681
 Alpha virt. eigenvalues --    3.68110   3.69059   3.70313   3.70938   3.71216
 Alpha virt. eigenvalues --    3.73994   3.74255   3.76017   3.76663   3.77390
 Alpha virt. eigenvalues --    3.78922   3.79369   3.80470   3.81762   3.82811
 Alpha virt. eigenvalues --    3.83516   3.86030   3.86479   3.88100   3.90103
 Alpha virt. eigenvalues --    3.90758   3.91742   3.93566   3.94771   3.96618
 Alpha virt. eigenvalues --    3.97843   3.98530   3.99177   4.00105   4.01144
 Alpha virt. eigenvalues --    4.02524   4.04106   4.05509   4.06518   4.06935
 Alpha virt. eigenvalues --    4.07914   4.08962   4.10367   4.10634   4.11193
 Alpha virt. eigenvalues --    4.12101   4.15000   4.15313   4.16154   4.17796
 Alpha virt. eigenvalues --    4.18493   4.19543   4.20222   4.21933   4.22636
 Alpha virt. eigenvalues --    4.23231   4.25212   4.26189   4.27453   4.27625
 Alpha virt. eigenvalues --    4.29944   4.31501   4.32346   4.32597   4.34286
 Alpha virt. eigenvalues --    4.34738   4.35931   4.37078   4.39421   4.39920
 Alpha virt. eigenvalues --    4.40858   4.42209   4.42977   4.44255   4.45740
 Alpha virt. eigenvalues --    4.47944   4.49479   4.50416   4.52226   4.53807
 Alpha virt. eigenvalues --    4.55643   4.57313   4.58654   4.60049   4.61656
 Alpha virt. eigenvalues --    4.63657   4.67329   4.69030   4.70601   4.72079
 Alpha virt. eigenvalues --    4.73969   4.76721   4.78313   4.81060   4.81904
 Alpha virt. eigenvalues --    4.84921   4.85137   4.86049   4.88223   4.90419
 Alpha virt. eigenvalues --    4.91344   4.93113   4.95074   4.95439   4.97100
 Alpha virt. eigenvalues --    4.99136   5.00367   5.01213   5.03079   5.03549
 Alpha virt. eigenvalues --    5.04828   5.05929   5.07456   5.08545   5.11506
 Alpha virt. eigenvalues --    5.12910   5.14298   5.15560   5.18050   5.19017
 Alpha virt. eigenvalues --    5.21173   5.24453   5.25485   5.28823   5.29784
 Alpha virt. eigenvalues --    5.31170   5.34312   5.37508   5.39867   5.42358
 Alpha virt. eigenvalues --    5.45781   5.49301   5.54469   5.58227   5.60756
 Alpha virt. eigenvalues --    5.61783   5.63195   5.64318   5.66103   5.67149
 Alpha virt. eigenvalues --    5.68287   5.69701   5.70756   5.73423   5.74191
 Alpha virt. eigenvalues --    5.76155   5.76964   5.78275   5.79673   5.81928
 Alpha virt. eigenvalues --    5.84022   5.87751   5.90266   5.94961   5.95980
 Alpha virt. eigenvalues --    5.97077   5.98934   6.00040   6.11413   6.12176
 Alpha virt. eigenvalues --    6.13894   6.14921   6.19082   6.21782   6.53237
 Alpha virt. eigenvalues --    6.53723   6.54653   6.56236   6.57303   6.58265
 Alpha virt. eigenvalues --    6.69768   6.72310   6.72987   6.74895   6.75656
 Alpha virt. eigenvalues --    6.77010   6.77209   6.78169   6.78597   6.80694
 Alpha virt. eigenvalues --    6.81896   6.84482   6.85524   6.87708   6.89607
 Alpha virt. eigenvalues --    6.90705   6.91072   6.96365   7.00819   7.00934
 Alpha virt. eigenvalues --    7.03075   7.03575   7.04568   7.05191   7.16105
 Alpha virt. eigenvalues --    7.16768   7.21732   7.23318   7.24480   7.26954
 Alpha virt. eigenvalues --    7.38878   7.39749   7.40802   7.42125   7.44119
 Alpha virt. eigenvalues --    7.47747   7.54419   7.55236   7.58553   7.60783
 Alpha virt. eigenvalues --    7.63055   7.70524  23.10488  23.18503  23.23366
 Alpha virt. eigenvalues --   23.24326  23.39643  23.43182  44.08364  44.13224
 Alpha virt. eigenvalues --   44.26139  44.28810  44.30553  44.35311
          Condensed to atoms (all electrons):
               1          2          3          4          5          6
     1  C    5.148076   0.246606   0.158742  -0.084393  -0.013770   0.356412
     2  C    0.246606   4.940467  -0.043097   0.287572   0.412269   0.033052
     3  C    0.158742  -0.043097   5.118105   0.028140  -0.016664  -0.050632
     4  C   -0.084393   0.287572   0.028140   4.883716  -0.053233  -0.017476
     5  H   -0.013770   0.412269  -0.016664  -0.053233   0.563071   0.008046
     6  H    0.356412   0.033052  -0.050632  -0.017476   0.008046   0.631724
     7  C   -0.000766   0.000034   0.270056  -0.000178  -0.000789  -0.012085
     8  H   -0.057031   0.014074   0.395108  -0.005979   0.006748   0.008380
     9  C    0.046943   0.020593  -0.016918   0.213964   0.011737   0.004570
    10  H   -0.015385  -0.017720   0.004551   0.431304  -0.005328  -0.000424
    11  H   -0.008635   0.001229  -0.047821   0.000044   0.000042   0.003095
    12  H    0.013273  -0.000053  -0.062661  -0.000087   0.000034   0.000217
    13  H    0.010844  -0.017865  -0.006504  -0.016585  -0.000692  -0.006767
    14  H   -0.001061   0.003041   0.000417  -0.037858  -0.000381   0.000192
    15  O    0.006821   0.005737  -0.081493  -0.000269   0.000029   0.016203
    16  H    0.007077   0.000273   0.002265  -0.000105  -0.000015  -0.002720
    17  O   -0.042639  -0.007192   0.250873  -0.002051   0.000925  -0.000517
    18  H    0.003698   0.001448  -0.055929  -0.000902  -0.000104   0.003412
    19  O    0.262242  -0.020985  -0.047469   0.011253   0.006621  -0.047470
    20  H   -0.032560  -0.025282   0.012159   0.004229  -0.002074  -0.003902
    21  O   -0.024113   0.198188   0.007224  -0.030496  -0.032966  -0.000546
    22  H    0.011391  -0.045880   0.001823  -0.006186   0.005013   0.001037
    23  O    0.009079  -0.039891  -0.001625   0.290272   0.006167   0.000088
    24  H    0.000996  -0.011218  -0.000255  -0.046320  -0.002109   0.000011
    25  O   -0.006581  -0.026053   0.001257  -0.021665  -0.001918   0.002025
    26  H    0.001059  -0.012180  -0.000047   0.021933  -0.000178  -0.000532
               7          8          9         10         11         12
     1  C   -0.000766  -0.057031   0.046943  -0.015385  -0.008635   0.013273
     2  C    0.000034   0.014074   0.020593  -0.017720   0.001229  -0.000053
     3  C    0.270056   0.395108  -0.016918   0.004551  -0.047821  -0.062661
     4  C   -0.000178  -0.005979   0.213964   0.431304   0.000044  -0.000087
     5  H   -0.000789   0.006748   0.011737  -0.005328   0.000042   0.000034
     6  H   -0.012085   0.008380   0.004570  -0.000424   0.003095   0.000217
     7  C    4.721798  -0.020574   0.000628   0.000104   0.445406   0.434339
     8  H   -0.020574   0.599880   0.000079  -0.001889   0.000775  -0.002211
     9  C    0.000628   0.000079   4.902722  -0.049734   0.000015   0.000017
    10  H    0.000104  -0.001889  -0.049734   0.572792  -0.000022   0.000005
    11  H    0.445406   0.000775   0.000015  -0.000022   0.569296  -0.023208
    12  H    0.434339  -0.002211   0.000017   0.000005  -0.023208   0.563156
    13  H   -0.000276   0.000215   0.383581   0.005151  -0.000026  -0.000020
    14  H   -0.000001  -0.000019   0.428449  -0.002292  -0.000000  -0.000000
    15  O    0.239652   0.004383  -0.000483  -0.000056  -0.034564  -0.031476
    16  H   -0.035864  -0.000212   0.000004   0.000001  -0.014330   0.007527
    17  O   -0.026378  -0.027702  -0.010352   0.006030   0.003632   0.001297
    18  H   -0.007501   0.007144  -0.000541  -0.000489   0.001781  -0.000924
    19  O    0.003325   0.006958  -0.001535  -0.000173   0.005123   0.000094
    20  H   -0.001078  -0.000701  -0.000402  -0.000021   0.000049   0.000005
    21  O   -0.000128   0.000107  -0.007501   0.003358  -0.000022   0.000009
    22  H   -0.000043   0.000012  -0.004449   0.000091  -0.000011   0.000000
    23  O    0.000010   0.000079  -0.075058  -0.023887  -0.000000   0.000000
    24  H    0.000010  -0.000024  -0.007820   0.006569   0.000000  -0.000000
    25  O   -0.000006  -0.000025   0.213124   0.004943  -0.000000   0.000000
    26  H    0.000000  -0.000005  -0.051217   0.000932   0.000000   0.000000
              13         14         15         16         17         18
     1  C    0.010844  -0.001061   0.006821   0.007077  -0.042639   0.003698
     2  C   -0.017865   0.003041   0.005737   0.000273  -0.007192   0.001448
     3  C   -0.006504   0.000417  -0.081493   0.002265   0.250873  -0.055929
     4  C   -0.016585  -0.037858  -0.000269  -0.000105  -0.002051  -0.000902
     5  H   -0.000692  -0.000381   0.000029  -0.000015   0.000925  -0.000104
     6  H   -0.006767   0.000192   0.016203  -0.002720  -0.000517   0.003412
     7  C   -0.000276  -0.000001   0.239652  -0.035864  -0.026378  -0.007501
     8  H    0.000215  -0.000019   0.004383  -0.000212  -0.027702   0.007144
     9  C    0.383581   0.428449  -0.000483   0.000004  -0.010352  -0.000541
    10  H    0.005151  -0.002292  -0.000056   0.000001   0.006030  -0.000489
    11  H   -0.000026  -0.000000  -0.034564  -0.014330   0.003632   0.001781
    12  H   -0.000020  -0.000000  -0.031476   0.007527   0.001297  -0.000924
    13  H    0.582758  -0.019236   0.000287   0.000043   0.016345   0.000972
    14  H   -0.019236   0.572770  -0.000007  -0.000000   0.000007  -0.000011
    15  O    0.000287  -0.000007   7.922620   0.319396  -0.010430   0.025139
    16  H    0.000043  -0.000000   0.319396   0.512876   0.000459  -0.001795
    17  O    0.016345   0.000007  -0.010430   0.000459   7.912832   0.326105
    18  H    0.000972  -0.000011   0.025139  -0.001795   0.326105   0.494222
    19  O    0.000233   0.000007  -0.003017   0.004403   0.002741  -0.000062
    20  H   -0.000060   0.000007  -0.000007  -0.000138  -0.000389   0.000041
    21  O    0.000532  -0.000601   0.000004   0.000006  -0.000141   0.000020
    22  H   -0.001103   0.001273  -0.000024   0.000007   0.000042  -0.000014
    23  O    0.004914   0.004029   0.000000   0.000000   0.000131  -0.000005
    24  H   -0.000357   0.000022  -0.000000   0.000000  -0.000024   0.000001
    25  O   -0.025901  -0.033799   0.000001  -0.000000   0.000167   0.000004
    26  H    0.009649  -0.011176   0.000000  -0.000000  -0.000020   0.000002
              19         20         21         22         23         24
     1  C    0.262242  -0.032560  -0.024113   0.011391   0.009079   0.000996
     2  C   -0.020985  -0.025282   0.198188  -0.045880  -0.039891  -0.011218
     3  C   -0.047469   0.012159   0.007224   0.001823  -0.001625  -0.000255
     4  C    0.011253   0.004229  -0.030496  -0.006186   0.290272  -0.046320
     5  H    0.006621  -0.002074  -0.032966   0.005013   0.006167  -0.002109
     6  H   -0.047470  -0.003902  -0.000546   0.001037   0.000088   0.000011
     7  C    0.003325  -0.001078  -0.000128  -0.000043   0.000010   0.000010
     8  H    0.006958  -0.000701   0.000107   0.000012   0.000079  -0.000024
     9  C   -0.001535  -0.000402  -0.007501  -0.004449  -0.075058  -0.007820
    10  H   -0.000173  -0.000021   0.003358   0.000091  -0.023887   0.006569
    11  H    0.005123   0.000049  -0.000022  -0.000011  -0.000000   0.000000
    12  H    0.000094   0.000005   0.000009   0.000000   0.000000  -0.000000
    13  H    0.000233  -0.000060   0.000532  -0.001103   0.004914  -0.000357
    14  H    0.000007   0.000007  -0.000601   0.001273   0.004029   0.000022
    15  O   -0.003017  -0.000007   0.000004  -0.000024   0.000000  -0.000000
    16  H    0.004403  -0.000138   0.000006   0.000007   0.000000   0.000000
    17  O    0.002741  -0.000389  -0.000141   0.000042   0.000131  -0.000024
    18  H   -0.000062   0.000041   0.000020  -0.000014  -0.000005   0.000001
    19  O    7.894497   0.329813  -0.021096  -0.000007  -0.000155  -0.000023
    20  H    0.329813   0.480459   0.032324  -0.000196  -0.000049  -0.000136
    21  O   -0.021096   0.032324   8.001245   0.325256  -0.012318   0.031037
    22  H   -0.000007  -0.000196   0.325256   0.446097   0.000971  -0.001206
    23  O   -0.000155  -0.000049  -0.012318   0.000971   7.893036   0.331397
    24  H   -0.000023  -0.000136   0.031037  -0.001206   0.331397   0.494109
    25  O    0.000015   0.000109  -0.026690   0.048401  -0.004276   0.003821
    26  H    0.000007   0.000006   0.002164  -0.003157   0.014392   0.000613
              25         26
     1  C   -0.006581   0.001059
     2  C   -0.026053  -0.012180
     3  C    0.001257  -0.000047
     4  C   -0.021665   0.021933
     5  H   -0.001918  -0.000178
     6  H    0.002025  -0.000532
     7  C   -0.000006   0.000000
     8  H   -0.000025  -0.000005
     9  C    0.213124  -0.051217
    10  H    0.004943   0.000932
    11  H   -0.000000   0.000000
    12  H    0.000000   0.000000
    13  H   -0.025901   0.009649
    14  H   -0.033799  -0.011176
    15  O    0.000001   0.000000
    16  H   -0.000000  -0.000000
    17  O    0.000167  -0.000020
    18  H    0.000004   0.000002
    19  O    0.000015   0.000007
    20  H    0.000109   0.000006
    21  O   -0.026690   0.002164
    22  H    0.048401  -0.003157
    23  O   -0.004276   0.014392
    24  H    0.003821   0.000613
    25  O    7.919019   0.319717
    26  H    0.319717   0.518551
 Mulliken charges:
               1
     1  C    0.003674
     2  C    0.102830
     3  C    0.180395
     4  C    0.151355
     5  H    0.109518
     6  H    0.074605
     7  C   -0.009698
     8  H    0.072431
     9  C   -0.000418
    10  H    0.081591
    11  H    0.098148
    12  H    0.100668
    13  H    0.079867
    14  H    0.096229
    15  O   -0.378446
    16  H    0.200845
    17  O   -0.393750
    18  H    0.204288
    19  O   -0.385338
    20  H    0.207794
    21  O   -0.444853
    22  H    0.220860
    23  O   -0.397299
    24  H    0.200906
    25  O   -0.365687
    26  H    0.189485
 Sum of Mulliken charges =  -0.00000
 Mulliken charges with hydrogens summed into heavy atoms:
               1
     1  C    0.078279
     2  C    0.212348
     3  C    0.252826
     4  C    0.232946
     7  C    0.189118
     9  C    0.175678
    15  O   -0.177601
    17  O   -0.189462
    19  O   -0.177544
    21  O   -0.223994
    23  O   -0.196392
    25  O   -0.176202
 Electronic spatial extent (au):  <R**2>=           2369.9901
 Charge=             -0.0000 electrons
 Dipole moment (field-independent basis, Debye):
    X=              0.0049    Y=              0.2041    Z=              0.6998  Tot=              0.7290
 Quadrupole moment (field-independent basis, Debye-Ang):
   XX=            -71.3883   YY=            -74.5178   ZZ=            -73.6646
   XY=              1.2119   XZ=             -4.9210   YZ=             -0.5040
 Traceless Quadrupole moment (field-independent basis, Debye-Ang):
   XX=              1.8020   YY=             -1.3276   ZZ=             -0.4744
   XY=              1.2119   XZ=             -4.9210   YZ=             -0.5040
 Octapole moment (field-independent basis, Debye-Ang**2):
  XXX=            -24.8908  YYY=             -3.6579  ZZZ=              3.4426  XYY=             -7.3881
  XXY=              9.7254  XXZ=             10.6219  XZZ=             12.1842  YZZ=             10.1942
  YYZ=              9.1287  XYZ=              7.9009
 Hexadecapole moment (field-independent basis, Debye-Ang**3):
 XXXX=          -1839.0893 YYYY=           -565.9527 ZZZZ=           -380.2212 XXXY=              7.7749
 XXXZ=           -111.1723 YYYX=             -4.1840 YYYZ=             -3.4979 ZZZX=             17.4201
 ZZZY=             10.4105 XXYY=           -412.8932 XXZZ=           -396.3853 YYZZ=           -157.4966
 XXYZ=              7.2536 YYXZ=              8.0343 ZZXY=             -4.2838
 N-N= 8.388953418280D+02 E-N=-3.294898944922D+03  KE= 6.850503151658D+02
   1 Symmetry operations used in ECPInt.
 ECPInt:  NShTT=   23436 NPrTT=   62434 LenC2=   22061 LenP2D=   45934.
 LDataN:  DoStor=T MaxTD1= 7 Len=  274
 Calling FoFJK, ICntrl=      2127 FMM=F ISym2X=0 I1Cent= 0 IOpClX= 0 NMat=1 NMatS=1 NMatT=0.
 ***** Axes restored to original set *****
 -------------------------------------------------------------------
 Center     Atomic                   Forces (Hartrees/Bohr)
 Number     Number              X              Y              Z
 -------------------------------------------------------------------
      1        6           0.003244672    0.008678995   -0.012861445
      2        6          -0.000097952   -0.011335407   -0.008469077
      3        6          -0.007493275   -0.005163964    0.003496665
      4        6           0.013994914   -0.001969461   -0.003769444
      5        1          -0.003122311   -0.002600898    0.002268382
      6        1           0.001278127   -0.001427831    0.007830499
      7        6          -0.001552222   -0.004442832   -0.004410949
      8        1           0.000687367   -0.002643179   -0.000131185
      9        6          -0.000168618   -0.000413573   -0.003033642
     10        1          -0.001982338   -0.001485545   -0.003633776
     11        1           0.005353065   -0.000202753    0.002368795
     12        1           0.003378348   -0.001692700   -0.001646804
     13        1           0.002935643    0.001520704   -0.002131131
     14        1          -0.002334645    0.006215703    0.002002171
     15        8           0.001153081    0.003655308   -0.018046119
     16        1          -0.000391704   -0.000442786    0.018898396
     17        8          -0.016383459   -0.000794500   -0.006906921
     18        1           0.017224235    0.008315905   -0.001969814
     19        8           0.013362949   -0.004837609    0.001680996
     20        1          -0.011796636    0.003605337    0.013371879
     21        8          -0.006062218   -0.004755957    0.010087643
     22        1           0.003661559    0.014912836    0.000468072
     23        8          -0.010007455    0.004463463   -0.013476335
     24        1          -0.002021138   -0.002609854    0.016646902
     25        8           0.016678336   -0.007332284    0.005482355
     26        1          -0.019538326    0.002782882   -0.004116110
 -------------------------------------------------------------------
 Cartesian Forces:  Max     0.019538326 RMS     0.007775013

 GradGradGradGradGradGradGradGradGradGradGradGradGradGradGradGradGradGrad
 Berny optimization.
 FormGI is forming the generalized inverse of G from B-inverse, IUseBI=4.
 Internal  Forces:  Max     0.019796624 RMS     0.005422883
 Search for a local minimum.
 Step number   1 out of a maximum of  140
 All quantities printed in internal units (Hartrees-Bohrs-Radians)
 Mixed Optimization -- RFO/linear search
 Second derivative matrix not updated -- first step.
 ITU=  0
     Eigenvalues ---    0.00230   0.00230   0.00256   0.00306   0.00337
     Eigenvalues ---    0.01007   0.01096   0.01179   0.01230   0.01249
     Eigenvalues ---    0.01297   0.03522   0.03910   0.03997   0.04129
     Eigenvalues ---    0.04557   0.04722   0.04795   0.04904   0.04986
     Eigenvalues ---    0.05056   0.05550   0.05651   0.07462   0.07576
     Eigenvalues ---    0.07714   0.08094   0.11479   0.11517   0.13753
     Eigenvalues ---    0.13758   0.16000   0.16000   0.16000   0.16000
     Eigenvalues ---    0.16000   0.16000   0.16779   0.16814   0.16815
     Eigenvalues ---    0.17713   0.19330   0.19652   0.19667   0.19735
     Eigenvalues ---    0.21994   0.21995   0.28188   0.28316   0.28646
     Eigenvalues ---    0.28989   0.29203   0.34022   0.34125   0.34156
     Eigenvalues ---    0.34200   0.34251   0.34319   0.34412   0.34557
     Eigenvalues ---    0.38013   0.38898   0.39756   0.40287   0.40494
     Eigenvalues ---    0.41015   0.50479   0.51165   0.51190   0.51642
     Eigenvalues ---    0.51697   0.52106
 RFO step:  Lambda=-1.46137803D-02 EMin= 2.30000000D-03
 Linear search not attempted -- first point.
 Iteration  1 RMS(Cart)=  0.07485676 RMS(Int)=  0.00274648
 Iteration  2 RMS(Cart)=  0.00344209 RMS(Int)=  0.00037051
 Iteration  3 RMS(Cart)=  0.00000800 RMS(Int)=  0.00037046
 Iteration  4 RMS(Cart)=  0.00000000 RMS(Int)=  0.00037046
 Variable       Old X    -DE/DX   Delta X   Delta X   Delta X     New X
                                 (Linear)    (Quad)   (Total)
    R1        2.91452  -0.00807   0.00000  -0.02711  -0.02711   2.88741
    R2        2.90748  -0.00903   0.00000  -0.03001  -0.03001   2.87747
    R3        2.07120   0.00007   0.00000   0.00019   0.00019   2.07139
    R4        2.71886  -0.01334   0.00000  -0.03236  -0.03236   2.68650
    R5        2.91730  -0.00614   0.00000  -0.02069  -0.02069   2.89660
    R6        2.07292  -0.00348   0.00000  -0.00982  -0.00982   2.06310
    R7        2.74346  -0.01372   0.00000  -0.03477  -0.03477   2.70869
    R8        2.90026  -0.00812   0.00000  -0.02667  -0.02667   2.87359
    R9        2.07067  -0.00195   0.00000  -0.00547  -0.00547   2.06520
   R10        2.71165  -0.01145   0.00000  -0.02742  -0.02742   2.68424
   R11        2.89581  -0.00215   0.00000  -0.00700  -0.00700   2.88880
   R12        2.06641  -0.00356   0.00000  -0.00992  -0.00992   2.05648
   R13        2.73078  -0.01233   0.00000  -0.03054  -0.03054   2.70024
   R14        2.06796  -0.00296   0.00000  -0.00827  -0.00827   2.05969
   R15        2.06909  -0.00323   0.00000  -0.00905  -0.00905   2.06005
   R16        2.70197  -0.00325   0.00000  -0.00765  -0.00765   2.69432
   R17        2.06400  -0.00345   0.00000  -0.00957  -0.00957   2.05443
   R18        2.06995  -0.00268   0.00000  -0.00751  -0.00751   2.06243
   R19        2.70887   0.00027   0.00000   0.00065   0.00065   2.70953
   R20        1.84498  -0.01860   0.00000  -0.03472  -0.03472   1.81026
   R21        1.85408  -0.01906   0.00000  -0.03621  -0.03621   1.81787
   R22        1.85383  -0.01817   0.00000  -0.03452  -0.03452   1.81931
   R23        1.86085  -0.01519   0.00000  -0.02925  -0.02925   1.83161
   R24        1.84943  -0.01697   0.00000  -0.03195  -0.03195   1.81748
   R25        1.84891  -0.01980   0.00000  -0.03724  -0.03724   1.81167
    A1        1.97436   0.00413   0.00000   0.00894   0.00898   1.98335
    A2        1.90701  -0.00153   0.00000   0.00007  -0.00032   1.90669
    A3        1.87882   0.00192   0.00000   0.01132   0.01111   1.88993
    A4        1.92858  -0.00216   0.00000  -0.02567  -0.02540   1.90318
    A5        1.91951  -0.00675   0.00000  -0.04269  -0.04261   1.87690
    A6        1.85083   0.00453   0.00000   0.05191   0.05142   1.90225
    A7        2.04592  -0.00234   0.00000  -0.00488  -0.00563   2.04029
    A8        1.90653  -0.00091   0.00000  -0.02546  -0.02561   1.88092
    A9        1.87583   0.00191   0.00000   0.02400   0.02374   1.89956
   A10        1.89921   0.00045   0.00000  -0.01102  -0.01129   1.88792
   A11        1.90462   0.00244   0.00000   0.02875   0.02850   1.93311
   A12        1.81814  -0.00146   0.00000  -0.01170  -0.01134   1.80681
   A13        1.97478  -0.00480   0.00000  -0.02074  -0.02088   1.95390
   A14        1.91890   0.00096   0.00000  -0.00729  -0.00742   1.91149
   A15        1.90343   0.00031   0.00000   0.00533   0.00549   1.90892
   A16        1.89107   0.00078   0.00000   0.00002  -0.00021   1.89086
   A17        1.88829   0.00452   0.00000   0.03063   0.03068   1.91897
   A18        1.88515  -0.00163   0.00000  -0.00701  -0.00707   1.87809
   A19        1.98989   0.00384   0.00000   0.02483   0.02382   2.01370
   A20        1.93478  -0.00241   0.00000  -0.03776  -0.03774   1.89704
   A21        1.88177  -0.00131   0.00000   0.01393   0.01264   1.89441
   A22        1.91864  -0.00324   0.00000  -0.03781  -0.03771   1.88093
   A23        1.86717   0.00246   0.00000   0.03641   0.03560   1.90278
   A24        1.86581   0.00073   0.00000   0.00354   0.00417   1.86998
   A25        1.97118  -0.00583   0.00000  -0.03653  -0.03693   1.93426
   A26        1.91553  -0.00222   0.00000  -0.02030  -0.02060   1.89493
   A27        1.90941   0.00415   0.00000   0.01993   0.02010   1.92951
   A28        1.88992   0.00239   0.00000   0.00820   0.00740   1.89733
   A29        1.91391   0.00278   0.00000   0.03272   0.03299   1.94689
   A30        1.86057  -0.00105   0.00000  -0.00234  -0.00220   1.85837
   A31        1.95814  -0.00293   0.00000  -0.02198  -0.02239   1.93574
   A32        1.93522  -0.00801   0.00000  -0.04493  -0.04620   1.88903
   A33        1.91433   0.01301   0.00000   0.06137   0.06153   1.97586
   A34        1.88992   0.00253   0.00000  -0.00393  -0.00506   1.88486
   A35        1.88577  -0.00555   0.00000  -0.02397  -0.02347   1.86231
   A36        1.87802   0.00102   0.00000   0.03557   0.03614   1.91416
   A37        1.84992   0.00567   0.00000   0.03249   0.03249   1.88241
   A38        1.84089   0.00087   0.00000   0.00500   0.00500   1.84589
   A39        1.83831  -0.00138   0.00000  -0.00788  -0.00788   1.83043
   A40        1.85038  -0.00107   0.00000  -0.00611  -0.00611   1.84427
   A41        1.85229  -0.00048   0.00000  -0.00272  -0.00272   1.84957
   A42        1.82924   0.00632   0.00000   0.03619   0.03619   1.86543
    D1        1.06905  -0.00004   0.00000   0.00245   0.00260   1.07165
    D2       -1.10057   0.00194   0.00000   0.04319   0.04310  -1.05747
    D3       -3.06303   0.00311   0.00000   0.05698   0.05709  -3.00594
    D4       -1.08723   0.00099   0.00000   0.02935   0.02941  -1.05782
    D5        3.02632   0.00297   0.00000   0.07009   0.06991   3.09623
    D6        1.06386   0.00415   0.00000   0.08388   0.08390   1.14777
    D7       -3.08975  -0.00457   0.00000  -0.03775  -0.03768  -3.12743
    D8        1.02381  -0.00259   0.00000   0.00299   0.00282   1.02663
    D9       -0.93865  -0.00142   0.00000   0.01677   0.01681  -0.92184
   D10        2.90013  -0.00157   0.00000  -0.04205  -0.04193   2.85820
   D11        0.78322   0.00002   0.00000  -0.02262  -0.02263   0.76059
   D12       -1.28069   0.00125   0.00000  -0.01301  -0.01297  -1.29366
   D13       -1.23869  -0.00221   0.00000  -0.05476  -0.05488  -1.29357
   D14        2.92759  -0.00062   0.00000  -0.03533  -0.03558   2.89201
   D15        0.86367   0.00061   0.00000  -0.02572  -0.02591   0.83776
   D16        0.79877  -0.00202   0.00000  -0.03228  -0.03208   0.76669
   D17       -1.31814  -0.00043   0.00000  -0.01286  -0.01278  -1.33092
   D18        2.90113   0.00080   0.00000  -0.00325  -0.00312   2.89801
   D19        0.63988   0.00000   0.00000   0.02208   0.02249   0.66237
   D20        2.79804   0.00213   0.00000   0.01380   0.01425   2.81229
   D21       -1.39963  -0.00143   0.00000  -0.00955  -0.01042  -1.41005
   D22        0.99845  -0.00177   0.00000  -0.06955  -0.06960   0.92885
   D23       -1.17768   0.00154   0.00000  -0.00765  -0.00768  -1.18536
   D24        3.06878   0.00276   0.00000   0.00071   0.00080   3.06957
   D25       -3.11143  -0.00442   0.00000  -0.11742  -0.11743   3.05433
   D26        0.99563  -0.00111   0.00000  -0.05553  -0.05552   0.94011
   D27       -1.04110   0.00011   0.00000  -0.04717  -0.04704  -1.08814
   D28       -1.13789  -0.00464   0.00000  -0.12206  -0.12216  -1.26005
   D29        2.96917  -0.00133   0.00000  -0.06017  -0.06025   2.90892
   D30        0.93244  -0.00011   0.00000  -0.05181  -0.05177   0.88067
   D31       -1.35024  -0.00163   0.00000  -0.07165  -0.07206  -1.42229
   D32        0.88524  -0.00161   0.00000  -0.04197  -0.04153   0.84371
   D33        2.91128  -0.00074   0.00000  -0.04764  -0.04767   2.86360
   D34       -1.05474  -0.00069   0.00000   0.01294   0.01319  -1.04155
   D35        3.11786   0.00175   0.00000   0.04140   0.04109  -3.12423
   D36        1.08217   0.00189   0.00000   0.04436   0.04423   1.12640
   D37        1.07779  -0.00209   0.00000  -0.01003  -0.00973   1.06805
   D38       -1.03279   0.00035   0.00000   0.01843   0.01816  -1.01463
   D39       -3.06848   0.00050   0.00000   0.02139   0.02130  -3.04718
   D40        3.11749  -0.00116   0.00000  -0.00182  -0.00142   3.11606
   D41        1.00690   0.00128   0.00000   0.02664   0.02648   1.03338
   D42       -1.02879   0.00142   0.00000   0.02960   0.02961  -0.99917
   D43       -1.62934   0.00258   0.00000   0.05348   0.05336  -1.57598
   D44        0.52535  -0.00026   0.00000   0.05067   0.05082   0.57617
   D45        2.56887   0.00219   0.00000   0.06328   0.06325   2.63212
   D46       -1.07965   0.00044   0.00000   0.03223   0.03296  -1.04670
   D47        3.08791   0.00490   0.00000   0.08432   0.08390  -3.11138
   D48        1.01622   0.00037   0.00000   0.02938   0.02984   1.04605
   D49        1.10507  -0.00245   0.00000  -0.02950  -0.02885   1.07622
   D50       -1.01055   0.00201   0.00000   0.02259   0.02209  -0.98846
   D51       -3.08224  -0.00251   0.00000  -0.03235  -0.03197  -3.11422
   D52        3.12491  -0.00190   0.00000  -0.02472  -0.02468   3.10023
   D53        1.00928   0.00256   0.00000   0.02737   0.02627   1.03555
   D54       -1.06241  -0.00196   0.00000  -0.02757  -0.02780  -1.09021
   D55       -0.43261  -0.00296   0.00000  -0.03731  -0.03757  -0.47018
   D56        1.71465   0.00232   0.00000   0.02157   0.02170   1.73635
   D57       -2.51376   0.00017   0.00000  -0.00218  -0.00206  -2.51582
   D58       -1.53229   0.00140   0.00000   0.02960   0.02938  -1.50291
   D59        0.63849  -0.00126   0.00000   0.01911   0.01929   0.65778
   D60        2.68072   0.00242   0.00000   0.04440   0.04445   2.72517
   D61        1.34492  -0.00183   0.00000  -0.03531  -0.03433   1.31059
   D62       -2.79884  -0.00093   0.00000  -0.03970  -0.03953  -2.83837
   D63       -0.76178  -0.00031   0.00000  -0.03810  -0.03925  -0.80103
         Item               Value     Threshold  Converged?
 Maximum Force            0.019797     0.000450     NO 
 RMS     Force            0.005423     0.000300     NO 
 Maximum Displacement     0.256458     0.001800     NO 
 RMS     Displacement     0.075909     0.001200     NO 
 Predicted change in Energy=-8.509354D-03
 GradGradGradGradGradGradGradGradGradGradGradGradGradGradGradGradGradGrad

                          Input orientation:                          
 ---------------------------------------------------------------------
 Center     Atomic      Atomic             Coordinates (Angstroms)
 Number     Number       Type             X           Y           Z
 ---------------------------------------------------------------------
      1          6           0        0.009393   -0.011195    0.005053
      2          6           0        1.537029    0.010383   -0.017261
      3          6           0       -0.591453    0.597525    1.264827
      4          6           0        2.257823   -0.766359    1.090282
      5          1           0        1.856307    1.053089    0.035049
      6          1           0       -0.338806   -1.045881   -0.093374
      7          6           0       -2.067285    0.920561    1.091888
      8          1           0       -0.063633    1.522225    1.511134
      9          6           0        1.839534   -2.228687    1.243655
     10          1           0        2.076795   -0.267734    2.040480
     11          1           0       -2.215979    1.629049    0.277082
     12          1           0       -2.435400    1.367578    2.015495
     13          1           0        0.779744   -2.307099    1.473018
     14          1           0        2.397640   -2.657839    2.077611
     15          8           0       -2.820889   -0.273149    0.891972
     16          1           0       -2.802827   -0.478682   -0.043492
     17          8           0       -0.415921   -0.299960    2.351728
     18          1           0       -1.199031   -0.858607    2.358404
     19          8           0       -0.463579    0.743484   -1.103010
     20          1           0        0.148066    0.541744   -1.818591
     21          8           0        1.987023   -0.413449   -1.310491
     22          1           0        1.954768   -1.382024   -1.294426
     23          8           0        3.664300   -0.707556    0.845044
     24          1           0        3.762803   -0.594606   -0.104977
     25          8           0        2.063923   -3.007601    0.060953
     26          1           0        3.007254   -3.170712    0.009846
 ---------------------------------------------------------------------
                    Distance matrix (angstroms):
                    1          2          3          4          5
     1  C    0.000000
     2  C    1.527952   0.000000
     3  C    1.522691   2.553218   0.000000
     4  C    2.608340   1.532816   3.163704   0.000000
     5  H    2.131829   1.091747   2.776945   2.141290   0.000000
     6  H    1.096131   2.154123   2.146933   2.867343   3.039850
     7  C    2.522295   3.879396   1.520638   4.642442   4.065593
     8  H    2.150580   2.680256   1.092855   3.286928   2.466796
     9  C    3.130627   2.587441   3.727951   1.528689   3.497294
    10  H    2.912547   2.145459   2.910302   1.088244   2.411419
    11  H    2.777892   4.097778   2.163046   5.139473   4.119930
    12  H    3.452521   4.664147   2.134625   5.237943   4.737068
    13  H    2.831879   2.857470   3.218752   2.169121   3.810198
    14  H    4.123584   3.499793   4.493628   2.138238   4.270373
    15  O    2.977539   4.460778   2.422288   5.106457   4.936536
    16  H    2.851224   4.367404   2.785694   5.194072   4.905101
    17  O    2.402324   3.085844   1.420438   2.992938   3.515787
    18  H    2.777887   3.726252   1.919735   3.683271   4.288082
    19  O    1.421635   2.391384   2.375775   3.807386   2.602480
    20  H    1.910667   2.335884   3.171351   3.824102   2.572070
    21  O    2.409042   1.433379   3.781914   2.441637   1.994568
    22  H    2.711513   1.935060   4.117236   2.481475   2.776144
    23  O    3.814296   2.405055   4.471117   1.428907   2.650435
    24  H    3.800075   2.308198   4.717742   1.929536   2.523735
    25  O    3.633547   3.064631   4.636514   2.473919   4.066076
    26  H    4.355426   3.504520   5.359597   2.740419   4.377877
                    6          7          8          9         10
     6  H    0.000000
     7  C    2.873914   0.000000
     8  H    3.040614   2.133633   0.000000
     9  C    2.816353   5.020362   4.214609   0.000000
    10  H    3.315716   4.414212   2.839998   2.129920   0.000000
    11  H    3.288809   1.089942   2.483323   5.680104   5.013508
    12  H    3.829858   1.090129   2.429727   5.639496   4.799455
    13  H    2.301176   4.320721   3.921283   1.087157   2.482613
    14  H    3.847041   5.806217   4.883820   1.091392   2.411830
    15  O    2.780064   1.425773   3.348013   5.066296   5.030547
    16  H    2.528953   1.946276   3.731444   5.125503   5.310193
    17  O    2.557512   2.409123   2.037416   3.167789   2.512278
    18  H    2.605048   2.350184   2.770444   3.514636   3.343836
    19  O    2.058339   2.724116   2.756835   4.432264   4.166244
    20  H    2.394571   3.677250   3.477532   4.462477   4.389497
    21  O    2.700153   4.897798   3.989185   3.136958   3.355340
    22  H    2.610747   5.212802   4.514396   2.678054   3.518257
    23  O    4.125524   5.963453   4.394665   2.408838   2.035359
    24  H    4.126377   6.141510   4.662017   2.861467   2.748174
    25  O    3.105684   5.793114   5.210455   1.433820   3.380172
    26  H    3.965058   6.607592   5.805848   1.942489   3.662856
                   11         12         13         14         15
    11  H    0.000000
    12  H    1.771607   0.000000
    13  H    5.088996   4.912706   0.000000
    14  H    6.550176   6.290160   1.762425   0.000000
    15  O    2.088626   2.025559   4.176018   5.858800   0.000000
    16  H    2.211263   2.789821   4.298573   6.024339   0.957947
    17  O    3.356403   2.640460   2.496068   3.681149   2.813447
    18  H    3.399194   2.569454   2.607219   4.031393   2.263539
    19  O    2.399955   3.742010   4.181845   5.465521   3.251216
    20  H    3.341075   4.696436   4.398819   5.520716   4.101937
    21  O    4.935323   5.813094   3.576500   4.084743   5.290231
    22  H    5.378785   6.147313   3.145662   3.632420   5.368132
    23  O    6.352951   6.548471   3.357611   2.631967   6.499891
    24  H    6.390341   6.838442   3.784355   3.299135   6.666502
    25  O    6.313699   6.573152   2.033161   2.073791   5.659435
    26  H    7.098682   7.364861   2.801517   2.215923   6.568201
                   16         17         18         19         20
    16  H    0.000000
    17  O    3.386199   0.000000
    18  H    2.913007   0.961973   0.000000
    19  O    2.844002   3.609191   3.884453   0.000000
    20  H    3.591658   4.291632   4.606836   0.962738   0.000000
    21  O    4.955018   4.381651   4.879539   2.717902   2.133618
    22  H    5.001557   4.481681   4.854233   3.225341   2.690688
    23  O    6.531892   4.368573   5.095592   4.789553   4.584715
    24  H    6.566941   4.856331   5.545966   4.544102   4.158617
    25  O    5.485581   4.327655   4.532475   4.670515   4.449836
    26  H    6.403664   5.044180   5.343630   5.348463   5.029957
                   21         22         23         24         25
    21  O    0.000000
    22  H    0.969245   0.000000
    23  O    2.747015   2.820415   0.000000
    24  H    2.153945   2.303000   0.961770   0.000000
    25  O    2.935370   2.119308   2.909675   2.955718   0.000000
    26  H    3.222834   2.451175   2.682611   2.687072   0.958692
                   26
    26  H    0.000000
 Stoichiometry    C6H14O6
 Framework group  C1[X(C6H14O6)]
 Deg. of freedom    72
 Full point group                 C1      NOp   1
 Largest Abelian subgroup         C1      NOp   1
 Largest concise Abelian subgroup C1      NOp   1
                         Standard orientation:                         
 ---------------------------------------------------------------------
 Center     Atomic      Atomic             Coordinates (Angstroms)
 Number     Number       Type             X           Y           Z
 ---------------------------------------------------------------------
      1          6           0        0.650459    0.610319    0.108906
      2          6           0       -0.742464    0.805399   -0.488039
      3          6           0        1.572602   -0.237190   -0.757101
      4          6           0       -1.583208   -0.456259   -0.713636
      5          1           0       -0.625634    1.312752   -1.447651
      6          1           0        0.558224    0.143538    1.096383
      7          6           0        3.030320   -0.087362   -0.350960
      8          1           0        1.473802    0.067031   -1.802099
      9          6           0       -1.749505   -1.359860    0.508142
     10          1           0       -1.121612   -1.046465   -1.502852
     11          1           0        3.352465    0.950144   -0.439151
     12          1           0        3.640381   -0.700525   -1.014464
     13          1           0       -0.784570   -1.710897    0.865333
     14          1           0       -2.336372   -2.230859    0.211352
     15          8           0        3.236785   -0.589552    0.967374
     16          1           0        3.039440    0.115919    1.584649
     17          8           0        1.182193   -1.599987   -0.667604
     18          1           0        1.683813   -1.967861    0.066181
     19          8           0        1.255677    1.888257    0.255983
     20          1           0        0.540058    2.470423    0.531366
     21          8           0       -1.458541    1.757241    0.309334
     22          1           0       -1.802108    1.258853    1.066306
     23          8           0       -2.874912   -0.063811   -1.181892
     24          1           0       -3.024239    0.821075   -0.835944
     25          8           0       -2.384448   -0.703952    1.613796
     26          1           0       -3.316915   -0.638973    1.400785
 ---------------------------------------------------------------------
 Rotational constants (GHZ):           1.4425011           0.5688028           0.5128981
 Standard basis: def2TZVPP (5D, 7F)
 There are   642 symmetry adapted cartesian basis functions of A   symmetry.
 There are   568 symmetry adapted basis functions of A   symmetry.
   568 basis functions,   850 primitive gaussians,   642 cartesian basis functions
    49 alpha electrons       49 beta electrons
       nuclear repulsion energy       842.0517563706 Hartrees.
 NAtoms=   26 NActive=   26 NUniq=   26 SFac= 1.00D+00 NAtFMM=   60 NAOKFM=F Big=F
 Integral buffers will be    131072 words long.
 Raffenetti 2 integral format.
 Two-electron integral symmetry is turned on.
 Nuclear repulsion after empirical dispersion term =      842.0318669960 Hartrees.
 One-electron integrals computed using PRISM.
   1 Symmetry operations used in ECPInt.
 ECPInt:  NShTT=   23436 NPrTT=   62434 LenC2=   22092 LenP2D=   46084.
 LDataN:  DoStor=T MaxTD1= 6 Len=  172
 NBasis=   568 RedAO= T EigKep=  3.70D-05  NBF=   568
[...]
 0099833,-0.00080215,0.00024112,-0.00062819,0.00661032,-0.00022422,0.00
 046769,-0.00027964,0.33264425,0.04288848,-0.11586234,0.04589909,0.0060
 8887,-0.00312242,0.00554293,-0.00450583,0.00702389,-0.00310313,-0.0003
 3496,0.00152626,-0.00099653,0.00163093,0.00191417,-0.00065560,0.017166
 62,-0.01617435,0.03770639,0.00101253,-0.00179366,-0.00002039,-0.000065
 44,0.00090246,0.00140684,-0.00116419,-0.00005408,0.00034638,0.00010550
 ,-0.00007334,0.00025170,0.00016868,0.00083124,-0.00169008,-0.00018127,
 0.00077283,-0.00056922,0.00055060,0.00041979,-0.00046913,0.00047911,0.
 00011737,-0.00006199,-0.00043685,0.00141639,-0.00002303,0.00037233,-0.
 00125839,0.00016015,0.00073531,0.00273550,-0.00260222,0.00067112,-0.00
 047659,-0.00106613,-0.15289564,0.16956876,-0.05217600,0.06850973,-0.17
 437650,-0.01230189,0.00933836,-0.02097484,-0.01333281,0.02176413,-0.02
 987342,0.00007117,-0.00092826,0.00387395,0.00100727,-0.00078905,0.0004
 2217,-0.00540553,0.01629817,-0.01191191,-0.00069578,-0.00035778,-0.000
 59233,-0.00048717,-0.00149395,0.00046683,0.00085127,-0.00069249,-0.001
 46774,0.00046378,-0.00014991,0.00045414,0.00146701,-0.00007638,-0.0022
 1001,-0.00048940,0.00049041,-0.00015478,-0.00022656,-0.00054535,0.0002
 5813,-0.00038121,0.00026450,0.00011284,0.00274987,0.00072605,0.0001396
 6,0.00015790,-0.00017165,-0.00210238,0.00371225,-0.00104725,-0.0114226
 6,-0.00139957,-0.00051908,0.00011588,-0.16673238,-0.01254416,0.5544523
 8,0.01092940,-0.00476801,-0.01352895,-0.00006414,-0.00050026,-0.008215
 75,-0.00223745,0.00189471,-0.00194447,0.00005714,0.00052861,0.00062397
 ,-0.00028386,-0.00009870,0.00009497,-0.00030428,0.00106077,-0.00027950
 ,-0.00030609,0.00041738,-0.00000260,0.00005446,-0.00039400,-0.00002253
 ,0.00051921,0.00008547,-0.00057542,0.00030871,-0.00013671,0.00039813,-
 0.00001058,-0.00016685,0.00021641,-0.00001359,-0.00010089,0.00000583,-
 0.00014165,-0.00015480,0.00007687,-0.00006738,-0.00007394,0.00009744,0
 .00000306,-0.00005120,0.00016958,0.00024638,0.00046108,0.00030049,0.00
 049904,0.00032077,-0.00193155,-0.00008807,-0.00006379,0.00000319,-0.20
 668734,0.08458357,0.23978512,0.19639985,-0.01118164,0.00384175,0.01904
 277,0.00112793,0.00307963,0.00361934,0.00178334,-0.00131279,0.00025587
 ,-0.00005169,-0.00037508,-0.00076451,-0.00040859,-0.00056074,-0.000583
 73,-0.00010267,-0.00095662,0.00146736,0.00035791,-0.00077799,-0.000504
 75,-0.00009912,-0.00005630,0.00016302,0.00001558,0.00014650,0.00051759
 ,-0.00014028,0.00008030,-0.00018607,-0.00009937,0.00035777,-0.00027263
 ,0.00000633,0.00014125,-0.00012488,-0.00000942,0.00001671,0.00002167,-
 0.00002643,-0.00007415,-0.00005816,-0.00026131,-0.00002994,0.00030331,
 0.00026084,0.00023430,0.00007871,-0.00021286,0.00004716,0.00131155,0.0
 0006866,0.00006469,-0.00004431,0.09196616,-0.05016022,-0.09700616,-0.0
 8101518,0.04954363,0.01828268,-0.00669302,-0.03649356,-0.00026517,-0.0
 0094981,-0.00060978,-0.00231101,0.00454136,-0.00209361,0.00031677,-0.0
 0011918,-0.00149182,-0.00055335,-0.00014388,-0.00013073,0.00045246,-0.
 00030248,0.00055738,-0.00040017,0.00014556,0.00023750,0.00000174,-0.00
 024641,-0.00000926,0.00006059,0.00021318,0.00029023,-0.00002600,0.0000
 7416,-0.00001334,0.00021191,-0.00012020,-0.00003762,-0.00013436,-0.000
 04903,0.00015734,0.00003658,0.00002395,-0.00007594,0.00006598,-0.00013
 355,0.00000656,-0.00042821,0.00003255,0.00054759,0.00078239,0.00029015
 ,-0.00018075,0.00044443,-0.00007352,-0.00193687,-0.00009909,-0.0000821
 8,-0.00016047,0.20018645,-0.07024397,-0.31090905,-0.21948641,0.0752187
 4,0.35149451,-0.01874396,0.02061123,0.03875529,-0.07693646,0.00373356,
 0.04133506,-0.00827935,0.00088470,-0.00643130,-0.00300521,-0.00409145,
 -0.00943808,0.00376479,0.00134685,-0.00234131,0.00342811,-0.00023884,-
 0.00050880,0.00060550,0.00125563,0.00339790,0.00009421,0.00018122,0.00
 008943,-0.00086075,0.00049748,0.00195117,-0.00082689,0.00132114,-0.002
 21173,0.00022164,-0.00017744,-0.00005824,-0.00118216,0.00020386,0.0000
 9323,0.00043491,0.00060707,-0.00033552,0.00004525,-0.00038279,0.000017
 56,-0.00060907,-0.00040253,-0.00007640,0.00068015,0.00010990,0.0000330
 6,0.00073349,-0.00153859,0.00189890,0.00010419,0.00027633,-0.00026439,
 -0.00208659,0.00247568,0.00705634,0.00175340,-0.00419093,0.00190876,0.
 10317597,0.00444790,-0.00115210,-0.00353159,0.01674035,-0.11260836,-0.
 05276883,0.00096937,0.00014531,0.00120254,-0.00362580,0.00832505,0.008
 35831,0.01475425,-0.01401439,-0.04085193,0.00197306,0.00222048,0.00074
 180,-0.00047912,0.00011840,-0.00058258,-0.00019499,0.00071916,0.000672
 78,0.00066547,-0.00409418,-0.00748614,0.00169463,-0.00016647,0.0022652
 9,-0.00012595,0.00009485,-0.00000724,0.00023043,-0.00004792,-0.0000868
 7,-0.00017353,0.00001014,0.00038520,0.00005193,0.00146510,0.00058734,0
 .00071831,0.00034466,0.00004983,-0.00035118,-0.00017607,-0.00009319,0.
 00029306,0.00116743,-0.00119268,0.00006478,-0.00018741,-0.00001441,0.0
 0386255,0.00184739,-0.00301772,-0.00281023,-0.00215971,-0.00107868,-0.
 01836204,0.61625270,0.01167142,-0.00868532,-0.02643182,0.04037462,-0.0
 1371365,-0.18338019,0.00366321,0.00054792,0.00409559,0.01248750,-0.017
 10323,-0.04843338,0.00428549,-0.00896122,-0.01091274,-0.00059148,0.001
 01415,0.00069287,-0.00100673,-0.00068495,-0.00232544,-0.00046288,0.000
 27204,0.00028347,0.00054469,-0.00425923,0.00012586,-0.00547156,0.00499
 216,-0.00449054,0.00015939,-0.00017270,0.00010335,0.00064271,-0.000199
 54,0.00013155,0.00003930,0.00026029,-0.00000431,-0.00017760,0.00048228
 ,0.00048093,0.00083369,0.00040023,0.00067023,-0.00007469,0.00007180,-0
 .00044395,0.00056250,0.00043385,-0.00024197,-0.00019624,-0.00014986,0.
 00007589,-0.00390534,0.00212434,0.00619116,0.00292943,-0.00307676,-0.0
 0004595,-0.07911746,0.02959355,0.30822923,0.00083955,0.00318724,-0.000
 19324,-0.00061138,0.01395941,0.00151843,-0.00046850,-0.00045951,0.0010
 2627,0.00248531,-0.00123381,-0.00051543,0.00031202,-0.00053924,0.00022
 582,-0.00069863,-0.00088948,0.00042127,-0.00007648,0.00001342,-0.00009
 890,-0.00001186,-0.00025672,-0.00020862,0.00145105,-0.00131111,-0.0013
 6955,-0.00010719,0.00018608,0.00018075,-0.00004461,0.00001745,0.000014
 59,0.00008371,-0.00000846,-0.00002535,-0.00034325,-0.00017278,0.000445
 25,-0.00019435,0.00019275,0.00032643,0.00013912,-0.00012509,-0.0000779
 6,-0.00018170,0.00009039,0.00001601,-0.00014004,0.00022756,-0.00037980
 ,-0.00003549,-0.00002253,0.00014006,-0.00138000,-0.00080774,0.00017173
 ,0.00076411,0.00160889,0.00011185,-0.01591568,-0.02029879,0.01211533,0
 .02263471,0.00076769,0.00193047,0.00122311,0.00010212,-0.01789426,-0.0
 0576580,-0.00078469,0.00047130,-0.00118584,-0.00033718,0.00310389,0.00
 009320,0.00084243,0.00187065,-0.00109273,0.00010950,-0.00044887,-0.000
 08001,0.00022532,0.00020642,0.00048706,-0.00002288,-0.00003880,0.00002
 201,-0.00288366,0.00579918,0.00564791,0.00055157,-0.00100284,0.0008456
 2,0.00006987,-0.00007108,-0.00001078,-0.00020552,0.00002944,0.00003691
 ,0.00023741,-0.00024821,-0.00039228,0.00018008,-0.00115997,-0.00136646
 ,-0.00028603,-0.00019710,0.00000687,0.00022797,0.00009848,-0.00001449,
 0.00005875,-0.00069481,0.00055666,-0.00006138,0.00018528,-0.00007501,-
 0.00105044,-0.00011752,0.00108588,0.00184744,-0.00109646,0.00016737,-0
 .00643785,-0.48862568,0.00808455,0.00673985,0.50334354,0.00015030,-0.0
 0093407,0.00028516,-0.00031718,-0.04514003,-0.00325377,0.00031176,-0.0
 0022606,0.00024692,-0.00125978,-0.00188669,-0.00026665,0.00262606,-0.0
 0261252,-0.00650417,0.00072266,0.00049042,0.00018738,0.00004553,0.0000
 6312,-0.00004773,-0.00001094,0.00017191,0.00015745,0.00067321,0.000157
 04,-0.00739027,0.00051805,0.00051084,0.00053763,-0.00004482,0.00002652
 ,-0.00002141,0.00002355,-0.00001850,-0.00001501,-0.00013227,0.00003765
 ,0.00016456,0.00016492,0.00010919,0.00050019,-0.00004516,0.00003555,-0
 .00007438,0.00000996,0.00000816,0.00006727,-0.00020340,0.00053560,-0.0
 0024018,0.00013953,-0.00008156,-0.00003991,-0.00091951,0.00019806,-0.0
 0077923,0.00041907,0.00097594,0.00034604,0.01252282,0.05203326,-0.0458
 8766,-0.01481263,-0.00088275,0.05820788,0.00488619,0.00263760,-0.00513
 929,-0.05045485,-0.00197563,0.00397841,0.00076560,-0.00092656,-0.00056
 546,-0.21777698,-0.01418055,-0.00371437,0.00162554,-0.00019604,0.00147
 444,-0.00014231,-0.00026595,0.00025786,0.00047281,-0.00002134,0.000233
 70,0.00012637,-0.00001095,0.00007492,-0.03523378,-0.01032241,0.0082349
 9,-0.02093142,-0.00154820,0.00588969,-0.00002865,-0.00001436,-0.000126
 19,-0.00016388,-0.00000187,0.00008712,0.00024766,-0.00515624,0.0003449
 8,0.00185790,0.00043029,0.00031240,-0.00074438,0.00005694,-0.00011568,
 0.00045001,0.00002429,0.00007185,-0.00124181,0.00033474,0.00068373,0.0
 0027819,0.00005961,-0.00028834,-0.00468657,0.00138395,-0.00334911,-0.0
 0029504,0.00024389,0.00111497,0.00404347,-0.00045743,0.00134340,-0.001
 30021,-0.00012173,-0.00014645,0.36464419,-0.00065220,-0.00048370,0.002
 94142,0.01824239,0.00110304,-0.00383962,-0.00045510,-0.00047688,0.0010
 2718,-0.02190094,-0.06518601,0.00704156,-0.00022249,0.00271286,-0.0019
 2210,0.00110022,0.00046078,0.00004889,-0.00019676,-0.00003669,-0.00017
 664,-0.00011585,0.00017524,0.00003155,-0.04125389,-0.00645792,0.005616
 12,0.00825511,0.00606102,0.00123156,-0.00006566,0.00005687,-0.00002298
 ,0.00007822,-0.00001783,-0.00001390,-0.00156599,-0.00742138,0.00001419
 ,0.00042032,0.00302694,-0.00085854,0.00022650,0.00020542,-0.00001085,-
 0.00012364,-0.00008387,0.00001584,0.00004158,0.00115667,-0.00051945,0.
 00028228,-0.00033293,-0.00000342,0.00170038,0.00019915,0.00078546,-0.0
 0015374,-0.00025644,-0.00028775,-0.00103656,0.00356088,0.00016634,0.00
 120934,-0.00160462,0.00129643,0.04591620,0.06737020,0.00050058,0.00236
 415,-0.00316281,-0.02306482,-0.00290736,-0.00080141,-0.00046509,0.0007
 5632,-0.00178409,0.04521938,0.00954331,-0.10014594,0.00008590,-0.00101
 100,0.00096463,-0.00021606,-0.00027474,0.00000686,-0.00009953,0.000056
 60,0.00025705,-0.00007225,0.00018317,0.00007480,0.01282442,-0.00203759
 ,-0.00144573,0.03558279,0.00696955,-0.00069882,0.00014676,-0.00008590,
 0.00003123,-0.00015509,0.00003836,0.00004437,0.00075270,0.00234490,0.0
 0132044,0.00029710,-0.00155615,0.00043949,0.00011101,0.00000279,0.0002
 3704,0.00016052,0.00002248,-0.00010388,0.00152982,-0.00052750,0.000707
 19,0.00005957,-0.00012860,-0.00003029,-0.00234111,0.00032660,-0.000013
 58,0.00072916,-0.00026695,0.00042532,-0.00936912,0.00016812,0.00055866
 ,0.00074001,0.00142191,-0.00024289,-0.08881083,-0.08533315,0.60754895,
 -0.00032117,-0.00030095,0.00045300,-0.00380111,0.00205448,0.00409772,0
 .00017706,-0.00021209,0.00084441,-0.01405107,-0.00546626,0.04593012,-0
 .00028500,0.00047961,-0.00044168,0.00020833,0.00007683,0.00001077,-0.0
 0010597,-0.00001963,-0.00020348,-0.00001124,-0.00003460,-0.00000560,-0
 .00276926,0.00039676,0.00156389,-0.00598439,-0.00138002,0.00024403,-0.
 00005515,0.00003888,0.00001528,0.00011262,-0.00001520,-0.00004077,-0.0
 0005252,-0.00066826,-0.00010484,-0.00006345,0.00019711,-0.00010300,0.0
 0019265,0.00000238,-0.00004810,-0.00018865,-0.00000786,0.00000970,-0.0
 0023558,0.00018216,-0.00042976,-0.00008247,0.00002129,0.00007875,0.001
 10209,-0.00030231,-0.00006785,-0.00075640,0.00036164,-0.00030700,0.005
 08654,-0.00018359,0.00084890,-0.00110060,-0.00186105,-0.00069180,-0.04
 996619,-0.00742713,0.02980912,0.07195272,0.00014965,-0.00043214,-0.000
 25834,0.00118631,0.00354950,0.00001612,0.00006505,0.00021254,-0.000310
 88,0.00038509,-0.00359226,0.00285292,0.00064474,-0.00113618,-0.0001244
 5,-0.00035357,-0.00007391,-0.00000606,0.00002856,0.00002168,0.00001736
 ,0.00000378,-0.00001299,-0.00004234,-0.00395556,0.00029041,0.00333286,
 0.00311190,-0.00019556,-0.00109016,0.00002915,-0.00001686,0.00001585,-
 0.00001475,0.00000495,0.00000350,-0.00018295,-0.00073444,-0.00051801,0
 .00001278,0.00019447,-0.00025883,-0.00003273,-0.00005298,0.00002139,0.
 00002908,0.00001903,-0.00000260,0.00023401,-0.00021280,0.00015819,0.00
 001456,0.00000123,-0.00000080,-0.00014317,-0.00015322,-0.00005227,-0.0
 0001687,0.00018483,0.00005019,0.00144293,-0.00318872,0.00023875,-0.002
 36820,0.00035444,-0.00112800,-0.01543094,-0.00983099,0.06731705,0.0138
 6160,0.01681735,0.00096696,-0.00063655,-0.00124922,-0.00597581,0.00165
 394,0.00416445,0.00042734,-0.00012809,0.00031650,0.00352980,-0.0006268
 1,-0.00699491,0.00040025,-0.00048883,0.00017784,-0.00014783,-0.0000539
 9,0.00005905,0.00003405,-0.00004551,-0.00011970,0.00001373,-0.00002995
 ,-0.00000459,-0.00124311,0.00027706,0.00027095,0.00065644,0.00118079,0
 .00079323,-0.00002833,0.00001955,-0.00000630,0.00005259,-0.00001193,-0
 .00000772,-0.00038447,-0.00070023,0.00002298,0.00003845,0.00002238,-0.
 00008151,-0.00003726,0.00000830,-0.00004470,-0.00002137,-0.00000333,0.
 00002515,-0.00016036,0.00015470,-0.00011076,0.00003570,-0.00003299,0.0
 0000715,-0.00044447,0.00020637,-0.00097113,-0.00070958,0.00039397,0.00
 017335,0.00381752,0.00038380,-0.00035385,-0.00108611,-0.00176189,0.000
 16287,0.08058986,0.06931418,-0.50848471,-0.08009835,-0.06932956,0.5128
 4502,-0.00029970,-0.00104962,0.00047164,-0.00046964,-0.00053609,0.0004
 9633,0.00009121,-0.00079218,0.00065763,-0.00173538,-0.00262794,0.00058
 876,-0.00008216,0.00020462,-0.00009415,0.00030651,0.00026351,0.0000983
 2,0.00010701,0.00003716,-0.00011879,0.00003975,0.00014109,0.00001343,-
 0.10176548,0.02973398,0.04187596,0.00089327,-0.00067213,0.00021353,-0.
 00007415,0.00003740,-0.00005677,0.00001861,-0.00002358,0.00001507,-0.0
 0476845,0.02275724,0.03485382,0.00832463,-0.00919207,-0.00885859,-0.00
 020555,0.00010526,-0.00008413,0.00010082,-0.00004469,0.00006629,-0.000
 66594,0.00170725,0.00002592,0.00053643,-0.00028354,-0.00015470,0.00016
 026,0.00044625,-0.00047318,-0.00016476,-0.00005431,0.00007689,0.003909
 16,0.00171188,-0.00169959,-0.00487534,0.00058600,0.00130422,0.00473848
 ,-0.00293980,-0.00397371,0.00047117,0.00159465,-0.00029594,0.62797199,
 -0.00085039,-0.00069388,-0.00021804,-0.00161189,0.00516246,0.00153834,
 -0.00005248,0.00005104,0.00025378,0.01129385,-0.02267769,-0.04523513,-
 0.00011222,0.00017302,-0.00043203,0.00025752,0.00015768,-0.00007939,-0
 .00045761,-0.00007347,-0.00028458,-0.00006032,0.00021954,0.00009156,0.
 00334596,-0.10181363,-0.06865559,-0.00257567,-0.00881160,0.00152508,0.
 00001042,0.00003627,0.00005154,0.00011158,-0.00000128,-0.00003520,0.00
 317752,-0.00006928,-0.00263764,-0.00214699,0.00618037,-0.00041568,0.00
 061129,0.00025896,0.00016481,-0.00026515,-0.00011527,-0.00005952,0.000
 67755,0.00010194,-0.00036913,-0.00010465,-0.00019045,0.00017513,0.0012
 6440,-0.00008184,0.00019784,-0.00098670,0.00014250,-0.00036234,0.00376
 595,-0.00989870,0.00813896,-0.00187097,-0.00395874,-0.00448344,0.00136
 746,0.00269505,0.00062067,0.00064647,0.00064901,-0.00025928,-0.0613642
 1,0.14887989,-0.00086373,0.00059714,0.00006633,0.00020661,-0.00262676,
 -0.00826863,-0.00037796,0.00096655,-0.00145959,0.00766255,-0.01304753,
 -0.01108864,0.00017770,-0.00018103,0.00167811,-0.00000754,-0.00001459,
 -0.00024294,-0.00019131,-0.00003525,0.00019574,-0.00004828,0.00002898,
 0.00009605,-0.00112893,-0.06427617,-0.18123446,-0.00060619,-0.00172557
 ,0.00189554,0.00014326,-0.00007078,0.00005632,-0.00010760,0.00004488,0
 .00002509,0.00509111,-0.00857462,-0.01124110,0.01201427,-0.02399246,-0
 .03697647,0.00025052,0.00002217,0.00025675,0.00002428,-0.00002589,-0.0
 0013591,0.00079955,-0.00150790,0.00067129,-0.00043700,0.00025031,-0.00
 001568,-0.00009586,-0.00020957,0.00147100,0.00094997,-0.00050070,-0.00
 010707,-0.00391781,0.01389291,0.00241708,0.00438388,-0.00709792,0.0030
 5808,-0.00164009,0.00223544,0.00443374,-0.00123005,-0.00136558,-0.0011
 6525,-0.05843456,0.12571048,0.27141379,-0.00008797,-0.00001471,-0.0001
 1757,-0.00053384,0.00021856,0.00037525,0.00000989,0.00002270,0.0000576
 8,0.00141620,0.00007706,-0.00162893,0.00009711,-0.00014572,0.00004000,
 0.00000076,-0.00004375,0.00001522,-0.00004604,0.00000452,-0.00003048,-
 0.00000597,0.00000491,0.00000537,-0.01077006,-0.00081251,-0.00054445,-
 0.00034805,-0.00058655,0.00002804,-0.00000031,0.00000081,0.00001057,0.
 00001682,-0.00000041,-0.00000937,0.00186973,0.00078305,0.00192164,0.00
 180808,-0.00122588,-0.00163552,0.00007153,-0.00000367,0.00001165,-0.00
 004016,0.00000187,-0.00000765,0.00005808,-0.00002641,-0.00004111,-0.00
 003656,0.00001052,0.00002063,0.00012626,-0.00006531,0.00002472,-0.0001
 1414,0.00005263,-0.00004368,0.00036532,-0.00111529,0.00020201,-0.00122
 425,0.00150641,-0.00104771,-0.00117033,0.00063722,0.00001876,0.0005270
 4,-0.00029512,0.00007029,-0.53256274,0.04592931,0.03738319,0.54057361,
 0.00024162,0.00025728,-0.00004921,0.00030359,-0.00049503,-0.00040764,0
 .00000137,0.00007546,-0.00026238,0.00499590,-0.00108906,-0.00187017,0.
 00001429,0.00000844,0.00011960,-0.00012265,-0.00005027,-0.00001623,0.0
 0012255,0.00001498,0.00010595,0.00001731,-0.00004644,-0.00002242,0.022
 73383,-0.00301885,-0.00315266,-0.00049543,0.00006095,0.00014706,0.0000
 1426,-0.00001709,-0.00001112,-0.00004615,0.00000574,0.00001526,-0.0004
 4745,-0.00129088,-0.00168375,-0.00106245,0.00122218,-0.00008403,-0.000
 17648,-0.00005457,-0.00002230,0.00009755,0.00002093,0.00001105,-0.0001
 5837,-0.00017389,0.00018104,0.00000632,0.00004801,-0.00005548,-0.00048
 381,0.00005275,-0.00006907,0.00029205,-0.00006458,0.00012880,-0.001854
 48,0.00004814,0.00018527,0.00293207,-0.00023412,0.00074394,-0.00182478
 ,0.00340515,0.00199296,-0.00044027,-0.00266639,0.00049391,0.02025385,-
 0.01632190,-0.01849655,-0.04491425,0.02030307,0.00004580,-0.00026240,-
 0.00001061,-0.00015347,0.00014029,0.00068196,0.00010865,0.00012309,-0.
 00010305,0.00083017,-0.00054891,-0.00013511,0.00001580,-0.00001922,-0.
 00011393,0.00008517,0.00003744,-0.00004786,0.00001187,-0.00002935,0.00
 001721,-0.00000933,-0.00000576,0.00002801,0.04218032,-0.00576636,-0.00
 770810,-0.00003648,0.00007567,-0.00005753,0.00000656,0.00000268,0.0000
 0126,-0.00000256,0.00000179,-0.00000029,0.00094670,-0.00383968,-0.0056
 6601,0.00051972,0.00094623,0.00034278,-0.00002188,0.00001556,-0.000007
 46,0.00001384,-0.00001523,0.00001072,0.00007908,-0.00023289,-0.0000435
 9,-0.00006371,0.00002402,0.00001546,-0.00005435,0.00008630,-0.00019858
 ,-0.00010287,0.00001979,0.00006001,0.00119313,0.00037713,-0.00110407,-
 0.00307006,0.00004690,0.00084182,-0.00079649,0.00122223,-0.00013560,-0
 .00013341,0.00046369,0.00057585,-0.00651370,-0.01494120,-0.03579917,-0
 .03507853,0.02207817,0.04855588\\0.00002302,-0.00000577,0.00001055,0.0
 0000588,0.00000297,0.00000440,-0.00002924,-0.00000116,0.00000180,-0.00
 001094,-0.00000465,-0.00000928,-0.00000056,0.00000039,0.00000383,-0.00
 000779,-0.00000197,0.00000099,0.00001234,-0.00000223,0.00000440,0.0000
 0601,0.00000484,-0.00000270,0.00001125,0.00000757,-0.00000068,-0.00000
 016,0.00000384,0.00000611,-0.00000072,0.00000037,-0.00000371,0.0000028
 9,-0.00000389,0.00000028,-0.00000308,-0.00000113,-0.00000458,0.0000010
 9,-0.00000191,-0.00000072,0.00000355,0.00000726,0.00000896,-0.00000255
 ,-0.00000151,-0.00000313,-0.00000079,0.00000648,0.00000209,0.00000149,
 -0.00000672,0.00000116,-0.00000657,0.00000778,-0.00000235,-0.00000124,
 -0.00000157,-0.00000685,-0.00000450,-0.00001456,-0.00000210,-0.0000012
 6,0.00000471,-0.00000774,0.00000217,-0.00000586,0.00000235,0.00000349,
 0.00000322,-0.00000803,-0.00002128,-0.00000244,0.00001093,0.00001749,0
 .00000593,-0.00000599\\\@
 The archive entry for this job was punched.


 IT IS NOT EASY TO DESCRIBE
     THE SEA WITH THE MOUTH

                   -- KOKYU
 Job cpu time:       0 days 11 hours 23 minutes 56.8 seconds.
 Elapsed time:       0 days  0 hours 42 minutes 52.2 seconds.
 File lengths (MBytes):  RWF=    704 Int=      0 D2E=      0 Chk=     27 Scr=      1
 Normal termination of Gaussian 16 at Wed Oct 11 15:27:45 2023.
