 Entering Gaussian System, Link 0=/opt/software/gaussian/g16.c01/g16
 Initial command:
 /opt/software/gaussian/g16.c01/l1.exe "/scratch/arhender/17270147/Gau-220933.inp" -scrdir="/scratch/arhender/17270147/"
 Entering Link 1 = /opt/software/gaussian/g16.c01/l1.exe PID=    220934.
  
 Copyright (c) 1988-2019, Gaussian, Inc.  All Rights Reserved.
  
 This is part of the Gaussian(R) 16 program.  It is based on
 the Gaussian(R) 09 system (copyright 2009, Gaussian, Inc.),
 the Gaussian(R) 03 system (copyright 2003, Gaussian, Inc.),
 the Gaussian(R) 98 system (copyright 1998, Gaussian, Inc.),
 the Gaussian(R) 94 system (copyright 1995, Gaussian, Inc.),
 the Gaussian 92(TM) system (copyright 1992, Gaussian, Inc.),
 the Gaussian 90(TM) system (copyright 1990, Gaussian, Inc.),
 the Gaussian 88(TM) system (copyright 1988, Gaussian, Inc.),
 the Gaussian 86(TM) system (copyright 1986, Carnegie Mellon
 University), and the Gaussian 82(TM) system (copyright 1983,
 Carnegie Mellon University). Gaussian is a federally registered
 trademark of Gaussian, Inc.
  
 This software contains proprietary and confidential information,
 including trade secrets, belonging to Gaussian, Inc.
  
 This software is provided under written license and may be
 used, copied, transmitted, or stored only in accord with that
 written license.
  
 The following legend is applicable only to US Government
 contracts under FAR:
  
                    RESTRICTED RIGHTS LEGEND
  
 Use, reproduction and disclosure by the US Government is
 subject to restrictions as set forth in subparagraphs (a)
 and (c) of the Commercial Computer Software - Restricted
 Rights clause in FAR 52.227-19.
  
 Gaussian, Inc.
 340 Quinnipiac St., Bldg. 40, Wallingford CT 06492
  
  
 ---------------------------------------------------------------
 Warning -- This program may not be used in any manner that
 competes with the business of Gaussian, Inc. or will provide
 assistance to any competitor of Gaussian, Inc.  The licensee
 of this program is prohibited from giving any competitor of
 Gaussian, Inc. access to this program.  By using this program,
 the user acknowledges that Gaussian, Inc. is engaged in the
 business of creating and licensing software in the field of
 computational chemistry and represents and warrants to the
 licensee that it is not a competitor of Gaussian, Inc. and that
 it will not use this program in any manner prohibited above.
 ---------------------------------------------------------------
  

 Cite this work as:
 Gaussian 16, Revision C.01,
 M. J. Frisch, G. W. Trucks, H. B. Schlegel, G. E. Scuseria, 
 M. A. Robb, J. R. Cheeseman, G. Scalmani, V. Barone, 
 G. A. Petersson, H. Nakatsuji, X. Li, M. Caricato, A. V. Marenich, 
 J. Bloino, B. G. Janesko, R. Gomperts, B. Mennucci, H. P. Hratchian, 
 J. V. Ortiz, A. F. Izmaylov, J. L. Sonnenberg, D. Williams-Young, 
 F. Ding, F. Lipparini, F. Egidi, J. Goings, B. Peng, A. Petrone, 
 T. Henderson, D. Ranasinghe, V. G. Zakrzewski, J. Gao, N. Rega, 
 G. Zheng, W. Liang, M. Hada, M. Ehara, K. Toyota, R. Fukuda, 
 J. Hasegawa, M. Ishida, T. Nakajima, Y. Honda, O. Kitao, H. Nakai, 
 T. Vreven, K. Throssell, J. A. Montgomery, Jr., J. E. Peralta, 
 F. Ogliaro, M. J. Bearpark, J. J. Heyd, E. N. Brothers, K. N. Kudin, 
 V. N. Staroverov, T. A. Keith, R. Kobayashi, J. Normand, 
 K. Raghavachari, A. P. Rendell, J. C. Burant, S. S. Iyengar, 
 J. Tomasi, M. Cossi, J. M. Millam, M. Klene, C. Adamo, R. Cammi, 
 J. W. Ochterski, R. L. Martin, K. Morokuma, O. Farkas, 
 J. B. Foresman, and D. J. Fox, Gaussian, Inc., Wallingford CT, 2019.
 
 ******************************************
 Gaussian 16:  ES64L-G16RevC.01  3-Jul-2019
                26-Feb-2024 
 ******************************************
 %chk=QbiLmL_to_PbiL2_IRCreverse.chk
 %mem=1600MB
 %nprocs=4
 Will use up to    4 processors via shared memory.
 ----------------------------------------------------------------------
 # irc=(reverse,calcfc,maxpoints=100,maxcycle=100) wb97xd/def2tzvpp geo
 m=connectivity
 ----------------------------------------------------------------------
 1/6=100,10=4,18=10,22=2,26=3,38=1,42=100,44=3,57=2,172=1/1,23;
 2/12=2,17=6,18=5,29=1,40=1/2;
 3/5=44,7=202,11=2,25=1,30=1,71=2,74=-58,140=1/1,2,3;
 4//1;
 5/5=2,38=5/2;
 8/6=4,10=90,11=11/1;
 11/6=1,8=1,9=11,15=111,16=1/1,2,10;
 10/6=1,13=1/2;
 6/7=2,8=2,9=2,10=2,28=1/1;
 7/10=1,25=1/1,2,3,16;
 1/6=100,10=4,18=10,22=2,26=3,42=100,44=3/23(2);
 2/29=1/2;
 99/5=20/99;
 2/29=1/2;
 3/5=44,7=202,11=2,25=1,30=1,71=2,74=-58,140=1/1,2,3;
 4/5=5,16=3,69=1/1;
 5/5=2,38=5/2;
 8/6=4,10=90,11=11/1;
 11/6=1,8=1,9=11,15=111,16=1/1,2,10;
 10/6=1,13=1/2;
 7/10=1,25=1/1,2,3,16;
 1/6=100,18=10,22=2,26=3,42=100,44=3/23(-8);
 2/29=1/2;
 6/7=2,8=2,9=2,10=2,19=2,28=1/1;
 99/5=20,9=1/99;
 ----------------------------------------------------------------------
 convert QmonoL to QbiL attacking OH deprotonated TS to QbiLmonoL to Qb
 iL2
 ----------------------------------------------------------------------
 Symbolic Z-matrix:
 Charge = -1 Multiplicity = 1
 Si                    0.23308   0.30083  -0.22238 
 O                     0.9471   -0.13821   1.22954 
 O                    -0.32651   1.80452  -0.32197 
 H                    -1.2077    1.62557   0.20708 
 O                     1.64649   0.17918  -1.12723 
 O                    -0.69205  -0.90232  -0.84565 
 C                    -1.93948  -1.30802  -0.3212 
 H                    -1.76675  -1.93919   0.56019 
 H                    -2.44163  -1.90983  -1.08871 
 C                    -2.78675  -0.10573   0.09592 
 H                    -3.09887   0.41122  -0.84048 
 H                    -3.7248   -0.51559   0.53386 
 O                    -2.09519   0.6954    0.94868 
 C                     2.74886  -0.0461   -0.29427 
 H                     3.47577  -0.69439  -0.79533 
 H                     3.24714   0.90433  -0.05692 
 C                     2.21269  -0.69336   0.99037 
 H                     2.13274  -1.78131   0.85761 
 H                     2.87037  -0.50176   1.84402 
 
 IRC-IRC-IRC-IRC-IRC-IRC-IRC-IRC-IRC-IRC-IRC-IRC-IRC-IRC-IRC-IRC-IRC-IRC
 ------------------------------------------------------------------------
 INPUT DATA FOR L123
 ------------------------------------------------------------------------
 GENERAL PARAMETERS:
 Rxn path following direction = Reverse
 Maximum points per path      = 100
 Step size                    =   0.100 bohr
 Integration scheme           = HPC                                 
    Redo corrector integration= Yes                                 
    DWI Weight Power          =  2
    DWI will use Hessian update vectors when possible.
    Max correction cycles     = 100
 Initial Hessian              = CalcFC
 Hessian evaluation           = All updating
 Hessian updating method      = Bofill                              
 ------------------------------------------------------------------------
 IRC-IRC-IRC-IRC-IRC-IRC-IRC-IRC-IRC-IRC-IRC-IRC-IRC-IRC-IRC-IRC-IRC-IRC
                          Input orientation:                          
 ---------------------------------------------------------------------
 Center     Atomic      Atomic             Coordinates (Angstroms)
 Number     Number       Type             X           Y           Z
 ---------------------------------------------------------------------
      1         14           0        0.233081    0.300832   -0.222377
      2          8           0        0.947098   -0.138205    1.229541
      3          8           0       -0.326511    1.804519   -0.321969
      4          1           0       -1.207700    1.625565    0.207079
      5          8           0        1.646491    0.179183   -1.127233
      6          8           0       -0.692048   -0.902322   -0.845645
      7          6           0       -1.939478   -1.308021   -0.321200
      8          1           0       -1.766750   -1.939186    0.560187
      9          1           0       -2.441626   -1.909825   -1.088705
     10          6           0       -2.786750   -0.105727    0.095920
     11          1           0       -3.098870    0.411221   -0.840476
     12          1           0       -3.724802   -0.515590    0.533856
     13          8           0       -2.095195    0.695398    0.948683
     14          6           0        2.748858   -0.046103   -0.294269
     15          1           0        3.475773   -0.694393   -0.795332
     16          1           0        3.247142    0.904330   -0.056923
     17          6           0        2.212687   -0.693362    0.990372
     18          1           0        2.132739   -1.781313    0.857613
     19          1           0        2.870369   -0.501763    1.844022
 ---------------------------------------------------------------------
                    Distance matrix (angstroms):
                    1          2          3          4          5
     1  Si   0.000000
     2  O    1.676496   0.000000
     3  O    1.607525   2.793464   0.000000
     4  H    2.003796   2.966390   1.043269   0.000000
     5  O    1.682644   2.478764   2.680094   3.466816   0.000000
     6  O    1.640703   2.752648   2.781158   2.786456   2.591854
     7  C    2.705215   3.479309   3.505648   3.069284   3.964926
     8  H    3.103129   3.325137   4.107045   3.625558   4.357188
     9  H    3.576533   4.471728   4.342574   3.962400   4.591093
    10  C    3.063655   3.902278   3.142681   2.345875   4.607700
    11  H    3.390594   4.577848   3.145807   2.479622   4.759677
    12  H    4.111359   4.738465   4.202823   3.320712   5.665043
    13  O    2.635893   3.166910   2.443962   1.484195   4.310002
    14  C    2.540604   2.361529   3.589354   4.324370   1.399927
    15  H    3.440029   3.286891   4.574494   5.321837   2.054158
    16  H    3.078335   2.834091   3.694805   4.520563   2.057544
    17  C    2.525475   1.402539   3.795942   4.205950   2.359272
    18  H    3.018345   2.060068   4.505276   4.815449   2.831889
    19  H    3.445207   2.051520   4.497832   4.882187   3.284802
                    6          7          8          9         10
     6  O    0.000000
     7  C    1.412698   0.000000
     8  H    2.050960   1.097746   0.000000
     9  H    2.033510   1.096989   1.781899   0.000000
    10  C    2.430820   1.528846   2.148841   2.185684   0.000000
    11  H    2.741936   2.137669   3.043158   2.425045   1.114222
    12  H    3.354129   2.132240   2.421009   2.494621   1.113426
    13  O    2.782291   2.377086   2.683251   3.325380   1.359137
    14  C    3.588448   4.855271   4.970370   5.571868   5.549663
    15  H    4.173308   5.470492   5.556167   6.048054   6.352956
    16  H    4.404917   5.644942   5.797027   6.430095   6.119757
    17  C    3.442689   4.397556   4.192023   5.240703   5.112703
    18  H    3.413669   4.265742   3.914001   4.972875   5.252536
    19  H    4.481693   5.335997   5.021682   6.229030   5.934282
                   11         12         13         14         15
    11  H    0.000000
    12  H    1.771880   0.000000
    13  O    2.071041   2.072243   0.000000
    14  C    5.890960   6.543278   5.055651   0.000000
    15  H    6.667110   7.324411   6.000733   1.095331   0.000000
    16  H    6.413188   7.139552   5.440171   1.099065   1.775791
    17  C    5.725797   5.957666   4.526394   1.535163   2.187265
    18  H    5.921186   6.001471   4.900798   2.171955   2.391101
    19  H    6.608471   6.724062   5.185716   2.189676   2.714739
                   16         17         18         19
    16  H    0.000000
    17  C    2.172451   0.000000
    18  H    3.048106   1.098933   0.000000
    19  H    2.394295   1.094520   1.776049   0.000000
 Symmetry turned off by external request.
 Stoichiometry    C4H9O5Si(1-)
 Framework group  C1[X(C4H9O5Si)]
 Deg. of freedom    51
 Full point group                 C1      NOp   1
 Rotational constants (GHZ):           2.3765497           0.8545821           0.8223354
 Standard basis: def2TZVPP (5D, 7F)
   447 basis functions,   681 primitive gaussians,   507 cartesian basis functions
    44 alpha electrons       44 beta electrons
       nuclear repulsion energy       725.0481831074 Hartrees.
 NAtoms=   19 NActive=   19 NUniq=   19 SFac= 1.00D+00 NAtFMM=   60 NAOKFM=F Big=F
 Integral buffers will be    131072 words long.
 Raffenetti 2 integral format.
 Two-electron integral symmetry is turned off.
 Nuclear repulsion after empirical dispersion term =      725.0384561204 Hartrees.
 One-electron integrals computed using PRISM.
   1 Symmetry operations used in ECPInt.
 ECPInt:  NShTT=   14028 NPrTT=   39320 LenC2=   13314 LenP2D=   29151.
 LDataN:  DoStor=T MaxTD1= 6 Len=  172
 NBasis=   447 RedAO= T EigKep=  2.81D-04  NBF=   447
 NBsUse=   447 1.00D-06 EigRej= -1.00D+00 NBFU=   447
 ExpMin= 7.01D-02 ExpMax= 4.48D+04 ExpMxC= 1.53D+03 IAcc=3 IRadAn=         5 AccDes= 0.00D+00
 Harris functional with IExCor= 4639 and IRadAn=       5 diagonalized for initial guess.
 HarFok:  IExCor= 4639 AccDes= 0.00D+00 IRadAn=         5 IDoV= 1 UseB2=F ITyADJ=14
 ICtDFT=  3500011 ScaDFX=  1.000000  1.000000  1.000000  1.000000
 FoFCou: FMM=F IPFlag=           0 FMFlag=      100000 FMFlg1=           0
         NFxFlg=           0 DoJE=T BraDBF=F KetDBF=T FulRan=T
         wScrn=  0.000000 ICntrl=       500 IOpCl=  0 I1Cent=   200000004 NGrid=           0
         NMat0=    1 NMatS0=      1 NMatT0=    0 NMatD0=    1 NMtDS0=    0 NMtDT0=    0
 Symmetry not used in FoFCou.
 Requested convergence on RMS density matrix=1.00D-08 within 128 cycles.
 Requested convergence on MAX density matrix=1.00D-06.
 Requested convergence on             energy=1.00D-06.
 No special actions if energy rises.
 Integral accuracy reduced to 1.0D-05 until final iterations.
 Initial convergence to 1.0D-05 achieved.  Increase integral accuracy.
 SCF Done:  E(RwB97XD) =  -823.723223054     A.U. after   15 cycles
            NFock= 15  Conv=0.46D-08     -V/T= 2.0035
 DoSCS=F DFT=T ScalE2(SS,OS)=  1.000000  1.000000
 Range of M.O.s used for correlation:     1   447
 NBasis=   447 NAE=    44 NBE=    44 NFC=     0 NFV=     0
 NROrb=    447 NOA=    44 NOB=    44 NVA=   403 NVB=   403

 **** Warning!!: The largest alpha MO coefficient is  0.13212756D+02

   1 Symmetry operations used in ECPInt.
 ECPInt:  NShTT=   14028 NPrTT=   39320 LenC2=   13314 LenP2D=   29151.
 LDataN:  DoStor=T MaxTD1= 7 Len=  274
 Symmetrizing basis deriv contribution to polar:
 IMax=3 JMax=2 DiffMx= 0.00D+00
 G2DrvN: will do    20 centers at a time, making    1 passes.
 Calling FoFCou, ICntrl=  3107 FMM=F I1Cent=   0 AccDes= 0.00D+00.
 End of G2Drv F.D. properties file   721 does not exist.
 End of G2Drv F.D. properties file   722 does not exist.
 End of G2Drv F.D. properties file   788 does not exist.
          IDoAtm=1111111111111111111
          Differentiating once with respect to nuclear coordinates.
 CalDSu exits because no D1Ps are significant.
          There are    60 degrees of freedom in the 1st order CPHF.  IDoFFX=6 NUNeed=     0.
     54 vectors produced by pass  0 Test12= 2.96D-14 1.67D-09 XBig12= 8.80D-02 5.43D-02.
 AX will form    54 AO Fock derivatives at one time.
     54 vectors produced by pass  1 Test12= 2.96D-14 1.67D-09 XBig12= 2.73D-02 2.32D-02.
     54 vectors produced by pass  2 Test12= 2.96D-14 1.67D-09 XBig12= 9.48D-04 4.44D-03.
     54 vectors produced by pass  3 Test12= 2.96D-14 1.67D-09 XBig12= 2.45D-05 6.37D-04.
     54 vectors produced by pass  4 Test12= 2.96D-14 1.67D-09 XBig12= 2.70D-07 5.53D-05.
     54 vectors produced by pass  5 Test12= 2.96D-14 1.67D-09 XBig12= 2.70D-09 5.19D-06.
     54 vectors produced by pass  6 Test12= 2.96D-14 1.67D-09 XBig12= 1.98D-11 4.27D-07.
     25 vectors produced by pass  7 Test12= 2.96D-14 1.67D-09 XBig12= 1.36D-13 3.24D-08.
      2 vectors produced by pass  8 Test12= 2.96D-14 1.67D-09 XBig12= 1.06D-15 3.12D-09.
 InvSVY:  IOpt=1 It=  1 EMax= 2.00D-16
 Solved reduced A of dimension   405 with    60 vectors.
 End of Minotr F.D. properties file   721 does not exist.
 End of Minotr F.D. properties file   722 does not exist.
 End of Minotr F.D. properties file   788 does not exist.

 **********************************************************************

            Population analysis using the SCF Density.

 **********************************************************************

 Alpha  occ. eigenvalues --  -66.13832 -19.09314 -19.09112 -19.08560 -19.04555
 Alpha  occ. eigenvalues --  -18.98930 -10.20413 -10.20378 -10.17110 -10.14615
 Alpha  occ. eigenvalues --   -5.25495  -3.60173  -3.59956  -3.59820  -1.00282
 Alpha  occ. eigenvalues --   -0.95686  -0.94116  -0.90477  -0.85765  -0.69497
 Alpha  occ. eigenvalues --   -0.64914  -0.57502  -0.52906  -0.47106  -0.45617
 Alpha  occ. eigenvalues --   -0.43728  -0.40933  -0.39981  -0.39634  -0.37550
 Alpha  occ. eigenvalues --   -0.36572  -0.35640  -0.31588  -0.30145  -0.27046
 Alpha  occ. eigenvalues --   -0.26959  -0.26242  -0.25753  -0.24480  -0.22901
 Alpha  occ. eigenvalues --   -0.21446  -0.20222  -0.13093  -0.12828
 Alpha virt. eigenvalues --    0.23659   0.26119   0.26767   0.27323   0.28108
 Alpha virt. eigenvalues --    0.29770   0.31575   0.32629   0.33199   0.33502
 Alpha virt. eigenvalues --    0.34884   0.35423   0.38050   0.38909   0.39088
 Alpha virt. eigenvalues --    0.40211   0.40668   0.42453   0.42551   0.43751
 Alpha virt. eigenvalues --    0.44653   0.47188   0.49000   0.50366   0.51537
 Alpha virt. eigenvalues --    0.51688   0.52668   0.54522   0.55237   0.57213
 Alpha virt. eigenvalues --    0.57300   0.58597   0.58875   0.59917   0.60617
 Alpha virt. eigenvalues --    0.61145   0.61691   0.62645   0.63117   0.63344
 Alpha virt. eigenvalues --    0.63698   0.64827   0.66407   0.67485   0.68908
 Alpha virt. eigenvalues --    0.70491   0.70824   0.72204   0.72304   0.74703
 Alpha virt. eigenvalues --    0.74920   0.75849   0.77754   0.79606   0.80702
 Alpha virt. eigenvalues --    0.84413   0.85688   0.87198   0.88138   0.89318
 Alpha virt. eigenvalues --    0.91359   0.92755   0.94052   0.94885   0.96149
 Alpha virt. eigenvalues --    0.96743   0.97674   0.99706   0.99990   1.00530
 Alpha virt. eigenvalues --    1.02647   1.03967   1.04864   1.05460   1.06510
 Alpha virt. eigenvalues --    1.07400   1.08085   1.10704   1.12565   1.14641
 Alpha virt. eigenvalues --    1.15527   1.16865   1.19257   1.20075   1.20972
 Alpha virt. eigenvalues --    1.21979   1.22882   1.24364   1.24807   1.26265
 Alpha virt. eigenvalues --    1.27386   1.28502   1.30154   1.31999   1.32236
 Alpha virt. eigenvalues --    1.33699   1.34511   1.34965   1.37886   1.38339
 Alpha virt. eigenvalues --    1.38488   1.41229   1.41580   1.42817   1.44406
 Alpha virt. eigenvalues --    1.45446   1.46851   1.48325   1.49445   1.51738
 Alpha virt. eigenvalues --    1.53420   1.54276   1.55390   1.56728   1.58606
 Alpha virt. eigenvalues --    1.59279   1.61334   1.62436   1.62838   1.64847
 Alpha virt. eigenvalues --    1.67639   1.69539   1.70443   1.71084   1.72088
 Alpha virt. eigenvalues --    1.73801   1.76222   1.76557   1.77579   1.78293
 Alpha virt. eigenvalues --    1.80164   1.81505   1.83535   1.85696   1.89534
 Alpha virt. eigenvalues --    1.90989   1.97724   1.99527   2.00655   2.01740
 Alpha virt. eigenvalues --    2.04626   2.08399   2.11147   2.11836   2.14573
 Alpha virt. eigenvalues --    2.16893   2.17819   2.20944   2.22156   2.23460
 Alpha virt. eigenvalues --    2.25764   2.26742   2.29637   2.30061   2.33298
 Alpha virt. eigenvalues --    2.34723   2.35280   2.37031   2.39290   2.39631
 Alpha virt. eigenvalues --    2.43876   2.45905   2.48764   2.49847   2.50964
 Alpha virt. eigenvalues --    2.53321   2.57182   2.57867   2.60212   2.61985
 Alpha virt. eigenvalues --    2.64297   2.66342   2.67986   2.69453   2.75913
 Alpha virt. eigenvalues --    2.79859   2.81491   2.82685   2.84856   2.86370
 Alpha virt. eigenvalues --    2.87992   2.88693   2.91281   2.95340   2.95929
 Alpha virt. eigenvalues --    2.98167   2.99163   3.01338   3.03463   3.04680
 Alpha virt. eigenvalues --    3.06818   3.08123   3.09674   3.11021   3.14588
 Alpha virt. eigenvalues --    3.16106   3.16859   3.18452   3.18777   3.19038
 Alpha virt. eigenvalues --    3.22840   3.23148   3.23863   3.25905   3.27067
 Alpha virt. eigenvalues --    3.29892   3.30611   3.31794   3.33005   3.33920
 Alpha virt. eigenvalues --    3.34889   3.35343   3.36439   3.37642   3.40027
 Alpha virt. eigenvalues --    3.40545   3.41216   3.44106   3.45736   3.47030
 Alpha virt. eigenvalues --    3.49754   3.50386   3.52455   3.54893   3.56233
 Alpha virt. eigenvalues --    3.59788   3.60224   3.62997   3.64760   3.65477
 Alpha virt. eigenvalues --    3.70550   3.72079   3.74225   3.74944   3.76967
 Alpha virt. eigenvalues --    3.78302   3.82387   3.83998   3.85420   3.85980
 Alpha virt. eigenvalues --    3.86821   3.88122   3.89327   3.90982   3.92417
 Alpha virt. eigenvalues --    3.93534   3.94496   3.95340   3.96832   3.98244
 Alpha virt. eigenvalues --    4.01854   4.02325   4.03827   4.05150   4.06313
 Alpha virt. eigenvalues --    4.07561   4.08573   4.14231   4.15233   4.17491
 Alpha virt. eigenvalues --    4.17896   4.18888   4.20823   4.24267   4.26078
 Alpha virt. eigenvalues --    4.26366   4.29431   4.31855   4.31964   4.33415
 Alpha virt. eigenvalues --    4.36736   4.37447   4.39473   4.40237   4.43819
 Alpha virt. eigenvalues --    4.44700   4.45063   4.47275   4.49979   4.51452
 Alpha virt. eigenvalues --    4.53287   4.55638   4.56690   4.58786   4.62106
 Alpha virt. eigenvalues --    4.69836   4.71783   4.72731   4.76147   4.76305
 Alpha virt. eigenvalues --    4.79856   4.80807   4.87239   4.88167   4.88839
 Alpha virt. eigenvalues --    4.90161   4.94111   4.95667   4.97393   4.98930
 Alpha virt. eigenvalues --    5.00722   5.02405   5.05033   5.05771   5.10330
 Alpha virt. eigenvalues --    5.12010   5.13009   5.15313   5.16157   5.19104
 Alpha virt. eigenvalues --    5.23990   5.24705   5.26818   5.29655   5.32617
 Alpha virt. eigenvalues --    5.33889   5.36695   5.39112   5.42192   5.45876
 Alpha virt. eigenvalues --    5.47730   5.48783   5.50427   5.53893   5.55218
 Alpha virt. eigenvalues --    5.57486   5.58797   5.61706   5.64328   5.66402
 Alpha virt. eigenvalues --    5.67854   5.68673   5.71106   5.72915   5.73275
 Alpha virt. eigenvalues --    5.73534   5.77254   5.78903   5.81119   5.81971
 Alpha virt. eigenvalues --    5.84169   5.85003   5.85581   5.88139   5.91892
 Alpha virt. eigenvalues --    5.95701   5.98628   6.00825   6.06269   6.10626
 Alpha virt. eigenvalues --    6.15447   6.21234   6.23378   6.26956   6.27541
 Alpha virt. eigenvalues --    6.33046   6.35188   6.37161   6.39689   6.42946
 Alpha virt. eigenvalues --    6.48681   6.50835   6.64008   6.81667   6.83599
 Alpha virt. eigenvalues --    6.87141   6.88987   6.91600   6.93078   6.94711
 Alpha virt. eigenvalues --    6.97625   6.99993   7.01654   7.01958   7.11649
 Alpha virt. eigenvalues --    7.14409   7.15342   7.19819   7.24132   7.25847
 Alpha virt. eigenvalues --    7.26868   7.28008   7.33716   7.37959   7.39344
 Alpha virt. eigenvalues --    7.42648   7.46378   7.53891   7.65773   7.73906
 Alpha virt. eigenvalues --    7.76151   7.90815   8.04167  12.61075  23.47340
 Alpha virt. eigenvalues --   23.56223  23.60079  23.70795  44.12006  44.29811
 Alpha virt. eigenvalues --   44.31210  44.41554  44.46330
          Condensed to atoms (all electrons):
               1          2          3          4          5          6
     1  Si  11.588760   0.385044   0.504642  -0.063797   0.434353   0.439932
     2  O    0.385044   7.920075  -0.022573   0.001798  -0.022437  -0.020431
     3  O    0.504642  -0.022573   7.924057   0.279901  -0.022229  -0.026632
     4  H   -0.063797   0.001798   0.279901   0.404757   0.001106  -0.001060
     5  O    0.434353  -0.022437  -0.022229   0.001106   7.942596  -0.029124
     6  O    0.439932  -0.020431  -0.026632  -0.001060  -0.029124   7.904233
     7  C   -0.122969   0.003160  -0.008562   0.026406  -0.000927   0.302725
     8  H    0.010591   0.003085  -0.000035  -0.002787  -0.000029  -0.055444
     9  H    0.008295  -0.000064  -0.000307  -0.001660  -0.000114  -0.042710
    10  C   -0.009064  -0.002058   0.017429  -0.011071  -0.000221  -0.071164
    11  H    0.033909  -0.000216   0.005583  -0.026534  -0.000022   0.001224
    12  H   -0.000239   0.000151  -0.001707   0.003942   0.000013   0.006309
    13  O    0.102019  -0.004451  -0.113639   0.136122  -0.000067  -0.008746
    14  C   -0.043186  -0.073877  -0.000708  -0.001631   0.315401  -0.003312
    15  H   -0.001385   0.004339  -0.000217  -0.000005  -0.042804   0.000311
    16  H    0.003934   0.007103   0.000512   0.000034  -0.052020  -0.000440
    17  C   -0.055008   0.317844  -0.002437   0.000592  -0.078385   0.003081
    18  H    0.000738  -0.051111  -0.000288  -0.000075   0.006920   0.001595
    19  H    0.003217  -0.042238  -0.000066   0.000060   0.005668  -0.000179
               7          8          9         10         11         12
     1  Si  -0.122969   0.010591   0.008295  -0.009064   0.033909  -0.000239
     2  O    0.003160   0.003085  -0.000064  -0.002058  -0.000216   0.000151
     3  O   -0.008562  -0.000035  -0.000307   0.017429   0.005583  -0.001707
     4  H    0.026406  -0.002787  -0.001660  -0.011071  -0.026534   0.003942
     5  O   -0.000927  -0.000029  -0.000114  -0.000221  -0.000022   0.000013
     6  O    0.302725  -0.055444  -0.042710  -0.071164   0.001224   0.006309
     7  C    5.082232   0.386217   0.318207   0.231583  -0.138986  -0.033343
     8  H    0.386217   0.711592  -0.053694  -0.045167   0.020583  -0.016329
     9  H    0.318207  -0.053694   0.742391  -0.008393   0.000664   0.011532
    10  C    0.231583  -0.045167  -0.008393   4.691979   0.423852   0.315558
    11  H   -0.138986   0.020583   0.000664   0.423852   0.870497  -0.094324
    12  H   -0.033343  -0.016329   0.011532   0.315558  -0.094324   0.870561
    13  O   -0.144342   0.010881   0.011027   0.388253  -0.080114  -0.039239
    14  C   -0.001642   0.000987   0.000085  -0.000190   0.000204  -0.000015
    15  H    0.000149  -0.000005  -0.000002  -0.000003   0.000000   0.000000
    16  H   -0.000153  -0.000005  -0.000003   0.000013  -0.000000   0.000000
    17  C    0.002513  -0.000928   0.000078  -0.000453  -0.000185   0.000084
    18  H   -0.000340  -0.000474  -0.000011   0.000234   0.000011  -0.000001
    19  H   -0.000003   0.000019  -0.000003  -0.000020  -0.000001  -0.000000
              13         14         15         16         17         18
     1  Si   0.102019  -0.043186  -0.001385   0.003934  -0.055008   0.000738
     2  O   -0.004451  -0.073877   0.004339   0.007103   0.317844  -0.051111
     3  O   -0.113639  -0.000708  -0.000217   0.000512  -0.002437  -0.000288
     4  H    0.136122  -0.001631  -0.000005   0.000034   0.000592  -0.000075
     5  O   -0.000067   0.315401  -0.042804  -0.052020  -0.078385   0.006920
     6  O   -0.008746  -0.003312   0.000311  -0.000440   0.003081   0.001595
     7  C   -0.144342  -0.001642   0.000149  -0.000153   0.002513  -0.000340
     8  H    0.010881   0.000987  -0.000005  -0.000005  -0.000928  -0.000474
     9  H    0.011027   0.000085  -0.000002  -0.000003   0.000078  -0.000011
    10  C    0.388253  -0.000190  -0.000003   0.000013  -0.000453   0.000234
    11  H   -0.080114   0.000204   0.000000  -0.000000  -0.000185   0.000011
    12  H   -0.039239  -0.000015   0.000000   0.000000   0.000084  -0.000001
    13  O    8.423515   0.000099  -0.000001   0.000029  -0.000232   0.000111
    14  C    0.000099   4.737348   0.371811   0.415769   0.283311  -0.057467
    15  H   -0.000001   0.371811   0.735688  -0.075739  -0.010024  -0.016682
    16  H    0.000029   0.415769  -0.075739   0.728900  -0.058683   0.015846
    17  C   -0.000232   0.283311  -0.010024  -0.058683   4.744306   0.415087
    18  H    0.000111  -0.057467  -0.016682   0.015846   0.415087   0.723797
    19  H   -0.000026  -0.013624   0.009418  -0.017285   0.375414  -0.070639
              19
     1  Si   0.003217
     2  O   -0.042238
     3  O   -0.000066
     4  H    0.000060
     5  O    0.005668
     6  O   -0.000179
     7  C   -0.000003
     8  H    0.000019
     9  H   -0.000003
    10  C   -0.000020
    11  H   -0.000001
    12  H   -0.000000
    13  O   -0.000026
    14  C   -0.013624
    15  H    0.009418
    16  H   -0.017285
    17  C    0.375414
    18  H   -0.070639
    19  H    0.717759
 Mulliken charges:
               1
     1  Si   0.780212
     2  O   -0.403143
     3  O   -0.532725
     4  H    0.253903
     5  O   -0.457676
     6  O   -0.400169
     7  C    0.098076
     8  H    0.030943
     9  H    0.014683
    10  C    0.078905
    11  H   -0.016144
    12  H   -0.022951
    13  O   -0.681198
    14  C    0.070637
    15  H    0.025153
    16  H    0.032189
    17  C    0.064025
    18  H    0.032750
    19  H    0.032530
 Sum of Mulliken charges =  -1.00000
 Mulliken charges with hydrogens summed into heavy atoms:
               1
     1  Si   0.780212
     2  O   -0.403143
     3  O   -0.278822
     5  O   -0.457676
     6  O   -0.400169
     7  C    0.143703
    10  C    0.039810
    13  O   -0.681198
    14  C    0.127979
    17  C    0.129305
 APT charges:
               1
     1  Si   0.408480
     2  O   -0.401614
     3  O   -0.491848
     4  H    0.300195
     5  O   -0.376777
     6  O   -0.363756
     7  C   -0.465876
     8  H    0.253408
     9  H    0.419742
    10  C   -0.763250
    11  H    0.245683
    12  H    0.432107
    13  O   -0.559076
    14  C   -0.708038
    15  H    0.485302
    16  H    0.413023
    17  C   -0.605382
    18  H    0.299117
    19  H    0.478559
 Sum of APT charges =  -1.00000
 APT charges with hydrogens summed into heavy atoms:
               1
     1  Si   0.408480
     2  O   -0.401614
     3  O   -0.191654
     5  O   -0.376777
     6  O   -0.363756
     7  C    0.207275
    10  C   -0.085460
    13  O   -0.559076
    14  C    0.190286
    17  C    0.172295
 Electronic spatial extent (au):  <R**2>=           1604.2179
 Charge=             -1.0000 electrons
 Dipole moment (field-independent basis, Debye):
    X=              4.2528    Y=             -3.3718    Z=             -0.5435  Tot=              5.4544
 Quadrupole moment (field-independent basis, Debye-Ang):
   XX=            -79.7984   YY=            -76.2822   ZZ=            -78.5808
   XY=              2.4978   XZ=              6.9811   YZ=             -1.3450
 Traceless Quadrupole moment (field-independent basis, Debye-Ang):
   XX=             -1.5780   YY=              1.9383   ZZ=             -0.3603
   XY=              2.4978   XZ=              6.9811   YZ=             -1.3450
 Octapole moment (field-independent basis, Debye-Ang**2):
  XXX=             42.9713  YYY=             -7.2184  ZZZ=             -4.1875  XYY=              6.4142
  XXY=             -6.6983  XXZ=             -6.7937  XZZ=              5.1094  YZZ=             -0.4762
  YYZ=              3.7305  XYZ=              5.5634
 Hexadecapole moment (field-independent basis, Debye-Ang**3):
 XXXX=          -1574.8734 YYYY=           -415.4463 ZZZZ=           -321.1076 XXXY=              7.1782
 XXXZ=             28.7417 YYYX=             -5.4838 YYYZ=              6.3311 ZZZX=             10.4135
 ZZZY=             -1.4956 XXYY=           -315.4366 XXZZ=           -320.7831 YYZZ=           -119.5341
 XXYZ=             -6.4501 YYXZ=             -0.1685 ZZXY=              3.6036
 N-N= 7.250384561204D+02 E-N=-3.411870707144D+03  KE= 8.208157462213D+02
  Exact polarizability:       0.000       0.000       0.000       0.000       0.000       0.000
 Approx polarizability:      99.792       2.301      91.185       1.055       0.273      89.106
   1 Symmetry operations used in ECPInt.
 ECPInt:  NShTT=   14028 NPrTT=   39320 LenC2=   13314 LenP2D=   29151.
 LDataN:  DoStor=T MaxTD1= 8 Len=  415
 Calling FoFJK, ICntrl=    100127 FMM=F ISym2X=0 I1Cent= 0 IOpClX= 0 NMat=1 NMatS=1 NMatT=0.
 -------------------------------------------------------------------
 Center     Atomic                   Forces (Hartrees/Bohr)
 Number     Number              X              Y              Z
 -------------------------------------------------------------------
      1       14           0.000000610    0.000000874    0.000000256
      2        8           0.000000402   -0.000000993   -0.000000159
      3        8           0.000000420    0.000000039    0.000001218
      4        1           0.000001532    0.000000694   -0.000000006
      5        8           0.000000781   -0.000000319    0.000000394
      6        8          -0.000001348   -0.000000633   -0.000000256
      7        6          -0.000000209    0.000001370    0.000000151
      8        1          -0.000000593    0.000000596   -0.000000526
      9        1          -0.000000914    0.000001117   -0.000000654
     10        6          -0.000000155    0.000001410   -0.000000232
     11        1           0.000000332    0.000001367    0.000000565
     12        1          -0.000000097    0.000001154    0.000000073
     13        8           0.000000449    0.000000664    0.000000821
     14        6           0.000000295   -0.000000769   -0.000000238
     15        1          -0.000000261   -0.000001111   -0.000000292
     16        1           0.000000047   -0.000001625    0.000000071
     17        6          -0.000000507   -0.000001046   -0.000000110
     18        1          -0.000000723   -0.000000931   -0.000000735
     19        1          -0.000000061   -0.000001859   -0.000000343
 -------------------------------------------------------------------
 Cartesian Forces:  Max     0.000001859 RMS     0.000000774
 IRC-IRC-IRC-IRC-IRC-IRC-IRC-IRC-IRC-IRC-IRC-IRC-IRC-IRC-IRC-IRC-IRC-IRC
          ******** Start new reaction path calculation ********
 Supplied step size of   0.1000 bohr.
    Integration on MW PES will use step size of   0.2355 sqrt(amu)*bohr.
 Point Number:   0          Path Number:   1
 Calculating another point on the path.
 IRC-IRC-IRC-IRC-IRC-IRC-IRC-IRC-IRC-IRC-IRC-IRC-IRC-IRC-IRC-IRC-IRC-IRC
                          Input orientation:                          
 ---------------------------------------------------------------------
 Center     Atomic      Atomic             Coordinates (Angstroms)
 Number     Number       Type             X           Y           Z
 ---------------------------------------------------------------------
      1         14           0        0.223278    0.274073   -0.210893
      2          8           0        0.940833   -0.163624    1.239246
      3          8           0       -0.319196    1.787022   -0.323549
      4          1           0       -1.193832    1.630762    0.198016
      5          8           0        1.637987    0.152921   -1.117215
      6          8           0       -0.697143   -0.928676   -0.841348
      7          6           0       -1.944145   -1.337452   -0.318369
      8          1           0       -1.770807   -1.973554    0.559356
      9          1           0       -2.447368   -1.934390   -1.088914
     10          6           0       -2.786275   -0.134722    0.107070
     11          1           0       -3.103789    0.385207   -0.826433
     12          1           0       -3.723031   -0.542692    0.550493
     13          8           0       -2.082683    0.659772    0.955096
     14          6           0        2.741477   -0.071237   -0.286260
     15          1           0        3.468186   -0.719721   -0.787574
     16          1           0        3.240157    0.879364   -0.049862
     17          6           0        2.206984   -0.717937    0.999168
     18          1           0        2.127343   -1.805961    0.867177
     19          1           0        2.864814   -0.525458    1.852484
 ---------------------------------------------------------------------
                    Distance matrix (angstroms):
                    1          2          3          4          5
     1  Si   0.000000
     2  O    1.676117   0.000000
     3  O    1.611206   2.799111   0.000000
     4  H    2.004000   2.976706   1.030261   0.000000
     5  O    1.684488   2.477728   2.670348   3.454425   0.000000
     6  O    1.640504   2.756291   2.790336   2.806724   2.588201
     7  C    2.703014   3.482404   3.521765   3.104822   3.961192
     8  H    3.101851   3.330329   4.126575   3.668046   4.353465
     9  H    3.574994   4.476143   4.354746   3.992224   4.587788
    10  C    3.053788   3.895381   3.156740   2.379302   4.599533
    11  H    3.385353   4.574627   3.157837   2.499767   4.756359
    12  H    4.101240   4.729662   4.216350   3.353355   5.657353
    13  O    2.612614   3.146486   2.452655   1.518568   4.288911
    14  C    2.542881   2.361783   3.580814   4.314856   1.399437
    15  H    3.442327   3.287059   4.565451   5.313245   2.054214
    16  H    3.081212   2.834874   3.683441   4.504032   2.057647
    17  C    2.526543   1.402868   3.795521   4.209962   2.358226
    18  H    3.018980   2.059979   4.506984   4.825873   2.830989
    19  H    3.445938   2.051508   4.496732   4.884584   3.283963
                    6          7          8          9         10
     6  O    0.000000
     7  C    1.412664   0.000000
     8  H    2.050974   1.097758   0.000000
     9  H    2.033725   1.096954   1.782151   0.000000
    10  C    2.427824   1.528640   2.148730   2.187245   0.000000
    11  H    2.741981   2.137863   3.043190   2.424937   1.114706
    12  H    3.352940   2.133308   2.420460   2.500360   1.113812
    13  O    2.769494   2.372722   2.681097   3.322747   1.358458
    14  C    3.587120   4.853801   4.969364   5.571329   5.542091
    15  H    4.170914   5.467639   5.552780   6.046488   6.345147
    16  H    4.404292   5.644764   5.798279   6.429991   6.113172
    17  C    3.444686   4.399043   4.194381   5.244315   5.105743
    18  H    3.415612   4.266384   3.913874   4.977024   5.245421
    19  H    4.484066   5.338354   5.025748   6.233474   5.927390
                   11         12         13         14         15
    11  H    0.000000
    12  H    1.772112   0.000000
    13  O    2.071687   2.073732   0.000000
    14  C    5.887891   6.535464   5.034665   0.000000
    15  H    6.664326   7.316787   5.979302   1.095424   0.000000
    16  H    6.410375   7.132227   5.421327   1.099185   1.775750
    17  C    5.723116   5.949547   4.505693   1.535000   2.187025
    18  H    5.918976   5.993581   4.879743   2.171830   2.390812
    19  H    6.605311   6.715295   5.166024   2.189921   2.715088
                   16         17         18         19
    16  H    0.000000
    17  C    2.172390   0.000000
    18  H    3.047997   1.098891   0.000000
    19  H    2.394436   1.094503   1.776058   0.000000
 Symmetry turned off by external request.
 Stoichiometry    C4H9O5Si(1-)
 Framework group  C1[X(C4H9O5Si)]
 Deg. of freedom    51
 Full point group                 C1      NOp   1
 Rotational constants (GHZ):           2.3688539           0.8576246           0.8248016
 Standard basis: def2TZVPP (5D, 7F)
   447 basis functions,   681 primitive gaussians,   507 cartesian basis functions
    44 alpha electrons       44 beta electrons
       nuclear repulsion energy       725.3024225532 Hartrees.
 NAtoms=   19 NActive=   19 NUniq=   19 SFac= 1.00D+00 NAtFMM=   60 NAOKFM=F Big=F
 Integral buffers will be    131072 words long.
 Raffenetti 2 integral format.
 Two-electron integral symmetry is turned off.
 Nuclear repulsion after empirical dispersion term =      725.2927023981 Hartrees.
 One-electron integrals computed using PRISM.
   1 Symmetry operations used in ECPInt.
 ECPInt:  NShTT=   14028 NPrTT=   39320 LenC2=   13315 LenP2D=   29161.
 LDataN:  DoStor=T MaxTD1= 6 Len=  172
 NBasis=   447 RedAO= T EigKep=  2.82D-04  NBF=   447
 NBsUse=   447 1.00D-06 EigRej= -1.00D+00 NBFU=   447
 Initial guess from the checkpoint file:  "QbiLmL_to_PbiL2_IRCreverse.chk"
 B after Tr=    -0.005773   -0.049485    0.013678
         Rot=    1.000000    0.000018   -0.000001    0.000031 Ang=   0.00 deg.
 ExpMin= 7.01D-02 ExpMax= 4.48D+04 ExpMxC= 1.53D+03 IAcc=3 IRadAn=         5 AccDes= 0.00D+00
 Harris functional with IExCor= 4639 and IRadAn=       5 diagonalized for initial guess.
 HarFok:  IExCor= 4639 AccDes= 0.00D+00 IRadAn=         5 IDoV= 1 UseB2=F ITyADJ=14
 ICtDFT=  3500011 ScaDFX=  1.000000  1.000000  1.000000  1.000000
 FoFCou: FMM=F IPFlag=           0 FMFlag=      100000 FMFlg1=           0
         NFxFlg=           0 DoJE=T BraDBF=F KetDBF=T FulRan=T
         wScrn=  0.000000 ICntrl=       500 IOpCl=  0 I1Cent=   200000004 NGrid=           0
         NMat0=    1 NMatS0=      1 NMatT0=    0 NMatD0=    1 NMtDS0=    0 NMtDT0=    0
 Symmetry not used in FoFCou.
 Requested convergence on RMS density matrix=1.00D-08 within 128 cycles.
 Requested convergence on MAX density matrix=1.00D-06.
 Requested convergence on             energy=1.00D-06.
 No special actions if energy rises.
 Integral accuracy reduced to 1.0D-05 until final iterations.
 Initial convergence to 1.0D-05 achieved.  Increase integral accuracy.
 SCF Done:  E(RwB97XD) =  -823.723261506     A.U. after   11 cycles
            NFock= 11  Conv=0.74D-08     -V/T= 2.0035
 DoSCS=F DFT=T ScalE2(SS,OS)=  1.000000  1.000000
 Range of M.O.s used for correlation:     1   447
 NBasis=   447 NAE=    44 NBE=    44 NFC=     0 NFV=     0
 NROrb=    447 NOA=    44 NOB=    44 NVA=   403 NVB=   403

 **** Warning!!: The largest alpha MO coefficient is  0.13253002D+02

 Symmetrizing basis deriv contribution to polar:
 IMax=3 JMax=2 DiffMx= 0.00D+00
   1 Symmetry operations used in ECPInt.
 ECPInt:  NShTT=   14028 NPrTT=   39320 LenC2=   13315 LenP2D=   29161.
 LDataN:  DoStor=T MaxTD1= 7 Len=  274
 Calling FoFJK, ICntrl=      2127 FMM=F ISym2X=0 I1Cent= 0 IOpClX= 0 NMat=1 NMatS=1 NMatT=0.
 -------------------------------------------------------------------
 Center     Atomic                   Forces (Hartrees/Bohr)
 Number     Number              X              Y              Z
 -------------------------------------------------------------------
      1       14          -0.000662550    0.000146193    0.000364959
      2        8          -0.000119945    0.000029370    0.000110912
      3        8           0.000844460    0.000287645   -0.000580291
      4        1          -0.000338246    0.000079658    0.000183615
      5        8          -0.000221381   -0.000011682    0.000116139
      6        8          -0.000112087   -0.000044625   -0.000146106
      7        6          -0.000033689   -0.000087482   -0.000150772
      8        1          -0.000007012   -0.000016099   -0.000031229
      9        1          -0.000007721    0.000014066   -0.000011229
     10        6           0.000116194   -0.000117544    0.000107140
     11        1           0.000007785    0.000004828    0.000044062
     12        1           0.000049414    0.000021422    0.000031149
     13        8           0.000758108   -0.000417323   -0.000121830
     14        6          -0.000147959    0.000038653    0.000020427
     15        1          -0.000011318    0.000000950    0.000000893
     16        1          -0.000010912    0.000002797   -0.000000248
     17        6          -0.000091723    0.000061452    0.000053714
     18        1          -0.000006305    0.000002561    0.000005497
     19        1          -0.000005114    0.000005160    0.000003198
 -------------------------------------------------------------------
 Cartesian Forces:  Max     0.000844460 RMS     0.000225076
 IRC-IRC-IRC-IRC-IRC-IRC-IRC-IRC-IRC-IRC-IRC-IRC-IRC-IRC-IRC-IRC-IRC-IRC
 Pt  1 Step number   1 out of a maximum of 100
 Modified Bulirsch-Stoer Extrapolation Cycles:
    EPS =    0.000010000000000
      PEZero:  N= 2 I= 1 D=  6.13D-04 Err=  3.81D-02
      PEZero:  N= 3 I= 2 D=  6.13D-04 Err=  3.44D-02
      PEZero:  N= 3 I= 1 D=  1.23D-03 Err=  1.36D-02
      PEZero:  N= 4 I= 3 D=  3.07D-04 Err=  2.64D-03
      PEZero:  N= 4 I= 2 D=  9.20D-04 Err=  3.09D-02
      PEZero:  N= 5 I= 4 D=  3.07D-04 Err=  3.74D-04
      PEZero:  N= 5 I= 3 D=  6.13D-04 Err=  2.08D-03
      PEZero:  N= 6 I= 5 D=  1.53D-04 Err=  2.69D-04
      PEZero:  N= 6 I= 4 D=  4.60D-04 Err=  1.45D-05
      PEZero:  N= 6 I= 3 D=  7.67D-04 Err=  8.16D-03
      PEZero:  N= 7 I= 6 D=  1.53D-04 Err=  1.77D-04
      PEZero:  N= 7 I= 5 D=  3.07D-04 Err=  3.42D-06
      PEZero:  N= 7 I= 4 D=  6.13D-04 Err=  3.84D-06
 Maximum DWI energy   std dev =  0.000000288 at pt     4
 Maximum DWI gradient std dev =  0.598379501 at pt     8
 CORRECTOR INTEGRATION CONVERGENCE:
   Recorrection delta-x convergence threshold:    0.010000
   Delta-x Convergence NOT Met
 IRC-IRC-IRC-IRC-IRC-IRC-IRC-IRC-IRC-IRC-IRC-IRC-IRC-IRC-IRC-IRC-IRC-IRC
                          Input orientation:                          
 ---------------------------------------------------------------------
 Center     Atomic      Atomic             Coordinates (Angstroms)
 Number     Number       Type             X           Y           Z
 ---------------------------------------------------------------------
      1         14           0        0.223153    0.274372   -0.210894
      2          8           0        0.940733   -0.163687    1.239272
      3          8           0       -0.319650    1.786711   -0.323316
      4          1           0       -1.195602    1.628524    0.199522
      5          8           0        1.637928    0.152711   -1.117210
      6          8           0       -0.697126   -0.928821   -0.841374
      7          6           0       -1.944059   -1.337409   -0.318474
      8          1           0       -1.770944   -1.973713    0.559144
      9          1           0       -2.447584   -1.934114   -1.088993
     10          6           0       -2.785971   -0.134622    0.107025
     11          1           0       -3.103729    0.385433   -0.826151
     12          1           0       -3.722351   -0.542049    0.551329
     13          8           0       -2.081854    0.660105    0.954697
     14          6           0        2.741362   -0.071300   -0.286218
     15          1           0        3.468162   -0.719767   -0.787443
     16          1           0        3.239982    0.879342   -0.049817
     17          6           0        2.206863   -0.717969    0.999221
     18          1           0        2.127257   -1.806008    0.867231
     19          1           0        2.864714   -0.525491    1.852533
 ---------------------------------------------------------------------
                    Distance matrix (angstroms):
                    1          2          3          4          5
     1  Si   0.000000
     2  O    1.676245   0.000000
     3  O    1.610728   2.798982   0.000000
     4  H    2.003755   2.976076   1.032315   0.000000
     5  O    1.684576   2.477740   2.670643   3.455531   0.000000
     6  O    1.640760   2.756284   2.790159   2.805701   2.588102
     7  C    2.703003   3.482273   3.521201   3.102462   3.960943
     8  H    3.102140   3.330460   4.126231   3.665578   4.353419
     9  H    3.575095   4.476150   4.354182   3.990002   4.587705
    10  C    3.053388   3.895016   3.155860   2.376239   4.599151
    11  H    3.385118   4.574405   3.157138   2.497645   4.756279
    12  H    4.100552   4.728718   4.215032   3.349570   5.656792
    13  O    2.611599   3.145734   2.451106   1.514453   4.288009
    14  C    2.542938   2.361762   3.580974   4.315672   1.399391
    15  H    3.442500   3.287050   4.565673   5.314063   2.054196
    16  H    3.081102   2.834821   3.683627   4.505314   2.057644
    17  C    2.526702   1.402832   3.795497   4.209788   2.358188
    18  H    3.019263   2.059970   4.506927   4.825271   2.830906
    19  H    3.446064   2.051511   4.496752   4.884506   3.283951
                    6          7          8          9         10
     6  O    0.000000
     7  C    1.412519   0.000000
     8  H    2.050935   1.097755   0.000000
     9  H    2.033723   1.096947   1.782067   0.000000
    10  C    2.427650   1.528582   2.148709   2.187038   0.000000
    11  H    2.742122   2.137932   3.043177   2.424852   1.114560
    12  H    3.352790   2.133419   2.420271   2.500706   1.113647
    13  O    2.769120   2.372765   2.681441   3.322709   1.358647
    14  C    3.587023   4.853580   4.969378   5.571326   5.541665
    15  H    4.170880   5.467499   5.552829   6.046620   6.344812
    16  H    4.404184   5.644506   5.798288   6.429917   6.112678
    17  C    3.444619   4.398884   4.194462   5.244379   5.105359
    18  H    3.415542   4.266274   3.913951   4.977187   5.245117
    19  H    4.484029   5.338238   5.025887   6.233563   5.927042
                   11         12         13         14         15
    11  H    0.000000
    12  H    1.772108   0.000000
    13  O    2.071496   2.073430   0.000000
    14  C    5.887718   6.534728   5.033709   0.000000
    15  H    6.664287   7.316240   5.978442   1.095434   0.000000
    16  H    6.410095   7.131326   5.420245   1.099195   1.775756
    17  C    5.722925   5.948708   4.504904   1.535000   2.187018
    18  H    5.918883   5.992937   4.879137   2.171815   2.390793
    19  H    6.605108   6.714375   5.165296   2.189923   2.715026
                   16         17         18         19
    16  H    0.000000
    17  C    2.172377   0.000000
    18  H    3.047990   1.098903   0.000000
    19  H    2.394435   1.094513   1.776060   0.000000
 Symmetry turned off by external request.
 Stoichiometry    C4H9O5Si(1-)
 Framework group  C1[X(C4H9O5Si)]
 Deg. of freedom    51
 Full point group                 C1      NOp   1
 Rotational constants (GHZ):           2.3690907           0.8577852           0.8249498
 Standard basis: def2TZVPP (5D, 7F)
   447 basis functions,   681 primitive gaussians,   507 cartesian basis functions
    44 alpha electrons       44 beta electrons
       nuclear repulsion energy       725.3432739394 Hartrees.
 NAtoms=   19 NActive=   19 NUniq=   19 SFac= 1.00D+00 NAtFMM=   60 NAOKFM=F Big=F
 Integral buffers will be    131072 words long.
 Raffenetti 2 integral format.
 Two-electron integral symmetry is turned off.
 Nuclear repulsion after empirical dispersion term =      725.3335536023 Hartrees.
 One-electron integrals computed using PRISM.
   1 Symmetry operations used in ECPInt.
 ECPInt:  NShTT=   14028 NPrTT=   39320 LenC2=   13315 LenP2D=   29161.
 LDataN:  DoStor=T MaxTD1= 6 Len=  172
 NBasis=   447 RedAO= T EigKep=  2.82D-04  NBF=   447
 NBsUse=   447 1.00D-06 EigRej= -1.00D+00 NBFU=   447
 Initial guess from the checkpoint file:  "QbiLmL_to_PbiL2_IRCreverse.chk"
 B after Tr=    -0.000015   -0.000001    0.000022
         Rot=    1.000000   -0.000003   -0.000002    0.000008 Ang=  -0.00 deg.
 ExpMin= 7.01D-02 ExpMax= 4.48D+04 ExpMxC= 1.53D+03 IAcc=3 IRadAn=         5 AccDes= 0.00D+00
 Harris functional with IExCor= 4639 and IRadAn=       5 diagonalized for initial guess.
 HarFok:  IExCor= 4639 AccDes= 0.00D+00 IRadAn=         5 IDoV= 1 UseB2=F ITyADJ=14
 ICtDFT=  3500011 ScaDFX=  1.000000  1.000000  1.000000  1.000000
 FoFCou: FMM=F IPFlag=           0 FMFlag=      100000 FMFlg1=           0
         NFxFlg=           0 DoJE=T BraDBF=F KetDBF=T FulRan=T
         wScrn=  0.000000 ICntrl=       500 IOpCl=  0 I1Cent=   200000004 NGrid=           0
         NMat0=    1 NMatS0=      1 NMatT0=    0 NMatD0=    1 NMtDS0=    0 NMtDT0=    0
 Symmetry not used in FoFCou.
 Requested convergence on RMS density matrix=1.00D-08 within 128 cycles.
 Requested convergence on MAX density matrix=1.00D-06.
 Requested convergence on             energy=1.00D-06.
 No special actions if energy rises.
 Integral accuracy reduced to 1.0D-05 until final iterations.
 Initial convergence to 1.0D-05 achieved.  Increase integral accuracy.
 SCF Done:  E(RwB97XD) =  -823.723262244     A.U. after    9 cycles
            NFock=  9  Conv=0.86D-08     -V/T= 2.0035
 DoSCS=F DFT=T ScalE2(SS,OS)=  1.000000  1.000000
 Range of M.O.s used for correlation:     1   447
 NBasis=   447 NAE=    44 NBE=    44 NFC=     0 NFV=     0
 NROrb=    447 NOA=    44 NOB=    44 NVA=   403 NVB=   403

 **** Warning!!: The largest alpha MO coefficient is  0.13264258D+02

 Symmetrizing basis deriv contribution to polar:
 IMax=3 JMax=2 DiffMx= 0.00D+00
   1 Symmetry operations used in ECPInt.
 ECPInt:  NShTT=   14028 NPrTT=   39320 LenC2=   13315 LenP2D=   29161.
 LDataN:  DoStor=T MaxTD1= 7 Len=  274
 Calling FoFJK, ICntrl=      2127 FMM=F ISym2X=0 I1Cent= 0 IOpClX= 0 NMat=1 NMatS=1 NMatT=0.
 -------------------------------------------------------------------
 Center     Atomic                   Forces (Hartrees/Bohr)
 Number     Number              X              Y              Z
 -------------------------------------------------------------------
      1       14          -0.000510204   -0.000011391    0.000307950
      2        8          -0.000142515    0.000037266    0.000099396
      3        8           0.000296729    0.000353640   -0.000300456
      4        1           0.000135697    0.000075363   -0.000091275
      5        8          -0.000231456   -0.000008541    0.000111914
      6        8          -0.000076861   -0.000005934   -0.000127701
      7        6          -0.000047459   -0.000091963   -0.000144821
      8        1          -0.000003065   -0.000018390   -0.000020938
      9        1          -0.000006375    0.000006451   -0.000017186
     10        6           0.000129731   -0.000066895    0.000128424
     11        1          -0.000003348    0.000001454    0.000017451
     12        1           0.000015803    0.000000528    0.000022605
     13        8           0.000706958   -0.000372924   -0.000071011
     14        6          -0.000139885    0.000033602    0.000026091
     15        1          -0.000010763    0.000002155    0.000001628
     16        1          -0.000009830    0.000002899   -0.000000268
     17        6          -0.000090542    0.000052997    0.000049814
     18        1          -0.000006160    0.000003817    0.000005526
     19        1          -0.000006457    0.000005866    0.000002857
 -------------------------------------------------------------------
 Cartesian Forces:  Max     0.000706958 RMS     0.000165538
 IRC-IRC-IRC-IRC-IRC-IRC-IRC-IRC-IRC-IRC-IRC-IRC-IRC-IRC-IRC-IRC-IRC-IRC
 Error in corrector energy =          -0.0000002092
 Magnitude of corrector gradient =     0.0012806152
 Magnitude of analytic gradient =      0.0012497866
 Magnitude of difference =             0.0001629643
 Angle between gradients (degrees)=    7.2521
 Pt  1 Step number   2 out of a maximum of 100
 Modified Bulirsch-Stoer Extrapolation Cycles:
    EPS =    0.000010000000000
      PEZero:  N= 2 I= 1 D=  6.13D-04 Err=  3.75D-02
      PEZero:  N= 3 I= 2 D=  6.13D-04 Err=  3.39D-02
      PEZero:  N= 3 I= 1 D=  1.23D-03 Err=  1.33D-02
      PEZero:  N= 4 I= 3 D=  3.07D-04 Err=  3.67D-03
      PEZero:  N= 4 I= 2 D=  9.20D-04 Err=  2.90D-02
      PEZero:  N= 5 I= 4 D=  3.07D-04 Err=  3.60D-04
      PEZero:  N= 5 I= 3 D=  6.13D-04 Err=  3.14D-03
      PEZero:  N= 6 I= 5 D=  1.53D-04 Err=  2.60D-04
      PEZero:  N= 6 I= 4 D=  4.60D-04 Err=  1.30D-05
      PEZero:  N= 6 I= 3 D=  7.67D-04 Err=  8.01D-03
      PEZero:  N= 7 I= 6 D=  1.53D-04 Err=  1.71D-04
      PEZero:  N= 7 I= 5 D=  3.07D-04 Err=  2.88D-06
      PEZero:  N= 7 I= 4 D=  6.13D-04 Err=  3.62D-06
 Maximum DWI energy   std dev =  0.000000211 at pt     3
 Maximum DWI gradient std dev =  0.464457926 at pt     3
 CORRECTOR INTEGRATION CONVERGENCE:
   Recorrection delta-x convergence threshold:    0.010000
   Delta-x Convergence Met
 Point Number:   1          Path Number:   1
   CHANGE IN THE REACTION COORDINATE =    0.23520
   NET REACTION COORDINATE UP TO THIS POINT =    0.23520
  # OF POINTS ALONG THE PATH =   1
  # OF STEPS =   2

 Calculating another point on the path.
 IRC-IRC-IRC-IRC-IRC-IRC-IRC-IRC-IRC-IRC-IRC-IRC-IRC-IRC-IRC-IRC-IRC-IRC
                          Input orientation:                          
 ---------------------------------------------------------------------
 Center     Atomic      Atomic             Coordinates (Angstroms)
 Number     Number       Type             X           Y           Z
 ---------------------------------------------------------------------
      1         14           0        0.216239    0.274274   -0.206670
      2          8           0        0.937428   -0.162803    1.241713
      3          8           0       -0.309865    1.795279   -0.331920
      4          1           0       -1.180286    1.657967    0.184598
      5          8           0        1.632384    0.152663   -1.114472
      6          8           0       -0.699051   -0.929038   -0.844384
      7          6           0       -1.945515   -1.340447   -0.323013
      8          1           0       -1.772044   -1.981741    0.550948
      9          1           0       -2.450390   -1.932154   -1.096472
     10          6           0       -2.782002   -0.137089    0.110721
     11          1           0       -3.105156    0.386112   -0.819307
     12          1           0       -3.716862   -0.541968    0.561183
     13          8           0       -2.065328    0.651086    0.953402
     14          6           0        2.736895   -0.070188   -0.285485
     15          1           0        3.463533   -0.718852   -0.786920
     16          1           0        3.235926    0.880616   -0.049991
     17          6           0        2.204051   -0.716300    1.000725
     18          1           0        2.124704   -1.804414    0.869438
     19          1           0        2.862108   -0.523047    1.853696
 ---------------------------------------------------------------------
                    Distance matrix (angstroms):
                    1          2          3          4          5
     1  Si   0.000000
     2  O    1.675996   0.000000
     3  O    1.614289   2.804665   0.000000
     4  H    2.004490   2.986203   1.021410   0.000000
     5  O    1.686523   2.476710   2.661373   3.444508   0.000000
     6  O    1.640852   2.759888   2.799283   2.825418   2.584302
     7  C    2.700748   3.485193   3.536694   3.135878   3.956911
     8  H    3.101106   3.335705   4.145275   3.705653   4.349648
     9  H    3.573651   4.480516   4.365793   4.017870   4.584302
    10  C    3.042928   3.887668   3.168823   2.406902   4.590410
    11  H    3.379274   4.570732   3.168115   2.516062   4.752463
    12  H    4.089637   4.719035   4.227054   3.378720   5.648430
    13  O    2.587142   3.124433   2.458227   1.545370   4.265865
    14  C    2.545304   2.361989   3.572795   4.307180   1.398865
    15  H    3.444983   3.287210   4.557018   5.306427   2.054248
    16  H    3.083944   2.835545   3.672700   4.490238   2.057762
    17  C    2.527931   1.403128   3.795227   4.213899   2.357108
    18  H    3.020130   2.059878   4.508677   4.835291   2.829916
    19  H    3.446948   2.051510   4.495882   4.887091   3.283112
                    6          7          8          9         10
     6  O    0.000000
     7  C    1.412358   0.000000
     8  H    2.050963   1.097797   0.000000
     9  H    2.033956   1.096930   1.782303   0.000000
    10  C    2.424478   1.528368   2.148617   2.188503   0.000000
    11  H    2.742186   2.138242   3.043273   2.424850   1.114953
    12  H    3.351510   2.134723   2.419786   2.506869   1.113914
    13  O    2.756000   2.368500   2.679508   3.320148   1.358289
    14  C    3.585487   4.851796   4.968318   5.570685   5.533505
    15  H    4.168284   5.464374   5.549419   6.045031   6.336475
    16  H    4.403403   5.644023   5.799481   6.429696   6.105491
    17  C    3.446402   4.400084   4.196782   5.247891   5.097874
    18  H    3.417172   4.266601   3.913761   4.981225   5.237498
    19  H    4.486237   5.340360   5.029941   6.237925   5.919705
                   11         12         13         14         15
    11  H    0.000000
    12  H    1.772363   0.000000
    13  O    2.072185   2.074795   0.000000
    14  C    5.884108   6.526132   5.011629   0.000000
    15  H    6.661056   7.307991   5.955985   1.095539   0.000000
    16  H    6.406692   7.123099   5.400257   1.099327   1.775716
    17  C    5.719747   5.939764   4.483256   1.534836   2.186773
    18  H    5.916223   5.984369   4.857252   2.171673   2.390487
    19  H    6.601496   6.704759   5.144778   2.190172   2.715310
                   16         17         18         19
    16  H    0.000000
    17  C    2.172305   0.000000
    18  H    3.047876   1.098874   0.000000
    19  H    2.394584   1.094506   1.776071   0.000000
 Symmetry turned off by external request.
 Stoichiometry    C4H9O5Si(1-)
 Framework group  C1[X(C4H9O5Si)]
 Deg. of freedom    51
 Full point group                 C1      NOp   1
 Rotational constants (GHZ):           2.3616077           0.8610294           0.8275759
 Standard basis: def2TZVPP (5D, 7F)
   447 basis functions,   681 primitive gaussians,   507 cartesian basis functions
    44 alpha electrons       44 beta electrons
       nuclear repulsion energy       725.6389055162 Hartrees.
 NAtoms=   19 NActive=   19 NUniq=   19 SFac= 1.00D+00 NAtFMM=   60 NAOKFM=F Big=F
 Integral buffers will be    131072 words long.
 Raffenetti 2 integral format.
 Two-electron integral symmetry is turned off.
 Nuclear repulsion after empirical dispersion term =      725.6291920134 Hartrees.
 One-electron integrals computed using PRISM.
   1 Symmetry operations used in ECPInt.
 ECPInt:  NShTT=   14028 NPrTT=   39320 LenC2=   13315 LenP2D=   29164.
 LDataN:  DoStor=T MaxTD1= 6 Len=  172
 NBasis=   447 RedAO= T EigKep=  2.82D-04  NBF=   447
 NBsUse=   447 1.00D-06 EigRej= -1.00D+00 NBFU=   447
 Initial guess from the checkpoint file:  "QbiLmL_to_PbiL2_IRCreverse.chk"
 B after Tr=     0.000016    0.000302   -0.000099
         Rot=    1.000000    0.000009   -0.000001    0.000040 Ang=   0.00 deg.
 ExpMin= 7.01D-02 ExpMax= 4.48D+04 ExpMxC= 1.53D+03 IAcc=3 IRadAn=         5 AccDes= 0.00D+00
 Harris functional with IExCor= 4639 and IRadAn=       5 diagonalized for initial guess.
 HarFok:  IExCor= 4639 AccDes= 0.00D+00 IRadAn=         5 IDoV= 1 UseB2=F ITyADJ=14
 ICtDFT=  3500011 ScaDFX=  1.000000  1.000000  1.000000  1.000000
 FoFCou: FMM=F IPFlag=           0 FMFlag=      100000 FMFlg1=           0
         NFxFlg=           0 DoJE=T BraDBF=F KetDBF=T FulRan=T
         wScrn=  0.000000 ICntrl=       500 IOpCl=  0 I1Cent=   200000004 NGrid=           0
         NMat0=    1 NMatS0=      1 NMatT0=    0 NMatD0=    1 NMtDS0=    0 NMtDT0=    0
 Symmetry not used in FoFCou.
 Requested convergence on RMS density matrix=1.00D-08 within 128 cycles.
 Requested convergence on MAX density matrix=1.00D-06.
 Requested convergence on             energy=1.00D-06.
 No special actions if energy rises.
 Integral accuracy reduced to 1.0D-05 until final iterations.
 Initial convergence to 1.0D-05 achieved.  Increase integral accuracy.
 SCF Done:  E(RwB97XD) =  -823.723377811     A.U. after   11 cycles
            NFock= 11  Conv=0.68D-08     -V/T= 2.0036
 DoSCS=F DFT=T ScalE2(SS,OS)=  1.000000  1.000000
 Range of M.O.s used for correlation:     1   447
 NBasis=   447 NAE=    44 NBE=    44 NFC=     0 NFV=     0
 NROrb=    447 NOA=    44 NOB=    44 NVA=   403 NVB=   403

 **** Warning!!: The largest alpha MO coefficient is  0.13254126D+02

 Symmetrizing basis deriv contribution to polar:
 IMax=3 JMax=2 DiffMx= 0.00D+00
   1 Symmetry operations used in ECPInt.
 ECPInt:  NShTT=   14028 NPrTT=   39320 LenC2=   13315 LenP2D=   29164.
 LDataN:  DoStor=T MaxTD1= 7 Len=  274
 Calling FoFJK, ICntrl=      2127 FMM=F ISym2X=0 I1Cent= 0 IOpClX= 0 NMat=1 NMatS=1 NMatT=0.
 -------------------------------------------------------------------
 Center     Atomic                   Forces (Hartrees/Bohr)
 Number     Number              X              Y              Z
 -------------------------------------------------------------------
      1       14          -0.001284930    0.000281720    0.000695735
      2        8          -0.000241434    0.000055856    0.000209536
      3        8           0.001293170    0.000510061   -0.000937197
      4        1          -0.000403863    0.000167796    0.000210886
      5        8          -0.000433362   -0.000030982    0.000220398
      6        8          -0.000195225   -0.000082489   -0.000273687
      7        6          -0.000063579   -0.000162129   -0.000291298
      8        1          -0.000012771   -0.000029739   -0.000059641
      9        1          -0.000011502    0.000025803   -0.000018077
     10        6           0.000252877   -0.000202950    0.000219732
     11        1           0.000018231    0.000005234    0.000083458
     12        1           0.000101209    0.000040677    0.000054838
     13        8           0.001520359   -0.000793819   -0.000287330
     14        6          -0.000289171    0.000068193    0.000045946
     15        1          -0.000020698    0.000004508    0.000003146
     16        1          -0.000021214    0.000008676   -0.000000473
     17        6          -0.000187113    0.000113342    0.000105667
     18        1          -0.000010935    0.000006991    0.000011525
     19        1          -0.000010050    0.000013251    0.000006836
 -------------------------------------------------------------------
 Cartesian Forces:  Max     0.001520359 RMS     0.000401646
 IRC-IRC-IRC-IRC-IRC-IRC-IRC-IRC-IRC-IRC-IRC-IRC-IRC-IRC-IRC-IRC-IRC-IRC
 Pt  2 Step number   1 out of a maximum of 100
 Modified Bulirsch-Stoer Extrapolation Cycles:
    EPS =    0.000010000000000
      PEZero:  N= 2 I= 1 D=  1.23D-03 Err=  7.41D-02
      PEZero:  N= 3 I= 2 D=  1.23D-03 Err=  5.63D-02
      PEZero:  N= 3 I= 1 D=  2.45D-03 Err=  1.03D-02
      PEZero:  N= 4 I= 3 D=  6.13D-04 Err=  2.17D-05
      PEZero:  N= 4 I= 2 D=  1.84D-03 Err=  5.62D-02
      PEZero:  N= 5 I= 4 D=  6.13D-04 Err=  1.02D-05
      PEZero:  N= 5 I= 3 D=  1.23D-03 Err=  6.57D-06
      PEZero:  N= 5 I= 2 D=  2.45D-03 Err=  5.17D-03
 Maximum DWI energy   std dev =  0.000000260 at pt   139
 Maximum DWI gradient std dev =  0.297592345 at pt   107
 CORRECTOR INTEGRATION CONVERGENCE:
   Recorrection delta-x convergence threshold:    0.010000
   Delta-x Convergence NOT Met
 IRC-IRC-IRC-IRC-IRC-IRC-IRC-IRC-IRC-IRC-IRC-IRC-IRC-IRC-IRC-IRC-IRC-IRC
                          Input orientation:                          
 ---------------------------------------------------------------------
 Center     Atomic      Atomic             Coordinates (Angstroms)
 Number     Number       Type             X           Y           Z
 ---------------------------------------------------------------------
      1         14           0        0.216057    0.274580   -0.206615
      2          8           0        0.937423   -0.162868    1.241726
      3          8           0       -0.310200    1.794929   -0.331660
      4          1           0       -1.182108    1.656183    0.186071
      5          8           0        1.632347    0.152521   -1.114461
      6          8           0       -0.699057   -0.929171   -0.844389
      7          6           0       -1.945419   -1.340403   -0.323060
      8          1           0       -1.772149   -1.981811    0.550834
      9          1           0       -2.450549   -1.931984   -1.096420
     10          6           0       -2.781774   -0.137061    0.110613
     11          1           0       -3.105124    0.386235   -0.819078
     12          1           0       -3.716178   -0.541417    0.561967
     13          8           0       -2.064679    0.651399    0.952899
     14          6           0        2.736828   -0.070206   -0.285482
     15          1           0        3.463552   -0.718833   -0.786859
     16          1           0        3.235797    0.880646   -0.049979
     17          6           0        2.204023   -0.716302    1.000750
     18          1           0        2.124747   -1.804434    0.869492
     19          1           0        2.862108   -0.522999    1.853706
 ---------------------------------------------------------------------
                    Distance matrix (angstroms):
                    1          2          3          4          5
     1  Si   0.000000
     2  O    1.676133   0.000000
     3  O    1.613705   2.804474   0.000000
     4  H    2.004468   2.985927   1.023484   0.000000
     5  O    1.686701   2.476693   2.661535   3.445800   0.000000
     6  O    1.641100   2.759921   2.799076   2.824755   2.584268
     7  C    2.700687   3.485100   3.536145   3.133909   3.956709
     8  H    3.101289   3.335815   4.144859   3.703539   4.349617
     9  H    3.573719   4.480519   4.365299   4.016051   4.584269
    10  C    3.042543   3.887481   3.168102   2.404235   4.590112
    11  H    3.379027   4.570625   3.167585   2.514176   4.752421
    12  H    4.088892   4.718196   4.225845   3.375241   5.647891
    13  O    2.586159   3.123950   2.456817   1.541605   4.265074
    14  C    2.545463   2.361950   3.572847   4.308229   1.398818
    15  H    3.445255   3.287185   4.557127   5.307490   2.054238
    16  H    3.083939   2.835480   3.672785   4.491666   2.057752
    17  C    2.528159   1.403081   3.795118   4.214056   2.357072
    18  H    3.020497   2.059863   4.508563   4.835103   2.829876
    19  H    3.447120   2.051493   4.495792   4.887281   3.283086
                    6          7          8          9         10
     6  O    0.000000
     7  C    1.412202   0.000000
     8  H    2.050908   1.097779   0.000000
     9  H    2.033932   1.096909   1.782177   0.000000
    10  C    2.424289   1.528265   2.148544   2.188238   0.000000
    11  H    2.742279   2.138277   3.043210   2.424774   1.114774
    12  H    3.351300   2.134769   2.419527   2.507137   1.113703
    13  O    2.755608   2.368453   2.679744   3.320011   1.358434
    14  C    3.585457   4.851623   4.968353   5.570702   5.533202
    15  H    4.168317   5.464287   5.549514   6.045177   6.336246
    16  H    4.403363   5.643814   5.799497   6.429655   6.105135
    17  C    3.446408   4.399983   4.196890   5.247957   5.097650
    18  H    3.417212   4.266586   3.913924   4.981407   5.237363
    19  H    4.486266   5.340297   5.030103   6.238013   5.919520
                   11         12         13         14         15
    11  H    0.000000
    12  H    1.772346   0.000000
    13  O    2.071894   2.074388   0.000000
    14  C    5.884001   6.525449   5.010865   0.000000
    15  H    6.661060   7.307484   5.955303   1.095548   0.000000
    16  H    6.406500   7.122267   5.399385   1.099342   1.775725
    17  C    5.719651   5.939015   4.482713   1.534834   2.186771
    18  H    5.916236   5.983827   4.856888   2.171671   2.390487
    19  H    6.601389   6.703937   5.144306   2.190169   2.715266
                   16         17         18         19
    16  H    0.000000
    17  C    2.172288   0.000000
    18  H    3.047871   1.098883   0.000000
    19  H    2.394552   1.094520   1.776078   0.000000
 Symmetry turned off by external request.
 Stoichiometry    C4H9O5Si(1-)
 Framework group  C1[X(C4H9O5Si)]
 Deg. of freedom    51
 Full point group                 C1      NOp   1
 Rotational constants (GHZ):           2.3619350           0.8611577           0.8276887
 Standard basis: def2TZVPP (5D, 7F)
   447 basis functions,   681 primitive gaussians,   507 cartesian basis functions
    44 alpha electrons       44 beta electrons
       nuclear repulsion energy       725.6759940193 Hartrees.
 NAtoms=   19 NActive=   19 NUniq=   19 SFac= 1.00D+00 NAtFMM=   60 NAOKFM=F Big=F
 Integral buffers will be    131072 words long.
 Raffenetti 2 integral format.
 Two-electron integral symmetry is turned off.
 Nuclear repulsion after empirical dispersion term =      725.6662806187 Hartrees.
 One-electron integrals computed using PRISM.
   1 Symmetry operations used in ECPInt.
 ECPInt:  NShTT=   14028 NPrTT=   39320 LenC2=   13315 LenP2D=   29165.
 LDataN:  DoStor=T MaxTD1= 6 Len=  172
 NBasis=   447 RedAO= T EigKep=  2.82D-04  NBF=   447
 NBsUse=   447 1.00D-06 EigRej= -1.00D+00 NBFU=   447
 Initial guess from the checkpoint file:  "QbiLmL_to_PbiL2_IRCreverse.chk"
 B after Tr=    -0.000011    0.000014    0.000017
         Rot=    1.000000   -0.000001   -0.000001    0.000001 Ang=  -0.00 deg.
 ExpMin= 7.01D-02 ExpMax= 4.48D+04 ExpMxC= 1.53D+03 IAcc=3 IRadAn=         5 AccDes= 0.00D+00
 Harris functional with IExCor= 4639 and IRadAn=       5 diagonalized for initial guess.
 HarFok:  IExCor= 4639 AccDes= 0.00D+00 IRadAn=         5 IDoV= 1 UseB2=F ITyADJ=14
 ICtDFT=  3500011 ScaDFX=  1.000000  1.000000  1.000000  1.000000
 FoFCou: FMM=F IPFlag=           0 FMFlag=      100000 FMFlg1=           0
         NFxFlg=           0 DoJE=T BraDBF=F KetDBF=T FulRan=T
         wScrn=  0.000000 ICntrl=       500 IOpCl=  0 I1Cent=   200000004 NGrid=           0
         NMat0=    1 NMatS0=      1 NMatT0=    0 NMatD0=    1 NMtDS0=    0 NMtDT0=    0
 Symmetry not used in FoFCou.
 Requested convergence on RMS density matrix=1.00D-08 within 128 cycles.
 Requested convergence on MAX density matrix=1.00D-06.
 Requested convergence on             energy=1.00D-06.
 No special actions if energy rises.
 Integral accuracy reduced to 1.0D-05 until final iterations.
 Initial convergence to 1.0D-05 achieved.  Increase integral accuracy.
 SCF Done:  E(RwB97XD) =  -823.723378914     A.U. after    9 cycles
            NFock=  9  Conv=0.77D-08     -V/T= 2.0036
 DoSCS=F DFT=T ScalE2(SS,OS)=  1.000000  1.000000
 Range of M.O.s used for correlation:     1   447
 NBasis=   447 NAE=    44 NBE=    44 NFC=     0 NFV=     0
 NROrb=    447 NOA=    44 NOB=    44 NVA=   403 NVB=   403

 **** Warning!!: The largest alpha MO coefficient is  0.13260385D+02

 Symmetrizing basis deriv contribution to polar:
 IMax=3 JMax=2 DiffMx= 0.00D+00
   1 Symmetry operations used in ECPInt.
 ECPInt:  NShTT=   14028 NPrTT=   39320 LenC2=   13315 LenP2D=   29165.
 LDataN:  DoStor=T MaxTD1= 7 Len=  274
 Calling FoFJK, ICntrl=      2127 FMM=F ISym2X=0 I1Cent= 0 IOpClX= 0 NMat=1 NMatS=1 NMatT=0.
 -------------------------------------------------------------------
 Center     Atomic                   Forces (Hartrees/Bohr)
 Number     Number              X              Y              Z
 -------------------------------------------------------------------
      1       14          -0.001075377    0.000049186    0.000639912
      2        8          -0.000284729    0.000066881    0.000203127
      3        8           0.000562406    0.000668341   -0.000575076
      4        1           0.000246390    0.000132933   -0.000163821
      5        8          -0.000473591   -0.000028521    0.000227746
      6        8          -0.000150643   -0.000033525   -0.000253436
      7        6          -0.000083103   -0.000187642   -0.000295205
      8        1          -0.000006224   -0.000036415   -0.000040453
      9        1          -0.000013052    0.000012809   -0.000032811
     10        6           0.000280135   -0.000139896    0.000245342
     11        1          -0.000006407    0.000002948    0.000035168
     12        1           0.000037120    0.000005457    0.000048605
     13        8           0.001501093   -0.000721075   -0.000209048
     14        6          -0.000288597    0.000070076    0.000050688
     15        1          -0.000020436    0.000004781    0.000003150
     16        1          -0.000019822    0.000006265   -0.000000581
     17        6          -0.000182202    0.000108185    0.000100639
     18        1          -0.000010974    0.000007348    0.000010773
     19        1          -0.000011988    0.000011865    0.000005281
 -------------------------------------------------------------------
 Cartesian Forces:  Max     0.001501093 RMS     0.000338217
 IRC-IRC-IRC-IRC-IRC-IRC-IRC-IRC-IRC-IRC-IRC-IRC-IRC-IRC-IRC-IRC-IRC-IRC
 Error in corrector energy =          -0.0000003879
 Magnitude of corrector gradient =     0.0026118952
 Magnitude of analytic gradient =      0.0025534790
 Magnitude of difference =             0.0003033668
 Angle between gradients (degrees)=    6.6082
 Pt  2 Step number   2 out of a maximum of 100
 Modified Bulirsch-Stoer Extrapolation Cycles:
    EPS =    0.000010000000000
      PEZero:  N= 2 I= 1 D=  1.23D-03 Err=  7.29D-02
      PEZero:  N= 3 I= 2 D=  1.23D-03 Err=  5.66D-02
      PEZero:  N= 3 I= 1 D=  2.45D-03 Err=  1.20D-02
      PEZero:  N= 4 I= 3 D=  6.13D-04 Err=  2.06D-05
      PEZero:  N= 4 I= 2 D=  1.84D-03 Err=  5.65D-02
      PEZero:  N= 5 I= 4 D=  6.13D-04 Err=  8.49D-06
      PEZero:  N= 5 I= 3 D=  1.23D-03 Err=  9.17D-06
 Maximum DWI energy   std dev =  0.000000131 at pt    32
 Maximum DWI gradient std dev =  0.196067359 at pt    54
 CORRECTOR INTEGRATION CONVERGENCE:
   Recorrection delta-x convergence threshold:    0.010000
   Delta-x Convergence Met
 Point Number:   2          Path Number:   1
   CHANGE IN THE REACTION COORDINATE =    0.23530
   NET REACTION COORDINATE UP TO THIS POINT =    0.47050
  # OF POINTS ALONG THE PATH =   2
  # OF STEPS =   2

 Calculating another point on the path.
 IRC-IRC-IRC-IRC-IRC-IRC-IRC-IRC-IRC-IRC-IRC-IRC-IRC-IRC-IRC-IRC-IRC-IRC
                          Input orientation:                          
 ---------------------------------------------------------------------
 Center     Atomic      Atomic             Coordinates (Angstroms)
 Number     Number       Type             X           Y           Z
 ---------------------------------------------------------------------
      1         14           0        0.208861    0.274872   -0.202267
      2          8           0        0.934101   -0.162102    1.244201
      3          8           0       -0.301176    1.803046   -0.339756
      4          1           0       -1.168982    1.683111    0.172919
      5          8           0        1.626661    0.152313   -1.111692
      6          8           0       -0.700890   -0.929658   -0.847373
      7          6           0       -1.946653   -1.343477   -0.327585
      8          1           0       -1.773259   -1.989800    0.542733
      9          1           0       -2.453405   -1.930084   -1.103649
     10          6           0       -2.777379   -0.139493    0.114061
     11          1           0       -3.106269    0.386985   -0.812178
     12          1           0       -3.709811   -0.540531    0.572609
     13          8           0       -2.047121    0.642723    0.950816
     14          6           0        2.732224   -0.069082   -0.284767
     15          1           0        3.458901   -0.717825   -0.786322
     16          1           0        3.231522    0.881993   -0.050156
     17          6           0        2.201176   -0.714646    1.002258
[...]
      5        8          -0.000643939   -0.001495251    0.000188222
      6        8          -0.000628785    0.000687367   -0.001461784
      7        6          -0.000245275    0.000769583   -0.001053074
      8        1           0.000056298   -0.000528491    0.000079117
      9        1          -0.000428499    0.000071579   -0.000585034
     10        6          -0.000067161   -0.000192167    0.002160338
     11        1           0.000279621   -0.000216989    0.000676692
     12        1           0.000813099    0.000108217   -0.000679609
     13        8           0.001772745   -0.001230156    0.000367873
     14        6          -0.000546215    0.000692768    0.000503895
     15        1           0.000014183    0.000100358    0.000076099
     16        1          -0.000133339    0.000099559    0.000011980
     17        6          -0.000169527    0.000898134    0.000707171
     18        1           0.000038082    0.000063969    0.000080975
     19        1          -0.000028300    0.000120881    0.000044651
 -------------------------------------------------------------------
 Cartesian Forces:  Max     0.002160338 RMS     0.000659301
 IRC-IRC-IRC-IRC-IRC-IRC-IRC-IRC-IRC-IRC-IRC-IRC-IRC-IRC-IRC-IRC-IRC-IRC
 Error in corrector energy =          -0.0000139750
 Magnitude of corrector gradient =     0.0050444798
 Magnitude of analytic gradient =      0.0049776164
 Magnitude of difference =             0.0022086396
 Angle between gradients (degrees)=   25.4511
 Pt 30 Step number  24 out of a maximum of 100
 Modified Bulirsch-Stoer Extrapolation Cycles:
    EPS =    0.000010000000000
      PEZero:  N= 2 I= 1 D=  1.22D-03 Err=  1.35D-04
      PEZero:  N= 3 I= 2 D=  1.22D-03 Err=  9.00D-05
      PEZero:  N= 3 I= 1 D=  2.43D-03 Err=  5.75D-07
 Maximum DWI energy   std dev =  0.000011051 at pt    28
 Maximum DWI gradient std dev =  0.526974294 at pt    37
 CORRECTOR INTEGRATION CONVERGENCE:
   Recorrection delta-x convergence threshold:    0.010000
   Delta-x Convergence NOT Met
 IRC-IRC-IRC-IRC-IRC-IRC-IRC-IRC-IRC-IRC-IRC-IRC-IRC-IRC-IRC-IRC-IRC-IRC
                          Input orientation:                          
 ---------------------------------------------------------------------
 Center     Atomic      Atomic             Coordinates (Angstroms)
 Number     Number       Type             X           Y           Z
 ---------------------------------------------------------------------
      1         14           0       -0.000998    0.300467   -0.087851
      2          8           0        0.849186   -0.149937    1.314531
      3          8           0       -0.122218    1.931761   -0.503426
      4          1           0       -0.899594    2.256928   -0.052522
      5          8           0        1.456952    0.127012   -1.042707
      6          8           0       -0.729487   -0.975069   -0.953660
      7          6           0       -1.962021   -1.396378   -0.458446
      8          1           0       -1.823655   -2.201042    0.281630
      9          1           0       -2.585491   -1.787187   -1.274006
     10          6           0       -2.584806   -0.179808    0.216221
     11          1           0       -3.056068    0.456763   -0.556259
     12          1           0       -3.371435   -0.468454    0.925023
     13          8           0       -1.543162    0.468166    0.850127
     14          6           0        2.586016   -0.023437   -0.265150
     15          1           0        3.333319   -0.654817   -0.767540
     16          1           0        3.066381    0.949404   -0.053528
     17          6           0        2.121992   -0.660299    1.047763
     18          1           0        2.074136   -1.754250    0.935941
     19          1           0        2.801217   -0.435601    1.879329
 ---------------------------------------------------------------------
                    Distance matrix (angstroms):
                    1          2          3          4          5
     1  Si   0.000000
     2  O    1.700692   0.000000
     3  O    1.687755   2.929515   0.000000
     4  H    2.153245   3.274151   0.955699   0.000000
     5  O    1.751415   2.450031   2.457992   3.327209   0.000000
     6  O    1.705085   2.884050   3.003523   3.359582   2.450108
     7  C    2.619587   3.549641   3.803079   3.826248   3.788331
     8  H    3.117072   3.523918   4.537759   4.564980   4.235102
     9  H    3.527728   4.601969   4.526818   4.548531   4.478727
    10  C    2.645598   3.605479   3.322794   2.974869   4.244390
    11  H    3.094719   4.372522   3.284188   2.853896   4.551123
    12  H    3.602360   4.250507   4.284730   3.807006   5.247844
    13  O    1.812787   2.514171   2.448122   2.104430   3.563691
    14  C    2.613233   2.351163   3.348746   4.170701   1.379136
    15  H    3.534433   3.280372   4.324451   5.187202   2.051274
    16  H    3.135460   2.827736   3.366689   4.175953   2.060356
    17  C    2.592252   1.397021   3.763168   4.341753   2.330708
    18  H    3.094542   2.053692   4.525751   5.090155   2.799127
    19  H    3.502000   2.052078   4.452909   4.967672   3.265253
                    6          7          8          9         10
     6  O    0.000000
     7  C    1.393513   0.000000
     8  H    2.055761   1.101971   0.000000
     9  H    2.051074   1.098446   1.780919   0.000000
    10  C    2.333082   1.524166   2.160790   2.191904   0.000000
    11  H    2.760625   2.154214   3.047101   2.402480   1.106361
    12  H    3.281158   2.182081   2.410692   2.681881   1.097498
    13  O    2.449213   2.316103   2.743453   3.268792   1.380844
    14  C    3.517415   4.754678   4.948346   5.556355   5.195533
    15  H    4.079656   5.355939   5.485066   6.047403   6.018108
    16  H    4.349994   5.563405   5.826671   6.397042   5.769212
    17  C    3.497957   4.414707   4.304530   5.368508   4.803778
    18  H    3.469584   4.285201   3.977502   5.157235   4.970172
    19  H    4.558808   5.392283   5.201814   6.386464   5.642748
                   11         12         13         14         15
    11  H    0.000000
    12  H    1.774733   0.000000
    13  O    2.065656   2.055589   0.000000
    14  C    5.669960   6.091450   4.305302   0.000000
    15  H    6.488799   6.917603   5.259088   1.099773   0.000000
    16  H    6.162777   6.664335   4.721872   1.105420   1.776118
    17  C    5.534710   5.498146   3.840032   1.531225   2.182354
    18  H    5.782234   5.595322   4.246333   2.168030   2.386660
    19  H    6.405950   6.246072   4.555182   2.194306   2.708709
                   16         17         18         19
    16  H    0.000000
    17  C    2.166992   0.000000
    18  H    3.045216   1.100692   0.000000
    19  H    2.392590   1.096969   1.776926   0.000000
 Symmetry turned off by external request.
 Stoichiometry    C4H9O5Si(1-)
 Framework group  C1[X(C4H9O5Si)]
 Deg. of freedom    51
 Full point group                 C1      NOp   1
 Rotational constants (GHZ):           2.2231429           0.9734862           0.9230910
 Standard basis: def2TZVPP (5D, 7F)
   447 basis functions,   681 primitive gaussians,   507 cartesian basis functions
    44 alpha electrons       44 beta electrons
       nuclear repulsion energy       742.1565609793 Hartrees.
 NAtoms=   19 NActive=   19 NUniq=   19 SFac= 1.00D+00 NAtFMM=   60 NAOKFM=F Big=F
 Integral buffers will be    131072 words long.
 Raffenetti 2 integral format.
 Two-electron integral symmetry is turned off.
 Nuclear repulsion after empirical dispersion term =      742.1469026448 Hartrees.
 One-electron integrals computed using PRISM.
   1 Symmetry operations used in ECPInt.
 ECPInt:  NShTT=   14028 NPrTT=   39320 LenC2=   13411 LenP2D=   29460.
 LDataN:  DoStor=T MaxTD1= 6 Len=  172
 NBasis=   447 RedAO= T EigKep=  3.03D-04  NBF=   447
 NBsUse=   447 1.00D-06 EigRej= -1.00D+00 NBFU=   447
 Initial guess from the checkpoint file:  "QbiLmL_to_PbiL2_IRCreverse.chk"
 B after Tr=     0.000030    0.000074   -0.000124
         Rot=    1.000000   -0.000089    0.000058    0.000006 Ang=  -0.01 deg.
 ExpMin= 7.01D-02 ExpMax= 4.48D+04 ExpMxC= 1.53D+03 IAcc=3 IRadAn=         5 AccDes= 0.00D+00
 Harris functional with IExCor= 4639 and IRadAn=       5 diagonalized for initial guess.
 HarFok:  IExCor= 4639 AccDes= 0.00D+00 IRadAn=         5 IDoV= 1 UseB2=F ITyADJ=14
 ICtDFT=  3500011 ScaDFX=  1.000000  1.000000  1.000000  1.000000
 FoFCou: FMM=F IPFlag=           0 FMFlag=      100000 FMFlg1=           0
         NFxFlg=           0 DoJE=T BraDBF=F KetDBF=T FulRan=T
         wScrn=  0.000000 ICntrl=       500 IOpCl=  0 I1Cent=   200000004 NGrid=           0
         NMat0=    1 NMatS0=      1 NMatT0=    0 NMatD0=    1 NMtDS0=    0 NMtDT0=    0
 Symmetry not used in FoFCou.
 Requested convergence on RMS density matrix=1.00D-08 within 128 cycles.
 Requested convergence on MAX density matrix=1.00D-06.
 Requested convergence on             energy=1.00D-06.
 No special actions if energy rises.
 Integral accuracy reduced to 1.0D-05 until final iterations.
 Initial convergence to 1.0D-05 achieved.  Increase integral accuracy.
 SCF Done:  E(RwB97XD) =  -823.749334160     A.U. after   10 cycles
            NFock= 10  Conv=0.43D-08     -V/T= 2.0035
 DoSCS=F DFT=T ScalE2(SS,OS)=  1.000000  1.000000
 Range of M.O.s used for correlation:     1   447
 NBasis=   447 NAE=    44 NBE=    44 NFC=     0 NFV=     0
 NROrb=    447 NOA=    44 NOB=    44 NVA=   403 NVB=   403

 **** Warning!!: The largest alpha MO coefficient is  0.11200343D+02

 Symmetrizing basis deriv contribution to polar:
 IMax=3 JMax=2 DiffMx= 0.00D+00
   1 Symmetry operations used in ECPInt.
 ECPInt:  NShTT=   14028 NPrTT=   39320 LenC2=   13411 LenP2D=   29460.
 LDataN:  DoStor=T MaxTD1= 7 Len=  274
 Calling FoFJK, ICntrl=      2127 FMM=F ISym2X=0 I1Cent= 0 IOpClX= 0 NMat=1 NMatS=1 NMatT=0.
 -------------------------------------------------------------------
 Center     Atomic                   Forces (Hartrees/Bohr)
 Number     Number              X              Y              Z
 -------------------------------------------------------------------
      1       14          -0.000744421   -0.000164110    0.000030100
      2        8          -0.000659346    0.000313581    0.000399304
      3        8           0.001265338   -0.000313797   -0.001381051
      4        1          -0.000245127    0.000165100    0.000147042
      5        8          -0.000660725   -0.001474783    0.000166453
      6        8          -0.000637254    0.000609237   -0.001290564
      7        6          -0.000732354   -0.000006748   -0.001691066
      8        1          -0.000178806    0.000472040   -0.000575347
      9        1           0.000335559    0.000296428    0.000435692
     10        6           0.001075944   -0.000735858    0.000611820
     11        1          -0.000526839    0.000293817   -0.000229598
     12        1          -0.000637018   -0.000345263    0.001089922
     13        8           0.003069155   -0.001061415    0.000868968
     14        6          -0.000532181    0.000693131    0.000503597
     15        1           0.000054819    0.000096138    0.000081053
     16        1          -0.000110000    0.000095942    0.000014951
     17        6          -0.000173840    0.000892355    0.000691151
     18        1           0.000054074    0.000055577    0.000079204
     19        1          -0.000016976    0.000118629    0.000048370
 -------------------------------------------------------------------
 Cartesian Forces:  Max     0.003069155 RMS     0.000753237
 IRC-IRC-IRC-IRC-IRC-IRC-IRC-IRC-IRC-IRC-IRC-IRC-IRC-IRC-IRC-IRC-IRC-IRC
 Error in corrector energy =          -0.0000161921
 Magnitude of corrector gradient =     0.0047677332
 Magnitude of analytic gradient =      0.0056868110
 Magnitude of difference =             0.0024274721
 Angle between gradients (degrees)=   24.9182
 Pt 30 Step number  25 out of a maximum of 100
 Modified Bulirsch-Stoer Extrapolation Cycles:
    EPS =    0.000010000000000
      PEZero:  N= 2 I= 1 D=  1.22D-03 Err=  1.87D-04
      PEZero:  N= 3 I= 2 D=  1.22D-03 Err=  1.24D-04
      PEZero:  N= 3 I= 1 D=  2.43D-03 Err=  7.32D-07
 Maximum DWI energy   std dev =  0.000011843 at pt    26
 Maximum DWI gradient std dev =  0.549353727 at pt    55
 CORRECTOR INTEGRATION CONVERGENCE:
   Recorrection delta-x convergence threshold:    0.010000
   Delta-x Convergence NOT Met
 IRC-IRC-IRC-IRC-IRC-IRC-IRC-IRC-IRC-IRC-IRC-IRC-IRC-IRC-IRC-IRC-IRC-IRC
                          Input orientation:                          
 ---------------------------------------------------------------------
 Center     Atomic      Atomic             Coordinates (Angstroms)
 Number     Number       Type             X           Y           Z
 ---------------------------------------------------------------------
      1         14           0       -0.001134    0.300466   -0.087677
      2          8           0        0.849260   -0.150032    1.314515
      3          8           0       -0.122024    1.931543   -0.503578
      4          1           0       -0.900350    2.257217   -0.052554
      5          8           0        1.457054    0.127030   -1.042681
      6          8           0       -0.729628   -0.975003   -0.953730
      7          6           0       -1.962078   -1.395995   -0.458177
      8          1           0       -1.823251   -2.195422    0.284575
      9          1           0       -2.583077   -1.791294   -1.270472
     10          6           0       -2.586054   -0.180174    0.215960
     11          1           0       -3.063656    0.456534   -0.555389
     12          1           0       -3.370842   -0.469799    0.932268
     13          8           0       -1.542019    0.468118    0.849051
     14          6           0        2.586163   -0.023503   -0.265189
     15          1           0        3.333633   -0.654894   -0.767449
     16          1           0        3.066724    0.949259   -0.053513
     17          6           0        2.122095   -0.660379    1.047707
     18          1           0        2.074355   -1.754346    0.935861
     19          1           0        2.801353   -0.435710    1.879283
 ---------------------------------------------------------------------
                    Distance matrix (angstroms):
                    1          2          3          4          5
     1  Si   0.000000
     2  O    1.700665   0.000000
     3  O    1.687602   2.929473   0.000000
     4  H    2.153763   3.274883   0.956701   0.000000
     5  O    1.751692   2.450010   2.457720   3.327972   0.000000
     6  O    1.705161   2.884164   3.003304   3.359838   2.450300
     7  C    2.619265   3.549434   3.802679   3.825931   3.788365
     8  H    3.112578   3.519476   4.532902   4.559758   4.232706
     9  H    3.527165   4.599656   4.528182   4.550311   4.478227
    10  C    2.646700   3.606815   3.323933   2.975663   4.245618
    11  H    3.101959   4.378969   3.291129   2.859229   4.558820
    12  H    3.603960   4.249426   4.287530   3.809175   5.250258
    13  O    1.811047   2.513360   2.446958   2.103688   3.562222
    14  C    2.613537   2.351236   3.348629   4.171651   1.379145
    15  H    3.534894   3.280483   4.324448   5.188263   2.051513
    16  H    3.135898   2.827912   3.366832   4.177132   2.060473
    17  C    2.592377   1.397050   3.763059   4.342592   2.330668
    18  H    3.094760   2.053792   4.525687   5.091018   2.799154
    19  H    3.502116   2.052131   4.452870   4.968547   3.265224
                    6          7          8          9         10
     6  O    0.000000
     7  C    1.393463   0.000000
     8  H    2.053980   1.100017   0.000000
     9  H    2.049861   1.096232   1.777309   0.000000
    10  C    2.333720   1.523821   2.155877   2.192076   0.000000
    11  H    2.766886   2.157496   3.045820   2.407287   1.108368
    12  H    3.284544   2.185359   2.406724   2.686817   1.101305
    13  O    2.447978   2.315214   2.737183   3.268199   1.382425
    14  C    3.517657   4.754732   4.945949   5.554883   5.196911
    15  H    4.080105   5.356251   5.483925   6.045816   6.019564
    16  H    4.350341   5.563526   5.823674   6.396239   5.770801
    17  C    3.498151   4.414667   4.301684   5.365777   4.805109
    18  H    3.469907   4.285388   3.976186   5.153732   4.971488
    19  H    4.559016   5.392229   5.198715   6.383623   5.644121
                   11         12         13         14         15
    11  H    0.000000
    12  H    1.779208   0.000000
    13  O    2.070740   2.056990   0.000000
    14  C    5.677597   6.092536   4.304081   0.000000
    15  H    6.496579   6.919052   5.257966   1.099832   0.000000
    16  H    6.170593   6.665414   4.720872   1.105446   1.776021
    17  C    5.541608   5.497454   3.839101   1.531230   2.182348
    18  H    5.788866   5.594662   4.245591   2.168014   2.386596
    19  H    6.412648   6.244517   4.554466   2.194307   2.708607
                   16         17         18         19
    16  H    0.000000
    17  C    2.167012   0.000000
    18  H    3.045182   1.100705   0.000000
    19  H    2.392543   1.096990   1.776899   0.000000
 Symmetry turned off by external request.
 Stoichiometry    C4H9O5Si(1-)
 Framework group  C1[X(C4H9O5Si)]
 Deg. of freedom    51
 Full point group                 C1      NOp   1
 Rotational constants (GHZ):           2.2237444           0.9733943           0.9229941
 Standard basis: def2TZVPP (5D, 7F)
   447 basis functions,   681 primitive gaussians,   507 cartesian basis functions
    44 alpha electrons       44 beta electrons
       nuclear repulsion energy       742.1527774686 Hartrees.
 NAtoms=   19 NActive=   19 NUniq=   19 SFac= 1.00D+00 NAtFMM=   60 NAOKFM=F Big=F
 Integral buffers will be    131072 words long.
 Raffenetti 2 integral format.
 Two-electron integral symmetry is turned off.
 Nuclear repulsion after empirical dispersion term =      742.1431216704 Hartrees.
 One-electron integrals computed using PRISM.
   1 Symmetry operations used in ECPInt.
 ECPInt:  NShTT=   14028 NPrTT=   39320 LenC2=   13411 LenP2D=   29460.
 LDataN:  DoStor=T MaxTD1= 6 Len=  172
 NBasis=   447 RedAO= T EigKep=  3.04D-04  NBF=   447
 NBsUse=   447 1.00D-06 EigRej= -1.00D+00 NBFU=   447
 Initial guess from the checkpoint file:  "QbiLmL_to_PbiL2_IRCreverse.chk"
 B after Tr=    -0.000028   -0.000072    0.000126
         Rot=    1.000000    0.000092   -0.000059   -0.000005 Ang=   0.01 deg.
 ExpMin= 7.01D-02 ExpMax= 4.48D+04 ExpMxC= 1.53D+03 IAcc=3 IRadAn=         5 AccDes= 0.00D+00
 Harris functional with IExCor= 4639 and IRadAn=       5 diagonalized for initial guess.
 HarFok:  IExCor= 4639 AccDes= 0.00D+00 IRadAn=         5 IDoV= 1 UseB2=F ITyADJ=14
 ICtDFT=  3500011 ScaDFX=  1.000000  1.000000  1.000000  1.000000
 FoFCou: FMM=F IPFlag=           0 FMFlag=      100000 FMFlg1=           0
         NFxFlg=           0 DoJE=T BraDBF=F KetDBF=T FulRan=T
         wScrn=  0.000000 ICntrl=       500 IOpCl=  0 I1Cent=   200000004 NGrid=           0
         NMat0=    1 NMatS0=      1 NMatT0=    0 NMatD0=    1 NMtDS0=    0 NMtDT0=    0
 Symmetry not used in FoFCou.
 Requested convergence on RMS density matrix=1.00D-08 within 128 cycles.
 Requested convergence on MAX density matrix=1.00D-06.
 Requested convergence on             energy=1.00D-06.
 No special actions if energy rises.
 Integral accuracy reduced to 1.0D-05 until final iterations.
 Initial convergence to 1.0D-05 achieved.  Increase integral accuracy.
 SCF Done:  E(RwB97XD) =  -823.749337427     A.U. after   10 cycles
            NFock= 10  Conv=0.43D-08     -V/T= 2.0035
ntrbks
ntrbks: Input/output error
