 Entering Gaussian System, Link 0=/opt/software/gaussian/g16.c01/g16
 Initial command:
 /opt/software/gaussian/g16.c01/l1.exe "/scratch/arhender/18118841/Gau-5407.inp" -scrdir="/scratch/arhender/18118841/"
 Entering Link 1 = /opt/software/gaussian/g16.c01/l1.exe PID=      5486.
  
 Copyright (c) 1988-2019, Gaussian, Inc.  All Rights Reserved.
  
 This is part of the Gaussian(R) 16 program.  It is based on
 the Gaussian(R) 09 system (copyright 2009, Gaussian, Inc.),
 the Gaussian(R) 03 system (copyright 2003, Gaussian, Inc.),
 the Gaussian(R) 98 system (copyright 1998, Gaussian, Inc.),
 the Gaussian(R) 94 system (copyright 1995, Gaussian, Inc.),
 the Gaussian 92(TM) system (copyright 1992, Gaussian, Inc.),
 the Gaussian 90(TM) system (copyright 1990, Gaussian, Inc.),
 the Gaussian 88(TM) system (copyright 1988, Gaussian, Inc.),
 the Gaussian 86(TM) system (copyright 1986, Carnegie Mellon
 University), and the Gaussian 82(TM) system (copyright 1983,
 Carnegie Mellon University). Gaussian is a federally registered
 trademark of Gaussian, Inc.
  
 This software contains proprietary and confidential information,
 including trade secrets, belonging to Gaussian, Inc.
  
 This software is provided under written license and may be
 used, copied, transmitted, or stored only in accord with that
 written license.
  
 The following legend is applicable only to US Government
 contracts under FAR:
  
                    RESTRICTED RIGHTS LEGEND
  
 Use, reproduction and disclosure by the US Government is
 subject to restrictions as set forth in subparagraphs (a)
 and (c) of the Commercial Computer Software - Restricted
 Rights clause in FAR 52.227-19.
  
 Gaussian, Inc.
 340 Quinnipiac St., Bldg. 40, Wallingford CT 06492
  
  
 ---------------------------------------------------------------
 Warning -- This program may not be used in any manner that
 competes with the business of Gaussian, Inc. or will provide
 assistance to any competitor of Gaussian, Inc.  The licensee
 of this program is prohibited from giving any competitor of
 Gaussian, Inc. access to this program.  By using this program,
 the user acknowledges that Gaussian, Inc. is engaged in the
 business of creating and licensing software in the field of
 computational chemistry and represents and warrants to the
 licensee that it is not a competitor of Gaussian, Inc. and that
 it will not use this program in any manner prohibited above.
 ---------------------------------------------------------------
  

 Cite this work as:
 Gaussian 16, Revision C.01,
 M. J. Frisch, G. W. Trucks, H. B. Schlegel, G. E. Scuseria, 
 M. A. Robb, J. R. Cheeseman, G. Scalmani, V. Barone, 
 G. A. Petersson, H. Nakatsuji, X. Li, M. Caricato, A. V. Marenich, 
 J. Bloino, B. G. Janesko, R. Gomperts, B. Mennucci, H. P. Hratchian, 
 J. V. Ortiz, A. F. Izmaylov, J. L. Sonnenberg, D. Williams-Young, 
 F. Ding, F. Lipparini, F. Egidi, J. Goings, B. Peng, A. Petrone, 
 T. Henderson, D. Ranasinghe, V. G. Zakrzewski, J. Gao, N. Rega, 
 G. Zheng, W. Liang, M. Hada, M. Ehara, K. Toyota, R. Fukuda, 
 J. Hasegawa, M. Ishida, T. Nakajima, Y. Honda, O. Kitao, H. Nakai, 
 T. Vreven, K. Throssell, J. A. Montgomery, Jr., J. E. Peralta, 
 F. Ogliaro, M. J. Bearpark, J. J. Heyd, E. N. Brothers, K. N. Kudin, 
 V. N. Staroverov, T. A. Keith, R. Kobayashi, J. Normand, 
 K. Raghavachari, A. P. Rendell, J. C. Burant, S. S. Iyengar, 
 J. Tomasi, M. Cossi, J. M. Millam, M. Klene, C. Adamo, R. Cammi, 
 J. W. Ochterski, R. L. Martin, K. Morokuma, O. Farkas, 
 J. B. Foresman, and D. J. Fox, Gaussian, Inc., Wallingford CT, 2019.
 
 ******************************************
 Gaussian 16:  ES64L-G16RevC.01  3-Jul-2019
                26-Mar-2024 
 ******************************************
 %chk=IRC_reverse_HbiLmL_collapseScan.chk
 %mem=1600MB
 %nprocs=4
 Will use up to    4 processors via shared memory.
 ----------------------------------------------------------------------
 # irc=(reverse,calcfc,maxpoints=100,maxcycle=100) wb97xd/def2tzvpp geo
 m=connectivity
 ----------------------------------------------------------------------
 1/6=100,10=4,18=10,22=2,26=3,38=1,42=100,44=3,57=2,172=1/1,23;
 2/12=2,17=6,18=5,29=1,40=1/2;
 3/5=44,7=202,11=2,25=1,30=1,71=2,74=-58,140=1/1,2,3;
 4//1;
 5/5=2,38=5/2;
 8/6=4,10=90,11=11/1;
 11/6=1,8=1,9=11,15=111,16=1/1,2,10;
 10/6=1,13=1/2;
 6/7=2,8=2,9=2,10=2,28=1/1;
 7/10=1,25=1/1,2,3,16;
 1/6=100,10=4,18=10,22=2,26=3,42=100,44=3/23(2);
 2/29=1/2;
 99/5=20/99;
 2/29=1/2;
 3/5=44,7=202,11=2,25=1,30=1,71=2,74=-58,140=1/1,2,3;
 4/5=5,16=3,69=1/1;
 5/5=2,38=5/2;
 8/6=4,10=90,11=11/1;
 11/6=1,8=1,9=11,15=111,16=1/1,2,10;
 10/6=1,13=1/2;
 7/10=1,25=1/1,2,3,16;
 1/6=100,18=10,22=2,26=3,42=100,44=3/23(-8);
 2/29=1/2;
 6/7=2,8=2,9=2,10=2,19=2,28=1/1;
 99/5=20,9=1/99;
 ----------------------------------------------------------------------
 Take TS opt from hydroxyl loss of HbiL2moL collapse deprotonated and r
 eprotonate free ligand hydroxyl
 ----------------------------------------------------------------------
 Symbolic Z-matrix:
 Charge = -2 Multiplicity = 1
 Si                    0.3569   -0.02102   0.08097 
 O                     0.19669   1.13357  -1.20081 
 O                     1.08197  -0.99247   1.31789 
 O                     0.74829  -1.25802  -1.07825 
 O                    -1.32249  -0.43345   0.29744 
 O                    -3.81054   0.3378    0.58319 
 O                     0.42812   1.29312   1.21904 
 C                    -3.56469  -0.77888  -0.2457 
 H                    -4.2928   -0.77436  -1.06527 
 H                    -3.69959  -1.70875   0.32838 
 C                    -2.13891  -0.71724  -0.78215 
 H                    -2.06428   0.06895  -1.54728 
 H                    -1.87681  -1.67041  -1.26481 
 C                     0.27476   2.54154   0.64455 
 H                    -0.77605   2.88945   0.72517 
 H                     0.91017   3.28277   1.15473 
 C                     0.66654   2.38925  -0.82487 
 H                     0.20884   3.17451  -1.44891 
 H                     1.76315   2.40315  -0.908 
 C                     1.80264  -2.0509   -0.63383 
 H                     1.79099  -3.02953  -1.14273 
 H                     2.75414  -1.52558  -0.80221 
 C                     1.58524  -2.20118   0.87231 
 H                     0.86991  -3.02426   1.0771 
 H                     2.5275   -2.44038   1.3897 
 O                     3.29521   0.71128  -0.31012 
 H                     3.11899   0.69328   0.63214 
 H                    -2.92219   0.52525   0.92954 
 
 IRC-IRC-IRC-IRC-IRC-IRC-IRC-IRC-IRC-IRC-IRC-IRC-IRC-IRC-IRC-IRC-IRC-IRC
 ------------------------------------------------------------------------
 INPUT DATA FOR L123
 ------------------------------------------------------------------------
 GENERAL PARAMETERS:
 Rxn path following direction = Reverse
 Maximum points per path      = 100
 Step size                    =   0.100 bohr
 Integration scheme           = HPC                                 
    Redo corrector integration= Yes                                 
    DWI Weight Power          =  2
    DWI will use Hessian update vectors when possible.
    Max correction cycles     = 100
 Initial Hessian              = CalcFC
 Hessian evaluation           = All updating
 Hessian updating method      = Bofill                              
 ------------------------------------------------------------------------
 IRC-IRC-IRC-IRC-IRC-IRC-IRC-IRC-IRC-IRC-IRC-IRC-IRC-IRC-IRC-IRC-IRC-IRC
                          Input orientation:                          
 ---------------------------------------------------------------------
 Center     Atomic      Atomic             Coordinates (Angstroms)
 Number     Number       Type             X           Y           Z
 ---------------------------------------------------------------------
      1         14           0        0.356900   -0.021020    0.080966
      2          8           0        0.196687    1.133572   -1.200814
      3          8           0        1.081966   -0.992469    1.317893
      4          8           0        0.748290   -1.258016   -1.078254
      5          8           0       -1.322485   -0.433448    0.297437
      6          8           0       -3.810542    0.337800    0.583194
      7          8           0        0.428121    1.293115    1.219037
      8          6           0       -3.564687   -0.778883   -0.245700
      9          1           0       -4.292801   -0.774363   -1.065271
     10          1           0       -3.699589   -1.708753    0.328382
     11          6           0       -2.138913   -0.717244   -0.782148
     12          1           0       -2.064285    0.068954   -1.547277
     13          1           0       -1.876813   -1.670411   -1.264805
     14          6           0        0.274761    2.541538    0.644553
     15          1           0       -0.776050    2.889453    0.725169
     16          1           0        0.910171    3.282775    1.154734
     17          6           0        0.666535    2.389248   -0.824869
     18          1           0        0.208836    3.174514   -1.448908
     19          1           0        1.763147    2.403146   -0.908001
     20          6           0        1.802643   -2.050899   -0.633828
     21          1           0        1.790989   -3.029527   -1.142730
     22          1           0        2.754137   -1.525575   -0.802212
     23          6           0        1.585244   -2.201180    0.872314
     24          1           0        0.869907   -3.024255    1.077095
     25          1           0        2.527504   -2.440384    1.389698
     26          8           0        3.295205    0.711284   -0.310118
     27          1           0        3.118994    0.693275    0.632143
     28          1           0       -2.922191    0.525248    0.929539
 ---------------------------------------------------------------------
                    Distance matrix (angstroms):
                    1          2          3          4          5
     1  Si   0.000000
     2  O    1.732545   0.000000
     3  O    1.731884   3.412866   0.000000
     4  O    1.739867   2.457434   2.433799   0.000000
     5  O    1.742782   2.647299   2.671183   2.619265   0.000000
     6  O    4.212904   4.458006   5.123088   5.107836   2.620479
     7  O    1.739893   2.436123   2.379323   3.447945   2.625831
     8  C    4.007482   4.326391   4.907324   4.418652   2.332765
     9  H    4.847794   4.879968   5.883465   5.064256   3.285723
    10  H    4.400541   5.059468   4.935125   4.686728   2.697774
    11  C    2.731076   3.009290   3.854865   2.952296   1.382967
    12  H    2.919145   2.522983   4.385740   3.145061   2.050767
    13  H    3.085622   3.487953   3.985512   2.663839   2.068322
    14  C    2.625087   2.322465   3.687028   4.198679   3.394440
    15  H    3.188954   2.781860   4.344291   4.772572   3.394586
    16  H    3.517691   3.267528   4.281804   5.062729   4.419279
    17  C    2.593415   1.392413   4.024925   3.656969   3.630893
    18  H    3.545966   2.056002   5.077528   4.480593   4.290927
    19  H    2.971896   2.037487   4.116894   3.803029   4.361247
    20  C    2.592588   3.611291   2.334280   1.392063   3.640031
    21  H    3.550374   4.458314   3.272153   2.056606   4.302026
    22  H    2.964867   3.710862   2.752309   2.042354   4.361286
    23  C    2.624530   4.164916   1.383044   2.322664   3.451123
    24  H    3.205444   4.788488   2.056965   2.789251   3.482346
    25  H    3.503944   4.991655   2.047241   3.264105   4.476968
    26  O    3.053335   3.251535   3.232897   3.309826   4.796102
    27  H    2.905714   3.477567   2.731569   3.514716   4.594374
    28  H    3.430878   3.825685   4.299716   4.547933   1.969190
                    6          7          8          9         10
     6  O    0.000000
     7  O    4.391263   0.000000
     8  C    1.412264   4.730872   0.000000
     9  H    2.046196   5.637343   1.096297   0.000000
    10  H    2.065337   5.180972   1.101103   1.779678   0.000000
    11  C    2.402420   3.825696   1.524601   2.173167   2.156867
    12  H    2.767779   3.919586   2.159661   2.431007   3.058195
    13  H    3.344745   4.501631   2.163866   2.584514   2.421204
    14  C    4.642190   1.382791   5.153553   5.897569   5.827555
    15  H    3.967270   2.059667   4.709116   5.384864   5.463334
    16  H    5.593270   2.048232   6.203437   6.961301   6.844567
    17  C    5.122040   2.331502   5.317493   5.887380   6.098085
    18  H    5.322761   3.271953   5.596118   6.000462   6.502372
    19  H    6.128240   2.745679   6.240975   6.840746   6.948226
    20  C    6.220520   4.062616   5.529638   6.242606   5.596201
    21  H    6.759797   5.110830   5.878208   6.488780   5.835671
    22  H    6.963227   4.176220   6.387080   7.091746   6.554569
    23  C    5.970303   3.697195   5.458450   6.351492   5.335523
    24  H    5.783939   4.342235   5.143647   6.025388   4.813669
    25  H    6.967035   4.286671   6.523029   7.437678   6.359117
    26  O    7.171411   3.301062   7.020176   7.768863   7.429092
    27  H    6.938820   2.818697   6.899960   7.744022   7.235681
    28  H    0.971730   3.449351   1.869424   2.747149   2.440594
                   11         12         13         14         15
    11  C    0.000000
    12  H    1.099590   0.000000
    13  H    1.100083   1.772097   0.000000
    14  C    4.298948   4.048324   5.100533   0.000000
    15  H    4.139766   3.844317   5.095492   1.109841   0.000000
    16  H    5.389673   5.145571   6.177014   1.101573   1.783976
    17  C    4.186007   3.655546   4.810717   1.528359   2.175747
    18  H    4.593721   3.849839   5.277985   2.188055   2.403720
    19  H    4.997874   4.528395   5.474531   2.155196   3.057983
    20  C    4.163712   4.503476   3.752506   5.005912   5.736167
    21  H    4.573926   4.962598   3.913422   6.044013   6.716626
    22  H    4.959409   5.129799   4.656250   4.978136   5.855560
    23  C    4.336895   4.932240   4.103027   4.925710   5.613547
    24  H    4.222805   5.006471   3.855108   5.614209   6.148575
    25  H    5.427852   6.000594   5.199736   5.518119   6.305730
    26  O    5.638541   5.537805   5.773532   3.658457   4.731951
    27  H    5.624533   5.657387   5.843245   3.392034   4.472496
    28  H    2.255478   2.660606   3.275497   3.790402   3.199555
                   16         17         18         19         20
    16  H    0.000000
    17  C    2.185538   0.000000
    18  H    2.698619   1.102522   0.000000
    19  H    2.399206   1.099846   1.817546   0.000000
    20  C    5.695923   4.587172   5.523542   4.462650   0.000000
    21  H    6.774905   5.543334   6.409920   5.437813   1.103100
    22  H    5.509090   4.436714   5.384014   4.053159   1.099845
    23  C    5.532562   4.979607   6.015036   4.939736   1.529154
    24  H    6.307636   5.741502   6.726250   5.847663   2.178228
    25  H    5.951934   5.629641   6.705295   5.415113   2.184440
    26  O    3.800887   3.160765   4.109747   2.359462   3.156293
    27  H    3.443474   3.318699   4.353888   2.670959   3.296355
    28  H    4.726697   4.408106   4.741197   5.371727   5.603990
                   21         22         23         24         25
    21  H    0.000000
    22  H    1.818097   0.000000
    23  C    2.188354   2.150998   0.000000
    24  H    2.403340   3.054204   1.109547   0.000000
    25  H    2.702357   2.385940   1.101253   1.785008   0.000000
    26  O    4.116986   2.353391   3.578346   4.664835   3.662206
    27  H    4.332785   2.667169   3.284500   4.367654   3.277738
    28  H    6.256580   6.278976   5.268174   5.196225   6.221406
                   26         27         28
    26  O    0.000000
    27  H    0.958765   0.000000
    28  H    6.342505   6.050834   0.000000
 Symmetry turned off by external request.
 Stoichiometry    C6H14O7Si(2-)
 Framework group  C1[X(C6H14O7Si)]
 Deg. of freedom    78
 Full point group                 C1      NOp   1
 Rotational constants (GHZ):           0.8538332           0.5124690           0.3974916
 Standard basis: def2TZVPP (5D, 7F)
   641 basis functions,   970 primitive gaussians,   726 cartesian basis functions
    61 alpha electrons       61 beta electrons
       nuclear repulsion energy      1229.5339534633 Hartrees.
 NAtoms=   28 NActive=   28 NUniq=   28 SFac= 1.00D+00 NAtFMM=   60 NAOKFM=F Big=F
 Integral buffers will be    131072 words long.
 Raffenetti 2 integral format.
 Two-electron integral symmetry is turned off.
 Nuclear repulsion after empirical dispersion term =     1229.5153838437 Hartrees.
 One-electron integrals computed using PRISM.
   1 Symmetry operations used in ECPInt.
 ECPInt:  NShTT=   29161 NPrTT=   80163 LenC2=   26803 LenP2D=   55488.
 LDataN:  DoStor=T MaxTD1= 6 Len=  172
 NBasis=   641 RedAO= T EigKep=  2.33D-04  NBF=   641
 NBsUse=   641 1.00D-06 EigRej= -1.00D+00 NBFU=   641
 ExpMin= 7.01D-02 ExpMax= 4.48D+04 ExpMxC= 1.53D+03 IAcc=3 IRadAn=         5 AccDes= 0.00D+00
 Harris functional with IExCor= 4639 and IRadAn=       5 diagonalized for initial guess.
 HarFok:  IExCor= 4639 AccDes= 0.00D+00 IRadAn=         5 IDoV= 1 UseB2=F ITyADJ=14
 ICtDFT=  3500011 ScaDFX=  1.000000  1.000000  1.000000  1.000000
 FoFCou: FMM=F IPFlag=           0 FMFlag=      100000 FMFlg1=           0
         NFxFlg=           0 DoJE=T BraDBF=F KetDBF=T FulRan=T
         wScrn=  0.000000 ICntrl=       500 IOpCl=  0 I1Cent=   200000004 NGrid=           0
         NMat0=    1 NMatS0=      1 NMatT0=    0 NMatD0=    1 NMtDS0=    0 NMtDT0=    0
 Symmetry not used in FoFCou.
 Requested convergence on RMS density matrix=1.00D-08 within 128 cycles.
 Requested convergence on MAX density matrix=1.00D-06.
 Requested convergence on             energy=1.00D-06.
 No special actions if energy rises.
 Integral accuracy reduced to 1.0D-05 until final iterations.
 Initial convergence to 1.0D-05 achieved.  Increase integral accuracy.
 SCF Done:  E(RwB97XD) =  -1053.30201174     A.U. after   16 cycles
            NFock= 16  Conv=0.30D-08     -V/T= 2.0037
 DoSCS=F DFT=T ScalE2(SS,OS)=  1.000000  1.000000
 Range of M.O.s used for correlation:     1   641
 NBasis=   641 NAE=    61 NBE=    61 NFC=     0 NFV=     0
 NROrb=    641 NOA=    61 NOB=    61 NVA=   580 NVB=   580

 **** Warning!!: The largest alpha MO coefficient is  0.12122036D+02

   1 Symmetry operations used in ECPInt.
 ECPInt:  NShTT=   29161 NPrTT=   80163 LenC2=   26803 LenP2D=   55488.
 LDataN:  DoStor=T MaxTD1= 7 Len=  274
 Number of processors reduced to   2 by ecpmxn.
 Symmetrizing basis deriv contribution to polar:
 IMax=3 JMax=2 DiffMx= 0.00D+00
 G2DrvN: will do    29 centers at a time, making    1 passes.
 Calling FoFCou, ICntrl=  3107 FMM=F I1Cent=   0 AccDes= 0.00D+00.
 End of G2Drv F.D. properties file   721 does not exist.
 End of G2Drv F.D. properties file   722 does not exist.
 End of G2Drv F.D. properties file   788 does not exist.
          IDoAtm=1111111111111111111111111111
          Differentiating once with respect to nuclear coordinates.
 CalDSu exits because no D1Ps are significant.
          There are    87 degrees of freedom in the 1st order CPHF.  IDoFFX=6 NUNeed=     0.
     81 vectors produced by pass  0 Test12= 4.07D-14 1.15D-09 XBig12= 9.91D-02 3.53D-02.
 AX will form    44 AO Fock derivatives at one time.
     81 vectors produced by pass  1 Test12= 4.07D-14 1.15D-09 XBig12= 3.49D-02 1.80D-02.
     81 vectors produced by pass  2 Test12= 4.07D-14 1.15D-09 XBig12= 5.93D-04 2.79D-03.
     81 vectors produced by pass  3 Test12= 4.07D-14 1.15D-09 XBig12= 8.91D-06 4.47D-04.
     81 vectors produced by pass  4 Test12= 4.07D-14 1.15D-09 XBig12= 9.87D-08 3.49D-05.
     81 vectors produced by pass  5 Test12= 4.07D-14 1.15D-09 XBig12= 9.02D-10 2.98D-06.
     81 vectors produced by pass  6 Test12= 4.07D-14 1.15D-09 XBig12= 6.79D-12 2.35D-07.
     43 vectors produced by pass  7 Test12= 4.07D-14 1.15D-09 XBig12= 5.03D-14 2.40D-08.
      3 vectors produced by pass  8 Test12= 4.07D-14 1.15D-09 XBig12= 8.67D-16 2.41D-09.
 InvSVY:  IOpt=1 It=  1 EMax= 2.78D-16
 Solved reduced A of dimension   613 with    87 vectors.
 End of Minotr F.D. properties file   721 does not exist.
 End of Minotr F.D. properties file   722 does not exist.
 End of Minotr F.D. properties file   788 does not exist.

 **********************************************************************

            Population analysis using the SCF Density.

 **********************************************************************

 Alpha  occ. eigenvalues --  -66.00633 -19.01238 -18.95153 -18.92493 -18.92362
 Alpha  occ. eigenvalues --  -18.92001 -18.91880 -18.78721 -10.09922 -10.07267
 Alpha  occ. eigenvalues --  -10.04696 -10.04694 -10.03066 -10.03040  -5.11528
 Alpha  occ. eigenvalues --   -3.46290  -3.46010  -3.45889  -0.89726  -0.84795
 Alpha  occ. eigenvalues --   -0.82068  -0.81684  -0.77777  -0.76154  -0.60223
 Alpha  occ. eigenvalues --   -0.58470  -0.53960  -0.51730  -0.46191  -0.41926
 Alpha  occ. eigenvalues --   -0.39468  -0.36433  -0.34065  -0.32106  -0.30814
 Alpha  occ. eigenvalues --   -0.29331  -0.28608  -0.28157  -0.28031  -0.25500
 Alpha  occ. eigenvalues --   -0.24611  -0.23004  -0.22112  -0.20471  -0.19594
 Alpha  occ. eigenvalues --   -0.18903  -0.17167  -0.14757  -0.12246  -0.11187
 Alpha  occ. eigenvalues --   -0.10358  -0.10024  -0.09069  -0.08466  -0.07874
 Alpha  occ. eigenvalues --   -0.07715  -0.05133  -0.04955  -0.02901   0.04934
 Alpha  occ. eigenvalues --    0.05315
 Alpha virt. eigenvalues --    0.33447   0.35691   0.36436   0.37452   0.38608
 Alpha virt. eigenvalues --    0.39478   0.40424   0.40902   0.41705   0.41901
 Alpha virt. eigenvalues --    0.43311   0.43987   0.45897   0.46405   0.46876
 Alpha virt. eigenvalues --    0.47527   0.48322   0.49158   0.49754   0.51030
 Alpha virt. eigenvalues --    0.52136   0.52409   0.53412   0.54181   0.54676
 Alpha virt. eigenvalues --    0.55741   0.55816   0.57018   0.58699   0.60711
 Alpha virt. eigenvalues --    0.61194   0.61937   0.62969   0.64423   0.65011
 Alpha virt. eigenvalues --    0.65471   0.65994   0.66331   0.67566   0.68405
 Alpha virt. eigenvalues --    0.69624   0.70099   0.70381   0.71366   0.71576
 Alpha virt. eigenvalues --    0.72858   0.73146   0.73936   0.74160   0.74609
 Alpha virt. eigenvalues --    0.74917   0.75624   0.76256   0.76637   0.77213
 Alpha virt. eigenvalues --    0.77763   0.78610   0.78953   0.79548   0.80163
 Alpha virt. eigenvalues --    0.80630   0.81715   0.81947   0.82026   0.82973
 Alpha virt. eigenvalues --    0.84159   0.84623   0.85947   0.86907   0.87568
 Alpha virt. eigenvalues --    0.88558   0.89531   0.90195   0.92179   0.92608
 Alpha virt. eigenvalues --    0.93841   0.94351   0.95841   0.97219   0.97798
 Alpha virt. eigenvalues --    0.98819   1.00281   1.00793   1.02816   1.03636
 Alpha virt. eigenvalues --    1.04179   1.05601   1.06659   1.07784   1.08214
 Alpha virt. eigenvalues --    1.08961   1.09759   1.11036   1.11654   1.12412
 Alpha virt. eigenvalues --    1.14255   1.14472   1.14900   1.16875   1.17565
 Alpha virt. eigenvalues --    1.17875   1.18864   1.19227   1.19728   1.20096
 Alpha virt. eigenvalues --    1.22587   1.23747   1.24273   1.24759   1.25187
 Alpha virt. eigenvalues --    1.26281   1.28441   1.29005   1.30784   1.31260
 Alpha virt. eigenvalues --    1.31807   1.32278   1.32760   1.33746   1.34962
 Alpha virt. eigenvalues --    1.36192   1.36610   1.37820   1.38014   1.39593
 Alpha virt. eigenvalues --    1.40210   1.40811   1.41595   1.41895   1.43078
 Alpha virt. eigenvalues --    1.43802   1.45659   1.46474   1.46773   1.47889
 Alpha virt. eigenvalues --    1.48354   1.49767   1.50182   1.50722   1.51337
 Alpha virt. eigenvalues --    1.51992   1.53391   1.54998   1.55837   1.56787
 Alpha virt. eigenvalues --    1.57253   1.57396   1.59121   1.59989   1.60400
 Alpha virt. eigenvalues --    1.61271   1.63015   1.65026   1.65709   1.65917
 Alpha virt. eigenvalues --    1.67343   1.68397   1.69152   1.70242   1.71280
 Alpha virt. eigenvalues --    1.71767   1.72781   1.73225   1.73927   1.74201
 Alpha virt. eigenvalues --    1.75589   1.76782   1.78014   1.78520   1.79362
 Alpha virt. eigenvalues --    1.79706   1.80176   1.82079   1.82423   1.83779
 Alpha virt. eigenvalues --    1.85808   1.86955   1.88141   1.90305   1.90444
 Alpha virt. eigenvalues --    1.91838   1.93567   1.95517   1.96100   1.97554
 Alpha virt. eigenvalues --    1.99228   1.99571   2.01166   2.03640   2.05416
 Alpha virt. eigenvalues --    2.05817   2.07891   2.11819   2.14378   2.15433
 Alpha virt. eigenvalues --    2.17748   2.20121   2.20277   2.21024   2.22221
 Alpha virt. eigenvalues --    2.23727   2.25359   2.26457   2.26782   2.28966
 Alpha virt. eigenvalues --    2.29614   2.30357   2.32488   2.34030   2.35478
 Alpha virt. eigenvalues --    2.37039   2.37843   2.39409   2.40633   2.40953
 Alpha virt. eigenvalues --    2.41447   2.43869   2.44841   2.47301   2.47720
 Alpha virt. eigenvalues --    2.48402   2.48966   2.51618   2.52271   2.54163
 Alpha virt. eigenvalues --    2.54762   2.55727   2.57960   2.60688   2.61342
 Alpha virt. eigenvalues --    2.62233   2.65093   2.67071   2.67706   2.69291
 Alpha virt. eigenvalues --    2.70717   2.72186   2.73257   2.75534   2.77586
 Alpha virt. eigenvalues --    2.79185   2.80507   2.84085   2.86171   2.87556
 Alpha virt. eigenvalues --    2.88120   2.90037   2.90211   2.91783   2.95329
 Alpha virt. eigenvalues --    2.96398   2.98078   2.99125   2.99472   2.99972
 Alpha virt. eigenvalues --    3.01334   3.01470   3.02877   3.04162   3.05759
 Alpha virt. eigenvalues --    3.05965   3.09615   3.13195   3.13894   3.15533
 Alpha virt. eigenvalues --    3.16999   3.18418   3.19518   3.20002   3.20978
 Alpha virt. eigenvalues --    3.21208   3.21790   3.23112   3.23347   3.24188
 Alpha virt. eigenvalues --    3.24477   3.26089   3.28224   3.29618   3.30028
 Alpha virt. eigenvalues --    3.31369   3.32475   3.33026   3.33650   3.34701
 Alpha virt. eigenvalues --    3.35654   3.35962   3.36952   3.37723   3.38540
 Alpha virt. eigenvalues --    3.39550   3.41508   3.42895   3.43852   3.44266
 Alpha virt. eigenvalues --    3.45273   3.46439   3.47132   3.47363   3.48751
 Alpha virt. eigenvalues --    3.49770   3.51258   3.51887   3.52020   3.52563
 Alpha virt. eigenvalues --    3.54581   3.55085   3.57674   3.57956   3.58459
 Alpha virt. eigenvalues --    3.59200   3.59821   3.61535   3.63259   3.63778
 Alpha virt. eigenvalues --    3.65168   3.67704   3.69491   3.70873   3.71586
 Alpha virt. eigenvalues --    3.72289   3.73773   3.75476   3.75882   3.78126
 Alpha virt. eigenvalues --    3.79636   3.81040   3.81172   3.83004   3.84028
 Alpha virt. eigenvalues --    3.85852   3.86047   3.88071   3.89715   3.90315
 Alpha virt. eigenvalues --    3.91374   3.91931   3.93208   3.93813   3.94242
 Alpha virt. eigenvalues --    3.95701   3.96501   3.98549   3.99280   4.00707
 Alpha virt. eigenvalues --    4.01816   4.02774   4.03596   4.04599   4.05591
 Alpha virt. eigenvalues --    4.05917   4.06719   4.07780   4.08305   4.11630
 Alpha virt. eigenvalues --    4.12146   4.12671   4.13073   4.13607   4.14444
 Alpha virt. eigenvalues --    4.14780   4.15571   4.17938   4.19177   4.19944
 Alpha virt. eigenvalues --    4.20836   4.21172   4.22746   4.22857   4.27756
 Alpha virt. eigenvalues --    4.28034   4.29132   4.29893   4.31127   4.31573
 Alpha virt. eigenvalues --    4.32539   4.34611   4.35147   4.37128   4.37338
 Alpha virt. eigenvalues --    4.39320   4.40658   4.41636   4.42216   4.43615
 Alpha virt. eigenvalues --    4.46482   4.46977   4.47530   4.48307   4.49007
 Alpha virt. eigenvalues --    4.50078   4.50336   4.50745   4.54088   4.55443
 Alpha virt. eigenvalues --    4.55832   4.56823   4.57890   4.58745   4.59980
 Alpha virt. eigenvalues --    4.60241   4.62236   4.63237   4.64895   4.66239
 Alpha virt. eigenvalues --    4.66830   4.69082   4.70679   4.72009   4.73847
 Alpha virt. eigenvalues --    4.74641   4.75624   4.76559   4.80960   4.84205
 Alpha virt. eigenvalues --    4.87037   4.89289   4.90691   4.92017   4.93513
 Alpha virt. eigenvalues --    4.93819   4.95408   4.97747   4.97913   4.99483
 Alpha virt. eigenvalues --    5.01759   5.04249   5.05081   5.06380   5.09259
 Alpha virt. eigenvalues --    5.11344   5.12487   5.12697   5.13032   5.13456
 Alpha virt. eigenvalues --    5.14970   5.16749   5.18635   5.19092   5.20958
 Alpha virt. eigenvalues --    5.22511   5.23474   5.24496   5.26557   5.28276
 Alpha virt. eigenvalues --    5.28858   5.29692   5.31381   5.34700   5.36655
 Alpha virt. eigenvalues --    5.40683   5.41345   5.42813   5.43757   5.45128
 Alpha virt. eigenvalues --    5.45604   5.46603   5.49653   5.52970   5.53293
 Alpha virt. eigenvalues --    5.54312   5.56654   5.57706   5.60776   5.62666
 Alpha virt. eigenvalues --    5.64450   5.65530   5.66168   5.67778   5.69165
 Alpha virt. eigenvalues --    5.69828   5.70797   5.71500   5.72728   5.75211
 Alpha virt. eigenvalues --    5.75902   5.80156   5.80628   5.82876   5.83307
 Alpha virt. eigenvalues --    5.84354   5.85844   5.86406   5.86681   5.87490
 Alpha virt. eigenvalues --    5.89713   5.91712   5.92877   5.94430   5.96235
 Alpha virt. eigenvalues --    5.96712   5.97444   5.98286   5.98542   6.00247
 Alpha virt. eigenvalues --    6.01234   6.02843   6.03479   6.05886   6.07844
 Alpha virt. eigenvalues --    6.09523   6.11123   6.18991   6.20597   6.24799
 Alpha virt. eigenvalues --    6.34908   6.35346   6.37061   6.38496   6.40622
 Alpha virt. eigenvalues --    6.43115   6.44542   6.48563   6.49266   6.49649
 Alpha virt. eigenvalues --    6.52270   6.53456   6.54270   6.55308   6.61078
 Alpha virt. eigenvalues --    6.65624   6.73677   6.80532   6.89844   6.93006
 Alpha virt. eigenvalues --    6.96311   6.97672   6.98195   7.01293   7.02227
 Alpha virt. eigenvalues --    7.04149   7.04873   7.07326   7.08857   7.11637
 Alpha virt. eigenvalues --    7.12032   7.15421   7.19347   7.19483   7.21303
 Alpha virt. eigenvalues --    7.22438   7.23407   7.23634   7.28206   7.30577
 Alpha virt. eigenvalues --    7.34216   7.39898   7.40171   7.40882   7.46199
 Alpha virt. eigenvalues --    7.48121   7.49747   7.50943   7.55768   7.58199
 Alpha virt. eigenvalues --    7.65018   7.65742   7.66861   7.68017   7.75713
 Alpha virt. eigenvalues --    7.83343   7.85433   7.91550   7.95994   7.96165
 Alpha virt. eigenvalues --    8.02008  12.35682  23.61507  23.65693  23.68441
 Alpha virt. eigenvalues --   23.77496  23.79129  23.82176  44.09059  44.30959
 Alpha virt. eigenvalues --   44.51662  44.56842  44.61899  44.71440  44.77257
          Condensed to atoms (all electrons):
               1          2          3          4          5          6
     1  Si  11.659059   0.366836   0.378870   0.365044   0.362811   0.002953
     2  O    0.366836   8.054163   0.001170  -0.054101  -0.036294  -0.000191
     3  O    0.378870   0.001170   8.025842  -0.036601  -0.034331  -0.000002
     4  O    0.365044  -0.054101  -0.036601   8.073597  -0.032443  -0.000027
     5  O    0.362811  -0.036294  -0.034331  -0.032443   8.079152  -0.028140
     6  O    0.002953  -0.000191  -0.000002  -0.000027  -0.028140   7.963947
     7  O    0.372055  -0.035761  -0.051142   0.002949  -0.038888  -0.000051
     8  C   -0.007693   0.000612  -0.000570   0.000807  -0.069011   0.316761
     9  H    0.000364   0.000091  -0.000001  -0.000025   0.006868  -0.045559
    10  H    0.000171  -0.000066  -0.000031   0.000087   0.005476  -0.056917
    11  C   -0.060555  -0.015289  -0.003645  -0.006689   0.270040  -0.055929
    12  H   -0.009709   0.022830  -0.000451  -0.000183  -0.054257   0.004034
    13  H   -0.013329   0.000917   0.001346   0.016538  -0.045122   0.005608
    14  C   -0.029922  -0.117754  -0.000793  -0.003560   0.004360  -0.000436
    15  H   -0.001431   0.014226   0.000090  -0.000037   0.002362   0.001107
    16  H   -0.000069   0.007186   0.000326   0.000113  -0.000616   0.000006
    17  C   -0.080555   0.338001  -0.000745   0.003391  -0.005926  -0.000284
    18  H   -0.005848  -0.044017  -0.000091  -0.000607  -0.000365  -0.000021
    19  H    0.008315  -0.035928   0.000343   0.000537  -0.000349   0.000001
    20  C   -0.074508   0.003395  -0.086674   0.337858  -0.003088   0.000006
    21  H   -0.001421  -0.000696   0.006175  -0.045482  -0.000307   0.000000
    22  H    0.005779   0.001231   0.005685  -0.033998  -0.000311  -0.000000
    23  C   -0.039009  -0.004169   0.347155  -0.120852   0.001191  -0.000007
    24  H   -0.008820  -0.000006  -0.066000   0.015521   0.003239  -0.000002
    25  H   -0.000150   0.000126  -0.040727   0.007303  -0.000602  -0.000000
    26  O    0.117813  -0.008518  -0.013161  -0.006517   0.000201  -0.000000
    27  H   -0.072428   0.003267   0.010473   0.003231  -0.000186   0.000000
    28  H   -0.000298  -0.000425  -0.000071   0.000119   0.051770   0.343299
               7          8          9         10         11         12
     1  Si   0.372055  -0.007693   0.000364   0.000171  -0.060555  -0.009709
     2  O   -0.035761   0.000612   0.000091  -0.000066  -0.015289   0.022830
     3  O   -0.051142  -0.000570  -0.000001  -0.000031  -0.003645  -0.000451
     4  O    0.002949   0.000807  -0.000025   0.000087  -0.006689  -0.000183
     5  O   -0.038888  -0.069011   0.006868   0.005476   0.270040  -0.054257
     6  O   -0.000051   0.316761  -0.045559  -0.056917  -0.055929   0.004034
     7  O    8.049110  -0.000728   0.000010   0.000075  -0.003839   0.001598
     8  C   -0.000728   4.732103   0.354670   0.394253   0.336769  -0.059369
     9  H    0.000010   0.354670   0.758971  -0.073187  -0.015860  -0.002012
    10  H    0.000075   0.394253  -0.073187   0.772300  -0.058541   0.014755
    11  C   -0.003839   0.336769  -0.015860  -0.058541   4.799389   0.385748
    12  H    0.001598  -0.059369  -0.002012   0.014755   0.385748   0.715730
    13  H   -0.000601  -0.038184   0.000051  -0.007034   0.373070  -0.058599
    14  C    0.352970   0.000146   0.000028   0.000030   0.000682   0.000750
    15  H   -0.071132   0.000409  -0.000043   0.000004   0.000808   0.000419
    16  H   -0.040235  -0.000044   0.000001   0.000002   0.000071   0.000018
    17  C   -0.091854   0.000035   0.000036  -0.000026   0.002438   0.001738
    18  H    0.007036  -0.000103   0.000011   0.000003   0.001451  -0.000903
    19  H    0.005768  -0.000004   0.000000  -0.000000  -0.000431   0.000345
    20  C    0.000802   0.000014   0.000003   0.000019   0.001795  -0.000104
    21  H   -0.000068  -0.000116   0.000001  -0.000003   0.000789  -0.000005
    22  H    0.000197   0.000001  -0.000000   0.000001  -0.000177  -0.000004
    23  C   -0.000996   0.000317  -0.000033  -0.000117   0.001629  -0.000484
    24  H    0.000154   0.000148   0.000001   0.000142   0.000710   0.000123
    25  H    0.000295  -0.000028   0.000000   0.000000  -0.000124  -0.000005
    26  O   -0.010310   0.000000   0.000000  -0.000000   0.000537   0.000054
    27  H    0.009496   0.000005  -0.000000  -0.000000  -0.000351  -0.000015
    28  H    0.001823  -0.065734   0.012366  -0.001223  -0.020041   0.000852
              13         14         15         16         17         18
     1  Si  -0.013329  -0.029922  -0.001431  -0.000069  -0.080555  -0.005848
     2  O    0.000917  -0.117754   0.014226   0.007186   0.338001  -0.044017
     3  O    0.001346  -0.000793   0.000090   0.000326  -0.000745  -0.000091
     4  O    0.016538  -0.003560  -0.000037   0.000113   0.003391  -0.000607
     5  O   -0.045122   0.004360   0.002362  -0.000616  -0.005926  -0.000365
     6  O    0.005608  -0.000436   0.001107   0.000006  -0.000284  -0.000021
     7  O   -0.000601   0.352970  -0.071132  -0.040235  -0.091854   0.007036
     8  C   -0.038184   0.000146   0.000409  -0.000044   0.000035  -0.000103
     9  H    0.000051   0.000028  -0.000043   0.000001   0.000036   0.000011
    10  H   -0.007034   0.000030   0.000004   0.000002  -0.000026   0.000003
    11  C    0.373070   0.000682   0.000808   0.000071   0.002438   0.001451
    12  H   -0.058599   0.000750   0.000419   0.000018   0.001738  -0.000903
    13  H    0.747720  -0.000118   0.000150  -0.000003  -0.000423  -0.000030
    14  C   -0.000118   4.992221   0.343874   0.335994   0.012065   0.017184
    15  H    0.000150   0.343874   0.904308  -0.100201  -0.056012  -0.025230
    16  H   -0.000003   0.335994  -0.100201   0.808264   0.002812   0.011932
    17  C   -0.000423   0.012065  -0.056012   0.002812   5.372169   0.250517
    18  H   -0.000030   0.017184  -0.025230   0.011932   0.250517   0.882664
    19  H    0.000027  -0.004083   0.018370  -0.016778   0.214142  -0.057262
    20  C    0.000298   0.006590  -0.000123   0.000092  -0.018900   0.000247
    21  H   -0.000516  -0.000155  -0.000001   0.000001   0.000287  -0.000011
    22  H    0.000232  -0.002536  -0.000023   0.000019   0.009615  -0.000082
    23  C    0.001558  -0.005745   0.000184   0.000108   0.007252  -0.000178
    24  H    0.000025   0.000125  -0.000018   0.000001  -0.000114  -0.000002
    25  H    0.000058   0.000061   0.000003  -0.000009   0.000153   0.000001
    26  O    0.000026   0.039275  -0.000028  -0.001002  -0.101767   0.002634
    27  H   -0.000012  -0.002858   0.000365   0.000543   0.006284  -0.000480
    28  H    0.002973   0.001205  -0.002493   0.000068   0.000507   0.000036
              19         20         21         22         23         24
     1  Si   0.008315  -0.074508  -0.001421   0.005779  -0.039009  -0.008820
     2  O   -0.035928   0.003395  -0.000696   0.001231  -0.004169  -0.000006
     3  O    0.000343  -0.086674   0.006175   0.005685   0.347155  -0.066000
     4  O    0.000537   0.337858  -0.045482  -0.033998  -0.120852   0.015521
     5  O   -0.000349  -0.003088  -0.000307  -0.000311   0.001191   0.003239
     6  O    0.000001   0.000006   0.000000  -0.000000  -0.000007  -0.000002
     7  O    0.005768   0.000802  -0.000068   0.000197  -0.000996   0.000154
     8  C   -0.000004   0.000014  -0.000116   0.000001   0.000317   0.000148
     9  H    0.000000   0.000003   0.000001  -0.000000  -0.000033   0.000001
    10  H   -0.000000   0.000019  -0.000003   0.000001  -0.000117   0.000142
    11  C   -0.000431   0.001795   0.000789  -0.000177   0.001629   0.000710
    12  H    0.000345  -0.000104  -0.000005  -0.000004  -0.000484   0.000123
    13  H    0.000027   0.000298  -0.000516   0.000232   0.001558   0.000025
    14  C   -0.004083   0.006590  -0.000155  -0.002536  -0.005745   0.000125
    15  H    0.018370  -0.000123  -0.000001  -0.000023   0.000184  -0.000018
    16  H   -0.016778   0.000092   0.000001   0.000019   0.000108   0.000001
    17  C    0.214142  -0.018900   0.000287   0.009615   0.007252  -0.000114
    18  H   -0.057262   0.000247  -0.000011  -0.000082  -0.000178  -0.000002
    19  H    0.758584   0.010037  -0.000076  -0.005783  -0.003200  -0.000028
    20  C    0.010037   5.406182   0.238420   0.211244  -0.018386  -0.045784
    21  H   -0.000076   0.238420   0.898704  -0.059967   0.018934  -0.027770
    22  H   -0.005783   0.211244  -0.059967   0.758929  -0.000758   0.019684
    23  C   -0.003200  -0.018386   0.018934  -0.000758   5.023747   0.340721
    24  H   -0.000028  -0.045784  -0.027770   0.019684   0.340721   0.903984
    25  H    0.000008  -0.000315   0.013133  -0.017008   0.340152  -0.104203
    26  O    0.097838  -0.117338   0.002606   0.100635   0.047056   0.000109
    27  H   -0.007235   0.013591  -0.000525  -0.010111  -0.005218   0.000299
    28  H   -0.000039   0.000034   0.000004   0.000004  -0.000112   0.000021
              25         26         27         28
     1  Si  -0.000150   0.117813  -0.072428  -0.000298
     2  O    0.000126  -0.008518   0.003267  -0.000425
     3  O   -0.040727  -0.013161   0.010473  -0.000071
     4  O    0.007303  -0.006517   0.003231   0.000119
     5  O   -0.000602   0.000201  -0.000186   0.051770
     6  O   -0.000000  -0.000000   0.000000   0.343299
     7  O    0.000295  -0.010310   0.009496   0.001823
     8  C   -0.000028   0.000000   0.000005  -0.065734
     9  H    0.000000   0.000000  -0.000000   0.012366
    10  H    0.000000  -0.000000  -0.000000  -0.001223
    11  C   -0.000124   0.000537  -0.000351  -0.020041
    12  H   -0.000005   0.000054  -0.000015   0.000852
    13  H    0.000058   0.000026  -0.000012   0.002973
    14  C    0.000061   0.039275  -0.002858   0.001205
    15  H    0.000003  -0.000028   0.000365  -0.002493
    16  H   -0.000009  -0.001002   0.000543   0.000068
    17  C    0.000153  -0.101767   0.006284   0.000507
    18  H    0.000001   0.002634  -0.000480   0.000036
    19  H    0.000008   0.097838  -0.007235  -0.000039
    20  C   -0.000315  -0.117338   0.013591   0.000034
    21  H    0.013133   0.002606  -0.000525   0.000004
    22  H   -0.017008   0.100635  -0.010111   0.000004
    23  C    0.340152   0.047056  -0.005218  -0.000112
    24  H   -0.104203   0.000109   0.000299   0.000021
    25  H    0.808491  -0.001052   0.001519  -0.000000
    26  O   -0.001052   8.470989   0.272093   0.000004
    27  H    0.001519   0.272093   0.655853  -0.000012
    28  H   -0.000000   0.000004  -0.000012   0.445072
 Mulliken charges:
               1
     1  Si   0.765674
     2  O   -0.460833
     3  O   -0.442438
     4  O   -0.485972
     5  O   -0.437234
     6  O   -0.450157
     7  O   -0.458731
     8  C    0.104533
     9  H    0.003246
    10  H    0.009828
    11  C    0.065546
    12  H    0.037107
    13  H    0.013374
    14  C    0.060399
    15  H   -0.029905
    16  H   -0.008601
    17  C    0.135165
    18  H   -0.038486
    19  H    0.016879
    20  C    0.134595
    21  H   -0.041936
    22  H    0.017502
    23  C    0.069258
    24  H   -0.032261
    25  H   -0.007079
    26  O   -0.892176
    27  H    0.122410
    28  H    0.230292
 Sum of Mulliken charges =  -2.00000
 Mulliken charges with hydrogens summed into heavy atoms:
               1
     1  Si   0.765674
     2  O   -0.460833
     3  O   -0.442438
     4  O   -0.485972
     5  O   -0.437234
     6  O   -0.219865
     7  O   -0.458731
     8  C    0.117607
    11  C    0.116027
    14  C    0.021894
    17  C    0.113558
    20  C    0.110162
    23  C    0.029918
    26  O   -0.769766
 APT charges:
               1
     1  Si   0.123871
     2  O   -0.377762
     3  O   -0.347188
     4  O   -0.391644
     5  O   -0.427259
     6  O   -0.000999
     7  O   -0.360896
     8  C   -0.885923
     9  H    0.578800
    10  H    0.348490
    11  C   -0.218815
    12  H    0.162422
    13  H    0.221081
    14  C   -0.607123
    15  H    0.250697
    16  H    0.448281
    17  C   -0.443612
    18  H    0.364247
    19  H    0.236585
    20  C   -0.450073
    21  H    0.377715
    22  H    0.232844
    23  C   -0.625688
    24  H    0.279777
    25  H    0.457201
    26  O   -0.732001
    27  H   -0.105661
    28  H   -0.107366
 Sum of APT charges =  -2.00000
 APT charges with hydrogens summed into heavy atoms:
               1
     1  Si   0.123871
     2  O   -0.377762
     3  O   -0.347188
     4  O   -0.391644
     5  O   -0.427259
     6  O   -0.108365
     7  O   -0.360896
     8  C    0.041368
    11  C    0.164688
    14  C    0.091854
    17  C    0.157221
    20  C    0.160486
    23  C    0.111289
    26  O   -0.837663
 Electronic spatial extent (au):  <R**2>=           3127.4427
 Charge=             -2.0000 electrons
 Dipole moment (field-independent basis, Debye):
    X=             -8.7670    Y=             -2.5745    Z=              0.2606  Tot=              9.1409
 Quadrupole moment (field-independent basis, Debye-Ang):
   XX=           -165.7508   YY=           -112.2208   ZZ=           -111.5346
   XY=             -4.6345   XZ=              8.8628   YZ=              1.3201
 Traceless Quadrupole moment (field-independent basis, Debye-Ang):
   XX=            -35.9154   YY=             17.6146   ZZ=             18.3008
   XY=             -4.6345   XZ=              8.8628   YZ=              1.3201
 Octapole moment (field-independent basis, Debye-Ang**2):
  XXX=            -68.1969  YYY=             -1.8027  ZZZ=              2.2562  XYY=            -17.4594
  XXY=            -39.4298  XXZ=              4.2942  XZZ=            -11.7508  YZZ=              0.7506
  YYZ=              2.2592  XYZ=              4.7253
 Hexadecapole moment (field-independent basis, Debye-Ang**3):
 XXXX=          -3359.1219 YYYY=          -1526.2090 ZZZZ=           -540.3310 XXXY=            -70.3533
 XXXZ=            140.2169 YYYX=             10.0530 YYYZ=              4.7694 ZZZX=            -12.4026
 ZZZY=              3.9258 XXYY=           -683.0276 XXZZ=           -491.8688 YYZZ=           -350.2572
 XXYZ=             12.8158 YYXZ=              0.3510 ZZXY=              3.1281
 N-N= 1.229515383844D+03 E-N=-4.982470897026D+03  KE= 1.049467268758D+03
  Exact polarizability:       0.000       0.000       0.000       0.000       0.000       0.000
 Approx polarizability:     135.478      -2.384     145.421       3.094       1.514     132.131
   1 Symmetry operations used in ECPInt.
 ECPInt:  NShTT=   29161 NPrTT=   80163 LenC2=   26803 LenP2D=   55488.
 LDataN:  DoStor=T MaxTD1= 8 Len=  415
 Calling FoFJK, ICntrl=    100127 FMM=F ISym2X=0 I1Cent= 0 IOpClX= 0 NMat=1 NMatS=1 NMatT=0.
 -------------------------------------------------------------------
 Center     Atomic                   Forces (Hartrees/Bohr)
 Number     Number              X              Y              Z
 -------------------------------------------------------------------
      1       14           0.000002984    0.000000176   -0.000000283
      2        8          -0.000000656   -0.000000575   -0.000000466
      3        8           0.000001369    0.000001802   -0.000000611
      4        8          -0.000000196   -0.000001959   -0.000000163
      5        8          -0.000000534   -0.000000244    0.000000074
      6        8          -0.000000340   -0.000000599    0.000002040
      7        8           0.000000171    0.000002273    0.000000294
      8        6           0.000000020   -0.000001467    0.000001426
      9        1          -0.000000077   -0.000001697    0.000003108
     10        1           0.000000605   -0.000000890    0.000002739
     11        6          -0.000000105   -0.000000231    0.000001919
     12        1          -0.000000910   -0.000001516    0.000001303
     13        1          -0.000000735   -0.000001431    0.000001530
     14        6          -0.000000457   -0.000000084   -0.000000561
     15        1          -0.000000498    0.000000081   -0.000000919
     16        1          -0.000000280    0.000000896   -0.000002166
     17        6          -0.000000466    0.000000278   -0.000001524
     18        1          -0.000001820   -0.000000661   -0.000001666
     19        1          -0.000004562    0.000001003   -0.000002676
     20        6           0.000000192   -0.000000229   -0.000001093
     21        1           0.000000308    0.000000574    0.000000534
     22        1           0.000000338    0.000001387   -0.000000468
     23        6           0.000001577    0.000000549    0.000000540
     24        1           0.000001792    0.000001236    0.000000493
     25        1           0.000001561    0.000001506   -0.000000140
     26        8          -0.000001516   -0.000000679   -0.000002496
     27        1           0.000000847    0.000001558   -0.000002419
     28        1           0.000001387   -0.000001058    0.000001650
 -------------------------------------------------------------------
 Cartesian Forces:  Max     0.000004562 RMS     0.000001357
 IRC-IRC-IRC-IRC-IRC-IRC-IRC-IRC-IRC-IRC-IRC-IRC-IRC-IRC-IRC-IRC-IRC-IRC
          ******** Start new reaction path calculation ********
 Supplied step size of   0.1000 bohr.
    Integration on MW PES will use step size of   0.3317 sqrt(amu)*bohr.
 Point Number:   0          Path Number:   1
 Calculating another point on the path.
 IRC-IRC-IRC-IRC-IRC-IRC-IRC-IRC-IRC-IRC-IRC-IRC-IRC-IRC-IRC-IRC-IRC-IRC
                          Input orientation:                          
 ---------------------------------------------------------------------
 Center     Atomic      Atomic             Coordinates (Angstroms)
 Number     Number       Type             X           Y           Z
 ---------------------------------------------------------------------
      1         14           0        0.340251   -0.028739    0.074308
      2          8           0        0.188291    1.126202   -1.207516
      3          8           0        1.073423   -0.996238    1.308830
      4          8           0        0.737049   -1.263608   -1.085167
      5          8           0       -1.336057   -0.440802    0.290079
      6          8           0       -3.823100    0.333231    0.573706
      7          8           0        0.417424    1.286164    1.210899
      8          6           0       -3.577681   -0.783830   -0.254724
      9          1           0       -4.305469   -0.778979   -1.074494
     10          1           0       -3.713345   -1.713459    0.319491
     11          6           0       -2.151949   -0.723424   -0.790662
     12          1           0       -2.075741    0.063150   -1.555080
     13          1           0       -1.889913   -1.676517   -1.273185
     14          6           0        0.268841    2.535286    0.635975
     15          1           0       -0.781171    2.886058    0.713914
     16          1           0        0.905264    3.274304    1.147726
     17          6           0        0.664038    2.380348   -0.831900
     18          1           0        0.212074    3.166961   -1.458210
     19          1           0        1.761208    2.387928   -0.912394
     20          6           0        1.797311   -2.050476   -0.642415
     21          1           0        1.791986   -3.028098   -1.153095
     22          1           0        2.745438   -1.518135   -0.809864
     23          6           0        1.580279   -2.203806    0.863026
     24          1           0        0.866988   -3.028755    1.066940
     25          1           0        2.522835   -2.440001    1.380800
     26          8           0        3.324512    0.715286   -0.324372
     27          1           0        3.118203    0.689722    0.612178
     28          1           0       -2.935387    0.520113    0.921557
 ---------------------------------------------------------------------
                    Distance matrix (angstroms):
                    1          2          3          4          5
     1  Si   0.000000
     2  O    1.732066   0.000000
     3  O    1.731370   3.408843   0.000000
     4  O    1.739750   2.455056   2.432253   0.000000
     5  O    1.739644   2.649892   2.674314   2.620320   0.000000
     6  O    4.208790   4.460136   5.126776   5.108494   2.620106
     7  O    1.739760   2.434506   2.376822   3.446073   2.627740
     8  C    4.003576   4.328808   4.911475   4.420036   2.332243
     9  H    4.844102   4.882754   5.887267   5.065764   3.285397
    10  H    4.396594   5.061441   4.940278   4.688436   2.696668
    11  C    2.727970   3.011910   3.858150   2.953784   1.383314
    12  H    2.915539   2.525217   4.386515   3.145297   2.050783
    13  H    3.082944   3.489768   3.988852   2.665853   2.068222
    14  C    2.625794   2.321738   3.683986   4.196802   3.398888
    15  H    3.187903   2.780079   4.343462   4.770892   3.399343
    16  H    3.518744   3.267348   4.276887   5.060312   4.422792
    17  C    2.594176   1.392949   4.018912   3.653477   3.635671
    18  H    3.546483   2.056237   5.072540   4.477132   4.297579
    19  H    2.972033   2.037920   4.106028   3.796376   4.363566
    20  C    2.593094   3.605492   2.332979   1.392604   3.643980
    21  H    3.551085   4.453426   3.271982   2.056922   4.308306
    22  H    2.963948   3.699953   2.748977   2.043087   4.362238
    23  C    2.625007   4.160977   1.383425   2.321737   3.455643
    24  H    3.203571   4.785128   2.057244   2.786430   3.486319
    25  H    3.504965   4.986711   2.047053   3.264035   4.480794
    26  O    3.101344   3.284004   3.265588   3.345115   4.840970
    27  H    2.919333   3.476520   2.740239   3.516586   4.606763
    28  H    3.427664   3.828532   4.303471   4.549218   1.969766
                    6          7          8          9         10
     6  O    0.000000
     7  O    4.392737   0.000000
     8  C    1.412216   4.732208   0.000000
     9  H    2.046034   5.638578   1.096230   0.000000
    10  H    2.065336   5.182239   1.101062   1.779623   0.000000
    11  C    2.402242   3.827057   1.524333   2.172855   2.156517
    12  H    2.767298   3.919474   2.159658   2.431426   3.058120
    13  H    3.344743   4.502439   2.163958   2.584563   2.421339
    14  C    4.647247   1.383084   5.158063   5.902065   5.831793
    15  H    3.973653   2.059923   4.714531   5.389952   5.468891
    16  H    5.597932   2.048092   6.207425   6.965566   6.848015
    17  C    5.128434   2.330469   5.323283   5.893743   6.102987
    18  H    5.333043   3.271653   5.605299   6.010481   6.510579
    19  H    6.133088   2.743722   6.244703   6.845447   6.950514
    20  C    6.224953   4.058575   5.535815   6.248786   5.604121
    21  H    6.768277   5.107910   5.888729   6.499513   5.848542
    22  H    6.963298   4.167401   6.389775   7.094482   6.559685
    23  C    5.976351   3.695015   5.465369   6.358157   5.343999
    24  H    5.791646   4.340663   5.151851   6.033370   4.823705
    25  H    6.972311   4.283215   6.529483   7.444005   6.367431
    26  O    7.213936   3.336783   7.063460   7.811026   7.472937
    27  H    6.950558   2.829915   6.910698   7.753248   7.247827
    28  H    0.971576   3.451361   1.869878   2.747541   2.440604
                   11         12         13         14         15
    11  C    0.000000
    12  H    1.099472   0.000000
    13  H    1.099945   1.772128   0.000000
    14  C    4.302872   4.050833   5.103371   0.000000
    15  H    4.143807   3.846174   5.098525   1.109793   0.000000
    16  H    5.393119   5.148113   6.179357   1.101395   1.784094
    17  C    4.191048   3.660436   4.814100   1.528019   2.175756
    18  H    4.601013   3.857089   5.283169   2.188115   2.404905
    19  H    5.000812   4.532088   5.475452   2.155532   3.058872
    20  C    4.168897   4.505653   3.759434   4.999972   5.732152
    21  H    4.582303   4.967566   3.923974   6.039204   6.714469
    22  H    4.961485   5.128312   4.661141   4.965301   5.844295
    23  C    4.342320   4.934857   4.108974   4.922440   5.612966
    24  H    4.228383   5.009443   3.860730   5.612670   6.150290
    25  H    5.432816   6.002671   5.205660   5.512598   6.303022
    26  O    5.681455   5.576976   5.814740   3.683992   4.758878
    27  H    5.633777   5.662743   5.851061   3.394928   4.476534
    28  H    2.256513   2.661115   3.276445   3.795992   3.206471
                   16         17         18         19         20
    16  H    0.000000
    17  C    2.185468   0.000000
    18  H    2.698693   1.102405   0.000000
    19  H    2.400499   1.100144   1.817862   0.000000
    20  C    5.688026   4.577381   5.513633   4.446755   0.000000
    21  H    6.767593   5.534141   6.400623   5.421459   1.102981
    22  H    5.494167   4.419376   5.365484   4.029461   1.100168
    23  C    5.526878   4.972599   6.008765   4.926345   1.528713
    24  H    6.303693   5.736304   6.722514   5.835911   2.178171
    25  H    5.943411   5.620225   6.696090   5.398862   2.184379
    26  O    3.816858   3.179330   4.121113   2.363773   3.175363
    27  H    3.444412   3.311571   4.343824   2.655120   3.290508
    28  H    4.731525   4.414856   4.751380   5.376813   5.608242
                   21         22         23         24         25
    21  H    0.000000
    22  H    1.818479   0.000000
    23  C    2.188383   2.150883   0.000000
    24  H    2.405032   3.054986   1.109463   0.000000
    25  H    2.701967   2.387132   1.101040   1.785208   0.000000
    26  O    4.128963   2.357795   3.601854   4.689671   3.675069
    27  H    4.324029   2.652507   3.286432   4.370566   3.277256
    28  H    6.264346   6.278858   5.273936   5.203235   6.226184
                   26         27         28
    26  O    0.000000
    27  H    0.959345   0.000000
    28  H    6.385669   6.063863   0.000000
 Symmetry turned off by external request.
 Stoichiometry    C6H14O7Si(2-)
 Framework group  C1[X(C6H14O7Si)]
 Deg. of freedom    78
 Full point group                 C1      NOp   1
 Rotational constants (GHZ):           0.8551903           0.5095774           0.3959489
 Standard basis: def2TZVPP (5D, 7F)
   641 basis functions,   970 primitive gaussians,   726 cartesian basis functions
    61 alpha electrons       61 beta electrons
       nuclear repulsion energy      1228.4665023518 Hartrees.
 NAtoms=   28 NActive=   28 NUniq=   28 SFac= 1.00D+00 NAtFMM=   60 NAOKFM=F Big=F
 Integral buffers will be    131072 words long.
 Raffenetti 2 integral format.
 Two-electron integral symmetry is turned off.
 Nuclear repulsion after empirical dispersion term =     1228.4479364772 Hartrees.
 One-electron integrals computed using PRISM.
   1 Symmetry operations used in ECPInt.
 ECPInt:  NShTT=   29161 NPrTT=   80163 LenC2=   26792 LenP2D=   55449.
 LDataN:  DoStor=T MaxTD1= 6 Len=  172
 NBasis=   641 RedAO= T EigKep=  2.33D-04  NBF=   641
 NBsUse=   641 1.00D-06 EigRej= -1.00D+00 NBFU=   641
 Initial guess from the checkpoint file:  "IRC_reverse_HbiLmL_collapseScan.chk"
 B after Tr=    -0.013797   -0.009316   -0.016156
         Rot=    1.000000   -0.000003   -0.000012    0.000000 Ang=  -0.00 deg.
 ExpMin= 7.01D-02 ExpMax= 4.48D+04 ExpMxC= 1.53D+03 IAcc=3 IRadAn=         5 AccDes= 0.00D+00
 Harris functional with IExCor= 4639 and IRadAn=       5 diagonalized for initial guess.
 HarFok:  IExCor= 4639 AccDes= 0.00D+00 IRadAn=         5 IDoV= 1 UseB2=F ITyADJ=14
 ICtDFT=  3500011 ScaDFX=  1.000000  1.000000  1.000000  1.000000
 FoFCou: FMM=F IPFlag=           0 FMFlag=      100000 FMFlg1=           0
         NFxFlg=           0 DoJE=T BraDBF=F KetDBF=T FulRan=T
         wScrn=  0.000000 ICntrl=       500 IOpCl=  0 I1Cent=   200000004 NGrid=           0
         NMat0=    1 NMatS0=      1 NMatT0=    0 NMatD0=    1 NMtDS0=    0 NMtDT0=    0
 Symmetry not used in FoFCou.
 Requested convergence on RMS density matrix=1.00D-08 within 128 cycles.
 Requested convergence on MAX density matrix=1.00D-06.
 Requested convergence on             energy=1.00D-06.
 No special actions if energy rises.
 Integral accuracy reduced to 1.0D-05 until final iterations.
 Initial convergence to 1.0D-05 achieved.  Increase integral accuracy.
 SCF Done:  E(RwB97XD) =  -1053.30203280     A.U. after   13 cycles
            NFock= 13  Conv=0.42D-08     -V/T= 2.0037
 DoSCS=F DFT=T ScalE2(SS,OS)=  1.000000  1.000000
 Range of M.O.s used for correlation:     1   641
 NBasis=   641 NAE=    61 NBE=    61 NFC=     0 NFV=     0
 NROrb=    641 NOA=    61 NOB=    61 NVA=   580 NVB=   580

 **** Warning!!: The largest alpha MO coefficient is  0.11921293D+02

 Symmetrizing basis deriv contribution to polar:
 IMax=3 JMax=2 DiffMx= 0.00D+00
   1 Symmetry operations used in ECPInt.
 ECPInt:  NShTT=   29161 NPrTT=   80163 LenC2=   26792 LenP2D=   55449.
 LDataN:  DoStor=T MaxTD1= 7 Len=  274
 Calling FoFJK, ICntrl=      2127 FMM=F ISym2X=0 I1Cent= 0 IOpClX= 0 NMat=1 NMatS=1 NMatT=0.
 -------------------------------------------------------------------
 Center     Atomic                   Forces (Hartrees/Bohr)
 Number     Number              X              Y              Z
 -------------------------------------------------------------------
      1       14          -0.000017190   -0.000004961    0.000047185
      2        8          -0.000034655   -0.000016208    0.000013938
      3        8          -0.000025174   -0.000001515    0.000003527
      4        8          -0.000055664   -0.000048328    0.000013971
      5        8          -0.000097662   -0.000037381    0.000016154
      6        8          -0.000073416    0.000002302   -0.000011414
      7        8          -0.000068359   -0.000006903    0.000014698
      8        6          -0.000059427   -0.000003470   -0.000003824
      9        1          -0.000004840   -0.000001551    0.000002372
     10        1          -0.000005096   -0.000000795    0.000002470
     11        6          -0.000060472   -0.000013670    0.000001519
     12        1          -0.000004692   -0.000002944    0.000002422
     13        1          -0.000005452   -0.000002551    0.000001465
     14        6           0.000012857   -0.000022559    0.000004042
     15        1           0.000006440    0.000001456   -0.000005713
     16        1           0.000000144   -0.000001960   -0.000000441
     17        6           0.000047692   -0.000061585    0.000013759
     18        1           0.000016680   -0.000011603    0.000002664
     19        1           0.000001060    0.000003548   -0.000003393
     20        6           0.000005920    0.000078609   -0.000007656
     21        1           0.000010107    0.000020916    0.000001527
     22        1          -0.000008898   -0.000005970   -0.000003146
     23        6           0.000023670    0.000035266   -0.000004267
     24        1           0.000008291    0.000001420   -0.000002979
     25        1           0.000003223    0.000005634   -0.000000252
     26        8           0.000265944    0.000078493    0.000427381
     27        1           0.000123344    0.000017697   -0.000527951
     28        1          -0.000004373   -0.000001387    0.000001945
 -------------------------------------------------------------------
 Cartesian Forces:  Max     0.000527951 RMS     0.000085207
 IRC-IRC-IRC-IRC-IRC-IRC-IRC-IRC-IRC-IRC-IRC-IRC-IRC-IRC-IRC-IRC-IRC-IRC
 Pt  1 Step number   1 out of a maximum of 100
 Modified Bulirsch-Stoer Extrapolation Cycles:
    EPS =    0.000010000000000
      PEZero:  N= 2 I= 1 D=  8.64D-04 Err=  6.88D-03
      PEZero:  N= 3 I= 2 D=  8.64D-04 Err=  1.14D-02
      PEZero:  N= 3 I= 1 D=  1.73D-03 Err=  1.03D-02
      PEZero:  N= 4 I= 3 D=  4.32D-04 Err=  1.96D-02
      PEZero:  N= 4 I= 2 D=  1.30D-03 Err=  1.47D-02
      PEZero:  N= 4 I= 1 D=  2.16D-03 Err=  1.15D-02
      PEZero:  N= 5 I= 4 D=  4.32D-04 Err=  2.78D-02
      PEZero:  N= 5 I= 3 D=  8.64D-04 Err=  2.21D-02
      PEZero:  N= 5 I= 2 D=  1.73D-03 Err=  1.47D-02
      PEZero:  N= 5 I= 1 D=  2.59D-03 Err=  1.09D-02
      PEZero:  N= 6 I= 5 D=  2.16D-04 Err=  4.35D-02
      PEZero:  N= 6 I= 4 D=  6.48D-04 Err=  3.02D-02
      PEZero:  N= 6 I= 3 D=  1.08D-03 Err=  2.31D-02
      PEZero:  N= 6 I= 2 D=  1.94D-03 Err=  1.56D-02
      PEZero:  N= 6 I= 1 D=  2.81D-03 Err=  1.19D-02
      PEZero:  N= 7 I= 6 D=  2.16D-04 Err=  6.24D-02
      PEZero:  N= 7 I= 5 D=  4.32D-04 Err=  5.01D-02
      PEZero:  N= 7 I= 4 D=  8.64D-04 Err=  3.50D-02
      PEZero:  N= 7 I= 3 D=  1.30D-03 Err=  2.73D-02
      PEZero:  N= 7 I= 2 D=  2.16D-03 Err=  1.87D-02
      PEZero:  N= 7 I= 1 D=  3.02D-03 Err=  1.43D-02
      PEZero:  N= 8 I= 7 D=  1.08D-04 Err=  9.90D-02
      PEZero:  N= 8 I= 6 D=  3.24D-04 Err=  6.96D-02
      PEZero:  N= 8 I= 5 D=  5.40D-04 Err=  5.34D-02
      PEZero:  N= 8 I= 4 D=  9.72D-04 Err=  3.58D-02
      PEZero:  N= 8 I= 3 D=  1.40D-03 Err=  2.68D-02
      PEZero:  N= 8 I= 2 D=  2.27D-03 Err=  1.77D-02
      PEZero:  N= 8 I= 1 D=  3.13D-03 Err=  1.32D-02
      PEZero:  N= 9 I= 8 D=  1.08D-04 Err=  2.57D-02
      PEZero:  N= 9 I= 7 D=  2.16D-04 Err=  6.04D-02
      PEZero:  N=10 I= 9 D=  5.40D-05 Err=  1.74D-04
      PEZero:  N=10 I= 8 D=  1.62D-04 Err=  2.55D-02
      PEZero:  N=11 I=10 D=  5.40D-05 Err=  1.06D-04
      PEZero:  N=11 I= 9 D=  1.08D-04 Err=  1.43D-05
      PEZero:  N=11 I= 8 D=  2.16D-04 Err=  3.48D-02
 Maximum DWI energy   std dev =  0.000000864 at pt     2
 Maximum DWI gradient std dev =  1.204929972 at pt    26
 WARNING: Bulirsch-Stoer Method is not Converging
 CORRECTOR INTEGRATION CONVERGENCE:
   Recorrection delta-x convergence threshold:    0.010000
   Delta-x Convergence NOT Met
 IRC-IRC-IRC-IRC-IRC-IRC-IRC-IRC-IRC-IRC-IRC-IRC-IRC-IRC-IRC-IRC-IRC-IRC
                          Input orientation:                          
 ---------------------------------------------------------------------
 Center     Atomic      Atomic             Coordinates (Angstroms)
 Number     Number       Type             X           Y           Z
 ---------------------------------------------------------------------
      1         14           0        0.340518   -0.028644    0.074394
      2          8           0        0.188354    1.126138   -1.207497
      3          8           0        1.073642   -0.996109    1.308912
      4          8           0        0.736688   -1.263894   -1.084988
      5          8           0       -1.336114   -0.440708    0.290259
      6          8           0       -3.823546    0.333138    0.573750
      7          8           0        0.417174    1.286314    1.210994
      8          6           0       -3.577882   -0.784139   -0.254330
      9          1           0       -4.305665   -0.779679   -1.074108
     10          1           0       -3.713414   -1.713606    0.320186
     11          6           0       -2.152125   -0.723681   -0.790293
     12          1           0       -2.076119    0.062693   -1.554944
     13          1           0       -1.890094   -1.676883   -1.272627
     14          6           0        0.268978    2.535370    0.635847
     15          1           0       -0.780968    2.886381    0.713492
     16          1           0        0.905435    3.274360    1.147613
     17          6           0        0.664420    2.380166   -0.831942
     18          1           0        0.212794    3.166818   -1.458419
     19          1           0        1.761599    2.387470   -0.912315
     20          6           0        1.797510   -2.050120   -0.642544
     21          1           0        1.792516   -3.027794   -1.153087
     22          1           0        2.745330   -1.517408   -0.810414
     23          6           0        1.581117   -2.203386    0.863014
     24          1           0        0.868447   -3.028769    1.067295
     25          1           0        2.524032   -2.438918    1.380454
     26          8           0        3.323825    0.715145   -0.325528
     27          1           0        3.120133    0.690257    0.610988
     28          1           0       -2.935884    0.520258    0.921599
 ---------------------------------------------------------------------
                    Distance matrix (angstroms):
                    1          2          3          4          5
     1  Si   0.000000
     2  O    1.732027   0.000000
     3  O    1.731327   3.408809   0.000000
     4  O    1.739816   2.455185   2.432283   0.000000
     5  O    1.739969   2.649958   2.674519   2.620200   0.000000
     6  O    4.209475   4.460609   5.127360   5.108588   2.620405
     7  O    1.739785   2.434566   2.376972   3.446329   2.627619
     8  C    4.004084   4.329228   4.911755   4.419918   2.332390
     9  H    4.844598   4.883250   5.887493   5.065561   3.285518
    10  H    4.397031   5.061793   4.940475   4.688301   2.696798
    11  C    2.728375   3.012264   3.858297   2.953628   1.383308
    12  H    2.916028   2.525761   4.386767   3.145246   2.050803
    13  H    3.083308   3.490145   3.988926   2.665662   2.068245
    14  C    2.625741   2.321712   3.683999   4.196955   3.398939
    15  H    3.188032   2.779971   4.343712   4.771016   3.399534
    16  H    3.518631   3.267355   4.276824   5.060508   4.422819
    17  C    2.593978   1.392935   4.018700   3.653550   3.635767
    18  H    3.546379   2.056194   5.072390   4.477179   4.297817
    19  H    2.971644   2.037938   4.105574   3.796409   4.363553
    20  C    2.592912   3.605159   2.333045   1.392570   3.644164
    21  H    3.551043   4.453251   3.271996   2.056879   4.308664
    22  H    2.963515   3.699208   2.749152   2.043111   4.362219
    23  C    2.624979   4.160834   1.383428   2.321728   3.456201
    24  H    3.203953   4.785442   2.057229   2.786479   3.487397
    25  H    3.504703   4.986231   2.047057   3.263998   4.481305
    26  O    3.100529   3.282981   3.265441   3.344645   4.840477
    27  H    2.920789   3.477386   2.742089   3.517933   4.608697
    28  H    3.428390   3.828968   4.304147   4.549437   1.970104
                    6          7          8          9         10
     6  O    0.000000
     7  O    4.392987   0.000000
     8  C    1.412224   4.732275   0.000000
     9  H    2.046030   5.638726   1.096232   0.000000
    10  H    2.065330   5.182164   1.101067   1.779617   0.000000
    11  C    2.402318   3.827079   1.524367   2.172883   2.156557
    12  H    2.767306   3.919716   2.159633   2.431393   3.058119
    13  H    3.344777   4.502488   2.163920   2.584447   2.421343
    14  C    4.647842   1.383075   5.158477   5.902614   5.832057
    15  H    3.974400   2.059919   4.715095   5.390640   5.469352
    16  H    5.598515   2.048107   6.207816   6.966121   6.848227
    17  C    5.129146   2.330499   5.323869   5.894490   6.103426
    18  H    5.333995   3.271671   5.606168   6.011573   6.511305
    19  H    6.133720   2.743804   6.245166   6.846072   6.950802
    20  C    6.225397   4.058660   5.536087   6.248922   5.604496
    21  H    6.768899   5.108030   5.889221   6.499852   5.849179
    22  H    6.963517   4.167404   6.389830   7.094386   6.559888
    23  C    5.977292   3.695113   5.466077   6.358741   5.344774
    24  H    5.793169   4.340996   5.153145   6.034521   4.825068
    25  H    6.973293   4.283097   6.530250   7.444643   6.368358
    26  O    7.213844   3.337027   7.063036   7.810505   7.472517
    27  H    6.952957   2.832186   6.912744   7.755175   7.249862
    28  H    0.971575   3.451607   1.869872   2.747542   2.440574
                   11         12         13         14         15
    11  C    0.000000
    12  H    1.099478   0.000000
    13  H    1.099955   1.772126   0.000000
    14  C    4.303142   4.051318   5.103620   0.000000
    15  H    4.144152   3.846613   5.098844   1.109786   0.000000
    16  H    5.393375   5.148620   6.179592   1.101403   1.784081
    17  C    4.191483   3.661143   4.814498   1.528027   2.175722
    18  H    4.601654   3.857983   5.283758   2.188112   2.404871
    19  H    5.001139   4.532730   5.475733   2.155596   3.058890
    20  C    4.169040   4.505714   3.759620   4.999741   5.732053
    21  H    4.582658   4.967789   3.924394   6.039060   6.714492
    22  H    4.961399   5.128100   4.661141   4.964776   5.843837
    23  C    4.342816   4.935282   4.109438   4.922309   5.613157
    24  H    4.229411   5.010363   3.861655   5.612945   6.150996
    25  H    5.433289   6.002999   5.206155   5.512100   6.302910
    26  O    5.680868   5.576428   5.814099   3.683687   4.758482
    27  H    5.635559   5.664462   5.852669   3.396196   4.477953
    28  H    2.256599   2.661171   3.276543   3.796508   3.207103
                   16         17         18         19         20
    16  H    0.000000
    17  C    2.185477   0.000000
    18  H    2.698652   1.102389   0.000000
    19  H    2.400603   1.100143   1.817804   0.000000
    20  C    5.687755   4.576811   5.513023   4.445927   0.000000
    21  H    6.767369   5.533693   6.400154   5.420702   1.102962
    22  H    5.493644   4.418340   5.364291   4.028173   1.100148
    23  C    5.526595   4.972138   6.008366   4.925477   1.528732
    24  H    6.303750   5.736314   6.722679   5.835428   2.178178
    25  H    5.942694   5.619289   6.695169   5.397416   2.184380
    26  O    3.816849   3.178235   4.119788   2.362528   3.174402
    27  H    3.445351   3.311852   4.343780   2.654543   3.290948
    28  H    4.732007   4.415468   4.752151   5.377366   5.608780
                   21         22         23         24         25
    21  H    0.000000
    22  H    1.818391   0.000000
    23  C    2.188379   2.150889   0.000000
    24  H    2.404994   3.054946   1.109453   0.000000
    25  H    2.701985   2.387060   1.101048   1.785205   0.000000
    26  O    4.127875   2.356706   3.601040   4.688894   3.673983
    27  H    4.324168   2.652291   3.287136   4.371437   3.277064
    28  H    6.265043   6.279184   5.274938   5.204782   6.227194
                   26         27         28
    26  O    0.000000
    27  H    0.958735   0.000000
    28  H    6.385707   6.066360   0.000000
 Symmetry turned off by external request.
 Stoichiometry    C6H14O7Si(2-)
 Framework group  C1[X(C6H14O7Si)]
 Deg. of freedom    78
 Full point group                 C1      NOp   1
 Rotational constants (GHZ):           0.8552406           0.5095297           0.3959315
 Standard basis: def2TZVPP (5D, 7F)
   641 basis functions,   970 primitive gaussians,   726 cartesian basis functions
    61 alpha electrons       61 beta electrons
       nuclear repulsion energy      1228.4549465484 Hartrees.
 NAtoms=   28 NActive=   28 NUniq=   28 SFac= 1.00D+00 NAtFMM=   60 NAOKFM=F Big=F
 Integral buffers will be    131072 words long.
 Raffenetti 2 integral format.
 Two-electron integral symmetry is turned off.
 Nuclear repulsion after empirical dispersion term =     1228.4363826177 Hartrees.
 One-electron integrals computed using PRISM.
   1 Symmetry operations used in ECPInt.
 ECPInt:  NShTT=   29161 NPrTT=   80163 LenC2=   26792 LenP2D=   55451.
 LDataN:  DoStor=T MaxTD1= 6 Len=  172
 NBasis=   641 RedAO= T EigKep=  2.33D-04  NBF=   641
 NBsUse=   641 1.00D-06 EigRej= -1.00D+00 NBFU=   641
 Initial guess from the checkpoint file:  "IRC_reverse_HbiLmL_collapseScan.chk"
 B after Tr=     0.000062    0.000021   -0.000020
         Rot=    1.000000    0.000046   -0.000061   -0.000027 Ang=   0.01 deg.
 ExpMin= 7.01D-02 ExpMax= 4.48D+04 ExpMxC= 1.53D+03 IAcc=3 IRadAn=         5 AccDes= 0.00D+00
 Harris functional with IExCor= 4639 and IRadAn=       5 diagonalized for initial guess.
 HarFok:  IExCor= 4639 AccDes= 0.00D+00 IRadAn=         5 IDoV= 1 UseB2=F ITyADJ=14
 ICtDFT=  3500011 ScaDFX=  1.000000  1.000000  1.000000  1.000000
 FoFCou: FMM=F IPFlag=           0 FMFlag=      100000 FMFlg1=           0
         NFxFlg=           0 DoJE=T BraDBF=F KetDBF=T FulRan=T
         wScrn=  0.000000 ICntrl=       500 IOpCl=  0 I1Cent=   200000004 NGrid=           0
         NMat0=    1 NMatS0=      1 NMatT0=    0 NMatD0=    1 NMtDS0=    0 NMtDT0=    0
 Symmetry not used in FoFCou.
 Requested convergence on RMS density matrix=1.00D-08 within 128 cycles.
 Requested convergence on MAX density matrix=1.00D-06.
 Requested convergence on             energy=1.00D-06.
 No special actions if energy rises.
 Integral accuracy reduced to 1.0D-05 until final iterations.
 Initial convergence to 1.0D-05 achieved.  Increase integral accuracy.
 SCF Done:  E(RwB97XD) =  -1053.30203314     A.U. after   10 cycles
            NFock= 10  Conv=0.33D-08     -V/T= 2.0036
 DoSCS=F DFT=T ScalE2(SS,OS)=  1.000000  1.000000
 Range of M.O.s used for correlation:     1   641
 NBasis=   641 NAE=    61 NBE=    61 NFC=     0 NFV=     0
 NROrb=    641 NOA=    61 NOB=    61 NVA=   580 NVB=   580

 **** Warning!!: The largest alpha MO coefficient is  0.11961299D+02

 Symmetrizing basis deriv contribution to polar:
 IMax=3 JMax=2 DiffMx= 0.00D+00
   1 Symmetry operations used in ECPInt.
 ECPInt:  NShTT=   29161 NPrTT=   80163 LenC2=   26792 LenP2D=   55451.
 LDataN:  DoStor=T MaxTD1= 7 Len=  274
 Calling FoFJK, ICntrl=      2127 FMM=F ISym2X=0 I1Cent= 0 IOpClX= 0 NMat=1 NMatS=1 NMatT=0.
 -------------------------------------------------------------------
 Center     Atomic                   Forces (Hartrees/Bohr)
 Number     Number              X              Y              Z
 -------------------------------------------------------------------
      1       14          -0.000177047   -0.000052002    0.000035911
      2        8          -0.000006663   -0.000025581    0.000018759
      3        8          -0.000003258    0.000016311   -0.000005854
      4        8          -0.000044577   -0.000013687    0.000021546
      5        8          -0.000061435   -0.000020040    0.000016956
      6        8          -0.000060591    0.000002089   -0.000008975
      7        8          -0.000036369   -0.000015983    0.000004039
      8        6          -0.000044068   -0.000005222    0.000003472
      9        1          -0.000002264   -0.000000877    0.000000286
     10        1          -0.000002455   -0.000000051    0.000000813
     11        6          -0.000044445   -0.000013597    0.000006626
     12        1          -0.000002166   -0.000000883    0.000000294
     13        1          -0.000002406   -0.000000931    0.000000922
     14        6           0.000013195   -0.000008158   -0.000003283
     15        1           0.000001911    0.000000666   -0.000001561
     16        1           0.000001097   -0.000001479    0.000000446
     17        6           0.000042493   -0.000031227    0.000009928
     18        1           0.000005396   -0.000002097   -0.000000014
     19        1           0.000000077   -0.000005323    0.000001803
     20        6           0.000017840    0.000046539   -0.000004280
     21        1           0.000003570    0.000003846   -0.000000679
     22        1          -0.000002350    0.000006358    0.000000121
     23        6           0.000032404    0.000025439   -0.000006095
     24        1           0.000004368    0.000001203   -0.000000154
     25        1           0.000001561    0.000004166   -0.000001225
     26        8           0.000399695    0.000095388   -0.000172151
     27        1          -0.000030678   -0.000005179    0.000082071
     28        1          -0.000002832    0.000000312    0.000000279
 -------------------------------------------------------------------
 Cartesian Forces:  Max     0.000399695 RMS     0.000056392
 IRC-IRC-IRC-IRC-IRC-IRC-IRC-IRC-IRC-IRC-IRC-IRC-IRC-IRC-IRC-IRC-IRC-IRC
 Error in corrector energy =          -0.0000001333
 Magnitude of corrector gradient =     0.0004526706
 Magnitude of analytic gradient =      0.0005168427
 Magnitude of difference =             0.0001367833
 Angle between gradients (degrees)=   14.3463
 Pt  1 Step number   2 out of a maximum of 100
 Modified Bulirsch-Stoer Extrapolation Cycles:
    EPS =    0.000010000000000
      PEZero:  N= 2 I= 1 D=  8.64D-04 Err=  7.15D-03
      PEZero:  N= 3 I= 2 D=  8.64D-04 Err=  1.15D-02
      PEZero:  N= 3 I= 1 D=  1.73D-03 Err=  1.01D-02
      PEZero:  N= 4 I= 3 D=  4.32D-04 Err=  1.97D-02
      PEZero:  N= 4 I= 2 D=  1.30D-03 Err=  1.47D-02
      PEZero:  N= 4 I= 1 D=  2.16D-03 Err=  1.15D-02
[...]
 Alpha virt. eigenvalues --    3.24311   3.26018   3.28131   3.29471   3.29986
 Alpha virt. eigenvalues --    3.31197   3.32336   3.32957   3.33533   3.34627
 Alpha virt. eigenvalues --    3.35579   3.35849   3.36934   3.37654   3.38446
 Alpha virt. eigenvalues --    3.39470   3.41383   3.42749   3.43664   3.44099
 Alpha virt. eigenvalues --    3.45215   3.46404   3.47015   3.47255   3.48644
 Alpha virt. eigenvalues --    3.49713   3.51203   3.51845   3.51963   3.52407
 Alpha virt. eigenvalues --    3.54483   3.54912   3.57565   3.57987   3.58417
 Alpha virt. eigenvalues --    3.59071   3.59721   3.61359   3.63031   3.63609
 Alpha virt. eigenvalues --    3.65166   3.67410   3.69356   3.70695   3.71334
 Alpha virt. eigenvalues --    3.71986   3.73606   3.75386   3.75719   3.77987
 Alpha virt. eigenvalues --    3.79527   3.80631   3.81059   3.82857   3.83893
 Alpha virt. eigenvalues --    3.85614   3.85909   3.88047   3.89656   3.90227
 Alpha virt. eigenvalues --    3.91285   3.91893   3.93042   3.93783   3.94113
 Alpha virt. eigenvalues --    3.95652   3.96521   3.98466   3.99158   4.00631
 Alpha virt. eigenvalues --    4.01696   4.02722   4.03499   4.04527   4.05505
 Alpha virt. eigenvalues --    4.05823   4.06634   4.07683   4.08139   4.11512
 Alpha virt. eigenvalues --    4.12086   4.12602   4.12983   4.13488   4.14276
 Alpha virt. eigenvalues --    4.14625   4.15415   4.17808   4.19014   4.19854
 Alpha virt. eigenvalues --    4.20784   4.20982   4.22637   4.22706   4.27692
 Alpha virt. eigenvalues --    4.27961   4.29003   4.29672   4.30910   4.31461
 Alpha virt. eigenvalues --    4.32384   4.34450   4.34995   4.36969   4.37197
 Alpha virt. eigenvalues --    4.39203   4.40496   4.41608   4.42099   4.43494
 Alpha virt. eigenvalues --    4.46317   4.46865   4.47430   4.48257   4.48905
 Alpha virt. eigenvalues --    4.49937   4.50221   4.50632   4.54114   4.55362
 Alpha virt. eigenvalues --    4.55811   4.56685   4.57598   4.58591   4.59870
 Alpha virt. eigenvalues --    4.60077   4.62030   4.63100   4.64740   4.65999
 Alpha virt. eigenvalues --    4.66596   4.68979   4.70630   4.71952   4.73862
 Alpha virt. eigenvalues --    4.74838   4.75561   4.76382   4.80856   4.84098
 Alpha virt. eigenvalues --    4.86892   4.89179   4.90530   4.91928   4.93569
 Alpha virt. eigenvalues --    4.93771   4.95384   4.97673   4.97849   4.99364
 Alpha virt. eigenvalues --    5.01595   5.04175   5.05006   5.06327   5.09258
 Alpha virt. eigenvalues --    5.11284   5.12427   5.12721   5.12959   5.13401
 Alpha virt. eigenvalues --    5.14860   5.16637   5.18528   5.19012   5.20814
 Alpha virt. eigenvalues --    5.22480   5.23441   5.24386   5.26416   5.28174
 Alpha virt. eigenvalues --    5.28789   5.29592   5.31283   5.34640   5.36573
 Alpha virt. eigenvalues --    5.40593   5.40928   5.42733   5.43785   5.45073
 Alpha virt. eigenvalues --    5.45500   5.46582   5.49661   5.52928   5.53248
 Alpha virt. eigenvalues --    5.54328   5.56608   5.57658   5.60741   5.62607
 Alpha virt. eigenvalues --    5.64348   5.65469   5.66082   5.67730   5.69099
 Alpha virt. eigenvalues --    5.69783   5.70668   5.71563   5.72671   5.75054
 Alpha virt. eigenvalues --    5.75876   5.80126   5.80514   5.82866   5.83234
 Alpha virt. eigenvalues --    5.84299   5.85792   5.86309   5.86697   5.87428
 Alpha virt. eigenvalues --    5.89638   5.91627   5.92790   5.94316   5.96161
 Alpha virt. eigenvalues --    5.96465   5.97416   5.98423   5.98577   6.00253
 Alpha virt. eigenvalues --    6.01189   6.02776   6.03398   6.05791   6.07671
 Alpha virt. eigenvalues --    6.09425   6.10935   6.18906   6.20441   6.24704
 Alpha virt. eigenvalues --    6.34704   6.35166   6.36865   6.38341   6.40494
 Alpha virt. eigenvalues --    6.42914   6.44348   6.48468   6.49150   6.49567
 Alpha virt. eigenvalues --    6.52084   6.53237   6.54087   6.55178   6.60848
 Alpha virt. eigenvalues --    6.65527   6.73590   6.80469   6.89261   6.92722
 Alpha virt. eigenvalues --    6.96425   6.97290   6.98212   7.01203   7.02210
 Alpha virt. eigenvalues --    7.03967   7.04783   7.07267   7.08868   7.11518
 Alpha virt. eigenvalues --    7.11940   7.15384   7.18993   7.19408   7.21139
 Alpha virt. eigenvalues --    7.22511   7.23468   7.23662   7.27991   7.30777
 Alpha virt. eigenvalues --    7.34180   7.39632   7.39990   7.40734   7.46092
 Alpha virt. eigenvalues --    7.47942   7.49533   7.50725   7.55671   7.58001
 Alpha virt. eigenvalues --    7.64964   7.65719   7.66816   7.67875   7.75427
 Alpha virt. eigenvalues --    7.83322   7.85457   7.91361   7.95774   7.96187
 Alpha virt. eigenvalues --    8.02081  12.36547  23.61427  23.65589  23.68220
 Alpha virt. eigenvalues --   23.77376  23.79016  23.82061  44.07942  44.30885
 Alpha virt. eigenvalues --   44.51389  44.56796  44.61874  44.70954  44.76823
          Condensed to atoms (all electrons):
               1          2          3          4          5          6
     1  Si  11.663781   0.367522   0.379346   0.365703   0.364386   0.002950
     2  O    0.367522   8.052758   0.000874  -0.054205  -0.036093  -0.000188
     3  O    0.379346   0.000874   8.024223  -0.036748  -0.033898  -0.000002
     4  O    0.365703  -0.054205  -0.036748   8.072948  -0.032409  -0.000027
     5  O    0.364386  -0.036093  -0.033898  -0.032409   8.077298  -0.027999
     6  O    0.002950  -0.000188  -0.000002  -0.000027  -0.027999   7.962889
     7  O    0.372649  -0.035865  -0.051373   0.002736  -0.038657  -0.000049
     8  C   -0.007190   0.000583  -0.000556   0.000793  -0.068536   0.316760
     9  H    0.000347   0.000090  -0.000001  -0.000025   0.006835  -0.045491
    10  H    0.000131  -0.000066  -0.000031   0.000088   0.005400  -0.056859
    11  C   -0.060381  -0.015152  -0.003649  -0.006648   0.268561  -0.055887
    12  H   -0.009648   0.022704  -0.000440  -0.000194  -0.054148   0.004045
    13  H   -0.013018   0.000893   0.001316   0.016450  -0.045037   0.005595
    14  C   -0.030159  -0.117122  -0.000896  -0.003673   0.004112  -0.000428
    15  H   -0.001614   0.014156   0.000078  -0.000037   0.002334   0.001085
    16  H    0.000056   0.007204   0.000337   0.000114  -0.000614   0.000006
    17  C   -0.081473   0.336366  -0.000582   0.003747  -0.005869  -0.000279
    18  H   -0.005667  -0.044008  -0.000096  -0.000617  -0.000343  -0.000021
    19  H    0.009156  -0.035712   0.000258   0.000418  -0.000325   0.000001
    20  C   -0.076721   0.003787  -0.085561   0.336522  -0.003072   0.000006
    21  H   -0.001130  -0.000712   0.006168  -0.045511  -0.000291   0.000000
    22  H    0.006807   0.001131   0.005346  -0.033713  -0.000289  -0.000000
    23  C   -0.038047  -0.004327   0.345943  -0.120489   0.001066  -0.000007
    24  H   -0.009066  -0.000004  -0.065671   0.015516   0.003157  -0.000002
    25  H   -0.000218   0.000126  -0.040555   0.007358  -0.000596  -0.000000
    26  O    0.112730  -0.007716  -0.012125  -0.005794   0.000155  -0.000000
    27  H   -0.070594   0.003163   0.010333   0.003120  -0.000165   0.000000
    28  H   -0.000350  -0.000426  -0.000072   0.000118   0.051362   0.343435
               7          8          9         10         11         12
     1  Si   0.372649  -0.007190   0.000347   0.000131  -0.060381  -0.009648
     2  O   -0.035865   0.000583   0.000090  -0.000066  -0.015152   0.022704
     3  O   -0.051373  -0.000556  -0.000001  -0.000031  -0.003649  -0.000440
     4  O    0.002736   0.000793  -0.000025   0.000088  -0.006648  -0.000194
     5  O   -0.038657  -0.068536   0.006835   0.005400   0.268561  -0.054148
     6  O   -0.000049   0.316760  -0.045491  -0.056859  -0.055887   0.004045
     7  O    8.048041  -0.000717   0.000010   0.000075  -0.003863   0.001581
     8  C   -0.000717   4.729953   0.355226   0.394606   0.336633  -0.059118
     9  H    0.000010   0.355226   0.757850  -0.072986  -0.015836  -0.002112
    10  H    0.000075   0.394606  -0.072986   0.771403  -0.058541   0.014685
    11  C   -0.003863   0.336633  -0.015836  -0.058541   4.800014   0.386497
    12  H    0.001581  -0.059118  -0.002112   0.014685   0.386497   0.713481
    13  H   -0.000595  -0.038132   0.000033  -0.006930   0.373743  -0.058143
    14  C    0.352328   0.000130   0.000028   0.000030   0.000786   0.000747
    15  H   -0.070829   0.000398  -0.000042   0.000003   0.000803   0.000425
    16  H   -0.040144  -0.000043   0.000001   0.000002   0.000067   0.000017
    17  C   -0.091236   0.000031   0.000035  -0.000026   0.002335   0.001699
    18  H    0.007044  -0.000101   0.000011   0.000003   0.001457  -0.000896
    19  H    0.005513  -0.000005   0.000000  -0.000000  -0.000399   0.000350
    20  C    0.000970   0.000005   0.000003   0.000020   0.001595  -0.000111
    21  H   -0.000072  -0.000113   0.000001  -0.000003   0.000802  -0.000003
    22  H    0.000119   0.000002  -0.000000   0.000001  -0.000138  -0.000001
    23  C   -0.001127   0.000305  -0.000032  -0.000112   0.001695  -0.000470
    24  H    0.000150   0.000144   0.000001   0.000137   0.000709   0.000121
    25  H    0.000306  -0.000027  -0.000000   0.000000  -0.000127  -0.000006
    26  O   -0.009467  -0.000000   0.000000  -0.000000   0.000486   0.000048
    27  H    0.009357   0.000006  -0.000000  -0.000000  -0.000342  -0.000014
    28  H    0.001797  -0.065522   0.012328  -0.001226  -0.019874   0.000832
              13         14         15         16         17         18
     1  Si  -0.013018  -0.030159  -0.001614   0.000056  -0.081473  -0.005667
     2  O    0.000893  -0.117122   0.014156   0.007204   0.336366  -0.044008
     3  O    0.001316  -0.000896   0.000078   0.000337  -0.000582  -0.000096
     4  O    0.016450  -0.003673  -0.000037   0.000114   0.003747  -0.000617
     5  O   -0.045037   0.004112   0.002334  -0.000614  -0.005869  -0.000343
     6  O    0.005595  -0.000428   0.001085   0.000006  -0.000279  -0.000021
     7  O   -0.000595   0.352328  -0.070829  -0.040144  -0.091236   0.007044
     8  C   -0.038132   0.000130   0.000398  -0.000043   0.000031  -0.000101
     9  H    0.000033   0.000028  -0.000042   0.000001   0.000035   0.000011
    10  H   -0.006930   0.000030   0.000003   0.000002  -0.000026   0.000003
    11  C    0.373743   0.000786   0.000803   0.000067   0.002335   0.001457
    12  H   -0.058143   0.000747   0.000425   0.000017   0.001699  -0.000896
    13  H    0.745406  -0.000115   0.000149  -0.000003  -0.000427  -0.000028
    14  C   -0.000115   4.992299   0.342629   0.337757   0.010862   0.017217
    15  H    0.000149   0.342629   0.903595  -0.099411  -0.054973  -0.024977
    16  H   -0.000003   0.337757  -0.099411   0.804978   0.001904   0.011808
    17  C   -0.000427   0.010862  -0.054973   0.001904   5.381714   0.250176
    18  H   -0.000028   0.017217  -0.024977   0.011808   0.250176   0.881354
    19  H    0.000028  -0.002122   0.018142  -0.016507   0.208296  -0.056055
    20  C    0.000328   0.006773  -0.000126   0.000096  -0.019795   0.000249
    21  H   -0.000519  -0.000154  -0.000001   0.000001   0.000292  -0.000011
    22  H    0.000234  -0.002608  -0.000024   0.000017   0.010156  -0.000084
    23  C    0.001507  -0.005803   0.000183   0.000107   0.007547  -0.000178
    24  H    0.000042   0.000126  -0.000018   0.000001  -0.000115  -0.000002
    25  H    0.000057   0.000054   0.000003  -0.000009   0.000161   0.000001
    26  O    0.000022   0.038000  -0.000036  -0.000948  -0.101570   0.002623
    27  H   -0.000011  -0.003031   0.000370   0.000596   0.007242  -0.000519
    28  H    0.002918   0.001221  -0.002446   0.000064   0.000475   0.000038
              19         20         21         22         23         24
     1  Si   0.009156  -0.076721  -0.001130   0.006807  -0.038047  -0.009066
     2  O   -0.035712   0.003787  -0.000712   0.001131  -0.004327  -0.000004
     3  O    0.000258  -0.085561   0.006168   0.005346   0.345943  -0.065671
     4  O    0.000418   0.336522  -0.045511  -0.033713  -0.120489   0.015516
     5  O   -0.000325  -0.003072  -0.000291  -0.000289   0.001066   0.003157
     6  O    0.000001   0.000006   0.000000  -0.000000  -0.000007  -0.000002
     7  O    0.005513   0.000970  -0.000072   0.000119  -0.001127   0.000150
     8  C   -0.000005   0.000005  -0.000113   0.000002   0.000305   0.000144
     9  H    0.000000   0.000003   0.000001  -0.000000  -0.000032   0.000001
    10  H   -0.000000   0.000020  -0.000003   0.000001  -0.000112   0.000137
    11  C   -0.000399   0.001595   0.000802  -0.000138   0.001695   0.000709
    12  H    0.000350  -0.000111  -0.000003  -0.000001  -0.000470   0.000121
    13  H    0.000028   0.000328  -0.000519   0.000234   0.001507   0.000042
    14  C   -0.002122   0.006773  -0.000154  -0.002608  -0.005803   0.000126
    15  H    0.018142  -0.000126  -0.000001  -0.000024   0.000183  -0.000018
    16  H   -0.016507   0.000096   0.000001   0.000017   0.000107   0.000001
    17  C    0.208296  -0.019795   0.000292   0.010156   0.007547  -0.000115
    18  H   -0.056055   0.000249  -0.000011  -0.000084  -0.000178  -0.000002
    19  H    0.758430   0.010563  -0.000078  -0.006203  -0.003327  -0.000030
    20  C    0.010563   5.418564   0.237996   0.205060  -0.021420  -0.045050
    21  H   -0.000078   0.237996   0.897469  -0.058768   0.018981  -0.027449
    22  H   -0.006203   0.205060  -0.058768   0.758370   0.001469   0.019498
    23  C   -0.003327  -0.021420   0.018981   0.001469   5.025166   0.339695
    24  H   -0.000030  -0.045050  -0.027449   0.019498   0.339695   0.902947
    25  H    0.000005  -0.000979   0.012940  -0.016630   0.341878  -0.103167
    26  O    0.099870  -0.117345   0.002583   0.102833   0.045959   0.000099
    27  H   -0.008270   0.014914  -0.000565  -0.011383  -0.005588   0.000307
    28  H   -0.000036   0.000032   0.000004   0.000004  -0.000109   0.000021
              25         26         27         28
     1  Si  -0.000218   0.112730  -0.070594  -0.000350
     2  O    0.000126  -0.007716   0.003163  -0.000426
     3  O   -0.040555  -0.012125   0.010333  -0.000072
     4  O    0.007358  -0.005794   0.003120   0.000118
     5  O   -0.000596   0.000155  -0.000165   0.051362
     6  O   -0.000000  -0.000000   0.000000   0.343435
     7  O    0.000306  -0.009467   0.009357   0.001797
     8  C   -0.000027  -0.000000   0.000006  -0.065522
     9  H   -0.000000   0.000000  -0.000000   0.012328
    10  H    0.000000  -0.000000  -0.000000  -0.001226
    11  C   -0.000127   0.000486  -0.000342  -0.019874
    12  H   -0.000006   0.000048  -0.000014   0.000832
    13  H    0.000057   0.000022  -0.000011   0.002918
    14  C    0.000054   0.038000  -0.003031   0.001221
    15  H    0.000003  -0.000036   0.000370  -0.002446
    16  H   -0.000009  -0.000948   0.000596   0.000064
    17  C    0.000161  -0.101570   0.007242   0.000475
    18  H    0.000001   0.002623  -0.000519   0.000038
    19  H    0.000005   0.099870  -0.008270  -0.000036
    20  C   -0.000979  -0.117345   0.014914   0.000032
    21  H    0.012940   0.002583  -0.000565   0.000004
    22  H   -0.016630   0.102833  -0.011383   0.000004
    23  C    0.341878   0.045959  -0.005588  -0.000109
    24  H   -0.103167   0.000099   0.000307   0.000021
    25  H    0.804495  -0.000992   0.001625  -0.000000
    26  O   -0.000992   8.470316   0.275219   0.000004
    27  H    0.001625   0.275219   0.650770  -0.000012
    28  H   -0.000000   0.000004  -0.000012   0.445303
 Mulliken charges:
               1
     1  Si   0.759713
     2  O   -0.459761
     3  O   -0.441966
     4  O   -0.485539
     5  O   -0.436326
     6  O   -0.449533
     7  O   -0.458679
     8  C    0.104484
     9  H    0.003725
    10  H    0.010196
    11  C    0.064653
    12  H    0.038076
    13  H    0.014237
    14  C    0.061011
    15  H   -0.029821
    16  H   -0.007452
    17  C    0.133307
    18  H   -0.038376
    19  H    0.018040
    20  C    0.132696
    21  H   -0.041855
    22  H    0.018795
    23  C    0.069535
    24  H   -0.032096
    25  H   -0.005702
    26  O   -0.894954
    27  H    0.123472
    28  H    0.230119
 Sum of Mulliken charges =  -2.00000
 Mulliken charges with hydrogens summed into heavy atoms:
               1
     1  Si   0.759713
     2  O   -0.459761
     3  O   -0.441966
     4  O   -0.485539
     5  O   -0.436326
     6  O   -0.219414
     7  O   -0.458679
     8  C    0.118405
    11  C    0.116966
    14  C    0.023738
    17  C    0.112971
    20  C    0.109636
    23  C    0.031738
    26  O   -0.771482
 APT charges:
               1
     1  Si   0.125657
     2  O   -0.377480
     3  O   -0.349876
     4  O   -0.391899
     5  O   -0.424888
     6  O    0.001427
     7  O   -0.363970
     8  C   -0.889253
     9  H    0.581718
    10  H    0.349456
    11  C   -0.220227
    12  H    0.162988
    13  H    0.222837
    14  C   -0.607334
    15  H    0.251712
    16  H    0.448337
    17  C   -0.441723
    18  H    0.365386
    19  H    0.231180
    20  C   -0.447825
    21  H    0.379528
    22  H    0.227108
    23  C   -0.627118
    24  H    0.281195
    25  H    0.457877
    26  O   -0.716882
    27  H   -0.118226
    28  H   -0.109708
 Sum of APT charges =  -2.00000
 APT charges with hydrogens summed into heavy atoms:
               1
     1  Si   0.125657
     2  O   -0.377480
     3  O   -0.349876
     4  O   -0.391899
     5  O   -0.424888
     6  O   -0.108281
     7  O   -0.363970
     8  C    0.041922
    11  C    0.165598
    14  C    0.092716
    17  C    0.154843
    20  C    0.158811
    23  C    0.111954
    26  O   -0.835108
 Electronic spatial extent (au):  <R**2>=           3137.0244
 Charge=             -2.0000 electrons
 Dipole moment (field-independent basis, Debye):
    X=             -8.9550    Y=             -2.5894    Z=              0.3674  Tot=              9.3291
 Quadrupole moment (field-independent basis, Debye-Ang):
   XX=           -166.8378   YY=           -112.0697   ZZ=           -111.4954
   XY=             -4.8923   XZ=              9.0771   YZ=              1.3563
 Traceless Quadrupole moment (field-independent basis, Debye-Ang):
   XX=            -36.7035   YY=             18.0646   ZZ=             18.6389
   XY=             -4.8923   XZ=              9.0771   YZ=              1.3563
 Octapole moment (field-independent basis, Debye-Ang**2):
  XXX=            -71.1957  YYY=             -0.2266  ZZZ=              5.0994  XYY=            -16.8516
  XXY=            -40.2137  XXZ=              6.0955  XZZ=            -11.3394  YZZ=              1.2153
  YYZ=              3.2327  XYZ=              4.8065
 Hexadecapole moment (field-independent basis, Debye-Ang**3):
 XXXX=          -3401.1980 YYYY=          -1520.8893 ZZZZ=           -539.6561 XXXY=            -77.1676
 XXXZ=            144.0717 YYYX=              7.6872 YYYZ=              4.6689 ZZZX=            -11.2579
 ZZZY=              3.7742 XXYY=           -685.4126 XXZZ=           -494.5007 YYZZ=           -349.2306
 XXYZ=             13.6117 YYXZ=              0.8694 ZZXY=              2.2395
 N-N= 1.228436382618D+03 E-N=-4.980223703428D+03  KE= 1.049472132779D+03
  Exact polarizability:       0.000       0.000       0.000       0.000       0.000       0.000
 Approx polarizability:     135.315      -2.401     145.303       3.012       1.485     132.032

 This type of calculation cannot be archived.


 MOST BUREAUCRACIES FUNCTION LIKE A SEPTIC TANK.
 THE LARGE CHUNKS RISE TO THE TOP.
 Job cpu time:       0 days 16 hours 14 minutes 20.6 seconds.
 Elapsed time:       0 days  4 hours  4 minutes 30.7 seconds.
 File lengths (MBytes):  RWF=    782 Int=      0 D2E=      0 Chk=     33 Scr=      1
 Normal termination of Gaussian 16 at Tue Mar 26 07:47:30 2024.
