 Entering Gaussian System, Link 0=/opt/software/gaussian/g16.c01/g16
 Initial command:
 /opt/software/gaussian/g16.c01/l1.exe "/scratch/arhender/17114654/Gau-93199.inp" -scrdir="/scratch/arhender/17114654/"
 Entering Link 1 = /opt/software/gaussian/g16.c01/l1.exe PID=     93200.
  
 Copyright (c) 1988-2019, Gaussian, Inc.  All Rights Reserved.
  
 This is part of the Gaussian(R) 16 program.  It is based on
 the Gaussian(R) 09 system (copyright 2009, Gaussian, Inc.),
 the Gaussian(R) 03 system (copyright 2003, Gaussian, Inc.),
 the Gaussian(R) 98 system (copyright 1998, Gaussian, Inc.),
 the Gaussian(R) 94 system (copyright 1995, Gaussian, Inc.),
 the Gaussian 92(TM) system (copyright 1992, Gaussian, Inc.),
 the Gaussian 90(TM) system (copyright 1990, Gaussian, Inc.),
 the Gaussian 88(TM) system (copyright 1988, Gaussian, Inc.),
 the Gaussian 86(TM) system (copyright 1986, Carnegie Mellon
 University), and the Gaussian 82(TM) system (copyright 1983,
 Carnegie Mellon University). Gaussian is a federally registered
 trademark of Gaussian, Inc.
  
 This software contains proprietary and confidential information,
 including trade secrets, belonging to Gaussian, Inc.
  
 This software is provided under written license and may be
 used, copied, transmitted, or stored only in accord with that
 written license.
  
 The following legend is applicable only to US Government
 contracts under FAR:
  
                    RESTRICTED RIGHTS LEGEND
  
 Use, reproduction and disclosure by the US Government is
 subject to restrictions as set forth in subparagraphs (a)
 and (c) of the Commercial Computer Software - Restricted
 Rights clause in FAR 52.227-19.
  
 Gaussian, Inc.
 340 Quinnipiac St., Bldg. 40, Wallingford CT 06492
  
  
 ---------------------------------------------------------------
 Warning -- This program may not be used in any manner that
 competes with the business of Gaussian, Inc. or will provide
 assistance to any competitor of Gaussian, Inc.  The licensee
 of this program is prohibited from giving any competitor of
 Gaussian, Inc. access to this program.  By using this program,
 the user acknowledges that Gaussian, Inc. is engaged in the
 business of creating and licensing software in the field of
 computational chemistry and represents and warrants to the
 licensee that it is not a competitor of Gaussian, Inc. and that
 it will not use this program in any manner prohibited above.
 ---------------------------------------------------------------
  

 Cite this work as:
 Gaussian 16, Revision C.01,
 M. J. Frisch, G. W. Trucks, H. B. Schlegel, G. E. Scuseria, 
 M. A. Robb, J. R. Cheeseman, G. Scalmani, V. Barone, 
 G. A. Petersson, H. Nakatsuji, X. Li, M. Caricato, A. V. Marenich, 
 J. Bloino, B. G. Janesko, R. Gomperts, B. Mennucci, H. P. Hratchian, 
 J. V. Ortiz, A. F. Izmaylov, J. L. Sonnenberg, D. Williams-Young, 
 F. Ding, F. Lipparini, F. Egidi, J. Goings, B. Peng, A. Petrone, 
 T. Henderson, D. Ranasinghe, V. G. Zakrzewski, J. Gao, N. Rega, 
 G. Zheng, W. Liang, M. Hada, M. Ehara, K. Toyota, R. Fukuda, 
 J. Hasegawa, M. Ishida, T. Nakajima, Y. Honda, O. Kitao, H. Nakai, 
 T. Vreven, K. Throssell, J. A. Montgomery, Jr., J. E. Peralta, 
 F. Ogliaro, M. J. Bearpark, J. J. Heyd, E. N. Brothers, K. N. Kudin, 
 V. N. Staroverov, T. A. Keith, R. Kobayashi, J. Normand, 
 K. Raghavachari, A. P. Rendell, J. C. Burant, S. S. Iyengar, 
 J. Tomasi, M. Cossi, J. M. Millam, M. Klene, C. Adamo, R. Cammi, 
 J. W. Ochterski, R. L. Martin, K. Morokuma, O. Farkas, 
 J. B. Foresman, and D. J. Fox, Gaussian, Inc., Wallingford CT, 2019.
 
 ******************************************
 Gaussian 16:  ES64L-G16RevC.01  3-Jul-2019
                20-Feb-2024 
 ******************************************
 %chk=IRC_PL2attDep_OHLG_forward_optEndpoint.chk
 %mem=1600MB
 %nprocs=4
 Will use up to    4 processors via shared memory.
 ---------------------------------------------
 # opt freq wb97xd/def2tzvpp geom=connectivity
 ---------------------------------------------
 1/18=20,19=15,26=3,38=1,57=2/1,3;
 2/9=110,12=2,17=6,18=5,40=1/2;
 3/5=44,7=202,11=2,25=1,30=1,71=1,74=-58/1,2,3;
 4//1;
 5/5=2,38=5/2;
 6/7=2,8=2,9=2,10=2,28=1/1;
 7//1,2,3,16;
 1/18=20,19=15,26=3/3(2);
 2/9=110/2;
 99//99;
 2/9=110/2;
 3/5=44,7=202,11=2,25=1,30=1,71=1,74=-58/1,2,3;
 4/5=5,16=3,69=1/1;
 5/5=2,38=5/2;
 7//1,2,3,16;
 1/18=20,19=15,26=3/3(-5);
 2/9=110/2;
 6/7=2,8=2,9=2,10=2,19=2,28=1/1;
 99/9=1/99;
 --------------------------------------------------------
 Product opt deprotonated PL2 attack on EGOH reactant opt
 --------------------------------------------------------
 Symbolic Z-matrix:
 Charge = -2 Multiplicity = 1
 C                     2.66708  -0.96613   0.89129 
 H                     2.26869  -1.81356   1.47632 
 H                     3.70519  -1.14115   0.60442 
 C                     1.90443  -0.89466  -0.41915 
 H                     2.11018   0.06313  -0.89565 
 H                     2.32287  -1.6416   -1.08864 
 O                     2.61186   0.225     1.66515 
 O                     4.44727  -0.50793  -1.37368 
 H                     4.56062   0.25638  -0.8027 
 Si                   -0.7661   -0.1271   -0.11997 
 O                    -1.87362  -0.2213    1.20577 
 H                     1.7322    0.60273   1.50442 
 O                     0.50202  -1.15417  -0.29458 
 O                    -1.88263  -1.16359  -1.02848 
 C                    -3.03218  -0.94714   0.96759 
 H                    -3.89795  -0.45343   1.43496 
 H                    -2.9531   -1.96089   1.39515 
 C                    -3.1693   -1.03638  -0.55341 
 H                    -3.79274  -1.89309  -0.85404 
 H                    -3.66101  -0.11885  -0.93176 
 O                     0.15223   1.05806   0.87008 
 C                    -0.16462   2.35913   0.54456 
 H                     0.65303   3.0433    0.80988 
 H                    -1.07572   2.69675   1.0743 
 C                    -0.4196    2.34609  -0.96219 
 O                    -1.04717   1.13591  -1.24578 
 H                    -1.055     3.18608  -1.27917 
 H                     0.53676   2.41877  -1.49957 
 
 Add virtual bond connecting atoms O8         and H3         Dist= 4.17D+00.
 Add virtual bond connecting atoms H9         and H3         Dist= 4.08D+00.

 GradGradGradGradGradGradGradGradGradGradGradGradGradGradGradGradGradGrad
 Berny optimization.
 Initialization pass.
                           ----------------------------
                           !    Initial Parameters    !
                           ! (Angstroms and Degrees)  !
 --------------------------                            --------------------------
 ! Name  Definition              Value          Derivative Info.                !
 --------------------------------------------------------------------------------
 ! R1    R(1,2)                  1.1041         estimate D2E/DX2                !
 ! R2    R(1,3)                  1.0911         estimate D2E/DX2                !
 ! R3    R(1,4)                  1.5179         estimate D2E/DX2                !
 ! R4    R(1,7)                  1.4215         estimate D2E/DX2                !
 ! R5    R(3,8)                  2.2056         estimate D2E/DX2                !
 ! R6    R(3,9)                  2.1598         estimate D2E/DX2                !
 ! R7    R(4,5)                  1.0894         estimate D2E/DX2                !
 ! R8    R(4,6)                  1.0868         estimate D2E/DX2                !
 ! R9    R(4,13)                 1.4317         estimate D2E/DX2                !
 ! R10   R(7,12)                 0.9707         estimate D2E/DX2                !
 ! R11   R(8,9)                  0.9607         estimate D2E/DX2                !
 ! R12   R(10,11)                1.73           estimate D2E/DX2                !
 ! R13   R(10,13)                1.6412         estimate D2E/DX2                !
 ! R14   R(10,14)                1.7738         estimate D2E/DX2                !
 ! R15   R(10,21)                1.7967         estimate D2E/DX2                !
 ! R16   R(10,26)                1.7151         estimate D2E/DX2                !
 ! R17   R(11,15)                1.3877         estimate D2E/DX2                !
 ! R18   R(14,18)                1.3775         estimate D2E/DX2                !
 ! R19   R(15,16)                1.1008         estimate D2E/DX2                !
 ! R20   R(15,17)                1.1031         estimate D2E/DX2                !
 ! R21   R(15,18)                1.5298         estimate D2E/DX2                !
 ! R22   R(18,19)                1.1014         estimate D2E/DX2                !
 ! R23   R(18,20)                1.1076         estimate D2E/DX2                !
 ! R24   R(21,22)                1.3781         estimate D2E/DX2                !
 ! R25   R(22,23)                1.0986         estimate D2E/DX2                !
 ! R26   R(22,24)                1.1067         estimate D2E/DX2                !
 ! R27   R(22,25)                1.5282         estimate D2E/DX2                !
 ! R28   R(25,26)                1.3924         estimate D2E/DX2                !
 ! R29   R(25,27)                1.0999         estimate D2E/DX2                !
 ! R30   R(25,28)                1.0994         estimate D2E/DX2                !
 ! A1    A(2,1,3)              111.0682         estimate D2E/DX2                !
 ! A2    A(2,1,4)              108.1973         estimate D2E/DX2                !
 ! A3    A(2,1,7)              109.9166         estimate D2E/DX2                !
 ! A4    A(3,1,4)              104.9862         estimate D2E/DX2                !
 ! A5    A(3,1,7)              108.3296         estimate D2E/DX2                !
 ! A6    A(4,1,7)              114.2692         estimate D2E/DX2                !
 ! A7    A(1,3,8)              120.6539         estimate D2E/DX2                !
 ! A8    A(1,3,9)              116.3796         estimate D2E/DX2                !
 ! A9    A(1,4,5)              108.9125         estimate D2E/DX2                !
 ! A10   A(1,4,6)              107.8187         estimate D2E/DX2                !
 ! A11   A(1,4,13)             114.112          estimate D2E/DX2                !
 ! A12   A(5,4,6)              105.1941         estimate D2E/DX2                !
 ! A13   A(5,4,13)             112.4853         estimate D2E/DX2                !
 ! A14   A(6,4,13)             107.828          estimate D2E/DX2                !
 ! A15   A(1,7,12)             105.7307         estimate D2E/DX2                !
 ! A16   A(11,10,13)           122.8272         estimate D2E/DX2                !
 ! A17   A(11,10,14)            87.5762         estimate D2E/DX2                !
 ! A18   A(11,10,21)            86.6091         estimate D2E/DX2                !
 ! A19   A(11,10,26)           115.9881         estimate D2E/DX2                !
 ! A20   A(13,10,14)            93.7958         estimate D2E/DX2                !
 ! A21   A(13,10,21)            94.3874         estimate D2E/DX2                !
 ! A22   A(13,10,26)           121.1737         estimate D2E/DX2                !
 ! A23   A(14,10,26)            89.4814         estimate D2E/DX2                !
 ! A24   A(21,10,26)            87.6911         estimate D2E/DX2                !
 ! A25   A(10,11,15)           115.5564         estimate D2E/DX2                !
 ! A26   A(4,13,10)            130.7472         estimate D2E/DX2                !
 ! A27   A(10,14,18)           110.9385         estimate D2E/DX2                !
 ! A28   A(11,15,16)           110.4357         estimate D2E/DX2                !
 ! A29   A(11,15,17)           110.7513         estimate D2E/DX2                !
 ! A30   A(11,15,18)           106.0214         estimate D2E/DX2                !
 ! A31   A(16,15,17)           107.6976         estimate D2E/DX2                !
 ! A32   A(16,15,18)           112.1978         estimate D2E/DX2                !
 ! A33   A(17,15,18)           109.7675         estimate D2E/DX2                !
 ! A34   A(14,18,15)           105.3409         estimate D2E/DX2                !
 ! A35   A(14,18,19)           111.2704         estimate D2E/DX2                !
 ! A36   A(14,18,20)           111.9236         estimate D2E/DX2                !
 ! A37   A(15,18,19)           111.5623         estimate D2E/DX2                !
 ! A38   A(15,18,20)           109.3359         estimate D2E/DX2                !
 ! A39   A(19,18,20)           107.4481         estimate D2E/DX2                !
 ! A40   A(10,21,22)           112.0298         estimate D2E/DX2                !
 ! A41   A(21,22,23)           111.0864         estimate D2E/DX2                !
 ! A42   A(21,22,24)           111.3608         estimate D2E/DX2                !
 ! A43   A(21,22,25)           105.2599         estimate D2E/DX2                !
 ! A44   A(23,22,24)           107.886          estimate D2E/DX2                !
 ! A45   A(23,22,25)           111.5674         estimate D2E/DX2                !
 ! A46   A(24,22,25)           109.706          estimate D2E/DX2                !
 ! A47   A(22,25,26)           106.4647         estimate D2E/DX2                !
 ! A48   A(22,25,27)           111.9632         estimate D2E/DX2                !
 ! A49   A(22,25,28)           109.647          estimate D2E/DX2                !
 ! A50   A(26,25,27)           110.1623         estimate D2E/DX2                !
 ! A51   A(26,25,28)           110.4855         estimate D2E/DX2                !
 ! A52   A(27,25,28)           108.1294         estimate D2E/DX2                !
 ! A53   A(10,26,25)           115.6244         estimate D2E/DX2                !
 ! A54   L(14,10,21,11,-1)     174.1853         estimate D2E/DX2                !
 ! A55   L(14,10,21,11,-2)     185.9911         estimate D2E/DX2                !
 ! D1    D(2,1,3,8)            142.1275         estimate D2E/DX2                !
 ! D2    D(2,1,3,9)            170.7036         estimate D2E/DX2                !
 ! D3    D(4,1,3,8)             25.4116         estimate D2E/DX2                !
 ! D4    D(4,1,3,9)             53.9878         estimate D2E/DX2                !
 ! D5    D(7,1,3,8)            -97.0627         estimate D2E/DX2                !
 ! D6    D(7,1,3,9)            -68.4866         estimate D2E/DX2                !
 ! D7    D(2,1,4,5)            166.3951         estimate D2E/DX2                !
 ! D8    D(2,1,4,6)            -79.9559         estimate D2E/DX2                !
 ! D9    D(2,1,4,13)            39.7924         estimate D2E/DX2                !
 ! D10   D(3,1,4,5)            -74.9374         estimate D2E/DX2                !
 ! D11   D(3,1,4,6)             38.7116         estimate D2E/DX2                !
 ! D12   D(3,1,4,13)           158.4599         estimate D2E/DX2                !
 ! D13   D(7,1,4,5)             43.605          estimate D2E/DX2                !
 ! D14   D(7,1,4,6)            157.254          estimate D2E/DX2                !
 ! D15   D(7,1,4,13)           -82.9977         estimate D2E/DX2                !
 ! D16   D(2,1,7,12)           -87.9141         estimate D2E/DX2                !
 ! D17   D(3,1,7,12)           150.5645         estimate D2E/DX2                !
 ! D18   D(4,1,7,12)            33.9373         estimate D2E/DX2                !
 ! D19   D(1,4,13,10)           94.91           estimate D2E/DX2                !
 ! D20   D(5,4,13,10)          -29.811          estimate D2E/DX2                !
 ! D21   D(6,4,13,10)         -145.347          estimate D2E/DX2                !
 ! D22   D(13,10,11,15)        -94.9663         estimate D2E/DX2                !
 ! D23   D(14,10,11,15)         -2.0117         estimate D2E/DX2                !
 ! D24   D(21,10,11,15)        171.9972         estimate D2E/DX2                !
 ! D25   D(26,10,11,15)         86.2283         estimate D2E/DX2                !
 ! D26   D(11,10,13,4)        -123.33           estimate D2E/DX2                !
 ! D27   D(14,10,13,4)         147.1076         estimate D2E/DX2                !
 ! D28   D(21,10,13,4)         -34.5389         estimate D2E/DX2                !
 ! D29   D(26,10,13,4)          55.415          estimate D2E/DX2                !
 ! D30   D(11,10,14,18)         25.5154         estimate D2E/DX2                !
 ! D31   D(13,10,14,18)        148.2656         estimate D2E/DX2                !
 ! D32   D(26,10,14,18)        -90.5233         estimate D2E/DX2                !
 ! D33   D(11,10,21,22)        -96.6657         estimate D2E/DX2                !
 ! D34   D(13,10,21,22)        140.6432         estimate D2E/DX2                !
 ! D35   D(26,10,21,22)         19.5466         estimate D2E/DX2                !
 ! D36   D(11,10,26,25)         89.3124         estimate D2E/DX2                !
 ! D37   D(13,10,26,25)        -89.5144         estimate D2E/DX2                !
 ! D38   D(14,10,26,25)        176.3625         estimate D2E/DX2                !
 ! D39   D(21,10,26,25)          4.2177         estimate D2E/DX2                !
 ! D40   D(10,11,15,16)       -140.6585         estimate D2E/DX2                !
 ! D41   D(10,11,15,17)        100.1261         estimate D2E/DX2                !
 ! D42   D(10,11,15,18)        -18.8916         estimate D2E/DX2                !
 ! D43   D(10,14,18,15)        -39.5689         estimate D2E/DX2                !
 ! D44   D(10,14,18,19)       -160.6162         estimate D2E/DX2                !
 ! D45   D(10,14,18,20)         79.1504         estimate D2E/DX2                !
 ! D46   D(11,15,18,14)         36.4749         estimate D2E/DX2                !
 ! D47   D(11,15,18,19)        157.3313         estimate D2E/DX2                !
 ! D48   D(11,15,18,20)        -83.961          estimate D2E/DX2                !
 ! D49   D(16,15,18,14)        157.1064         estimate D2E/DX2                !
 ! D50   D(16,15,18,19)        -82.0372         estimate D2E/DX2                !
 ! D51   D(16,15,18,20)         36.6705         estimate D2E/DX2                !
 ! D52   D(17,15,18,14)        -83.1888         estimate D2E/DX2                !
 ! D53   D(17,15,18,19)         37.6676         estimate D2E/DX2                !
 ! D54   D(17,15,18,20)        156.3753         estimate D2E/DX2                !
 ! D55   D(10,21,22,23)       -155.8626         estimate D2E/DX2                !
 ! D56   D(10,21,22,24)         83.8556         estimate D2E/DX2                !
 ! D57   D(10,21,22,25)        -34.9605         estimate D2E/DX2                !
 ! D58   D(21,22,25,26)         36.5314         estimate D2E/DX2                !
 ! D59   D(21,22,25,27)        156.9778         estimate D2E/DX2                !
 ! D60   D(21,22,25,28)        -83.007          estimate D2E/DX2                !
 ! D61   D(23,22,25,26)        157.1177         estimate D2E/DX2                !
 ! D62   D(23,22,25,27)        -82.4359         estimate D2E/DX2                !
 ! D63   D(23,22,25,28)         37.5794         estimate D2E/DX2                !
 ! D64   D(24,22,25,26)        -83.3861         estimate D2E/DX2                !
 ! D65   D(24,22,25,27)         37.0603         estimate D2E/DX2                !
 ! D66   D(24,22,25,28)        157.0755         estimate D2E/DX2                !
 ! D67   D(22,25,26,10)        -23.855          estimate D2E/DX2                !
 ! D68   D(27,25,26,10)       -145.4547         estimate D2E/DX2                !
 ! D69   D(28,25,26,10)         95.1368         estimate D2E/DX2                !
 --------------------------------------------------------------------------------
 Trust Radius=3.00D-01 FncErr=1.00D-07 GrdErr=1.00D-06 EigMax=2.50D+02 EigMin=1.00D-04
 Number of steps in this run=    164 maximum allowed number of steps=    168.
 GradGradGradGradGradGradGradGradGradGradGradGradGradGradGradGradGradGrad

                          Input orientation:                          
 ---------------------------------------------------------------------
 Center     Atomic      Atomic             Coordinates (Angstroms)
 Number     Number       Type             X           Y           Z
 ---------------------------------------------------------------------
      1          6           0        2.667076   -0.966127    0.891292
      2          1           0        2.268686   -1.813555    1.476322
      3          1           0        3.705188   -1.141145    0.604415
      4          6           0        1.904431   -0.894658   -0.419153
      5          1           0        2.110185    0.063127   -0.895648
      6          1           0        2.322871   -1.641604   -1.088643
      7          8           0        2.611864    0.224997    1.665152
      8          8           0        4.447267   -0.507926   -1.373682
      9          1           0        4.560622    0.256384   -0.802702
     10         14           0       -0.766096   -0.127103   -0.119971
     11          8           0       -1.873620   -0.221295    1.205768
     12          1           0        1.732200    0.602731    1.504424
     13          8           0        0.502016   -1.154169   -0.294584
     14          8           0       -1.882632   -1.163590   -1.028475
     15          6           0       -3.032176   -0.947135    0.967586
     16          1           0       -3.897950   -0.453429    1.434959
     17          1           0       -2.953101   -1.960891    1.395152
     18          6           0       -3.169304   -1.036375   -0.553411
     19          1           0       -3.792741   -1.893090   -0.854041
     20          1           0       -3.661007   -0.118846   -0.931763
     21          8           0        0.152228    1.058058    0.870082
     22          6           0       -0.164617    2.359133    0.544557
     23          1           0        0.653026    3.043299    0.809883
     24          1           0       -1.075716    2.696751    1.074298
     25          6           0       -0.419597    2.346092   -0.962186
     26          8           0       -1.047169    1.135909   -1.245781
     27          1           0       -1.054995    3.186081   -1.279172
     28          1           0        0.536755    2.418774   -1.499567
 ---------------------------------------------------------------------
                    Distance matrix (angstroms):
                    1          2          3          4          5
     1  C    0.000000
     2  H    1.104133   0.000000
     3  H    1.091149   1.809943   0.000000
     4  C    1.517894   2.137728   2.085947   0.000000
     5  H    2.136035   3.028746   2.498899   1.089373   0.000000
     6  H    2.120115   2.571293   2.242254   1.086847   1.728754
     7  O    1.421508   2.075843   2.046183   2.469497   2.614494
     8  O    2.917042   3.817513   2.205565   2.743484   2.452870
     9  H    2.819515   3.838173   2.159822   2.920164   2.459803
    10  Si   3.676042   3.821279   4.641702   2.794703   2.985105
    11  O    4.612113   4.446031   5.686022   4.167428   4.513042
    12  H    1.926458   2.475287   2.782769   2.443765   2.488853
    13  O    2.475711   2.586894   3.326963   1.431653   2.104589
    14  O    4.942099   4.891820   5.821560   3.845185   4.179123
    15  C    5.699794   5.395242   6.749934   5.127952   5.562027
    16  H    6.607420   6.314986   7.679223   6.107376   6.465002
    17  H    5.729731   5.224496   6.755003   5.293786   5.914497
    18  C    6.012939   5.856241   6.972100   5.077489   5.403613
    19  H    6.755345   6.494445   7.675380   5.800324   6.218766
    20  H    6.639733   6.620587   7.593798   5.642584   5.774173
    21  O    3.228349   3.618436   4.186956   2.923259   2.818029
    22  C    4.381331   4.919398   5.218325   3.974525   3.538440
    23  H    4.487596   5.161737   5.183385   4.310922   3.730090
    24  H    5.240101   5.629344   6.148762   4.899989   4.578933
    25  C    4.892211   5.520494   5.623959   4.024730   3.408248
    26  O    4.772971   5.206158   5.585078   3.676746   3.352960
    27  H    5.983775   6.605752   6.703143   5.113733   4.462992
    28  H    4.659617   5.456016   5.209485   3.743884   2.896459
                    6          7          8          9         10
     6  H    0.000000
     7  O    3.339327   0.000000
     8  O    2.424775   3.624968   0.000000
     9  H    2.948160   3.144669   0.960748   0.000000
    10  Si   3.574039   3.836828   5.375497   5.383968   0.000000
    11  O    4.989202   4.530980   6.832959   6.757337   1.730048
    12  H    3.479932   0.970734   4.109579   3.666437   3.068029
    13  O    2.045394   3.192824   4.140904   4.326676   1.641177
    14  O    4.233010   5.420728   6.373122   6.601729   1.773792
    15  C    5.778139   5.806520   7.849618   7.888787   2.643927
    16  H    6.817547   6.549117   8.805344   8.778291   3.511809
    17  H    5.840125   5.984968   8.033866   8.136517   3.231310
    18  C    5.551285   6.319413   7.678819   7.841245   2.605773
    19  H    6.125275   7.200805   8.371764   8.625633   3.580244
    20  H    6.176585   6.797875   8.129624   8.231199   3.006590
    21  O    3.979506   2.715867   5.092558   4.782763   1.796700
    22  C    4.986064   3.676835   5.759266   5.344581   2.642867
    23  H    5.323636   3.537140   5.636969   5.063263   3.595829
    24  H    5.920307   4.478496   6.838560   6.422369   3.081606
    25  C    4.841368   4.537808   5.656953   5.403230   2.635542
    26  O    4.369947   4.763593   5.736495   5.693611   1.715124
    27  H    5.895152   5.557240   6.627934   6.351795   3.521988
    28  H    4.454856   4.374264   4.886054   4.620937   3.175247
                   11         12         13         14         15
    11  O    0.000000
    12  H    3.710816   0.000000
    13  O    2.960567   2.799371   0.000000
    14  O    2.424839   4.754206   2.495041   0.000000
    15  C    1.387741   5.038805   3.758517   2.313561   0.000000
    16  H    2.050445   5.728777   4.779336   3.261034   1.100794
    17  H    2.056050   5.341923   3.929865   2.766868   1.103072
    18  C    2.331923   5.562921   3.682317   1.377459   1.529771
    19  H    3.274254   6.505110   4.393624   2.052100   2.188976
    20  H    2.788241   5.961742   4.336894   2.064815   2.165414
    21  O    2.419399   1.762392   2.524430   3.561024   3.764404
    22  C    3.164885   2.757573   3.673125   4.223219   4.396960
    23  H    4.147076   2.757422   4.342970   5.244715   5.434073
    24  H    3.028024   3.529068   4.380943   4.469340   4.137273
    25  C    3.661377   3.708598   3.680610   3.802990   4.625466
    26  O    2.921492   3.946239   2.923903   2.456199   3.630195
    27  H    4.295961   4.710686   4.715026   4.434802   5.103003
    28  H    4.483158   3.708243   3.770824   4.348413   5.491216
                   16         17         18         19         20
    16  H    0.000000
    17  H    1.779541   0.000000
    18  C    2.196444   2.167573   0.000000
    19  H    2.706144   2.401762   1.101369   0.000000
    20  H    2.401970   3.051032   1.107602   1.780825   0.000000
    21  O    4.359773   4.362662   4.176788   5.219641   4.378642
    22  C    4.758266   5.211695   4.665099   5.762010   4.532620
    23  H    5.773146   6.195854   5.754348   6.848461   5.625244
    24  H    4.244846   5.032013   4.579168   5.671627   4.316897
    25  C    5.067797   5.525015   4.378249   5.418529   4.072295
    26  O    4.223661   4.494138   3.114747   4.106880   2.916362
    27  H    5.356765   6.102961   4.777674   5.785669   4.223095
    28  H    6.043807   6.303964   5.154429   6.144380   4.937927
                   21         22         23         24         25
    21  O    0.000000
    22  C    1.378098   0.000000
    23  H    2.048317   1.098645   0.000000
    24  H    2.057879   1.106667   1.782852   0.000000
    25  C    2.311541   1.528221   2.185600   2.168115   0.000000
    26  O    2.433411   2.341044   3.279414   2.796392   1.392414
    27  H    3.256557   2.191484   2.702198   2.403891   1.099906
    28  H    2.759465   2.161926   2.395226   3.049937   1.099395
                   26         27         28
    26  O    0.000000
    27  H    2.050459   0.000000
    28  H    2.054012   1.780731   0.000000
 Stoichiometry    C6H14O7Si(2-)
 Framework group  C1[X(C6H14O7Si)]
 Deg. of freedom    78
 Full point group                 C1      NOp   1
 Largest Abelian subgroup         C1      NOp   1
 Largest concise Abelian subgroup C1      NOp   1
                         Standard orientation:                         
 ---------------------------------------------------------------------
 Center     Atomic      Atomic             Coordinates (Angstroms)
 Number     Number       Type             X           Y           Z
 ---------------------------------------------------------------------
      1          6           0        2.650183   -0.999177    0.897926
      2          1           0        2.244016   -1.851876    1.469801
      3          1           0        3.690025   -1.174572    0.617620
      4          6           0        1.898685   -0.909866   -0.417854
      5          1           0        2.111707    0.052616   -0.881518
      6          1           0        2.320069   -1.650521   -1.092467
      7          8           0        2.592688    0.183124    1.685037
      8          8           0        4.450677   -0.521210   -1.346824
      9          1           0        4.561944    0.236049   -0.766121
     10         14           0       -0.771552   -0.136298   -0.131859
     11          8           0       -1.890353   -0.241838    1.183515
     12          1           0        1.715704    0.565822    1.521437
     13          8           0        0.494393   -1.165795   -0.307875
     14          8           0       -1.884104   -1.158240   -1.061482
     15          6           0       -3.049406   -0.960744    0.927395
     16          1           0       -3.917308   -0.469383    1.393290
     17          1           0       -2.977398   -1.979644    1.343839
     18          6           0       -3.174223   -1.031930   -0.595612
     19          1           0       -3.798114   -1.882889   -0.911272
     20          1           0       -3.659584   -0.108347   -0.967366
     21          8           0        0.142637    1.034073    0.879389
     22          6           0       -0.166981    2.339941    0.566339
     23          1           0        0.650803    3.018078    0.846305
     24          1           0       -1.081265    2.674667    1.092415
     25          6           0       -0.409499    2.345204   -0.942507
     26          8           0       -1.038893    1.140621   -1.245258
     27          1           0       -1.039327    3.191056   -1.254983
     28          1           0        0.551524    2.420674   -1.471099
 ---------------------------------------------------------------------
 Rotational constants (GHZ):           0.9594127           0.4009938           0.3715225
 Standard basis: def2TZVPP (5D, 7F)
 There are   726 symmetry adapted cartesian basis functions of A   symmetry.
 There are   641 symmetry adapted basis functions of A   symmetry.
   641 basis functions,   970 primitive gaussians,   726 cartesian basis functions
    61 alpha electrons       61 beta electrons
       nuclear repulsion energy      1208.7601074479 Hartrees.
 NAtoms=   28 NActive=   28 NUniq=   28 SFac= 1.00D+00 NAtFMM=   60 NAOKFM=F Big=F
 Integral buffers will be    131072 words long.
 Raffenetti 2 integral format.
 Two-electron integral symmetry is turned on.
 Nuclear repulsion after empirical dispersion term =     1208.7417367286 Hartrees.
 One-electron integrals computed using PRISM.
   1 Symmetry operations used in ECPInt.
 ECPInt:  NShTT=   29161 NPrTT=   80163 LenC2=   26420 LenP2D=   54577.
 LDataN:  DoStor=T MaxTD1= 6 Len=  172
 NBasis=   641 RedAO= T EigKep=  2.01D-04  NBF=   641
 NBsUse=   641 1.00D-06 EigRej= -1.00D+00 NBFU=   641
 ExpMin= 7.01D-02 ExpMax= 4.48D+04 ExpMxC= 1.53D+03 IAcc=3 IRadAn=         5 AccDes= 0.00D+00
 Harris functional with IExCor= 4639 and IRadAn=       5 diagonalized for initial guess.
 HarFok:  IExCor= 4639 AccDes= 0.00D+00 IRadAn=         5 IDoV= 1 UseB2=F ITyADJ=14
 ICtDFT=  3500011 ScaDFX=  1.000000  1.000000  1.000000  1.000000
 FoFCou: FMM=F IPFlag=           0 FMFlag=      100000 FMFlg1=           0
         NFxFlg=           0 DoJE=T BraDBF=F KetDBF=T FulRan=T
         wScrn=  0.000000 ICntrl=       500 IOpCl=  0 I1Cent=   200000004 NGrid=           0
         NMat0=    1 NMatS0=      1 NMatT0=    0 NMatD0=    1 NMtDS0=    0 NMtDT0=    0
 Petite list used in FoFCou.
 Requested convergence on RMS density matrix=1.00D-08 within 128 cycles.
 Requested convergence on MAX density matrix=1.00D-06.
 Requested convergence on             energy=1.00D-06.
 No special actions if energy rises.
 Integral accuracy reduced to 1.0D-05 until final iterations.
 Initial convergence to 1.0D-05 achieved.  Increase integral accuracy.
 SCF Done:  E(RwB97XD) =  -1053.31728284     A.U. after   17 cycles
            NFock= 17  Conv=0.44D-08     -V/T= 2.0036

 **********************************************************************

            Population analysis using the SCF Density.

 **********************************************************************

 Orbital symmetries:
       Occupied  (A) (A) (A) (A) (A) (A) (A) (A) (A) (A) (A) (A)
                 (A) (A) (A) (A) (A) (A) (A) (A) (A) (A) (A) (A)
                 (A) (A) (A) (A) (A) (A) (A) (A) (A) (A) (A) (A)
                 (A) (A) (A) (A) (A) (A) (A) (A) (A) (A) (A) (A)
                 (A) (A) (A) (A) (A) (A) (A) (A) (A) (A) (A) (A)
                 (A)
       Virtual   (A) (A) (A) (A) (A) (A) (A) (A) (A) (A) (A) (A)
                 (A) (A) (A) (A) (A) (A) (A) (A) (A) (A) (A) (A)
                 (A) (A) (A) (A) (A) (A) (A) (A) (A) (A) (A) (A)
                 (A) (A) (A) (A) (A) (A) (A) (A) (A) (A) (A) (A)
                 (A) (A) (A) (A) (A) (A) (A) (A) (A) (A) (A) (A)
                 (A) (A) (A) (A) (A) (A) (A) (A) (A) (A) (A) (A)
                 (A) (A) (A) (A) (A) (A) (A) (A) (A) (A) (A) (A)
                 (A) (A) (A) (A) (A) (A) (A) (A) (A) (A) (A) (A)
                 (A) (A) (A) (A) (A) (A) (A) (A) (A) (A) (A) (A)
                 (A) (A) (A) (A) (A) (A) (A) (A) (A) (A) (A) (A)
                 (A) (A) (A) (A) (A) (A) (A) (A) (A) (A) (A) (A)
                 (A) (A) (A) (A) (A) (A) (A) (A) (A) (A) (A) (A)
                 (A) (A) (A) (A) (A) (A) (A) (A) (A) (A) (A) (A)
                 (A) (A) (A) (A) (A) (A) (A) (A) (A) (A) (A) (A)
                 (A) (A) (A) (A) (A) (A) (A) (A) (A) (A) (A) (A)
                 (A) (A) (A) (A) (A) (A) (A) (A) (A) (A) (A) (A)
                 (A) (A) (A) (A) (A) (A) (A) (A) (A) (A) (A) (A)
                 (A) (A) (A) (A) (A) (A) (A) (A) (A) (A) (A) (A)
                 (A) (A) (A) (A) (A) (A) (A) (A) (A) (A) (A) (A)
                 (A) (A) (A) (A) (A) (A) (A) (A) (A) (A) (A) (A)
                 (A) (A) (A) (A) (A) (A) (A) (A) (A) (A) (A) (A)
                 (A) (A) (A) (A) (A) (A) (A) (A) (A) (A) (A) (A)
                 (A) (A) (A) (A) (A) (A) (A) (A) (A) (A) (A) (A)
                 (A) (A) (A) (A) (A) (A) (A) (A) (A) (A) (A) (A)
                 (A) (A) (A) (A) (A) (A) (A) (A) (A) (A) (A) (A)
                 (A) (A) (A) (A) (A) (A) (A) (A) (A) (A) (A) (A)
                 (A) (A) (A) (A) (A) (A) (A) (A) (A) (A) (A) (A)
                 (A) (A) (A) (A) (A) (A) (A) (A) (A) (A) (A) (A)
                 (A) (A) (A) (A) (A) (A) (A) (A) (A) (A) (A) (A)
                 (A) (A) (A) (A) (A) (A) (A) (A) (A) (A) (A) (A)
                 (A) (A) (A) (A) (A) (A) (A) (A) (A) (A) (A) (A)
                 (A) (A) (A) (A) (A) (A) (A) (A) (A) (A) (A) (A)
                 (A) (A) (A) (A) (A) (A) (A) (A) (A) (A) (A) (A)
                 (A) (A) (A) (A) (A) (A) (A) (A) (A) (A) (A) (A)
                 (A) (A) (A) (A) (A) (A) (A) (A) (A) (A) (A) (A)
                 (A) (A) (A) (A) (A) (A) (A) (A) (A) (A) (A) (A)
                 (A) (A) (A) (A) (A) (A) (A) (A) (A) (A) (A) (A)
                 (A) (A) (A) (A) (A) (A) (A) (A) (A) (A) (A) (A)
                 (A) (A) (A) (A) (A) (A) (A) (A) (A) (A) (A) (A)
                 (A) (A) (A) (A) (A) (A) (A) (A) (A) (A) (A) (A)
                 (A) (A) (A) (A) (A) (A) (A) (A) (A) (A) (A) (A)
                 (A) (A) (A) (A) (A) (A) (A) (A) (A) (A) (A) (A)
                 (A) (A) (A) (A) (A) (A) (A) (A) (A) (A) (A) (A)
                 (A) (A) (A) (A) (A) (A) (A) (A) (A) (A) (A) (A)
                 (A) (A) (A) (A) (A) (A) (A) (A) (A) (A) (A) (A)
                 (A) (A) (A) (A) (A) (A) (A) (A) (A) (A) (A) (A)
                 (A) (A) (A) (A) (A) (A) (A) (A) (A) (A) (A) (A)
                 (A) (A) (A) (A) (A) (A) (A) (A) (A) (A) (A) (A)
                 (A) (A) (A) (A)
 The electronic state is 1-A.
 Alpha  occ. eigenvalues --  -66.03604 -18.97695 -18.97581 -18.95917 -18.95572
 Alpha  occ. eigenvalues --  -18.95017 -18.94884 -18.78274 -10.09412 -10.08958
 Alpha  occ. eigenvalues --  -10.08786 -10.08599 -10.02834 -10.02751  -5.14661
 Alpha  occ. eigenvalues --   -3.49287  -3.49186  -3.49100  -0.89068  -0.86608
 Alpha  occ. eigenvalues --   -0.83254  -0.82183  -0.81092  -0.80286  -0.60444
 Alpha  occ. eigenvalues --   -0.58720  -0.56760  -0.53505  -0.46239  -0.45135
 Alpha  occ. eigenvalues --   -0.42645  -0.36800  -0.34591  -0.33724  -0.33185
 Alpha  occ. eigenvalues --   -0.32684  -0.30213  -0.29014  -0.28688  -0.27313
 Alpha  occ. eigenvalues --   -0.24869  -0.24790  -0.24471  -0.23120  -0.20885
 Alpha  occ. eigenvalues --   -0.18964  -0.16996  -0.15155  -0.14149  -0.13724
 Alpha  occ. eigenvalues --   -0.13375  -0.12263  -0.11108  -0.09867  -0.09006
 Alpha  occ. eigenvalues --   -0.08574  -0.08377  -0.07873  -0.06126   0.05021
 Alpha  occ. eigenvalues --    0.05248
 Alpha virt. eigenvalues --    0.32275   0.33801   0.36068   0.36425   0.36957
 Alpha virt. eigenvalues --    0.37437   0.37852   0.40466   0.41457   0.41665
 Alpha virt. eigenvalues --    0.41958   0.43640   0.44007   0.45281   0.46309
 Alpha virt. eigenvalues --    0.46913   0.47675   0.48079   0.48517   0.48829
 Alpha virt. eigenvalues --    0.49647   0.50634   0.52014   0.52895   0.53326
 Alpha virt. eigenvalues --    0.54241   0.55743   0.57231   0.57914   0.58343
 Alpha virt. eigenvalues --    0.59916   0.60758   0.60915   0.61608   0.62739
 Alpha virt. eigenvalues --    0.63272   0.64558   0.65591   0.66480   0.67968
 Alpha virt. eigenvalues --    0.68330   0.68614   0.68855   0.69036   0.69941
 Alpha virt. eigenvalues --    0.70931   0.71766   0.71939   0.72462   0.72532
 Alpha virt. eigenvalues --    0.73169   0.74058   0.74194   0.74669   0.75196
 Alpha virt. eigenvalues --    0.75863   0.76650   0.78140   0.78574   0.79422
 Alpha virt. eigenvalues --    0.80158   0.81102   0.82031   0.82639   0.83024
 Alpha virt. eigenvalues --    0.83608   0.84434   0.84881   0.86414   0.87521
 Alpha virt. eigenvalues --    0.88368   0.88499   0.88824   0.89774   0.91827
 Alpha virt. eigenvalues --    0.93003   0.94475   0.95308   0.95741   0.96568
 Alpha virt. eigenvalues --    0.97416   0.99256   1.00730   1.01211   1.01240
 Alpha virt. eigenvalues --    1.03057   1.04058   1.05021   1.05363   1.07202
 Alpha virt. eigenvalues --    1.07261   1.08075   1.09706   1.10258   1.11059
 Alpha virt. eigenvalues --    1.11326   1.12892   1.13796   1.14749   1.15392
 Alpha virt. eigenvalues --    1.16054   1.16859   1.17415   1.18110   1.19633
 Alpha virt. eigenvalues --    1.20183   1.21205   1.22273   1.22804   1.23153
 Alpha virt. eigenvalues --    1.23679   1.26542   1.27079   1.28640   1.28703
 Alpha virt. eigenvalues --    1.30140   1.30349   1.30872   1.32277   1.32638
 Alpha virt. eigenvalues --    1.34360   1.34788   1.35552   1.35918   1.37521
 Alpha virt. eigenvalues --    1.38800   1.39360   1.39721   1.40234   1.41761
 Alpha virt. eigenvalues --    1.41974   1.42435   1.43556   1.45329   1.46072
 Alpha virt. eigenvalues --    1.47434   1.47857   1.48981   1.50530   1.50646
 Alpha virt. eigenvalues --    1.51646   1.52975   1.53411   1.54064   1.54621
 Alpha virt. eigenvalues --    1.56629   1.58055   1.58471   1.59227   1.59605
 Alpha virt. eigenvalues --    1.60897   1.61294   1.61777   1.62438   1.64318
 Alpha virt. eigenvalues --    1.65100   1.66726   1.67217   1.67727   1.68632
 Alpha virt. eigenvalues --    1.69460   1.69861   1.71758   1.72335   1.73500
 Alpha virt. eigenvalues --    1.73846   1.75665   1.76333   1.77080   1.77606
 Alpha virt. eigenvalues --    1.81266   1.81679   1.82338   1.84329   1.85179
 Alpha virt. eigenvalues --    1.85469   1.86145   1.88058   1.88547   1.89708
 Alpha virt. eigenvalues --    1.90997   1.91285   1.92639   1.93281   1.95182
 Alpha virt. eigenvalues --    1.96530   1.97955   1.99846   2.01028   2.02745
 Alpha virt. eigenvalues --    2.03806   2.10009   2.11279   2.12183   2.12554
 Alpha virt. eigenvalues --    2.12622   2.14862   2.16716   2.19181   2.20877
 Alpha virt. eigenvalues --    2.22398   2.23531   2.24672   2.24716   2.27096
 Alpha virt. eigenvalues --    2.28500   2.28841   2.30432   2.31043   2.32040
 Alpha virt. eigenvalues --    2.33326   2.34168   2.36895   2.37422   2.38558
 Alpha virt. eigenvalues --    2.39945   2.41473   2.41805   2.43367   2.44501
 Alpha virt. eigenvalues --    2.46902   2.47621   2.48488   2.52094   2.53030
 Alpha virt. eigenvalues --    2.54099   2.56662   2.57655   2.59046   2.60511
 Alpha virt. eigenvalues --    2.61385   2.63969   2.64760   2.66154   2.67491
 Alpha virt. eigenvalues --    2.68118   2.70623   2.73041   2.73785   2.75230
 Alpha virt. eigenvalues --    2.77655   2.77981   2.79236   2.82261   2.84056
 Alpha virt. eigenvalues --    2.88334   2.89923   2.90804   2.91788   2.93972
 Alpha virt. eigenvalues --    2.94169   2.94757   2.95996   2.97276   2.98304
 Alpha virt. eigenvalues --    2.99070   3.02347   3.04214   3.05075   3.06280
 Alpha virt. eigenvalues --    3.07738   3.09423   3.10348   3.11657   3.12179
 Alpha virt. eigenvalues --    3.12465   3.12952   3.13882   3.14863   3.16043
 Alpha virt. eigenvalues --    3.18397   3.18949   3.20114   3.20888   3.22971
 Alpha virt. eigenvalues --    3.23593   3.24946   3.26726   3.27330   3.28593
 Alpha virt. eigenvalues --    3.29050   3.30355   3.30933   3.32243   3.32422
 Alpha virt. eigenvalues --    3.33835   3.35041   3.35463   3.36490   3.39161
 Alpha virt. eigenvalues --    3.39725   3.40817   3.41943   3.43154   3.44262
 Alpha virt. eigenvalues --    3.45071   3.45823   3.46008   3.46398   3.47558
 Alpha virt. eigenvalues --    3.49184   3.49365   3.50300   3.50462   3.52050
 Alpha virt. eigenvalues --    3.52545   3.53706   3.54752   3.55523   3.56711
 Alpha virt. eigenvalues --    3.58178   3.59738   3.60936   3.61750   3.64014
 Alpha virt. eigenvalues --    3.64366   3.67022   3.67353   3.68208   3.68837
 Alpha virt. eigenvalues --    3.70589   3.71870   3.72251   3.73490   3.74568
 Alpha virt. eigenvalues --    3.75946   3.76943   3.79335   3.80025   3.80555
 Alpha virt. eigenvalues --    3.82263   3.83467   3.86079   3.87674   3.88025
 Alpha virt. eigenvalues --    3.88379   3.88911   3.91332   3.92820   3.93198
 Alpha virt. eigenvalues --    3.94580   3.95730   3.96462   3.96980   3.98191
 Alpha virt. eigenvalues --    3.98825   3.99652   4.01176   4.02313   4.04000
 Alpha virt. eigenvalues --    4.04479   4.05654   4.06746   4.07756   4.07888
 Alpha virt. eigenvalues --    4.08902   4.09341   4.10086   4.10869   4.13565
 Alpha virt. eigenvalues --    4.14087   4.15200   4.15646   4.16208   4.17716
 Alpha virt. eigenvalues --    4.18638   4.21631   4.24204   4.24518   4.26386
 Alpha virt. eigenvalues --    4.27416   4.27960   4.28634   4.30377   4.30997
 Alpha virt. eigenvalues --    4.31178   4.32225   4.34160   4.35746   4.37687
 Alpha virt. eigenvalues --    4.38546   4.40217   4.42712   4.43087   4.44143
 Alpha virt. eigenvalues --    4.45194   4.46663   4.47346   4.48044   4.49216
 Alpha virt. eigenvalues --    4.50809   4.51236   4.51440   4.53000   4.55280
 Alpha virt. eigenvalues --    4.56228   4.57254   4.57515   4.57966   4.58504
 Alpha virt. eigenvalues --    4.59790   4.62118   4.64114   4.65848   4.66717
 Alpha virt. eigenvalues --    4.67345   4.68494   4.69341   4.69988   4.72060
 Alpha virt. eigenvalues --    4.73864   4.75673   4.81075   4.84007   4.84800
 Alpha virt. eigenvalues --    4.86252   4.87182   4.88165   4.89850   4.91794
 Alpha virt. eigenvalues --    4.92795   4.94466   4.94888   4.97920   4.99103
 Alpha virt. eigenvalues --    5.00535   5.02434   5.03075   5.06084   5.07955
 Alpha virt. eigenvalues --    5.09099   5.09769   5.10720   5.11126   5.12293
 Alpha virt. eigenvalues --    5.14149   5.15695   5.17724   5.18547   5.20077
 Alpha virt. eigenvalues --    5.21105   5.22227   5.23433   5.25497   5.26475
 Alpha virt. eigenvalues --    5.27342   5.28410   5.29865   5.31863   5.35386
 Alpha virt. eigenvalues --    5.36898   5.37491   5.38925   5.40009   5.41170
 Alpha virt. eigenvalues --    5.43758   5.44627   5.46653   5.47428   5.49546
 Alpha virt. eigenvalues --    5.51489   5.54432   5.55954   5.59759   5.60437
 Alpha virt. eigenvalues --    5.62046   5.62212   5.63791   5.67208   5.68908
 Alpha virt. eigenvalues --    5.70132   5.70810   5.71342   5.72494   5.73704
 Alpha virt. eigenvalues --    5.74882   5.76825   5.78977   5.79568   5.79793
 Alpha virt. eigenvalues --    5.80690   5.81862   5.84036   5.85199   5.86910
 Alpha virt. eigenvalues --    5.87392   5.89322   5.90798   5.92780   5.94089
 Alpha virt. eigenvalues --    5.94890   5.95370   5.96173   5.97724   5.99004
 Alpha virt. eigenvalues --    5.99665   6.01269   6.04306   6.05193   6.07770
 Alpha virt. eigenvalues --    6.09307   6.10224   6.12322   6.16440   6.29252
 Alpha virt. eigenvalues --    6.29902   6.31832   6.33263   6.36873   6.38583
 Alpha virt. eigenvalues --    6.41986   6.43046   6.43237   6.44849   6.46759
 Alpha virt. eigenvalues --    6.48039   6.49841   6.51642   6.56805   6.58495
 Alpha virt. eigenvalues --    6.63888   6.69666   6.87558   6.89712   6.94135
 Alpha virt. eigenvalues --    6.94927   6.96615   6.98068   6.99193   6.99766
 Alpha virt. eigenvalues --    7.02167   7.03454   7.06079   7.07434   7.09022
 Alpha virt. eigenvalues --    7.10156   7.11727   7.15079   7.17278   7.18570
 Alpha virt. eigenvalues --    7.23054   7.24857   7.26544   7.29651   7.31142
 Alpha virt. eigenvalues --    7.31968   7.34237   7.36603   7.38466   7.41318
 Alpha virt. eigenvalues --    7.45853   7.47544   7.50697   7.52345   7.59340
 Alpha virt. eigenvalues --    7.63185   7.66047   7.70984   7.77453   7.79608
 Alpha virt. eigenvalues --    7.83955   7.87927   7.89224   7.91350   8.00042
 Alpha virt. eigenvalues --    8.06450  12.74982  23.59946  23.63860  23.64498
 Alpha virt. eigenvalues --   23.75282  23.76723  23.82159  43.97530  44.41979
 Alpha virt. eigenvalues --   44.48610  44.53408  44.54996  44.67970  44.74248
          Condensed to atoms (all electrons):
               1          2          3          4          5          6
     1  C    6.123910   0.279946  -0.042910  -0.753295   0.177237  -0.011708
     2  H    0.279946   0.854008  -0.020189  -0.057558   0.012831   0.012125
     3  H   -0.042910  -0.020189   0.805927   0.209776  -0.055520  -0.005018
     4  C   -0.753295  -0.057558   0.209776   6.259135   0.029013   0.327200
     5  H    0.177237   0.012831  -0.055520   0.029013   0.783049   0.000432
     6  H   -0.011708   0.012125  -0.005018   0.327200   0.000432   0.635938
     7  O    0.180212  -0.056385  -0.006364  -0.001159  -0.010219   0.006228
     8  O    0.058088   0.008525   0.081695  -0.233796   0.105854   0.040548
     9  H   -0.002321  -0.000845  -0.023205   0.023850  -0.011861  -0.009612
    10  Si   0.016495  -0.007882  -0.000322  -0.088273  -0.017324   0.001409
    11  O   -0.000381  -0.000006   0.000001  -0.000486  -0.000118  -0.000045
    12  H   -0.072148  -0.003588   0.009237   0.021718  -0.002684  -0.001911
    13  O    0.026987   0.002609  -0.001468   0.063164  -0.010717  -0.038888
    14  O   -0.000101  -0.000060   0.000008   0.001980  -0.000246   0.000189
    15  C   -0.000277   0.000009   0.000017   0.001042  -0.000363  -0.000032
    16  H   -0.000006  -0.000002  -0.000000  -0.000036  -0.000003  -0.000001
    17  H    0.000006   0.000006   0.000000   0.000316   0.000012   0.000011
    18  C    0.000106  -0.000069  -0.000010  -0.001485   0.000081  -0.000005
    19  H   -0.000003   0.000001   0.000000   0.000046   0.000001  -0.000002
    20  H   -0.000001  -0.000002   0.000000   0.000121  -0.000002   0.000005
    21  O    0.000071  -0.000003  -0.000908   0.012359   0.005241   0.001047
    22  C    0.003990   0.000694  -0.000609  -0.012558   0.006334   0.000606
    23  H    0.000642   0.000050  -0.000011   0.000160   0.000861  -0.000031
    24  H   -0.000467   0.000019  -0.000001   0.001553  -0.000061   0.000028
    25  C   -0.006879  -0.000016   0.000757   0.023639  -0.012093  -0.000832
    26  O    0.000001   0.000041  -0.000036  -0.009329   0.005797  -0.000202
    27  H   -0.000194   0.000002   0.000005   0.000577  -0.000111  -0.000010
    28  H   -0.000060  -0.000024  -0.000146   0.003849  -0.000675   0.000161
               7          8          9         10         11         12
     1  C    0.180212   0.058088  -0.002321   0.016495  -0.000381  -0.072148
     2  H   -0.056385   0.008525  -0.000845  -0.007882  -0.000006  -0.003588
     3  H   -0.006364   0.081695  -0.023205  -0.000322   0.000001   0.009237
     4  C   -0.001159  -0.233796   0.023850  -0.088273  -0.000486   0.021718
     5  H   -0.010219   0.105854  -0.011861  -0.017324  -0.000118  -0.002684
     6  H    0.006228   0.040548  -0.009612   0.001409  -0.000045  -0.001911
     7  O    8.029017  -0.004500   0.004207   0.006243  -0.000135   0.363823
     8  O   -0.004500   8.631322   0.256609  -0.000420  -0.000000  -0.001730
     9  H    0.004207   0.256609   0.666509  -0.000147   0.000000   0.000678
    10  Si   0.006243  -0.000420  -0.000147  11.578181   0.368544  -0.003926
    11  O   -0.000135  -0.000000   0.000000   0.368544   8.000819   0.000504
    12  H    0.363823  -0.001730   0.000678  -0.003926   0.000504   0.427129
    13  O    0.001297   0.003686  -0.001157   0.499837  -0.014817  -0.001977
    14  O   -0.000007  -0.000000   0.000000   0.401343  -0.038389   0.000008
    15  C   -0.000024  -0.000000   0.000000  -0.063889   0.359017  -0.000011
    16  H    0.000000   0.000000   0.000000  -0.003420  -0.048635  -0.000002
    17  H   -0.000002   0.000000  -0.000000   0.010948  -0.056653   0.000026
    18  C    0.000017  -0.000000   0.000000  -0.063875  -0.093338  -0.000019
    19  H    0.000000  -0.000000   0.000000   0.002958   0.005472  -0.000002
    20  H   -0.000000   0.000000  -0.000000   0.007936   0.006986   0.000010
    21  O   -0.035202   0.000071  -0.000068   0.297914  -0.045271   0.053340
    22  C    0.006809   0.000112   0.000059  -0.031428   0.003067  -0.006063
    23  H    0.002312   0.000002  -0.000011   0.008321  -0.000449  -0.005862
    24  H   -0.000183  -0.000000   0.000001  -0.016627   0.007717   0.000871
    25  C   -0.003094  -0.000495  -0.000010  -0.043766  -0.002690   0.005334
    26  O    0.000017   0.000010  -0.000007   0.380962  -0.019295   0.000468
    27  H    0.000001  -0.000004   0.000003  -0.001887   0.000466   0.000035
    28  H    0.000294   0.000097   0.000216  -0.012842  -0.000323  -0.000165
              13         14         15         16         17         18
     1  C    0.026987  -0.000101  -0.000277  -0.000006   0.000006   0.000106
     2  H    0.002609  -0.000060   0.000009  -0.000002   0.000006  -0.000069
     3  H   -0.001468   0.000008   0.000017  -0.000000   0.000000  -0.000010
     4  C    0.063164   0.001980   0.001042  -0.000036   0.000316  -0.001485
     5  H   -0.010717  -0.000246  -0.000363  -0.000003   0.000012   0.000081
     6  H   -0.038888   0.000189  -0.000032  -0.000001   0.000011  -0.000005
     7  O    0.001297  -0.000007  -0.000024   0.000000  -0.000002   0.000017
     8  O    0.003686  -0.000000  -0.000000   0.000000   0.000000  -0.000000
     9  H   -0.001157   0.000000   0.000000   0.000000  -0.000000   0.000000
    10  Si   0.499837   0.401343  -0.063889  -0.003420   0.010948  -0.063875
    11  O   -0.014817  -0.038389   0.359017  -0.048635  -0.056653  -0.093338
    12  H   -0.001977   0.000008  -0.000011  -0.000002   0.000026  -0.000019
    13  O    7.962812  -0.036974  -0.001226  -0.000201   0.000629   0.001836
    14  O   -0.036974   8.058432  -0.106266   0.007886   0.013609   0.355037
    15  C   -0.001226  -0.106266   4.775864   0.345581   0.381734   0.321953
    16  H   -0.000201   0.007886   0.345581   0.821309  -0.091789  -0.015290
    17  H    0.000629   0.013609   0.381734  -0.091789   0.799762  -0.060358
    18  C    0.001836   0.355037   0.321953  -0.015290  -0.060358   4.750243
    19  H    0.000112  -0.049452  -0.016133   0.011909  -0.021857   0.353922
    20  H   -0.000407  -0.056148  -0.081488  -0.014688   0.020713   0.366992
    21  O   -0.043744   0.001004   0.003376   0.000031  -0.000186  -0.000777
    22  C    0.000952  -0.000836   0.000993  -0.000111   0.000177  -0.000561
    23  H   -0.000398   0.000002   0.000044  -0.000020   0.000001  -0.000011
    24  H   -0.000489   0.000109  -0.000511  -0.000254   0.000109  -0.000448
    25  C   -0.005199   0.001277  -0.000207   0.000385  -0.000090  -0.000472
    26  O   -0.016227  -0.046170  -0.004208   0.000270  -0.000249  -0.007364
    27  H   -0.000386   0.000001   0.000399  -0.000026   0.000010   0.000266
    28  H    0.000147  -0.000249  -0.000206   0.000004  -0.000004  -0.000140
              19         20         21         22         23         24
     1  C   -0.000003  -0.000001   0.000071   0.003990   0.000642  -0.000467
     2  H    0.000001  -0.000002  -0.000003   0.000694   0.000050   0.000019
     3  H    0.000000   0.000000  -0.000908  -0.000609  -0.000011  -0.000001
     4  C    0.000046   0.000121   0.012359  -0.012558   0.000160   0.001553
     5  H    0.000001  -0.000002   0.005241   0.006334   0.000861  -0.000061
     6  H   -0.000002   0.000005   0.001047   0.000606  -0.000031   0.000028
     7  O    0.000000  -0.000000  -0.035202   0.006809   0.002312  -0.000183
     8  O   -0.000000   0.000000   0.000071   0.000112   0.000002  -0.000000
     9  H    0.000000  -0.000000  -0.000068   0.000059  -0.000011   0.000001
    10  Si   0.002958   0.007936   0.297914  -0.031428   0.008321  -0.016627
    11  O    0.005472   0.006986  -0.045271   0.003067  -0.000449   0.007717
    12  H   -0.000002   0.000010   0.053340  -0.006063  -0.005862   0.000871
    13  O    0.000112  -0.000407  -0.043744   0.000952  -0.000398  -0.000489
    14  O   -0.049452  -0.056148   0.001004  -0.000836   0.000002   0.000109
    15  C   -0.016133  -0.081488   0.003376   0.000993   0.000044  -0.000511
    16  H    0.011909  -0.014688   0.000031  -0.000111  -0.000020  -0.000254
    17  H   -0.021857   0.020713  -0.000186   0.000177   0.000001   0.000109
    18  C    0.353922   0.366992  -0.000777  -0.000561  -0.000011  -0.000448
    19  H    0.812893  -0.094953  -0.000003  -0.000057  -0.000001  -0.000006
    20  H   -0.094953   0.845935   0.000316   0.000643  -0.000004   0.000452
    21  O   -0.000003   0.000316   8.121876   0.322317  -0.049809  -0.046719
    22  C   -0.000057   0.000643   0.322317   4.747716   0.389896   0.376244
    23  H   -0.000001  -0.000004  -0.049809   0.389896   0.743897  -0.080692
    24  H   -0.000006   0.000452  -0.046719   0.376244  -0.080692   0.823849
    25  C    0.000028   0.000340  -0.082717   0.274044  -0.027527  -0.068632
    26  O   -0.000616   0.011357  -0.025412  -0.085346   0.005608   0.007715
    27  H   -0.000023  -0.000025   0.006648  -0.017836   0.009310  -0.012325
    28  H    0.000002   0.000093   0.010116  -0.055312  -0.015568   0.016561
              25         26         27         28
     1  C   -0.006879   0.000001  -0.000194  -0.000060
     2  H   -0.000016   0.000041   0.000002  -0.000024
     3  H    0.000757  -0.000036   0.000005  -0.000146
     4  C    0.023639  -0.009329   0.000577   0.003849
     5  H   -0.012093   0.005797  -0.000111  -0.000675
     6  H   -0.000832  -0.000202  -0.000010   0.000161
     7  O   -0.003094   0.000017   0.000001   0.000294
     8  O   -0.000495   0.000010  -0.000004   0.000097
     9  H   -0.000010  -0.000007   0.000003   0.000216
    10  Si  -0.043766   0.380962  -0.001887  -0.012842
    11  O   -0.002690  -0.019295   0.000466  -0.000323
    12  H    0.005334   0.000468   0.000035  -0.000165
    13  O   -0.005199  -0.016227  -0.000386   0.000147
    14  O    0.001277  -0.046170   0.000001  -0.000249
    15  C   -0.000207  -0.004208   0.000399  -0.000206
    16  H    0.000385   0.000270  -0.000026   0.000004
    17  H   -0.000090  -0.000249   0.000010  -0.000004
    18  C   -0.000472  -0.007364   0.000266  -0.000140
    19  H    0.000028  -0.000616  -0.000023   0.000002
    20  H    0.000340   0.011357  -0.000025   0.000093
    21  O   -0.082717  -0.025412   0.006648   0.010116
    22  C    0.274044  -0.085346  -0.017836  -0.055312
    23  H   -0.027527   0.005608   0.009310  -0.015568
    24  H   -0.068632   0.007715  -0.012325   0.016561
    25  C    4.784492   0.330370   0.351819   0.422511
    26  O    0.330370   7.992103  -0.049370  -0.047514
    27  H    0.351819  -0.049370   0.793932  -0.074764
    28  H    0.422511  -0.047514  -0.074764   0.713760
 Mulliken charges:
               1
     1  C    0.023059
     2  H   -0.024236
     3  H    0.049293
     4  C    0.178477
     5  H   -0.004746
     6  H    0.042369
     7  O   -0.483205
     8  O   -0.945673
     9  H    0.097111
    10  Si   0.774938
    11  O   -0.431558
    12  H    0.216908
    13  O   -0.389793
    14  O   -0.505986
    15  C    0.084813
    16  H   -0.012891
    17  H    0.003118
    18  C    0.093768
    19  H   -0.004239
    20  H   -0.014180
    21  O   -0.504905
    22  C    0.076060
    23  H    0.019291
    24  H   -0.007812
    25  C    0.059725
    26  O   -0.423374
    27  H   -0.006513
    28  H    0.040183
 Sum of Mulliken charges =  -2.00000
 Mulliken charges with hydrogens summed into heavy atoms:
               1
     1  C    0.048117
     4  C    0.216100
     7  O   -0.266296
     8  O   -0.848562
    10  Si   0.774938
    11  O   -0.431558
    13  O   -0.389793
    14  O   -0.505986
    15  C    0.075039
    18  C    0.075349
    21  O   -0.504905
    22  C    0.087538
    25  C    0.093395
    26  O   -0.423374
 Electronic spatial extent (au):  <R**2>=           3436.7763
 Charge=             -2.0000 electrons
 Dipole moment (field-independent basis, Debye):
    X=            -15.3485    Y=              3.7122    Z=              4.0724  Tot=             16.3077
 Quadrupole moment (field-independent basis, Debye-Ang):
   XX=           -200.9499   YY=           -105.1658   ZZ=           -122.3347
   XY=              9.4898   XZ=             16.6187   YZ=             -5.5691
 Traceless Quadrupole moment (field-independent basis, Debye-Ang):
   XX=            -58.1331   YY=             37.6510   ZZ=             20.4821
   XY=              9.4898   XZ=             16.6187   YZ=             -5.5691
 Octapole moment (field-independent basis, Debye-Ang**2):
  XXX=           -390.8253  YYY=              3.5563  ZZZ=              7.0983  XYY=             -0.3642
  XXY=             58.6747  XXZ=            106.8947  XZZ=            -45.8306  YZZ=              2.5326
  YYZ=              7.0946  XYZ=            -14.7403
 Hexadecapole moment (field-independent basis, Debye-Ang**3):
 XXXX=          -4987.0072 YYYY=          -1046.9906 ZZZZ=           -728.0403 XXXY=            236.1896
 XXXZ=            538.0153 YYYX=             13.0403 YYYZ=              3.2344 ZZZX=             45.1502
 ZZZY=              1.2918 XXYY=           -717.8450 XXZZ=           -893.0121 YYZZ=           -292.2875
 XXYZ=            -74.2247 YYXZ=              3.1265 ZZXY=             15.2184
 N-N= 1.208741736729D+03 E-N=-4.938993530319D+03  KE= 1.049587979794D+03
   1 Symmetry operations used in ECPInt.
 ECPInt:  NShTT=   29161 NPrTT=   80163 LenC2=   26420 LenP2D=   54577.
 LDataN:  DoStor=T MaxTD1= 7 Len=  274
 Calling FoFJK, ICntrl=      2127 FMM=F ISym2X=0 I1Cent= 0 IOpClX= 0 NMat=1 NMatS=1 NMatT=0.
 ***** Axes restored to original set *****
 -------------------------------------------------------------------
 Center     Atomic                   Forces (Hartrees/Bohr)
 Number     Number              X              Y              Z
 -------------------------------------------------------------------
      1        6          -0.002879905    0.000343197    0.000119200
      2        1           0.000110370   -0.000226094    0.000284238
      3        1           0.000082572    0.000153425   -0.000398612
      4        6          -0.004853630   -0.000296013    0.002009841
      5        1          -0.000999508   -0.000144426    0.000207584
      6        1          -0.000226496   -0.000388235   -0.000070564
      7        8          -0.000667699   -0.000869401    0.002501537
      8        8           0.013209936    0.002192861   -0.005563596
      9        1          -0.000329392   -0.001091805   -0.001020116
     10       14          -0.003395680    0.003341470    0.001337416
     11        8           0.000080418   -0.000289940    0.001154406
     12        1          -0.000012392    0.000022308    0.000238883
     13        8          -0.005599308   -0.001850937    0.001239878
     14        8           0.002409453   -0.000583330    0.001002355
     15        6           0.000373096   -0.000354167   -0.000235700
     16        1          -0.000015127   -0.000018251   -0.000094747
     17        1           0.000005726   -0.000021047    0.000018332
     18        6           0.001708923   -0.000897839   -0.000445436
     19        1           0.000175459   -0.000098973   -0.000050162
     20        1           0.000116505   -0.000090219   -0.000094183
     21        8          -0.000115327   -0.000261086   -0.000796926
     22        6           0.000379044    0.000024325   -0.000302524
     23        1           0.000055559   -0.000042352   -0.000005731
     24        1           0.000043355    0.000014497   -0.000003699
     25        6           0.000205812    0.000538665   -0.000311479
     26        8           0.000114763    0.000801151   -0.000689622
     27        1           0.000013785    0.000052680    0.000006239
     28        1           0.000009690    0.000039537   -0.000036814
 -------------------------------------------------------------------
 Cartesian Forces:  Max     0.013209936 RMS     0.001994234

 GradGradGradGradGradGradGradGradGradGradGradGradGradGradGradGradGradGrad
 Berny optimization.
 FormGI is forming the generalized inverse of G from B-inverse, IUseBI=4.
 Internal  Forces:  Max     0.041597020 RMS     0.004219444
 Search for a local minimum.
 Step number   1 out of a maximum of  164
 All quantities printed in internal units (Hartrees-Bohrs-Radians)
 Mixed Optimization -- RFO/linear search
 Second derivative matrix not updated -- first step.
 ITU=  0
     Eigenvalues ---    0.00230   0.00529   0.01018   0.01021   0.01273
     Eigenvalues ---    0.01407   0.02135   0.02267   0.02345   0.03095
     Eigenvalues ---    0.03794   0.04507   0.04630   0.04790   0.04816
     Eigenvalues ---    0.04995   0.05033   0.05419   0.05964   0.05970
     Eigenvalues ---    0.06087   0.06329   0.06367   0.06982   0.07813
     Eigenvalues ---    0.08429   0.10126   0.10486   0.10609   0.11085
     Eigenvalues ---    0.11116   0.11239   0.11258   0.11303   0.11698
     Eigenvalues ---    0.12024   0.13215   0.13745   0.13876   0.14102
     Eigenvalues ---    0.14538   0.15991   0.16000   0.18674   0.18875
     Eigenvalues ---    0.21741   0.21957   0.21999   0.24928   0.25000
     Eigenvalues ---    0.25452   0.26772   0.28389   0.28597   0.30570
     Eigenvalues ---    0.31688   0.32855   0.32955   0.33102   0.33229
     Eigenvalues ---    0.33345   0.33531   0.33594   0.33693   0.33749
     Eigenvalues ---    0.33832   0.34680   0.34885   0.35180   0.40753
     Eigenvalues ---    0.42234   0.44014   0.44754   0.45342   0.47597
     Eigenvalues ---    0.47697   0.50306   0.53227
 RFO step:  Lambda=-1.58566642D-02 EMin= 2.30000000D-03
 Linear search not attempted -- first point.
 Maximum step size (   0.300) exceeded in Quadratic search.
    -- Step size scaled by   0.927
 Iteration  1 RMS(Cart)=  0.09335206 RMS(Int)=  0.01008835
 Iteration  2 RMS(Cart)=  0.04211026 RMS(Int)=  0.00298531
 Iteration  3 RMS(Cart)=  0.00194541 RMS(Int)=  0.00260085
 Iteration  4 RMS(Cart)=  0.00012810 RMS(Int)=  0.00260058
 Iteration  5 RMS(Cart)=  0.00001324 RMS(Int)=  0.00260058
 Iteration  6 RMS(Cart)=  0.00000137 RMS(Int)=  0.00260058
 Iteration  7 RMS(Cart)=  0.00000014 RMS(Int)=  0.00260058
 Variable       Old X    -DE/DX   Delta X   Delta X   Delta X     New X
                                 (Linear)    (Quad)   (Total)
    R1        2.08651   0.00028   0.00000   0.00076   0.00076   2.08726
    R2        2.06197   0.01397   0.00000   0.03571   0.03571   2.09768
    R3        2.86840   0.00145   0.00000   0.00417   0.00417   2.87257
    R4        2.68626   0.00081   0.00000   0.00172   0.00172   2.68798
    R5        4.16791   0.01034   0.00000   0.20987   0.20682   4.37473
    R6        4.08147   0.00001   0.00000   0.00535   0.00485   4.08633
    R7        2.05862  -0.00041   0.00000  -0.00103  -0.00103   2.05758
    R8        2.05384   0.00022   0.00000   0.00056   0.00056   2.05441
    R9        2.70543   0.00346   0.00000   0.00757   0.00757   2.71301
   R10        1.83442  -0.00002   0.00000  -0.00003  -0.00003   1.83439
   R11        1.81555  -0.00103   0.00000  -0.00362   0.00481   1.82036
   R12        3.26932   0.00015   0.00000   0.00037   0.00039   3.26970
   R13        3.10138  -0.00028   0.00000  -0.00057  -0.00057   3.10080
   R14        3.35198  -0.00249   0.00000  -0.00817  -0.00815   3.34383
   R15        3.39527  -0.00033   0.00000  -0.00186  -0.00185   3.39343
   R16        3.24111   0.00155   0.00000   0.00363   0.00364   3.24475
   R17        2.62245   0.00027   0.00000   0.00077   0.00076   2.62321
   R18        2.60302  -0.00186   0.00000  -0.00375  -0.00376   2.59926
   R19        2.08020  -0.00004   0.00000  -0.00010  -0.00010   2.08010
   R20        2.08450   0.00003   0.00000   0.00007   0.00007   2.08458
   R21        2.89085   0.00026   0.00000   0.00154   0.00152   2.89237
   R22        2.08128  -0.00001   0.00000  -0.00002  -0.00002   2.08126
   R23        2.09306  -0.00010   0.00000  -0.00026  -0.00026   2.09281
   R24        2.60423   0.00018   0.00000   0.00052   0.00051   2.60474
   R25        2.07614   0.00001   0.00000   0.00003   0.00003   2.07617
   R26        2.09130  -0.00003   0.00000  -0.00009  -0.00009   2.09121
   R27        2.88792  -0.00011   0.00000   0.00029   0.00028   2.88820
   R28        2.63128   0.00028   0.00000   0.00084   0.00084   2.63212
   R29        2.07852   0.00003   0.00000   0.00008   0.00008   2.07860
   R30        2.07756   0.00003   0.00000   0.00008   0.00008   2.07763
    A1        1.93851  -0.00473   0.00000  -0.03890  -0.03829   1.90021
    A2        1.88840  -0.00562   0.00000  -0.04253  -0.04170   1.84670
    A3        1.91841   0.00195   0.00000  -0.02496  -0.02623   1.89218
    A4        1.83235   0.01663   0.00000   0.12480   0.12444   1.95679
    A5        1.89071  -0.00593   0.00000  -0.01761  -0.02076   1.86995
    A6        1.99437  -0.00199   0.00000   0.00335   0.00130   1.99568
    A7        2.10581   0.04160   0.00000   0.14582   0.13418   2.23999
    A8        2.03121  -0.00022   0.00000  -0.00834   0.01093   2.04214
    A9        1.90088   0.00227   0.00000   0.01434   0.01435   1.91523
   A10        1.88179  -0.00032   0.00000  -0.00506  -0.00512   1.87667
   A11        1.99163  -0.00259   0.00000  -0.01126  -0.01129   1.98034
   A12        1.83598  -0.00005   0.00000   0.00405   0.00405   1.84004
   A13        1.96324   0.00008   0.00000   0.00033   0.00037   1.96361
   A14        1.88195   0.00075   0.00000  -0.00179  -0.00188   1.88007
   A15        1.84535   0.00030   0.00000   0.00156   0.00156   1.84691
   A16        2.14374  -0.00152   0.00000  -0.00726  -0.00736   2.13638
   A17        1.52849   0.00127   0.00000   0.00582   0.00578   1.53427
   A18        1.51161   0.00085   0.00000   0.01172   0.01171   1.52333
   A19        2.02437   0.00139   0.00000   0.00724   0.00719   2.03157
   A20        1.63704  -0.00458   0.00000  -0.03219  -0.03223   1.60482
   A21        1.64737   0.00178   0.00000   0.00704   0.00709   1.65446
   A22        2.11488   0.00017   0.00000   0.00040   0.00036   2.11524
   A23        1.56175   0.00161   0.00000   0.00999   0.00992   1.57167
   A24        1.53050  -0.00063   0.00000  -0.00022  -0.00025   1.53025
   A25        2.01684  -0.00191   0.00000  -0.00646  -0.00643   2.01041
   A26        2.28197   0.00384   0.00000   0.01341   0.01341   2.29537
   A27        1.93624  -0.00014   0.00000  -0.00057  -0.00055   1.93569
   A28        1.92747  -0.00011   0.00000   0.00078   0.00079   1.92825
   A29        1.93297  -0.00026   0.00000  -0.00188  -0.00189   1.93109
   A30        1.85042   0.00064   0.00000   0.00319   0.00317   1.85359
   A31        1.87968   0.00009   0.00000  -0.00028  -0.00028   1.87940
   A32        1.95822   0.00030   0.00000  -0.00018  -0.00019   1.95803
   A33        1.91580  -0.00067   0.00000  -0.00168  -0.00167   1.91414
   A34        1.83855   0.00021   0.00000   0.00207   0.00205   1.84059
   A35        1.94203  -0.00013   0.00000  -0.00082  -0.00081   1.94122
   A36        1.95344  -0.00019   0.00000  -0.00203  -0.00204   1.95140
   A37        1.94713  -0.00006   0.00000   0.00086   0.00086   1.94799
   A38        1.90827   0.00014   0.00000  -0.00031  -0.00030   1.90797
   A39        1.87532   0.00004   0.00000   0.00024   0.00024   1.87556
   A40        1.95529   0.00061   0.00000   0.00119   0.00121   1.95650
   A41        1.93882   0.00004   0.00000  -0.00010  -0.00009   1.93873
   A42        1.94361  -0.00013   0.00000  -0.00095  -0.00095   1.94267
   A43        1.83713   0.00011   0.00000   0.00182   0.00181   1.83894
   A44        1.88297   0.00002   0.00000  -0.00013  -0.00013   1.88284
   A45        1.94722  -0.00012   0.00000   0.00018   0.00018   1.94740
   A46        1.91473   0.00009   0.00000  -0.00083  -0.00083   1.91391
   A47        1.85816  -0.00036   0.00000  -0.00059  -0.00060   1.85756
   A48        1.95413   0.00012   0.00000   0.00049   0.00049   1.95462
   A49        1.91370   0.00004   0.00000  -0.00030  -0.00030   1.91340
   A50        1.92270   0.00026   0.00000   0.00117   0.00117   1.92387
   A51        1.92834  -0.00001   0.00000  -0.00059  -0.00059   1.92774
   A52        1.88721  -0.00006   0.00000  -0.00019  -0.00019   1.88702
   A53        2.01803   0.00033   0.00000   0.00041   0.00043   2.01846
   A54        3.04011   0.00212   0.00000   0.01754   0.01749   3.05760
   A55        3.24616  -0.00192   0.00000  -0.01840  -0.01846   3.22770
    D1        2.48059   0.00424   0.00000   0.08729   0.09520   2.57579
    D2        2.97934   0.00094   0.00000   0.05967   0.05065   3.02999
    D3        0.44352   0.00379   0.00000   0.08604   0.09506   0.53858
    D4        0.94226   0.00050   0.00000   0.05842   0.05051   0.99277
    D5       -1.69406  -0.00009   0.00000   0.02112   0.02959  -1.66447
    D6       -1.19532  -0.00339   0.00000  -0.00650  -0.01496  -1.21028
    D7        2.90414  -0.00143   0.00000  -0.02018  -0.01983   2.88431
    D8       -1.39549  -0.00051   0.00000  -0.01087  -0.01053  -1.40602
    D9        0.69451  -0.00141   0.00000  -0.02371  -0.02332   0.67119
   D10       -1.30790  -0.00097   0.00000  -0.02087  -0.02184  -1.32974
   D11        0.67564  -0.00006   0.00000  -0.01156  -0.01254   0.66311
   D12        2.76565  -0.00096   0.00000  -0.02440  -0.02533   2.74032
   D13        0.76105   0.00161   0.00000   0.04159   0.04218   0.80323
   D14        2.74460   0.00253   0.00000   0.05090   0.05148   2.79608
   D15       -1.44858   0.00163   0.00000   0.03805   0.03869  -1.40990
   D16       -1.53439  -0.00025   0.00000   0.00255   0.00278  -1.53161
   D17        2.62785   0.00808   0.00000   0.07658   0.07554   2.70338
   D18        0.59232  -0.00752   0.00000  -0.06944  -0.06863   0.52369
   D19        1.65649   0.00252   0.00000   0.06275   0.06274   1.71923
   D20       -0.52030   0.00147   0.00000   0.05207   0.05206  -0.46824
   D21       -2.53678   0.00103   0.00000   0.04806   0.04808  -2.48870
   D22       -1.65747   0.00361   0.00000   0.03216   0.03211  -1.62536
   D23       -0.03511  -0.00101   0.00000  -0.00234  -0.00234  -0.03745
   D24        3.00192   0.00090   0.00000   0.01606   0.01612   3.01804
   D25        1.50497   0.00132   0.00000   0.01122   0.01121   1.51618
   D26       -2.15251  -0.00076   0.00000  -0.00090  -0.00079  -2.15330
   D27        2.56751   0.00077   0.00000   0.01336   0.01325   2.58077
   D28       -0.60282   0.00130   0.00000   0.01714   0.01714  -0.58568
   D29        0.96717   0.00165   0.00000   0.02117   0.02117   0.98834
   D30        0.44533   0.00077   0.00000  -0.00143  -0.00142   0.44391
   D31        2.58772  -0.00065   0.00000  -0.00816  -0.00812   2.57960
   D32       -1.57993  -0.00049   0.00000  -0.00799  -0.00803  -1.58796
   D33       -1.68714  -0.00132   0.00000  -0.00862  -0.00859  -1.69573
   D34        2.45469   0.00020   0.00000  -0.00182  -0.00184   2.45285
   D35        0.34115   0.00006   0.00000  -0.00220  -0.00219   0.33896
   D36        1.55880   0.00045   0.00000   0.01230   0.01232   1.57112
   D37       -1.56232  -0.00177   0.00000  -0.00816  -0.00820  -1.57052
   D38        3.07811   0.00261   0.00000   0.02341   0.02346   3.10156
   D39        0.07361  -0.00007   0.00000  -0.00007  -0.00007   0.07354
   D40       -2.45495   0.00052   0.00000   0.00316   0.00315  -2.45181
   D41        1.74753   0.00065   0.00000   0.00421   0.00419   1.75172
   D42       -0.32972   0.00121   0.00000   0.00534   0.00533  -0.32439
   D43       -0.69061  -0.00012   0.00000   0.00503   0.00502  -0.68559
   D44       -2.80328  -0.00011   0.00000   0.00317   0.00317  -2.80012
   D45        1.38143   0.00007   0.00000   0.00483   0.00481   1.38625
   D46        0.63661  -0.00029   0.00000  -0.00489  -0.00490   0.63170
   D47        2.74595  -0.00035   0.00000  -0.00411  -0.00413   2.74182
   D48       -1.46540  -0.00025   0.00000  -0.00349  -0.00350  -1.46889
   D49        2.74202   0.00015   0.00000  -0.00199  -0.00200   2.74003
   D50       -1.43182   0.00009   0.00000  -0.00122  -0.00122  -1.43304
   D51        0.64002   0.00019   0.00000  -0.00059  -0.00059   0.63943
   D52       -1.45192   0.00001   0.00000  -0.00358  -0.00359  -1.45551
   D53        0.65742  -0.00005   0.00000  -0.00281  -0.00281   0.65461
   D54        2.72926   0.00005   0.00000  -0.00219  -0.00219   2.72708
   D55       -2.72031  -0.00015   0.00000   0.00169   0.00169  -2.71863
   D56        1.46356  -0.00011   0.00000   0.00255   0.00255   1.46611
   D57       -0.61018  -0.00021   0.00000   0.00296   0.00296  -0.60722
   D58        0.63759  -0.00024   0.00000  -0.00360  -0.00361   0.63398
   D59        2.73978  -0.00008   0.00000  -0.00227  -0.00227   2.73751
   D60       -1.44875  -0.00005   0.00000  -0.00239  -0.00240  -1.45114
   D61        2.74222  -0.00019   0.00000  -0.00250  -0.00250   2.73972
   D62       -1.43878  -0.00003   0.00000  -0.00116  -0.00116  -1.43994
   D63        0.65588   0.00000   0.00000  -0.00129  -0.00129   0.65460
   D64       -1.45536  -0.00019   0.00000  -0.00309  -0.00309  -1.45845
   D65        0.64682  -0.00003   0.00000  -0.00175  -0.00175   0.64507
   D66        2.74148   0.00000   0.00000  -0.00188  -0.00188   2.73961
   D67       -0.41635   0.00015   0.00000   0.00227   0.00227  -0.41407
   D68       -2.53866   0.00007   0.00000   0.00138   0.00138  -2.53729
   D69        1.66045  -0.00002   0.00000   0.00124   0.00124   1.66169
         Item               Value     Threshold  Converged?
 Maximum Force            0.041597     0.000450     NO 
 RMS     Force            0.004219     0.000300     NO 
 Maximum Displacement     1.104920     0.001800     NO 
 RMS     Displacement     0.133171     0.001200     NO 
 Predicted change in Energy=-8.994856D-03
 GradGradGradGradGradGradGradGradGradGradGradGradGradGradGradGradGradGrad

                          Input orientation:                          
 ---------------------------------------------------------------------
 Center     Atomic      Atomic             Coordinates (Angstroms)
 Number     Number       Type             X           Y           Z
 ---------------------------------------------------------------------
      1          6           0        2.652470   -1.034695    0.798473
      2          1           0        2.201590   -1.901915    1.312895
      3          1           0        3.724096   -1.249585    0.604454
      4          6           0        1.861908   -0.859358   -0.487986
      5          1           0        2.071602    0.118743   -0.917974
      6          1           0        2.243597   -1.579415   -1.207510
      7          8           0        2.601342    0.084218    1.675220
      8          8           0        5.031965   -0.543464   -1.170407
      9          1           0        4.814522    0.189942   -0.584942
     10         14           0       -0.808063   -0.074786   -0.124455
     11          8           0       -1.880407   -0.186110    1.228859
     12          1           0        1.739292    0.502708    1.520209
     13          8           0        0.455351   -1.101023   -0.332051
     14          8           0       -1.905251   -1.152234   -0.999862
     15          6           0       -3.020899   -0.948769    1.017749
     16          1           0       -3.893456   -0.477054    1.494995
     17          1           0       -2.902675   -1.954501    1.455216
     18          6           0       -3.183509   -1.062879   -0.499879
     19          1           0       -3.783094   -1.943704   -0.778506
     20          1           0       -3.712288   -0.167151   -0.880068
     21          8           0        0.129051    1.126601    0.825865
     22          6           0       -0.204670    2.422709    0.496274
     23          1           0        0.616707    3.113902    0.730053
     24          1           0       -1.101027    2.760451    1.050425
     25          6           0       -0.506550    2.394678   -1.001721
     26          8           0       -1.132512    1.176397   -1.254733
     27          1           0       -1.157581    3.227292   -1.306349
     28          1           0        0.432182    2.469401   -1.569134
[...]
 0047400,0.00018741,0.00021169,-0.00018697,-0.01889156,-0.03779279,-0.0
 2377818,0.00776884,0.00352111,-0.00035890,0.00816376,-0.00458594,0.003
 94214,-0.00095528,0.00251613,0.00160345,0.00123100,-0.00022922,0.00152
 096,-0.00133303,-0.00014989,-0.00051535,0.00077436,0.00022780,-0.00015
 187,0.00042087,0.00064382,-0.00002112,-0.00042629,0.00039686,-0.000170
 03,0.00017219,0.00013695,0.00027278,0.00038567,-0.00022916,0.00011118,
 0.03849469,-0.24911338,0.02533829,0.04650454,0.55151852,0.00009377,0.0
 0012169,-0.00007505,-0.00002943,0.00000150,-0.00005453,0.00001126,0.00
 003644,0.00008459,-0.00137970,-0.00058936,-0.00003812,0.00024497,0.000
 08165,0.00007720,0.00010274,-0.00000660,-0.00004131,-0.00105328,-0.000
 20295,-0.00003962,0.00007858,0.00002079,-0.00008140,-0.00002664,-0.000
 00638,0.00002511,0.00491435,-0.00560816,0.00792620,-0.00019213,-0.0008
 6749,-0.00080073,0.00155425,0.00118734,-0.00039045,0.00135228,-0.00493
 940,-0.00324800,0.00035178,0.00108600,-0.00074578,0.00054301,0.0002535
 3,0.00033139,-0.00007767,-0.00000527,-0.00001908,-0.00010430,-0.000171
 68,-0.00002648,-0.00027779,0.00001374,0.00023546,0.00004970,0.00000989
 ,-0.00009274,-0.00004754,-0.00001080,-0.00000413,-0.01725159,0.0452729
 8,-0.07978509,-0.01776754,0.04905977,0.47491583,-0.00002141,0.00008509
 ,0.00010848,-0.00000144,-0.00003343,-0.00000916,0.00000625,-0.00001332
 ,0.00000486,-0.00010894,0.00007658,-0.00009939,-0.00002228,-0.00016585
 ,0.00001343,0.00000496,-0.00007266,0.00001638,0.00045458,-0.00027446,0
 .00027583,0.00012426,0.00004018,-0.00002598,-0.00003051,-0.00002964,0.
 00001305,-0.00048043,0.00245205,-0.00009700,0.00021341,-0.00045174,0.0
 0002152,-0.00037803,0.00016256,-0.00042660,0.00021136,-0.00006146,0.00
 010983,-0.00017391,-0.00029008,-0.00003103,0.00032591,0.00027390,-0.00
 001016,-0.00005167,0.00003228,0.00001917,-0.00002640,-0.00010822,0.000
 01704,0.00011617,0.00005531,-0.00003676,-0.00003700,-0.00007502,-0.000
 01560,0.00001340,0.00001489,0.00000901,0.01505016,0.00626678,0.0035417
 5,-0.19690840,-0.11212686,-0.04192775,0.20475838,0.00008960,-0.0000131
 1,-0.00012770,-0.00003131,0.00006279,0.00001141,0.00002413,-0.00000304
 ,0.00004217,-0.00106856,-0.00033293,0.00004255,0.00003372,0.00010875,-
 0.00002268,0.00014496,-0.00001077,-0.00002146,0.00063134,0.00024174,0.
 00031097,0.00014436,0.00006772,-0.00000844,-0.00004561,-0.00002880,0.0
 0000367,0.00374975,0.00252301,0.00604418,-0.00222524,-0.00140567,0.000
 29176,-0.00129444,0.00007645,-0.00060900,0.00145029,-0.00145688,-0.001
 12197,-0.00028832,-0.00013792,-0.00029090,0.00010375,0.00043683,0.0002
 5964,-0.00026336,-0.00009559,0.00002498,-0.00005041,-0.00015711,0.0000
 2049,0.00018229,-0.00002533,0.00003821,-0.00005769,-0.00006502,-0.0000
 5733,-0.00006872,0.00005115,-0.00001644,-0.01929671,-0.04264263,-0.007
 29801,-0.10616864,-0.12645922,-0.03134700,0.12226393,0.15950070,0.0000
 2335,0.00005278,0.00011179,0.00000071,-0.00001232,-0.00003339,0.000007
 90,-0.00001282,0.00000033,-0.00021850,-0.00018421,0.00007879,0.0000153
 3,0.00006950,-0.00007841,-0.00000445,0.00003479,-0.00002003,0.00013752
 ,-0.00014837,-0.00013211,0.00002402,0.00001857,-0.00001020,-0.00001213
 ,0.00000102,0.00000062,-0.00128434,0.00122283,-0.00315259,-0.00002635,
 0.00014183,0.00042257,-0.00004711,0.00010165,0.00012828,0.00030902,-0.
 00004084,0.00030584,-0.00025103,-0.00051903,0.00034168,-0.00002784,-0.
 00013059,-0.00003011,0.00000266,0.00000591,0.00003097,0.00000307,0.000
 00865,0.00000845,0.00026676,0.00002308,-0.00013580,-0.00004502,-0.0000
 3338,0.00002531,-0.00000347,0.00004171,-0.00001488,0.00571652,0.008855
 71,0.00481530,-0.03873533,-0.03178065,-0.06300660,0.04343468,0.0351528
 8,0.06303640,0.00011487,-0.00037399,-0.00014208,0.00002438,0.00010719,
 -0.00001320,-0.00000057,0.00000973,-0.00000571,0.00043573,-0.00021618,
 -0.00000701,0.00010499,0.00001903,-0.00016374,-0.00001372,0.00012660,0
 .00002197,-0.00065294,0.00052838,-0.00037946,-0.00018820,0.00001480,0.
 00009829,0.00001922,0.00006449,-0.00004826,-0.00497419,-0.00355762,-0.
 00264601,0.00199207,0.00036024,-0.00051353,0.00098403,-0.00060440,0.00
 095836,-0.00007893,0.00125272,0.00062228,0.00059843,0.00022149,-0.0000
 3795,-0.00007021,0.00015726,-0.00003035,0.00019624,0.00005809,-0.00005
 724,0.00005875,0.00006776,-0.00000119,-0.00033255,0.00010490,0.0000892
 7,0.00006640,0.00002823,0.00002832,0.00011604,-0.00008904,0.00003870,-
 0.00429752,0.02213500,0.00111228,-0.19379170,0.03142830,0.09800787,-0.
 02059320,0.00286906,0.01489412,0.21178266,-0.00014071,0.00040403,0.000
 15645,-0.00001497,-0.00008633,0.00000549,0.00001005,-0.00002524,0.0000
 0893,-0.00064397,0.00002311,0.00004054,-0.00009661,-0.00006721,0.00014
 858,-0.00000200,-0.00012657,-0.00002538,0.00094019,-0.00050076,0.00051
 698,0.00017918,0.00001592,-0.00008896,-0.00003423,-0.00005071,0.000038
 92,0.00703230,0.00229842,0.00190622,-0.00088520,0.00052820,0.00062484,
 -0.00123339,0.00047865,-0.00124991,0.00013553,-0.00198944,-0.00101364,
 -0.00053546,-0.00001898,0.00016642,-0.00032415,-0.00008337,0.00007289,
 -0.00009225,-0.00006019,0.00002586,0.00004799,0.00008310,-0.00000609,0
 .00026107,-0.00004030,-0.00010427,-0.00004238,0.00000191,0.00002130,-0
 .00009041,0.00005657,-0.00001783,0.03287062,-0.03065442,-0.01457422,0.
 03067970,-0.05563301,-0.02831561,-0.01435695,0.00616026,0.00963263,-0.
 05229859,0.07584814,-0.00003429,0.00001857,-0.00001566,-0.00000138,-0.
 00002754,0.00003043,-0.00000205,-0.00000367,-0.00000048,0.00003800,0.0
 0014045,-0.00004715,-0.00007219,-0.00007327,0.00000951,-0.00000212,-0.
 00002608,0.00000811,0.00011665,-0.00005245,0.00006946,0.00006800,-0.00
 000320,-0.00000246,-0.00000339,-0.00002998,0.00000683,0.00127257,0.000
 84576,-0.00010980,-0.00089333,-0.00007294,0.00031026,-0.00026774,0.000
 14635,-0.00008704,-0.00003693,-0.00009575,0.00009414,-0.00035278,-0.00
 026384,0.00012533,0.00000470,-0.00006223,-0.00012139,-0.00008138,-0.00
 003209,0.00004030,-0.00001063,0.00000593,0.00000453,0.00025299,-0.0000
 9493,-0.00007596,-0.00004380,0.00000046,-0.00001459,-0.00007575,0.0000
 6903,-0.00003652,-0.00598465,-0.00172777,0.01096506,0.09442405,-0.0272
 5375,-0.11951405,-0.00576797,0.00131561,0.00464039,-0.10779252,0.03058
 825,0.12658036,-0.00041480,-0.00025490,-0.00015574,0.00007037,-0.00012
 117,0.00020348,-0.00007564,0.00000077,-0.00010684,0.00255570,0.0015659
 0,-0.00043813,-0.00053608,-0.00045787,0.00010711,-0.00018466,-0.000119
 97,0.00010394,-0.00071599,0.00000188,0.00010090,-0.00009287,-0.0001239
 2,0.00010088,0.00008065,-0.00004479,-0.00001979,0.00473137,-0.00792666
 ,0.01045308,-0.00005780,0.00057030,-0.00131011,0.00103918,-0.00013469,
 -0.00000567,-0.00410273,0.00162014,-0.00146432,0.00293854,0.00116145,-
 0.00053865,-0.00032894,-0.00036397,0.00016143,0.00012988,-0.00002590,-
 0.00008619,0.00000064,0.00018999,-0.00007283,0.00002008,0.00021473,0.0
 0015625,0.00034241,0.00033383,-0.00013781,-0.00002061,0.00019353,-0.00
 006295,-0.00712383,0.01209919,-0.02374173,-0.07995526,0.00365756,-0.00
 886768,-0.00514304,-0.00083131,-0.02255214,0.00430177,-0.00067411,0.02
 898902,0.55867319,-0.00043393,0.00029036,0.00039257,0.00005431,-0.0001
 1763,0.00003721,-0.00006320,-0.00009022,-0.00020613,0.00341184,0.00107
 674,-0.00011199,-0.00003371,-0.00049719,0.00022310,-0.00019398,-0.0000
 5177,0.00008455,0.00044680,-0.00044039,-0.00024521,-0.00039422,-0.0001
 3501,0.00011640,0.00010613,0.00007838,-0.00004778,0.00380641,-0.040947
 29,0.02375713,0.00005834,0.00224804,-0.00361401,-0.00092689,-0.0000217
 3,-0.00006098,-0.00450867,0.00271432,-0.00247748,0.00069646,0.00184059
 ,0.00021446,-0.00135343,-0.00094712,0.00013401,0.00038482,-0.00005759,
 -0.00022364,0.00014102,0.00045214,-0.00017406,-0.00094333,-0.00102979,
 0.00059199,0.00010636,0.00051132,-0.00000938,-0.00031675,-0.00009759,0
 .00004444,0.00585721,-0.03498470,0.02958987,-0.00421028,-0.05957477,-0
 .01103755,-0.00359627,0.00192812,-0.01998673,-0.00207773,0.00059241,-0
 .00307153,-0.04546059,0.54833914,-0.00008756,0.00052158,0.00040942,-0.
 00001755,-0.00005918,-0.00011336,0.00000763,-0.00002843,-0.00002351,-0
 .00025045,-0.00026081,0.00003023,0.00014898,0.00012477,0.00017551,0.00
 002300,-0.00003102,-0.00003668,0.00015713,-0.00055770,-0.00025575,-0.0
 0003917,-0.00001270,-0.00010970,-0.00000533,0.00003594,0.00002953,0.00
 618412,0.00797523,0.00634829,-0.00076919,-0.00017151,-0.00145573,-0.00
 002836,0.00040805,-0.00020576,-0.00018181,-0.00046684,-0.00126753,0.00
 083144,0.00327297,0.00089802,-0.00006534,0.00010958,0.00013164,-0.0000
 0846,-0.00002773,-0.00004641,0.00001519,-0.00002760,-0.00003874,-0.000
 74434,-0.00021995,0.00054020,0.00019914,0.00009895,-0.00004283,0.00000
 778,-0.00005480,-0.00012517,-0.01583798,0.01901408,-0.01946929,-0.0063
 0231,0.00678969,-0.17533535,0.00362080,-0.00086468,-0.00146629,-0.0048
 9318,0.00111826,-0.02006849,-0.03498106,-0.05061873,0.48340007,-0.0001
 5783,-0.00044485,-0.00005821,0.00004312,0.00017663,-0.00004887,-0.0000
 2158,-0.00002932,-0.00009506,0.00272885,-0.00007193,-0.00014367,0.0005
 0612,-0.00026195,0.00015030,-0.00004379,0.00014456,0.00005949,-0.00068
 999,0.00073751,-0.00034230,-0.00036655,0.00008386,0.00020688,0.0000225
 5,0.00015443,-0.00009879,-0.04572886,0.01283641,-0.01676851,0.00314410
 ,-0.00384806,0.00532065,0.00107965,-0.00095933,0.00057653,-0.00066616,
 0.00763860,-0.00429850,-0.00094666,-0.01533760,0.00196932,0.00110835,0
 .00066591,-0.00038638,-0.00004701,0.00016783,0.00011346,-0.00019767,-0
 .00052452,0.00028848,0.00092817,0.00069259,-0.00106692,-0.00039569,-0.
 00075662,0.00019797,0.00100362,-0.00011626,0.00006470,-0.00332603,-0.0
 0778135,-0.02127135,-0.01051868,-0.00715585,-0.01756943,0.00125974,-0.
 00019534,-0.00203730,0.00131446,-0.00056502,-0.00179818,-0.10598508,-0
 .05560599,-0.01655622,0.15121448,0.00132987,-0.00044976,-0.00085680,-0
 .00019272,0.00030452,-0.00017785,0.00018360,0.00017274,0.00048079,-0.0
 0710045,-0.00307025,0.00098945,0.00072831,0.00122502,-0.00047365,0.000
 55731,0.00013675,-0.00018268,0.00024675,0.00111456,0.00070140,0.000768
 28,0.00027355,-0.00026014,-0.00021155,-0.00014265,0.00010225,0.0171260
 9,-0.09505279,0.05251534,-0.00066568,-0.00079721,0.00683786,-0.0003300
 9,-0.00060238,-0.00006391,0.01170073,-0.00567305,0.00678353,-0.0173575
 0,-0.03654738,0.00796121,0.00104549,0.00084179,-0.00061382,-0.00071144
 ,0.00020213,0.00079737,-0.00018311,-0.00050077,0.00010643,0.01042467,-
 0.00337499,-0.00297699,-0.00248376,-0.00087663,0.00028731,-0.00159945,
 0.00196637,-0.00035226,0.00969909,0.01293581,0.01452554,-0.01428125,-0
 .02932262,-0.01275625,-0.00045692,0.00174847,-0.00337916,0.00084811,0.
 00144981,-0.00033132,-0.06805231,-0.21361995,-0.03753059,0.09646407,0.
 43170413,0.00013470,-0.00123609,-0.00107605,0.00006680,0.00021088,0.00
 018815,0.00000061,0.00009238,0.00006047,0.00038691,0.00039713,-0.00010
 409,-0.00019696,-0.00017639,-0.00039865,-0.00022786,0.00023157,0.00010
 054,-0.00191046,0.00185795,0.00041295,-0.00022436,0.00002342,0.0004206
 1,0.00005673,0.00001852,-0.00013681,-0.01895552,0.04722100,-0.08645256
 ,0.00314639,0.00877225,-0.00496267,0.00263025,-0.00211957,0.00079876,-
 0.00060349,0.00013311,0.00359135,-0.00214515,-0.00271149,0.00452305,-0
 .00352125,-0.00223670,-0.00113547,0.00064401,0.00019114,0.00001344,0.0
 0073834,0.00107476,0.00001506,0.00052440,0.00004124,-0.00083577,0.0000
 9456,0.00010586,0.00040380,0.00040494,-0.00007093,0.00005036,-0.022436
 49,-0.01190982,-0.02490412,-0.02776131,-0.02337503,-0.01983528,-0.0018
 3985,-0.00020372,-0.00612426,0.00131789,-0.00039937,0.00244121,-0.0154
 8737,-0.01535421,-0.08410839,0.07642707,-0.02381576,0.20190526,0.00010
 050,-0.00002804,-0.00000591,-0.00000516,0.00006155,-0.00005314,0.00000
 875,0.00000192,0.00000152,-0.00022428,-0.00044285,0.00007116,0.0001371
 1,0.00015792,-0.00006774,0.00001134,0.00007752,-0.00000606,-0.00020954
 ,0.00015885,-0.00009839,-0.00013012,0.00000442,0.00006201,0.00001362,0
 .00004654,-0.00002896,-0.00122386,-0.00236097,-0.00100437,0.00043955,0
 .00032441,-0.00003856,0.00031199,-0.00018698,0.00017749,0.00036243,0.0
 0019712,0.00021561,-0.00009859,-0.00014424,0.00011400,-0.00017742,-0.0
 0013315,-0.00000944,0.00007192,0.00000339,-0.00001843,0.00002088,0.000
 05684,-0.00001031,-0.00002170,-0.00005972,0.00001682,-0.00001497,0.000
 04772,0.00002052,-0.00001884,-0.00001848,0.00000236,0.00124562,0.00110
 347,-0.00244258,-0.00432612,0.00484718,0.00434215,-0.00003887,-0.00029
 005,-0.00037837,0.00139535,-0.00040401,-0.00035226,-0.16017552,0.11492
 792,-0.03782274,0.01551550,-0.01541319,0.00426896,0.16504509,0.0001084
 3,0.00000548,-0.00009117,-0.00002722,-0.00000774,0.00000288,0.00001935
 ,0.00001741,0.00005892,-0.00082624,-0.00016921,0.00008291,0.00002289,0
 .00006387,-0.00001217,0.00006980,-0.00001550,-0.00002443,0.00012289,0.
 00000684,0.00012435,0.00016660,0.00001970,-0.00007226,-0.00002956,-0.0
 0004687,0.00003158,-0.00027891,0.00306081,-0.00664311,-0.00052893,-0.0
 0033030,0.00073881,-0.00017365,0.00006427,-0.00010169,0.00137809,-0.00
 123590,0.00069389,-0.00175301,-0.00160418,0.00037430,0.00030542,0.0002
 4422,-0.00003875,-0.00013978,0.00001258,0.00010053,-0.00003748,-0.0000
 9142,0.00000902,0.00096783,-0.00029393,-0.00030760,-0.00025742,-0.0001
 4227,0.00002597,-0.00019000,0.00018782,-0.00002766,0.00023608,0.001364
 47,0.00056690,0.00183653,0.00146352,-0.00022979,0.00017494,-0.00056991
 ,0.00119548,-0.00072679,0.00064162,0.00067275,0.11011357,-0.15855798,0
 .03939117,0.00928581,-0.04243724,0.00715236,-0.12113271,0.19509106,0.0
 0003389,-0.00027896,-0.00019020,0.00001419,0.00003626,0.00003899,-0.00
 000849,0.00002512,0.00001482,0.00029436,0.00015486,-0.00005149,-0.0000
 3513,-0.00007576,-0.00003337,-0.00001345,0.00001933,0.00002574,-0.0004
 9651,0.00029200,-0.00000763,-0.00004921,-0.00000452,0.00005121,0.00001
 207,0.00000686,-0.00001786,-0.00168418,-0.00098456,-0.00268259,0.00052
 498,0.00021781,0.00003555,0.00074016,-0.00025249,0.00021678,-0.0001913
 5,0.00044349,0.00041591,-0.00010054,-0.00014325,0.00013734,-0.00009999
 ,-0.00007072,-0.00002879,0.00006009,0.00001867,-0.00001075,0.00002169,
 0.00003091,-0.00000225,-0.00001517,0.00000183,-0.00003257,-0.00001247,
 -0.00000784,0.00003217,0.00002432,-0.00002113,0.00001964,-0.00183889,0
 .00410585,-0.00679065,-0.01907370,0.02305350,-0.00087810,-0.00056548,-
 0.00106403,-0.00088472,0.00101720,0.00010624,0.00113811,-0.03473500,0.
 03936328,-0.06449657,0.00363121,-0.00952062,0.00475379,0.03974073,-0.0
 4354977,0.06421749,0.00010818,0.00012783,0.00009706,-0.00002227,0.0000
 3412,-0.00006828,0.00002415,0.00000077,0.00003775,-0.00104529,-0.00039
 974,0.00011295,0.00012572,0.00020646,-0.00000333,0.00007579,0.00000203
 ,-0.00003663,0.00023952,-0.00005163,-0.00004467,0.00007094,0.00004756,
 -0.00008371,-0.00003750,0.00000969,0.00002314,-0.00350977,0.00458336,-
 0.00399154,-0.00005524,-0.00056007,0.00072342,-0.00032142,0.00008134,-
 0.00005532,0.00144457,-0.00069072,0.00014479,-0.00028551,-0.00128116,0
 .00004884,0.00024283,0.00024172,-0.00005536,-0.00007142,0.00001664,0.0
 0004361,-0.00002870,-0.00011857,0.00004111,0.00043781,0.00018195,-0.00
 018739,-0.00009503,-0.00013769,0.00000512,0.00004562,0.00005757,0.0000
 0804,0.00107462,-0.00097230,0.00128571,0.00508469,0.00150813,-0.005074
 24,0.00147698,0.00048852,0.00078770,0.00148835,0.00027776,-0.00159264,
 -0.20997092,-0.00987865,0.10739583,-0.01077715,-0.02208295,0.00446750,
 -0.01801463,0.00129347,0.01280465,0.23229509,0.00011904,0.00012441,0.0
 0006220,-0.00002951,0.00003884,-0.00007913,0.00001798,-0.00000072,0.00
 002064,-0.00057820,-0.00053028,0.00007579,0.00021371,0.00020110,0.0000
 2838,0.00005582,0.00004159,-0.00003057,0.00006698,-0.00000484,-0.00008
 760,-0.00002580,0.00001338,-0.00001385,-0.00000479,0.00002274,0.000000
 74,-0.00539282,0.00314700,-0.00310487,0.00001796,-0.00062564,0.0009509
 2,-0.00009734,0.00000370,0.00004890,0.00103012,-0.00007356,-0.00005264
 ,-0.00012364,-0.00163005,-0.00000262,0.00026213,0.00015809,-0.00002329
 ,-0.00006577,0.00001414,0.00004984,-0.00005282,-0.00010396,0.00003761,
 0.00058033,0.00018057,-0.00024444,-0.00007771,-0.00010153,0.00000406,0
 .00004786,0.00010166,-0.00000367,0.00044446,0.00150713,0.00015331,0.00
 074734,-0.00005368,-0.00105101,0.00021439,0.00049794,-0.00033093,-0.00
 045702,0.00075440,-0.00058083,-0.00713065,-0.04890084,0.01207200,-0.03
 539423,-0.02160796,0.01608552,0.01859761,0.00325878,-0.01190236,0.0270
 1458,0.06356758,-0.00006157,-0.00017480,-0.00014291,0.00001705,-0.0000
 2815,0.00007354,-0.00001736,0.00001198,-0.00000691,0.00064857,0.000547
 67,-0.00012620,-0.00014040,-0.00017366,0.00005799,-0.00003342,-0.00006
 751,0.00004337,-0.00021624,0.00008347,0.00013434,-0.00000462,-0.000035
 63,0.00001913,0.00002043,-0.00002007,0.00000098,0.00052990,-0.00093126
 ,0.00004494,0.00002511,0.00031609,0.00006788,0.00030813,-0.00009728,-0
 .00000802,-0.00076427,0.00018044,0.00012963,0.00005757,0.00006872,0.00
 000263,-0.00014456,-0.00013750,-0.00001687,0.00001210,-0.00000804,-0.0
 0000534,0.00001883,0.00006118,-0.00001088,-0.00002189,-0.00000486,-0.0
 0002470,0.00002211,0.00003365,0.00000895,-0.00000853,0.00000372,0.0000
 0317,-0.00180696,0.00056261,0.00255025,0.02899689,-0.00199032,-0.01958
 388,-0.00035310,-0.00050519,0.00114267,-0.00147512,0.00061651,-0.00637
 044,0.10438791,0.01269040,-0.12329737,-0.00646637,0.00120330,0.0103953
 2,-0.00669608,-0.00012341,0.00500999,-0.11683412,-0.01208209,0.1299087
 5\\-0.00000841,0.00002145,0.00001942,0.00000279,-0.00000190,-0.0000032
 1,0.00000246,-0.00000294,-0.00000756,0.00002021,-0.00000269,0.00001008
 ,-0.00000359,-0.00000157,-0.00000266,-0.00000309,0.00000017,0.00000057
 ,0.00000460,-0.00001825,-0.00001317,0.00000405,-0.00000459,-0.00000018
 ,-0.00000526,0.00000446,-0.00000033,0.00001812,-0.00001041,0.00000636,
 -0.00000141,-0.00000902,0.00000230,-0.00000069,0.00000315,-0.00000040,
 -0.00002774,0.00001584,-0.00001043,-0.00000880,-0.00000246,-0.00000187
 ,0.00000505,0.00000773,0.00000246,-0.00000127,-0.00000029,0.00000031,-
 0.00000067,-0.00000097,0.00000101,0.00000393,0.00000114,-0.00000253,-0
 .00000083,-0.00000028,0.00000057,-0.00000069,0.00000040,0.00000030,0.0
 0000328,-0.00000047,-0.00000285,-0.00000167,0.00000337,0.00000233,-0.0
 0000027,-0.00000089,0.00000125,0.00000026,-0.00000082,0.00000022,-0.00
 000506,-0.00000278,0.00000120,0.00000534,0.00000056,-0.00000460,-0.000
 00038,0.00000092,0.00000160,-0.00000026,0.00000114,-0.00000021\\\@
 The archive entry for this job was punched.


 I WOULD TAKE COUNSEL OF MYSELF.
 I WOULD STOP AND LOOK WITHIN
 AND LOOKING WITHIN, LOOK BACK, ALSO
 THAT I MAY LOOK AHEAD WITH CLEARER UNDERSTANDING
 OF THE WAY I HAVE BEEN MOVING, AND IN WHAT DIRECTION.
 I NEED TO KNOW IF I AM GOING FORWARD OR RETREATING,
 WHETHER I HAVE BEEN WASTING, OR ENJOYING
 THE PRECIOUS MOMENTS OF LIFE.  THERE HAVE BEEN FRICTIONS,
 ANNOYANCES AND SOMETIMES WRATH,
 BUT WERE THEY BECAUSE I WAS RIGHT AND OTHERS WRONG.....
 HAVE I HAD MY THOUGHTS TOO SHARPLY FOCUSED
 ON THAT WHICH PLEASED ME, SERVED MY SELF-ESTEEM,
 UNDERGIRDED MY SECURITY,
 OF WHICH I DID NOT INQUIRE WHETHER IT SERVED OR HAMPERED OTHERS.....
 HAVE I BEEN TRYING TO STOP THE CLOCK
 TO HOLD THE WORLD
 IN PERPETUATION OF WHAT WAS AN IS ALREADY SLIPPING AWAY.....
 HAVE I BEEN CRITICAL OF OTHERS FOR WHAT REALLY NEEDED CHANGING IN ME...
 LET ME INDEED TAKE COUNSEL OF MYSELF
 AND SET MY DIRECTIONS STRAIGHT.

                          R.T. WESTON AS ADAPTED BY D. OSBORN 1967
 Job cpu time:       0 days  9 hours 37 minutes 22.3 seconds.
 Elapsed time:       0 days  2 hours 24 minutes 54.4 seconds.
 File lengths (MBytes):  RWF=    855 Int=      0 D2E=      0 Chk=     33 Scr=      1
 Normal termination of Gaussian 16 at Wed Feb 21 04:39:47 2024.
