 Entering Gaussian System, Link 0=/opt/software/gaussian/g16.c01/g16
 Initial command:
 /opt/software/gaussian/g16.c01/l1.exe "/scratch/arhender/16037661/Gau-163876.inp" -scrdir="/scratch/arhender/16037661/"
 Entering Link 1 = /opt/software/gaussian/g16.c01/l1.exe PID=    163881.
  
 Copyright (c) 1988-2019, Gaussian, Inc.  All Rights Reserved.
  
 This is part of the Gaussian(R) 16 program.  It is based on
 the Gaussian(R) 09 system (copyright 2009, Gaussian, Inc.),
 the Gaussian(R) 03 system (copyright 2003, Gaussian, Inc.),
 the Gaussian(R) 98 system (copyright 1998, Gaussian, Inc.),
 the Gaussian(R) 94 system (copyright 1995, Gaussian, Inc.),
 the Gaussian 92(TM) system (copyright 1992, Gaussian, Inc.),
 the Gaussian 90(TM) system (copyright 1990, Gaussian, Inc.),
 the Gaussian 88(TM) system (copyright 1988, Gaussian, Inc.),
 the Gaussian 86(TM) system (copyright 1986, Carnegie Mellon
 University), and the Gaussian 82(TM) system (copyright 1983,
 Carnegie Mellon University). Gaussian is a federally registered
 trademark of Gaussian, Inc.
  
 This software contains proprietary and confidential information,
 including trade secrets, belonging to Gaussian, Inc.
  
 This software is provided under written license and may be
 used, copied, transmitted, or stored only in accord with that
 written license.
  
 The following legend is applicable only to US Government
 contracts under FAR:
  
                    RESTRICTED RIGHTS LEGEND
  
 Use, reproduction and disclosure by the US Government is
 subject to restrictions as set forth in subparagraphs (a)
 and (c) of the Commercial Computer Software - Restricted
 Rights clause in FAR 52.227-19.
  
 Gaussian, Inc.
 340 Quinnipiac St., Bldg. 40, Wallingford CT 06492
  
  
 ---------------------------------------------------------------
 Warning -- This program may not be used in any manner that
 competes with the business of Gaussian, Inc. or will provide
 assistance to any competitor of Gaussian, Inc.  The licensee
 of this program is prohibited from giving any competitor of
 Gaussian, Inc. access to this program.  By using this program,
 the user acknowledges that Gaussian, Inc. is engaged in the
 business of creating and licensing software in the field of
 computational chemistry and represents and warrants to the
 licensee that it is not a competitor of Gaussian, Inc. and that
 it will not use this program in any manner prohibited above.
 ---------------------------------------------------------------
  

 Cite this work as:
 Gaussian 16, Revision C.01,
 M. J. Frisch, G. W. Trucks, H. B. Schlegel, G. E. Scuseria, 
 M. A. Robb, J. R. Cheeseman, G. Scalmani, V. Barone, 
 G. A. Petersson, H. Nakatsuji, X. Li, M. Caricato, A. V. Marenich, 
 J. Bloino, B. G. Janesko, R. Gomperts, B. Mennucci, H. P. Hratchian, 
 J. V. Ortiz, A. F. Izmaylov, J. L. Sonnenberg, D. Williams-Young, 
 F. Ding, F. Lipparini, F. Egidi, J. Goings, B. Peng, A. Petrone, 
 T. Henderson, D. Ranasinghe, V. G. Zakrzewski, J. Gao, N. Rega, 
 G. Zheng, W. Liang, M. Hada, M. Ehara, K. Toyota, R. Fukuda, 
 J. Hasegawa, M. Ishida, T. Nakajima, Y. Honda, O. Kitao, H. Nakai, 
 T. Vreven, K. Throssell, J. A. Montgomery, Jr., J. E. Peralta, 
 F. Ogliaro, M. J. Bearpark, J. J. Heyd, E. N. Brothers, K. N. Kudin, 
 V. N. Staroverov, T. A. Keith, R. Kobayashi, J. Normand, 
 K. Raghavachari, A. P. Rendell, J. C. Burant, S. S. Iyengar, 
 J. Tomasi, M. Cossi, J. M. Millam, M. Klene, C. Adamo, R. Cammi, 
 J. W. Ochterski, R. L. Martin, K. Morokuma, O. Farkas, 
 J. B. Foresman, and D. J. Fox, Gaussian, Inc., Wallingford CT, 2019.
 
 ******************************************
 Gaussian 16:  ES64L-G16RevC.01  3-Jul-2019
                22-Oct-2023 
 ******************************************
 %chk=SiAttackIRCProductOpt.chk
 %mem=8GB
 %nprocs=16
 Will use up to   16 processors via shared memory.
 ---------------------------------------------
 # opt freq wb97xd/Def2TZVPP geom=connectivity
 ---------------------------------------------
 1/18=20,19=15,26=3,38=1,57=2/1,3;
 2/9=110,12=2,17=6,18=5,40=1/2;
 3/5=44,7=202,11=2,25=1,30=1,71=1,74=-58/1,2,3;
 4//1;
 5/5=2,38=5/2;
 6/7=2,8=2,9=2,10=2,28=1/1;
 7//1,2,3,16;
 1/18=20,19=15,26=3/3(2);
 2/9=110/2;
 99//99;
 2/9=110/2;
 3/5=44,7=202,11=2,25=1,30=1,71=1,74=-58/1,2,3;
 4/5=5,16=3,69=1/1;
 5/5=2,38=5/2;
 7//1,2,3,16;
 1/18=20,19=15,26=3/3(-5);
 2/9=110/2;
 6/7=2,8=2,9=2,10=2,19=2,28=1/1;
 99/9=1/99;
 -------------------------------------
 SiOH4 attack IRC Product Optimization
 -------------------------------------
 Symbolic Z-matrix:
 Charge =  0 Multiplicity = 1
 C                    -1.97007   0.5611    0. 
 H                    -2.72832   1.11636   0.56572 
 H                    -1.05577   0.56741   0.59078 
 C                    -2.43388  -0.89596  -0.13496 
 H                    -2.27763  -1.26844  -1.13722 
 H                    -1.96195  -1.54373   0.59759 
 O                    -1.67883   1.18651  -1.22061 
 H                    -0.36962  -0.09733  -1.55429 
 O                     0.00222  -0.93666  -1.23871 
 H                     0.32725  -1.39334  -2.01948 
 Si                   -4.94497  -0.03646  -1.05235 
 O                    -5.57971   1.08926  -0.06931 
 H                    -6.40553   0.90273   0.37036 
 O                    -3.95315   0.37662  -2.14069 
 H                    -2.49478   1.06982  -1.76601 
 O                    -3.8959   -0.99641   0.14779 
 H                    -4.15774  -1.91935   0.19786 
 O                    -6.08167  -1.18283  -1.34804 
 H                    -6.15078  -1.43025  -2.26151 
 
 Add virtual bond connecting atoms H8         and O7         Dist= 3.52D+00.

 GradGradGradGradGradGradGradGradGradGradGradGradGradGradGradGradGradGrad
 Berny optimization.
 Initialization pass.
                           ----------------------------
                           !    Initial Parameters    !
                           ! (Angstroms and Degrees)  !
 --------------------------                            --------------------------
 ! Name  Definition              Value          Derivative Info.                !
 --------------------------------------------------------------------------------
 ! R1    R(1,2)                  1.097          estimate D2E/DX2                !
 ! R2    R(1,3)                  1.0886         estimate D2E/DX2                !
 ! R3    R(1,4)                  1.535          estimate D2E/DX2                !
 ! R4    R(1,7)                  1.4021         estimate D2E/DX2                !
 ! R5    R(4,5)                  1.0806         estimate D2E/DX2                !
 ! R6    R(4,6)                  1.0858         estimate D2E/DX2                !
 ! R7    R(4,16)                 1.4925         estimate D2E/DX2                !
 ! R8    R(7,8)                  1.8638         estimate D2E/DX2                !
 ! R9    R(7,15)                 0.9884         estimate D2E/DX2                !
 ! R10   R(8,9)                  0.9707         estimate D2E/DX2                !
 ! R11   R(9,10)                 0.9612         estimate D2E/DX2                !
 ! R12   R(11,12)                1.6237         estimate D2E/DX2                !
 ! R13   R(11,14)                1.5293         estimate D2E/DX2                !
 ! R14   R(11,16)                1.8607         estimate D2E/DX2                !
 ! R15   R(11,18)                1.6412         estimate D2E/DX2                !
 ! R16   R(12,13)                0.954          estimate D2E/DX2                !
 ! R17   R(16,17)                0.9607         estimate D2E/DX2                !
 ! R18   R(18,19)                0.9489         estimate D2E/DX2                !
 ! A1    A(2,1,3)              107.3227         estimate D2E/DX2                !
 ! A2    A(2,1,4)              108.4792         estimate D2E/DX2                !
 ! A3    A(2,1,7)              111.5165         estimate D2E/DX2                !
 ! A4    A(3,1,4)              107.878          estimate D2E/DX2                !
 ! A5    A(3,1,7)              107.1818         estimate D2E/DX2                !
 ! A6    A(4,1,7)              114.1809         estimate D2E/DX2                !
 ! A7    A(1,4,5)              111.4102         estimate D2E/DX2                !
 ! A8    A(1,4,6)              112.0638         estimate D2E/DX2                !
 ! A9    A(1,4,16)             110.0721         estimate D2E/DX2                !
 ! A10   A(5,4,6)              110.9324         estimate D2E/DX2                !
 ! A11   A(5,4,16)             107.1075         estimate D2E/DX2                !
 ! A12   A(6,4,16)             104.9394         estimate D2E/DX2                !
 ! A13   A(1,7,8)               89.6856         estimate D2E/DX2                !
 ! A14   A(1,7,15)             104.8475         estimate D2E/DX2                !
 ! A15   A(8,7,15)             113.5653         estimate D2E/DX2                !
 ! A16   A(7,8,9)              143.7521         estimate D2E/DX2                !
 ! A17   A(8,9,10)             106.0378         estimate D2E/DX2                !
 ! A18   A(12,11,14)           119.8086         estimate D2E/DX2                !
 ! A19   A(12,11,16)           100.8115         estimate D2E/DX2                !
 ! A20   A(12,11,18)           108.8191         estimate D2E/DX2                !
 ! A21   A(14,11,16)           103.4567         estimate D2E/DX2                !
 ! A22   A(14,11,18)           120.638          estimate D2E/DX2                !
 ! A23   A(16,11,18)            98.4145         estimate D2E/DX2                !
 ! A24   A(11,12,13)           118.8069         estimate D2E/DX2                !
 ! A25   A(4,16,11)            113.2889         estimate D2E/DX2                !
 ! A26   A(4,16,17)            109.9698         estimate D2E/DX2                !
 ! A27   A(11,16,17)           112.0603         estimate D2E/DX2                !
 ! A28   A(11,18,19)           113.9541         estimate D2E/DX2                !
 ! D1    D(2,1,4,5)            136.1778         estimate D2E/DX2                !
 ! D2    D(2,1,4,6)            -98.8624         estimate D2E/DX2                !
 ! D3    D(2,1,4,16)            17.5136         estimate D2E/DX2                !
 ! D4    D(3,1,4,5)           -107.867          estimate D2E/DX2                !
 ! D5    D(3,1,4,6)             17.0928         estimate D2E/DX2                !
 ! D6    D(3,1,4,16)           133.4688         estimate D2E/DX2                !
 ! D7    D(7,1,4,5)             11.151          estimate D2E/DX2                !
 ! D8    D(7,1,4,6)            136.1108         estimate D2E/DX2                !
 ! D9    D(7,1,4,16)          -107.5132         estimate D2E/DX2                !
 ! D10   D(2,1,7,8)            176.5249         estimate D2E/DX2                !
 ! D11   D(2,1,7,15)           -69.1348         estimate D2E/DX2                !
 ! D12   D(3,1,7,8)             59.3371         estimate D2E/DX2                !
 ! D13   D(3,1,7,15)           173.6774         estimate D2E/DX2                !
 ! D14   D(4,1,7,8)            -60.0742         estimate D2E/DX2                !
 ! D15   D(4,1,7,15)            54.2662         estimate D2E/DX2                !
 ! D16   D(1,4,16,11)           62.5031         estimate D2E/DX2                !
 ! D17   D(1,4,16,17)         -171.2357         estimate D2E/DX2                !
 ! D18   D(5,4,16,11)          -58.769          estimate D2E/DX2                !
 ! D19   D(5,4,16,17)           67.4921         estimate D2E/DX2                !
 ! D20   D(6,4,16,11)         -176.7388         estimate D2E/DX2                !
 ! D21   D(6,4,16,17)          -50.4776         estimate D2E/DX2                !
 ! D22   D(1,7,8,9)              8.5513         estimate D2E/DX2                !
 ! D23   D(15,7,8,9)           -97.5401         estimate D2E/DX2                !
 ! D24   D(7,8,9,10)           149.0739         estimate D2E/DX2                !
 ! D25   D(14,11,12,13)        157.5459         estimate D2E/DX2                !
 ! D26   D(16,11,12,13)        -89.9688         estimate D2E/DX2                !
 ! D27   D(18,11,12,13)         12.8856         estimate D2E/DX2                !
 ! D28   D(12,11,16,4)        -114.686          estimate D2E/DX2                !
 ! D29   D(12,11,16,17)        120.1704         estimate D2E/DX2                !
 ! D30   D(14,11,16,4)           9.7906         estimate D2E/DX2                !
 ! D31   D(14,11,16,17)       -115.353          estimate D2E/DX2                !
 ! D32   D(18,11,16,4)         134.1995         estimate D2E/DX2                !
 ! D33   D(18,11,16,17)          9.0559         estimate D2E/DX2                !
 ! D34   D(12,11,18,19)        134.3002         estimate D2E/DX2                !
 ! D35   D(14,11,18,19)        -10.0152         estimate D2E/DX2                !
 ! D36   D(16,11,18,19)       -121.1784         estimate D2E/DX2                !
 --------------------------------------------------------------------------------
 Trust Radius=3.00D-01 FncErr=1.00D-07 GrdErr=1.00D-06 EigMax=2.50D+02 EigMin=1.00D-04
 Number of steps in this run=     92 maximum allowed number of steps=    114.
 GradGradGradGradGradGradGradGradGradGradGradGradGradGradGradGradGradGrad

                          Input orientation:                          
 ---------------------------------------------------------------------
 Center     Atomic      Atomic             Coordinates (Angstroms)
 Number     Number       Type             X           Y           Z
 ---------------------------------------------------------------------
      1          6           0       -1.970075    0.561097    0.000000
      2          1           0       -2.728325    1.116359    0.565723
      3          1           0       -1.055767    0.567408    0.590777
      4          6           0       -2.433881   -0.895961   -0.134961
      5          1           0       -2.277626   -1.268439   -1.137220
      6          1           0       -1.961955   -1.543730    0.597585
      7          8           0       -1.678828    1.186509   -1.220613
      8          1           0       -0.369620   -0.097333   -1.554287
      9          8           0        0.002217   -0.936665   -1.238705
     10          1           0        0.327252   -1.393345   -2.019479
     11         14           0       -4.944968   -0.036459   -1.052346
     12          8           0       -5.579708    1.089261   -0.069309
     13          1           0       -6.405528    0.902726    0.370361
     14          8           0       -3.953154    0.376622   -2.140690
     15          1           0       -2.494777    1.069817   -1.766012
     16          8           0       -3.895900   -0.996407    0.147790
     17          1           0       -4.157739   -1.919346    0.197858
     18          8           0       -6.081671   -1.182830   -1.348040
     19          1           0       -6.150782   -1.430255   -2.261511
 ---------------------------------------------------------------------
                    Distance matrix (angstroms):
                    1          2          3          4          5
     1  C    0.000000
     2  H    1.096951   0.000000
     3  H    1.088585   1.760518   0.000000
     4  C    1.535040   2.151067   2.137134   0.000000
     5  H    2.176019   2.964862   2.801651   1.080592   0.000000
     6  H    2.188029   2.768467   2.297417   1.085791   1.784652
     7  O    1.402092   2.073008   2.013113   2.466866   2.528296
     8  H    2.326111   3.395730   2.348186   2.629347   2.277262
     9  O    2.769046   3.863512   2.593949   2.674786   2.306091
    10  H    3.629855   4.724239   3.545523   3.379742   2.753066
    11  Si   3.211619   2.976683   4.265020   2.808184   2.939335
    12  O    3.648727   2.921367   4.601531   3.720436   4.195584
    13  H    4.463980   3.688581   5.364789   4.389146   4.901666
    14  O    2.923899   3.061387   3.986498   2.819682   2.553541
    15  H    1.911258   2.343864   2.806710   2.555058   2.431044
    16  O    2.481222   2.449833   3.272325   1.492494   2.084242
    17  H    3.313249   3.375508   3.995067   2.032184   2.396025
    18  O    4.665160   4.493739   5.664102   3.854896   3.810844
    19  H    5.153467   5.117783   6.171336   4.315442   4.036279
                    6          7          8          9         10
     6  H    0.000000
     7  O    3.292447   0.000000
     8  H    3.042721   1.863763   0.000000
     9  O    2.756531   2.708156   0.970738   0.000000
    10  H    3.480245   3.364252   1.543270   0.961152   0.000000
    11  Si   3.727265   3.491652   4.603201   5.031872   5.529267
    12  O    4.523884   4.068393   5.546006   6.052252   6.697662
    13  H    5.077610   4.995340   6.413780   6.857962   7.504239
    14  O    3.892400   2.583606   3.661996   4.264183   4.633503
    15  H    3.563863   0.988357   2.433795   3.246383   3.754365
    16  O    2.059617   3.398979   4.017468   4.137784   4.763363
    17  H    2.263258   4.219407   4.554074   4.509391   5.030746
    18  O    4.570313   5.001503   5.817935   6.089848   6.447437
    19  H    5.072827   5.284817   5.974837   6.256929   6.482659
                   11         12         13         14         15
    11  Si   0.000000
    12  O    1.623731   0.000000
    13  H    2.244861   0.953983   0.000000
    14  O    1.529321   2.728397   3.549127   0.000000
    15  H    2.781475   3.520792   4.459370   1.657639   0.000000
    16  O    1.860745   2.689303   3.155072   2.669387   3.145642
    17  H    2.393325   3.338426   3.611980   3.283616   3.944277
    18  O    1.641248   2.655093   2.721641   2.755135   4.256163
    19  H    2.204254   3.388191   3.526251   2.847626   4.456709
                   16         17         18         19
    16  O    0.000000
    17  H    0.960668   0.000000
    18  O    2.655156   2.575611   0.000000
    19  H    3.328280   3.203112   0.948907   0.000000
 Stoichiometry    C2H10O6Si
 Framework group  C1[X(C2H10O6Si)]
 Deg. of freedom    51
 Full point group                 C1      NOp   1
 Largest Abelian subgroup         C1      NOp   1
 Largest concise Abelian subgroup C1      NOp   1
                         Standard orientation:                         
 ---------------------------------------------------------------------
 Center     Atomic      Atomic             Coordinates (Angstroms)
 Number     Number       Type             X           Y           Z
 ---------------------------------------------------------------------
      1          6           0       -1.490737    0.747914   -0.800799
      2          1           0       -0.717293    1.315819   -1.332371
      3          1           0       -2.398809    0.798628   -1.399004
      4          6           0       -1.053725   -0.721961   -0.731246
      5          1           0       -1.226507   -1.138821    0.250616
      6          1           0       -1.529456   -1.325640   -1.498184
      7          8           0       -1.783322    1.319684    0.445529
      8          1           0       -3.117952    0.045008    0.705484
      9          8           0       -3.501139   -0.771598    0.346799
     10          1           0       -3.841904   -1.259008    1.101864
     11         14           0        1.462579    0.047985    0.249209
     12          8           0        2.126657    1.207658   -0.673102
     13          1           0        2.953487    1.027525   -1.113542
     14          8           0        0.467205    0.426494    1.346837
     15          1           0       -0.975052    1.162645    0.992236
     16          8           0        0.409095   -0.834935   -1.004981
     17          1           0        0.655331   -1.758977   -1.096614
     18          8           0        2.576139   -1.131259    0.500332
     19          1           0        2.631746   -1.423030    1.401555
 ---------------------------------------------------------------------
 Rotational constants (GHZ):           2.3676531           0.7503691           0.7156494
 Standard basis: def2TZVPP (5D, 7F)
 There are   486 symmetry adapted cartesian basis functions of A   symmetry.
 There are   430 symmetry adapted basis functions of A   symmetry.
   430 basis functions,   647 primitive gaussians,   486 cartesian basis functions
    42 alpha electrons       42 beta electrons
       nuclear repulsion energy       641.6752943705 Hartrees.
 NAtoms=   19 NActive=   19 NUniq=   19 SFac= 1.00D+00 NAtFMM=   60 NAOKFM=F Big=F
 Integral buffers will be    131072 words long.
 Raffenetti 2 integral format.
 Two-electron integral symmetry is turned on.
 Nuclear repulsion after empirical dispersion term =      641.6647215740 Hartrees.
 One-electron integrals computed using PRISM.
   1 Symmetry operations used in ECPInt.
 ECPInt:  NShTT=   13203 NPrTT=   36019 LenC2=   12493 LenP2D=   26706.
 LDataN:  DoStor=T MaxTD1= 6 Len=  172
 NBasis=   430 RedAO= T EigKep=  1.89D-04  NBF=   430
 NBsUse=   430 1.00D-06 EigRej= -1.00D+00 NBFU=   430
 ExpMin= 7.01D-02 ExpMax= 4.48D+04 ExpMxC= 1.53D+03 IAcc=3 IRadAn=         5 AccDes= 0.00D+00
 Harris functional with IExCor= 4639 and IRadAn=       5 diagonalized for initial guess.
 HarFok:  IExCor= 4639 AccDes= 0.00D+00 IRadAn=         5 IDoV= 1 UseB2=F ITyADJ=14
 ICtDFT=  3500011 ScaDFX=  1.000000  1.000000  1.000000  1.000000
 FoFCou: FMM=F IPFlag=           0 FMFlag=      100000 FMFlg1=           0
         NFxFlg=           0 DoJE=T BraDBF=F KetDBF=T FulRan=T
         wScrn=  0.000000 ICntrl=       500 IOpCl=  0 I1Cent=   200000004 NGrid=           0
         NMat0=    1 NMatS0=      1 NMatT0=    0 NMatD0=    1 NMtDS0=    0 NMtDT0=    0
 Petite list used in FoFCou.
 Requested convergence on RMS density matrix=1.00D-08 within 128 cycles.
 Requested convergence on MAX density matrix=1.00D-06.
 Requested convergence on             energy=1.00D-06.
 No special actions if energy rises.
 Integral accuracy reduced to 1.0D-05 until final iterations.
 Initial convergence to 1.0D-05 achieved.  Increase integral accuracy.
 SCF Done:  E(RwB97XD) =  -823.299318912     A.U. after   14 cycles
            NFock= 14  Conv=0.54D-08     -V/T= 2.0033

 **********************************************************************

            Population analysis using the SCF Density.

 **********************************************************************

 Orbital symmetries:
       Occupied  (A) (A) (A) (A) (A) (A) (A) (A) (A) (A) (A) (A)
                 (A) (A) (A) (A) (A) (A) (A) (A) (A) (A) (A) (A)
                 (A) (A) (A) (A) (A) (A) (A) (A) (A) (A) (A) (A)
                 (A) (A) (A) (A) (A) (A)
       Virtual   (A) (A) (A) (A) (A) (A) (A) (A) (A) (A) (A) (A)
                 (A) (A) (A) (A) (A) (A) (A) (A) (A) (A) (A) (A)
                 (A) (A) (A) (A) (A) (A) (A) (A) (A) (A) (A) (A)
                 (A) (A) (A) (A) (A) (A) (A) (A) (A) (A) (A) (A)
                 (A) (A) (A) (A) (A) (A) (A) (A) (A) (A) (A) (A)
                 (A) (A) (A) (A) (A) (A) (A) (A) (A) (A) (A) (A)
                 (A) (A) (A) (A) (A) (A) (A) (A) (A) (A) (A) (A)
                 (A) (A) (A) (A) (A) (A) (A) (A) (A) (A) (A) (A)
                 (A) (A) (A) (A) (A) (A) (A) (A) (A) (A) (A) (A)
                 (A) (A) (A) (A) (A) (A) (A) (A) (A) (A) (A) (A)
                 (A) (A) (A) (A) (A) (A) (A) (A) (A) (A) (A) (A)
                 (A) (A) (A) (A) (A) (A) (A) (A) (A) (A) (A) (A)
                 (A) (A) (A) (A) (A) (A) (A) (A) (A) (A) (A) (A)
                 (A) (A) (A) (A) (A) (A) (A) (A) (A) (A) (A) (A)
                 (A) (A) (A) (A) (A) (A) (A) (A) (A) (A) (A) (A)
                 (A) (A) (A) (A) (A) (A) (A) (A) (A) (A) (A) (A)
                 (A) (A) (A) (A) (A) (A) (A) (A) (A) (A) (A) (A)
                 (A) (A) (A) (A) (A) (A) (A) (A) (A) (A) (A) (A)
                 (A) (A) (A) (A) (A) (A) (A) (A) (A) (A) (A) (A)
                 (A) (A) (A) (A) (A) (A) (A) (A) (A) (A) (A) (A)
                 (A) (A) (A) (A) (A) (A) (A) (A) (A) (A) (A) (A)
                 (A) (A) (A) (A) (A) (A) (A) (A) (A) (A) (A) (A)
                 (A) (A) (A) (A) (A) (A) (A) (A) (A) (A) (A) (A)
                 (A) (A) (A) (A) (A) (A) (A) (A) (A) (A) (A) (A)
                 (A) (A) (A) (A) (A) (A) (A) (A) (A) (A) (A) (A)
                 (A) (A) (A) (A) (A) (A) (A) (A) (A) (A) (A) (A)
                 (A) (A) (A) (A) (A) (A) (A) (A) (A) (A) (A) (A)
                 (A) (A) (A) (A) (A) (A) (A) (A) (A) (A) (A) (A)
                 (A) (A) (A) (A) (A) (A) (A) (A) (A) (A) (A) (A)
                 (A) (A) (A) (A) (A) (A) (A) (A) (A) (A) (A) (A)
                 (A) (A) (A) (A) (A) (A) (A) (A) (A) (A) (A) (A)
                 (A) (A) (A) (A) (A) (A) (A) (A) (A) (A) (A) (A)
                 (A) (A) (A) (A)
 The electronic state is 1-A.
 Alpha  occ. eigenvalues --  -66.29814 -19.35863 -19.26671 -19.25784 -19.23082
 Alpha  occ. eigenvalues --  -19.22869 -19.16686 -10.36531 -10.33617  -5.41763
 Alpha  occ. eigenvalues --   -3.76501  -3.76216  -3.75949  -1.22383  -1.13369
 Alpha  occ. eigenvalues --   -1.11731  -1.11041  -1.09307  -0.99364  -0.86818
 Alpha  occ. eigenvalues --   -0.74139  -0.70553  -0.66408  -0.62605  -0.62181
 Alpha  occ. eigenvalues --   -0.60387  -0.59128  -0.56509  -0.52679  -0.50390
 Alpha  occ. eigenvalues --   -0.50067  -0.48015  -0.46937  -0.45934  -0.44431
 Alpha  occ. eigenvalues --   -0.43736  -0.42503  -0.40417  -0.38811  -0.36174
 Alpha  occ. eigenvalues --   -0.35452  -0.35138
 Alpha virt. eigenvalues --    0.06049   0.10514   0.11402   0.12723   0.14850
 Alpha virt. eigenvalues --    0.15764   0.16747   0.17582   0.17875   0.19482
 Alpha virt. eigenvalues --    0.21077   0.21962   0.25034   0.25527   0.26205
 Alpha virt. eigenvalues --    0.27730   0.28660   0.30483   0.30726   0.32163
 Alpha virt. eigenvalues --    0.32381   0.34717   0.38082   0.39221   0.40222
 Alpha virt. eigenvalues --    0.43187   0.43530   0.44015   0.45130   0.45514
 Alpha virt. eigenvalues --    0.46306   0.47372   0.47549   0.49689   0.50155
 Alpha virt. eigenvalues --    0.50722   0.51124   0.51570   0.52689   0.52856
 Alpha virt. eigenvalues --    0.54250   0.54417   0.57115   0.57876   0.58858
 Alpha virt. eigenvalues --    0.59674   0.60774   0.61150   0.61884   0.63061
 Alpha virt. eigenvalues --    0.64538   0.65555   0.66654   0.68779   0.69235
 Alpha virt. eigenvalues --    0.70277   0.74012   0.75426   0.75941   0.77278
 Alpha virt. eigenvalues --    0.79057   0.80286   0.81573   0.82681   0.84574
 Alpha virt. eigenvalues --    0.86062   0.88261   0.89375   0.90387   0.91102
 Alpha virt. eigenvalues --    0.92435   0.94588   0.95387   0.96582   0.98913
 Alpha virt. eigenvalues --    0.99246   1.00963   1.01167   1.03114   1.03531
 Alpha virt. eigenvalues --    1.04719   1.07121   1.08603   1.10279   1.12804
 Alpha virt. eigenvalues --    1.13619   1.14487   1.15983   1.17565   1.19308
 Alpha virt. eigenvalues --    1.20845   1.22271   1.23087   1.25653   1.25762
 Alpha virt. eigenvalues --    1.27849   1.29104   1.30503   1.31575   1.33287
 Alpha virt. eigenvalues --    1.33855   1.35881   1.37649   1.38241   1.40912
 Alpha virt. eigenvalues --    1.42349   1.43380   1.44885   1.46375   1.47100
 Alpha virt. eigenvalues --    1.48918   1.51928   1.54262   1.56555   1.56897
 Alpha virt. eigenvalues --    1.58698   1.59524   1.62037   1.63935   1.65829
 Alpha virt. eigenvalues --    1.68853   1.71269   1.74386   1.76247   1.79934
 Alpha virt. eigenvalues --    1.82609   1.83837   1.86557   1.87624   1.88653
 Alpha virt. eigenvalues --    1.90963   1.92722   1.93366   1.94869   1.96269
 Alpha virt. eigenvalues --    2.00295   2.01274   2.02611   2.03557   2.04807
 Alpha virt. eigenvalues --    2.05558   2.06740   2.08872   2.11268   2.13758
 Alpha virt. eigenvalues --    2.15511   2.19308   2.19991   2.22724   2.24120
 Alpha virt. eigenvalues --    2.25872   2.26267   2.29377   2.31418   2.34024
 Alpha virt. eigenvalues --    2.35964   2.38238   2.42058   2.48113   2.48571
 Alpha virt. eigenvalues --    2.50212   2.52338   2.54752   2.58741   2.64256
 Alpha virt. eigenvalues --    2.66578   2.70847   2.72361   2.74013   2.75668
 Alpha virt. eigenvalues --    2.79006   2.80386   2.82301   2.85909   2.86056
 Alpha virt. eigenvalues --    2.87390   2.91778   2.92812   2.95513   2.97017
 Alpha virt. eigenvalues --    2.98551   3.00718   3.04139   3.05512   3.06829
 Alpha virt. eigenvalues --    3.09230   3.10400   3.11774   3.13359   3.15377
 Alpha virt. eigenvalues --    3.16789   3.17133   3.18776   3.22753   3.24000
 Alpha virt. eigenvalues --    3.28351   3.29367   3.31532   3.32269   3.33672
 Alpha virt. eigenvalues --    3.34889   3.35993   3.37429   3.37550   3.38517
 Alpha virt. eigenvalues --    3.40073   3.41973   3.43132   3.44600   3.45002
 Alpha virt. eigenvalues --    3.45903   3.48034   3.50364   3.52978   3.53345
 Alpha virt. eigenvalues --    3.55421   3.56624   3.59140   3.62012   3.62455
 Alpha virt. eigenvalues --    3.66547   3.67809   3.72194   3.72484   3.73747
 Alpha virt. eigenvalues --    3.74327   3.74939   3.77601   3.78054   3.80355
 Alpha virt. eigenvalues --    3.82482   3.86026   3.86904   3.89140   3.91858
 Alpha virt. eigenvalues --    3.92228   3.93223   3.94426   3.95584   3.98310
 Alpha virt. eigenvalues --    3.99308   4.03582   4.04668   4.08938   4.10564
 Alpha virt. eigenvalues --    4.10954   4.11995   4.12890   4.14451   4.15658
 Alpha virt. eigenvalues --    4.16193   4.16876   4.19299   4.21473   4.21832
 Alpha virt. eigenvalues --    4.23544   4.25545   4.25622   4.29629   4.30901
 Alpha virt. eigenvalues --    4.32403   4.35370   4.36713   4.36802   4.37581
 Alpha virt. eigenvalues --    4.40382   4.44591   4.46498   4.48715   4.53238
 Alpha virt. eigenvalues --    4.59152   4.61675   4.63970   4.65063   4.70400
 Alpha virt. eigenvalues --    4.74648   4.75721   4.76720   4.79187   4.82469
 Alpha virt. eigenvalues --    4.86035   4.89911   4.91149   4.92981   4.95027
 Alpha virt. eigenvalues --    4.96423   4.99270   5.00659   5.01964   5.03988
 Alpha virt. eigenvalues --    5.06504   5.09094   5.11793   5.16909   5.17846
 Alpha virt. eigenvalues --    5.20275   5.26117   5.27062   5.32275   5.34058
 Alpha virt. eigenvalues --    5.35759   5.37634   5.39589   5.41167   5.41619
 Alpha virt. eigenvalues --    5.44186   5.45532   5.48647   5.51095   5.52367
 Alpha virt. eigenvalues --    5.55711   5.58362   5.61550   5.65723   5.66808
 Alpha virt. eigenvalues --    5.68446   5.69526   5.73201   5.74185   5.76248
 Alpha virt. eigenvalues --    5.79455   5.86164   5.87734   5.94747   5.95984
 Alpha virt. eigenvalues --    6.07177   6.15732   6.19080   6.24071   6.48271
 Alpha virt. eigenvalues --    6.50498   6.51323   6.53409   6.56283   6.56808
 Alpha virt. eigenvalues --    6.60206   6.61160   6.63182   6.65965   6.66008
 Alpha virt. eigenvalues --    6.66601   6.68915   6.69383   6.69541   6.70386
 Alpha virt. eigenvalues --    6.72401   6.72994   6.74802   6.75578   6.78782
 Alpha virt. eigenvalues --    6.80283   6.83449   6.84283   6.86228   6.88460
 Alpha virt. eigenvalues --    6.90210   6.95134   6.97169   6.99224   7.02537
 Alpha virt. eigenvalues --    7.05822   7.08355   7.11689   7.19573   7.25725
 Alpha virt. eigenvalues --    7.26595   7.31693   7.33542   7.37239   7.45440
 Alpha virt. eigenvalues --    7.51140   7.53339   7.54678   7.56028   7.59482
 Alpha virt. eigenvalues --    7.66837   7.68923   7.75373   7.87200  12.36944
 Alpha virt. eigenvalues --   23.33998  23.49858  43.84159  43.85952  43.90065
 Alpha virt. eigenvalues --   43.95138  44.16461  44.34119
          Condensed to atoms (all electrons):
               1          2          3          4          5          6
     1  C    4.775811   0.400554   0.422658   0.220687  -0.043273  -0.008909
     2  H    0.400554   0.601927  -0.027845  -0.039282   0.003177   0.006506
     3  H    0.422658  -0.027845   0.577695  -0.030558   0.001749  -0.011107
     4  C    0.220687  -0.039282  -0.030558   5.082140   0.414965   0.377325
     5  H   -0.043273   0.003177   0.001749   0.414965   0.508003  -0.010949
     6  H   -0.008909   0.006506  -0.011107   0.377325  -0.010949   0.546043
     7  O    0.237452  -0.028116  -0.035218  -0.053725   0.000954   0.005794
     8  H   -0.021196   0.002195  -0.006762   0.001435  -0.001251   0.000497
     9  O    0.026981   0.000080   0.002477  -0.047513   0.030320   0.003212
    10  H   -0.003638  -0.000089   0.000163  -0.001133   0.002218  -0.000002
    11  Si   0.016940  -0.007050   0.000789  -0.019426  -0.008030   0.003794
    12  O   -0.008953   0.006845  -0.000057   0.001695  -0.000110  -0.000036
    13  H    0.000479  -0.000452  -0.000001  -0.000130  -0.000031   0.000005
    14  O    0.006448  -0.005443   0.000045  -0.001034   0.007170   0.002265
    15  H   -0.025983  -0.004870   0.005350  -0.005797   0.003417  -0.000356
    16  O   -0.022330  -0.000282   0.002053   0.150459  -0.030705  -0.026402
    17  H    0.005355   0.000321  -0.000368  -0.014379  -0.002985  -0.005643
    18  O   -0.000156   0.000043  -0.000005  -0.002769   0.000270  -0.000217
    19  H   -0.000026  -0.000008  -0.000000   0.000182  -0.000015  -0.000004
               7          8          9         10         11         12
     1  C    0.237452  -0.021196   0.026981  -0.003638   0.016940  -0.008953
     2  H   -0.028116   0.002195   0.000080  -0.000089  -0.007050   0.006845
     3  H   -0.035218  -0.006762   0.002477   0.000163   0.000789  -0.000057
     4  C   -0.053725   0.001435  -0.047513  -0.001133  -0.019426   0.001695
     5  H    0.000954  -0.001251   0.030320   0.002218  -0.008030  -0.000110
     6  H    0.005794   0.000497   0.003212  -0.000002   0.003794  -0.000036
     7  O    7.987354   0.055505  -0.034863   0.001811  -0.001927   0.000090
     8  H    0.055505   0.457702   0.307850  -0.012686  -0.000077   0.000001
     9  O   -0.034863   0.307850   7.803993   0.312537  -0.000528   0.000000
    10  H    0.001811  -0.012686   0.312537   0.529898  -0.000057   0.000000
    11  Si  -0.001927  -0.000077  -0.000528  -0.000057  11.561492   0.459155
    12  O    0.000090   0.000001   0.000000   0.000000   0.459155   7.647378
    13  H   -0.000001   0.000000  -0.000000   0.000000  -0.014132   0.322959
    14  O   -0.050022   0.000713  -0.000148  -0.000015   0.650900  -0.022429
    15  H    0.335877  -0.001976   0.000813   0.000282  -0.006397   0.000068
    16  O    0.002891  -0.000459   0.001478  -0.000029   0.216509  -0.029164
    17  H   -0.000369   0.000015   0.000059  -0.000005  -0.010687   0.001228
    18  O   -0.000032  -0.000001   0.000001  -0.000000   0.434620  -0.023623
    19  H    0.000005  -0.000001   0.000001   0.000000  -0.022848   0.000399
              13         14         15         16         17         18
     1  C    0.000479   0.006448  -0.025983  -0.022330   0.005355  -0.000156
     2  H   -0.000452  -0.005443  -0.004870  -0.000282   0.000321   0.000043
     3  H   -0.000001   0.000045   0.005350   0.002053  -0.000368  -0.000005
     4  C   -0.000130  -0.001034  -0.005797   0.150459  -0.014379  -0.002769
     5  H   -0.000031   0.007170   0.003417  -0.030705  -0.002985   0.000270
     6  H    0.000005   0.002265  -0.000356  -0.026402  -0.005643  -0.000217
     7  O   -0.000001  -0.050022   0.335877   0.002891  -0.000369  -0.000032
     8  H    0.000000   0.000713  -0.001976  -0.000459   0.000015  -0.000001
     9  O   -0.000000  -0.000148   0.000813   0.001478   0.000059   0.000001
    10  H    0.000000  -0.000015   0.000282  -0.000029  -0.000005  -0.000000
    11  Si  -0.014132   0.650900  -0.006397   0.216509  -0.010687   0.434620
    12  O    0.322959  -0.022429   0.000068  -0.029164   0.001228  -0.023623
    13  H    0.517358   0.000859   0.000009   0.001179  -0.000196  -0.001952
    14  O    0.000859   8.033764   0.072813  -0.027927   0.000031  -0.024174
    15  H    0.000009   0.072813   0.379065   0.001383  -0.000028   0.000021
    16  O    0.001179  -0.027927   0.001383   7.573546   0.324278  -0.026150
    17  H   -0.000196   0.000031  -0.000028   0.324278   0.501714   0.008733
    18  O   -0.001952  -0.024174   0.000021  -0.026150   0.008733   7.728359
    19  H    0.000068   0.000040  -0.000014   0.000882  -0.000441   0.340952
              19
     1  C   -0.000026
     2  H   -0.000008
     3  H   -0.000000
     4  C    0.000182
     5  H   -0.000015
     6  H   -0.000004
     7  O    0.000005
     8  H   -0.000001
     9  O    0.000001
    10  H    0.000000
    11  Si  -0.022848
    12  O    0.000399
    13  H    0.000068
    14  O    0.000040
    15  H   -0.000014
    16  O    0.000882
    17  H   -0.000441
    18  O    0.340952
    19  H    0.478030
 Mulliken charges:
               1
     1  C    0.021100
     2  H    0.091790
     3  H    0.098942
     4  C   -0.033141
     5  H    0.125108
     6  H    0.118183
     7  O   -0.423462
     8  H    0.218495
     9  O   -0.406751
    10  H    0.170746
    11  Si   0.746961
    12  O   -0.355446
    13  H    0.173980
    14  O   -0.643858
    15  H    0.246321
    16  O   -0.111210
    17  H    0.193367
    18  O   -0.433922
    19  H    0.202798
 Sum of Mulliken charges =  -0.00000
 Mulliken charges with hydrogens summed into heavy atoms:
               1
     1  C    0.211832
     4  C    0.210150
     7  O   -0.177141
     9  O   -0.017510
    11  Si   0.746961
    12  O   -0.181466
    14  O   -0.643858
    16  O    0.082157
    18  O   -0.231124
 Electronic spatial extent (au):  <R**2>=           1693.5462
 Charge=             -0.0000 electrons
 Dipole moment (field-independent basis, Debye):
    X=              2.0067    Y=             -4.6877    Z=             -2.3864  Tot=              5.6299
 Quadrupole moment (field-independent basis, Debye-Ang):
   XX=            -58.9756   YY=            -58.6376   ZZ=            -56.6774
   XY=              1.5439   XZ=             -3.2803   YZ=             -3.0656
 Traceless Quadrupole moment (field-independent basis, Debye-Ang):
   XX=             -0.8787   YY=             -0.5407   ZZ=              1.4195
   XY=              1.5439   XZ=             -3.2803   YZ=             -3.0656
 Octapole moment (field-independent basis, Debye-Ang**2):
  XXX=             36.5554  YYY=            -24.3353  ZZZ=             -1.1403  XYY=              1.9854
  XXY=             -4.6196  XXZ=             17.2190  XZZ=              0.5422  YZZ=            -11.9197
  YYZ=             -0.7345  XYZ=              1.6362
 Hexadecapole moment (field-independent basis, Debye-Ang**3):
 XXXX=          -1367.3401 YYYY=           -331.7084 ZZZZ=           -274.0010 XXXY=             59.8456
 XXXZ=            -97.3637 YYYX=              6.1485 YYYZ=              1.6280 ZZZX=            -13.3876
 ZZZY=            -10.5453 XXYY=           -281.6229 XXZZ=           -196.8757 YYZZ=            -82.1088
 XXYZ=            -56.7800 YYXZ=             -3.3915 ZZXY=             -3.3984
 N-N= 6.416647215740D+02 E-N=-3.232652870545D+03  KE= 8.205776665967D+02
   1 Symmetry operations used in ECPInt.
 ECPInt:  NShTT=   13203 NPrTT=   36019 LenC2=   12493 LenP2D=   26706.
 LDataN:  DoStor=T MaxTD1= 7 Len=  274
 Calling FoFJK, ICntrl=      2127 FMM=F ISym2X=0 I1Cent= 0 IOpClX= 0 NMat=1 NMatS=1 NMatT=0.
 ***** Axes restored to original set *****
 -------------------------------------------------------------------
 Center     Atomic                   Forces (Hartrees/Bohr)
 Number     Number              X              Y              Z
 -------------------------------------------------------------------
      1        6          -0.001405227   -0.000110675    0.002071192
      2        1          -0.000103178   -0.000020277    0.000003675
      3        1          -0.000037452    0.000093682    0.000160426
      4        6          -0.000984416    0.000096567    0.004272734
      5        1           0.000156226   -0.000229365    0.000322123
      6        1          -0.000078920    0.000054298    0.000510992
      7        8          -0.000216606   -0.003231099    0.001852601
      8        1           0.000100847    0.000170955   -0.000165313
      9        8           0.009882543   -0.005295529   -0.009101454
     10        1          -0.001029592    0.003835462    0.005093992
     11       14          -0.002057202    0.003840975   -0.004229032
     12        8          -0.000821464   -0.001496468    0.002137687
     13        1          -0.000162240   -0.000001645   -0.000299995
     14        8          -0.002630027    0.001656868   -0.003887631
     15        1           0.000026349   -0.000088263    0.000003933
     16        8          -0.001125707    0.002203564   -0.002141998
     17        1          -0.000242651    0.000015967   -0.000048657
     18        8           0.000968177    0.001396078    0.010126429
     19        1          -0.000239461   -0.002891096   -0.006681705
 -------------------------------------------------------------------
 Cartesian Forces:  Max     0.010126429 RMS     0.003045784

 GradGradGradGradGradGradGradGradGradGradGradGradGradGradGradGradGradGrad
 Berny optimization.
 FormGI is forming the generalized inverse of G from B-inverse, IUseBI=4.
 Internal  Forces:  Max     0.031282463 RMS     0.005841701
 Search for a local minimum.
 Step number   1 out of a maximum of   92
 All quantities printed in internal units (Hartrees-Bohrs-Radians)
 Mixed Optimization -- RFO/linear search
 Second derivative matrix not updated -- first step.
 ITU=  0
     Eigenvalues ---    0.00230   0.00302   0.00468   0.00890   0.01415
     Eigenvalues ---    0.01664   0.02380   0.03794   0.04025   0.04227
     Eigenvalues ---    0.04439   0.05157   0.05443   0.05651   0.06590
     Eigenvalues ---    0.09135   0.09853   0.10031   0.10561   0.11401
     Eigenvalues ---    0.12445   0.12523   0.13119   0.13161   0.16000
     Eigenvalues ---    0.16000   0.16000   0.16000   0.19397   0.21275
     Eigenvalues ---    0.21861   0.22010   0.22039   0.23175   0.25000
     Eigenvalues ---    0.28963   0.33178   0.34022   0.34977   0.35304
     Eigenvalues ---    0.35923   0.44003   0.45276   0.46890   0.49795
     Eigenvalues ---    0.53226   0.55226   0.55330   0.56788   0.57929
     Eigenvalues ---    0.67732
 RFO step:  Lambda=-1.75772463D-02 EMin= 2.30000000D-03
 Linear search not attempted -- first point.
 Iteration  1 RMS(Cart)=  0.26362296 RMS(Int)=  0.01236666
 Iteration  2 RMS(Cart)=  0.02701606 RMS(Int)=  0.00109062
 Iteration  3 RMS(Cart)=  0.00050785 RMS(Int)=  0.00106082
 Iteration  4 RMS(Cart)=  0.00000090 RMS(Int)=  0.00106082
 Variable       Old X    -DE/DX   Delta X   Delta X   Delta X     New X
                                 (Linear)    (Quad)   (Total)
    R1        2.07294   0.00006   0.00000   0.00018   0.00018   2.07311
    R2        2.05713   0.00006   0.00000   0.00015   0.00015   2.05728
    R3        2.90081  -0.00223   0.00000  -0.00727  -0.00727   2.89353
    R4        2.64957   0.00178   0.00000   0.00379   0.00379   2.65336
    R5        2.04202  -0.00020   0.00000  -0.00052  -0.00052   2.04150
    R6        2.05185   0.00028   0.00000   0.00075   0.00075   2.05260
    R7        2.82040   0.00491   0.00000   0.01406   0.01406   2.83446
    R8        3.52200   0.00792   0.00000   0.11002   0.11002   3.63202
    R9        1.86772  -0.00001   0.00000  -0.00003  -0.00003   1.86770
   R10        1.83443   0.00335   0.00000   0.00609   0.00609   1.84052
   R11        1.81631  -0.00631   0.00000  -0.01107  -0.01107   1.80524
   R12        3.06841   0.00046   0.00000   0.00094   0.00094   3.06935
   R13        2.89000   0.00151   0.00000   0.00217   0.00217   2.89217
   R14        3.51630   0.00591   0.00000   0.02501   0.02501   3.54131
   R15        3.10151  -0.00008   0.00000  -0.00018  -0.00018   3.10133
   R16        1.80277   0.00000   0.00000   0.00001   0.00001   1.80277
   R17        1.81540   0.00005   0.00000   0.00009   0.00009   1.81549
   R18        1.79317   0.00720   0.00000   0.01207   0.01207   1.80525
    A1        1.87313   0.00065   0.00000  -0.00182  -0.00149   1.87165
    A2        1.89332  -0.00499   0.00000  -0.03866  -0.03843   1.85489
    A3        1.94633  -0.00095   0.00000  -0.01390  -0.01381   1.93252
    A4        1.88283   0.00201   0.00000   0.02836   0.02796   1.91079
    A5        1.87067  -0.00219   0.00000   0.00338   0.00252   1.87320
    A6        1.99283   0.00545   0.00000   0.02381   0.02339   2.01622
    A7        1.94448   0.00079   0.00000   0.01373   0.01360   1.95808
    A8        1.95588  -0.00122   0.00000  -0.01531  -0.01535   1.94053
    A9        1.92112   0.00095   0.00000   0.00434   0.00416   1.92528
   A10        1.93614   0.00014   0.00000  -0.00036  -0.00024   1.93590
   A11        1.86938   0.00048   0.00000   0.01340   0.01323   1.88261
   A12        1.83154  -0.00116   0.00000  -0.01614  -0.01620   1.81534
   A13        1.56531   0.03128   0.00000   0.19445   0.19126   1.75657
   A14        1.82993  -0.00526   0.00000  -0.00552  -0.01049   1.81945
   A15        1.98209  -0.00127   0.00000   0.03104   0.02611   2.00820
   A16        2.50895   0.01711   0.00000   0.06396   0.06396   2.57290
   A17        1.85071  -0.00059   0.00000  -0.00333  -0.00333   1.84738
   A18        2.09105   0.00034   0.00000   0.00958   0.00946   2.10051
   A19        1.75949  -0.00204   0.00000  -0.01159  -0.01204   1.74745
   A20        1.89925  -0.00036   0.00000  -0.01164  -0.01210   1.88715
   A21        1.80566   0.00835   0.00000   0.04551   0.04548   1.85114
   A22        2.10553   0.00042   0.00000   0.00252   0.00294   2.10847
   A23        1.71766  -0.00810   0.00000  -0.04164  -0.04181   1.67584
   A24        2.07357  -0.00025   0.00000  -0.00141  -0.00141   2.07217
   A25        1.97726   0.02443   0.00000   0.10282   0.10230   2.07956
   A26        1.91934  -0.00727   0.00000  -0.01527  -0.01577   1.90356
   A27        1.95582  -0.00849   0.00000  -0.02598  -0.02694   1.92888
   A28        1.98887   0.00091   0.00000   0.00512   0.00512   1.99399
    D1        2.37675  -0.00005   0.00000  -0.02342  -0.02328   2.35347
    D2       -1.72547  -0.00019   0.00000  -0.02500  -0.02496  -1.75043
    D3        0.30567  -0.00177   0.00000  -0.05157  -0.05151   0.25416
    D4       -1.88263  -0.00083   0.00000  -0.03073  -0.03098  -1.91361
    D5        0.29833  -0.00097   0.00000  -0.03231  -0.03265   0.26567
    D6        2.32947  -0.00255   0.00000  -0.05888  -0.05921   2.27026
    D7        0.19462   0.00117   0.00000   0.00788   0.00816   0.20278
    D8        2.37558   0.00103   0.00000   0.00629   0.00648   2.38206
    D9       -1.87646  -0.00055   0.00000  -0.02028  -0.02007  -1.89653
   D10        3.08094  -0.00619   0.00000  -0.13015  -0.13126   2.94968
   D11       -1.20663   0.00091   0.00000  -0.04237  -0.04123  -1.24786
   D12        1.03563  -0.00513   0.00000  -0.12234  -0.12345   0.91218
   D13        3.03124   0.00197   0.00000  -0.03457  -0.03342   2.99783
   D14       -1.04849  -0.00944   0.00000  -0.17470  -0.17586  -1.22435
   D15        0.94712  -0.00235   0.00000  -0.08693  -0.08583   0.86129
   D16        1.09089   0.00101   0.00000   0.03141   0.03116   1.12205
   D17       -2.98863   0.00261   0.00000   0.06339   0.06367  -2.92495
   D18       -1.02571  -0.00080   0.00000   0.00399   0.00366  -1.02205
   D19        1.17796   0.00080   0.00000   0.03597   0.03617   1.21413
   D20       -3.08467  -0.00061   0.00000   0.00607   0.00585  -3.07883
   D21       -0.88100   0.00098   0.00000   0.03805   0.03836  -0.84264
   D22        0.14925   0.00356   0.00000   0.01525   0.01845   0.16770
   D23       -1.70240  -0.00466   0.00000  -0.07039  -0.07359  -1.77599
   D24        2.60183   0.00235   0.00000   0.07419   0.07419   2.67602
   D25        2.74969  -0.00294   0.00000  -0.02000  -0.02003   2.72966
   D26       -1.57025   0.00610   0.00000   0.03235   0.03227  -1.53798
   D27        0.22490  -0.00365   0.00000  -0.02084  -0.02074   0.20416
   D28       -2.00165  -0.00013   0.00000   0.01889   0.01896  -1.98269
   D29        2.09737  -0.00292   0.00000  -0.02151  -0.02131   2.07606
   D30        0.17088   0.00269   0.00000   0.04258   0.04276   0.21364
   D31       -2.01329  -0.00011   0.00000   0.00218   0.00250  -2.01079
   D32        2.34222   0.00284   0.00000   0.04463   0.04418   2.38640
   D33        0.15806   0.00004   0.00000   0.00423   0.00391   0.16196
   D34        2.34398   0.00257   0.00000   0.02117   0.02091   2.36489
   D35       -0.17480   0.00189   0.00000   0.01745   0.01753  -0.15727
   D36       -2.11496  -0.00290   0.00000  -0.01045  -0.01026  -2.12522
         Item               Value     Threshold  Converged?
 Maximum Force            0.031282     0.000450     NO 
 RMS     Force            0.005842     0.000300     NO 
 Maximum Displacement     1.254059     0.001800     NO 
 RMS     Displacement     0.275115     0.001200     NO 
 Predicted change in Energy=-1.051219D-02
 GradGradGradGradGradGradGradGradGradGradGradGradGradGradGradGradGradGrad

                          Input orientation:                          
 ---------------------------------------------------------------------
 Center     Atomic      Atomic             Coordinates (Angstroms)
 Number     Number       Type             X           Y           Z
 ---------------------------------------------------------------------
      1          6           0       -1.968736    0.449635    0.014696
      2          1           0       -2.745746    1.055840    0.496649
      3          1           0       -1.111488    0.431285    0.685504
      4          6           0       -2.545515   -0.962779   -0.115544
      5          1           0       -2.365836   -1.388422   -1.092082
      6          1           0       -2.168060   -1.614606    0.667051
      7          8           0       -1.547795    1.044237   -1.185613
      8          1           0        0.006112   -0.015539   -1.580925
      9          8           0        0.540692   -0.800553   -1.365107
     10          1           0        0.990872   -1.039745   -2.173012
     11         14           0       -5.122944   -0.006738   -1.086507
     12          8           0       -5.664077    1.176514   -0.114288
     13          1           0       -6.451864    1.022140    0.401125
     14          8           0       -4.242369    0.325958   -2.293255
     15          1           0       -2.310121    0.915392   -1.801306
     16          8           0       -4.027945   -0.942816    0.112051
     17          1           0       -4.341016   -1.844624    0.220213
     18          8           0       -6.289055   -1.157020   -1.188582
     19          1           0       -6.445938   -1.479125   -2.074147
 ---------------------------------------------------------------------
                    Distance matrix (angstroms):
                    1          2          3          4          5
     1  C    0.000000
     2  H    1.097045   0.000000
     3  H    1.088666   1.759697   0.000000
     4  C    1.531193   2.118890   2.154420   0.000000
     5  H    2.181994   2.939865   2.836288   1.080316   0.000000
     6  H    2.174026   2.737524   2.302685   1.086188   1.784607
     7  O    1.404096   2.065242   2.016718   2.483669   2.568223
     8  H    2.581166   3.610663   2.566200   3.091183   2.783867
     9  O    3.124749   4.208681   2.907254   3.333527   2.977925
    10  H    3.970340   5.047858   3.841218   4.092082   3.543652
    11  Si   3.371936   3.047380   4.407229   2.915463   3.083946
    12  O    3.768360   2.984035   4.681998   3.781799   4.291080
    13  H    4.536025   3.707502   5.380483   4.412075   4.973539
    14  O    3.242120   3.249026   4.322790   3.046733   2.811279
    15  H    1.905606   2.343094   2.802731   2.534705   2.411153
    16  O    2.487718   2.405530   3.274558   1.499932   2.100264
    17  H    3.306596   3.321745   3.978205   2.028351   2.414866
    18  O    4.763862   4.504641   5.730804   3.899132   3.931222
    19  H    5.303652   5.169764   6.302515   4.395002   4.197608
                    6          7          8          9         10
     6  H    0.000000
     7  O    3.299476   0.000000
     8  H    3.512469   1.921984   0.000000
     9  O    3.482769   2.792355   0.973961   0.000000
    10  H    4.286638   3.429689   1.539258   0.955293   0.000000
    11  Si   3.793619   3.727742   5.152838   5.725777   6.294945
    12  O    4.541253   4.255469   5.976877   6.631176   7.310163
    13  H    5.037273   5.154427   6.834526   7.438926   8.140753
    14  O    4.102677   3.000588   4.321299   5.000816   5.409844
    15  H    3.537493   0.988342   2.506020   3.355871   3.854514
    16  O    2.053899   3.432704   4.472095   4.803611   5.515381
    17  H    2.230317   4.257223   5.048483   5.237786   5.899524
    18  O    4.542616   5.227341   6.409840   6.841321   7.347121
    19  H    5.082594   5.581098   6.634328   7.055225   7.450434
                   11         12         13         14         15
    11  Si   0.000000
    12  O    1.624229   0.000000
    13  H    2.244475   0.953986   0.000000
    14  O    1.530470   2.737260   3.553339   0.000000
    15  H    3.045198   3.763407   4.692135   2.079189   0.000000
    16  O    1.873981   2.686953   3.133687   2.727867   3.172505
    17  H    2.386787   3.315065   3.564651   3.322451   3.978538
    18  O    1.641153   2.643877   2.702298   2.758342   4.527940
    19  H    2.212164   3.391868   3.518996   2.856930   4.786767
                   16         17         18         19
    16  O    0.000000
    17  H    0.960713   0.000000
    18  O    2.617278   2.500472   0.000000
    19  H    3.303601   3.135024   0.955295   0.000000
 Stoichiometry    C2H10O6Si
 Framework group  C1[X(C2H10O6Si)]
 Deg. of freedom    51
 Full point group                 C1      NOp   1
 Largest Abelian subgroup         C1      NOp   1
 Largest concise Abelian subgroup C1      NOp   1
                         Standard orientation:                         
 ---------------------------------------------------------------------
 Center     Atomic      Atomic             Coordinates (Angstroms)
 Number     Number       Type             X           Y           Z
 ---------------------------------------------------------------------
      1          6           0       -1.514867    0.516091   -0.943973
      2          1           0       -0.713377    1.064427   -1.454314
      3          1           0       -2.353320    0.452622   -1.635466
      4          6           0       -0.968870   -0.888583   -0.673180
      5          1           0       -1.183694   -1.223196    0.331294
      6          1           0       -1.336727   -1.600748   -1.406192
      7          8           0       -1.957659    1.221348    0.186528
      8          1           0       -3.541812    0.226414    0.627651
      9          8           0       -4.084999   -0.565697    0.466067
     10          1           0       -4.561938   -0.725070    1.278295
     11         14           0        1.598252    0.106984    0.285283
     12          8           0        2.188598    1.190565   -0.770873
     13          1           0        2.987341    0.978269   -1.247350
     14          8           0        0.690933    0.559537    1.431716
     15          1           0       -1.215338    1.134908    0.833296
     16          8           0        0.519429   -0.913240   -0.857995
     17          1           0        0.818198   -1.826114   -0.877214
     18          8           0        2.739010   -1.048817    0.522303
     19          1           0        2.865055   -1.293898    1.436981
 ---------------------------------------------------------------------
 Rotational constants (GHZ):           2.4205036           0.6287662           0.6140636
 Standard basis: def2TZVPP (5D, 7F)
 There are   486 symmetry adapted cartesian basis functions of A   symmetry.
 There are   430 symmetry adapted basis functions of A   symmetry.
   430 basis functions,   647 primitive gaussians,   486 cartesian basis functions
    42 alpha electrons       42 beta electrons
       nuclear repulsion energy       621.0701872641 Hartrees.
 NAtoms=   19 NActive=   19 NUniq=   19 SFac= 1.00D+00 NAtFMM=   60 NAOKFM=F Big=F
 Integral buffers will be    131072 words long.
 Raffenetti 2 integral format.
 Two-electron integral symmetry is turned on.
 Nuclear repulsion after empirical dispersion term =      621.0599589393 Hartrees.
 One-electron integrals computed using PRISM.
   1 Symmetry operations used in ECPInt.
 ECPInt:  NShTT=   13203 NPrTT=   36019 LenC2=   12281 LenP2D=   26103.
 LDataN:  DoStor=T MaxTD1= 6 Len=  172
 NBasis=   430 RedAO= T EigKep=  2.20D-04  NBF=   430
 NBsUse=   430 1.00D-06 EigRej= -1.00D+00 NBFU=   430
 Initial guess from the checkpoint file:  "SiAttackIRCProductOpt.chk"
 B after Tr=    -0.000000    0.000000   -0.000000
         Rot=    0.998063    0.062065    0.004200   -0.000527 Ang=   7.13 deg.
 ExpMin= 7.01D-02 ExpMax= 4.48D+04 ExpMxC= 1.53D+03 IAcc=3 IRadAn=         5 AccDes= 0.00D+00
 Harris functional with IExCor= 4639 and IRadAn=       5 diagonalized for initial guess.
 HarFok:  IExCor= 4639 AccDes= 0.00D+00 IRadAn=         5 IDoV= 1 UseB2=F ITyADJ=14
 ICtDFT=  3500011 ScaDFX=  1.000000  1.000000  1.000000  1.000000
 FoFCou: FMM=F IPFlag=           0 FMFlag=      100000 FMFlg1=           0
         NFxFlg=           0 DoJE=T BraDBF=F KetDBF=T FulRan=T
         wScrn=  0.000000 ICntrl=       500 IOpCl=  0 I1Cent=   200000004 NGrid=           0
         NMat0=    1 NMatS0=      1 NMatT0=    0 NMatD0=    1 NMtDS0=    0 NMtDT0=    0
 Petite list used in FoFCou.
 Requested convergence on RMS density matrix=1.00D-08 within 128 cycles.
 Requested convergence on MAX density matrix=1.00D-06.
 Requested convergence on             energy=1.00D-06.
 No special actions if energy rises.
 Integral accuracy reduced to 1.0D-05 until final iterations.
 Initial convergence to 1.0D-05 achieved.  Increase integral accuracy.
 SCF Done:  E(RwB97XD) =  -823.298213945     A.U. after   12 cycles
            NFock= 12  Conv=0.86D-08     -V/T= 2.0035
   1 Symmetry operations used in ECPInt.
 ECPInt:  NShTT=   13203 NPrTT=   36019 LenC2=   12281 LenP2D=   26103.
 LDataN:  DoStor=T MaxTD1= 7 Len=  274
 Calling FoFJK, ICntrl=      2127 FMM=F ISym2X=0 I1Cent= 0 IOpClX= 0 NMat=1 NMatS=1 NMatT=0.
 ***** Axes restored to original set *****
 -------------------------------------------------------------------
 Center     Atomic                   Forces (Hartrees/Bohr)
 Number     Number              X              Y              Z
 -------------------------------------------------------------------
      1        6          -0.006359413    0.002583162    0.005263535
      2        1           0.001528571    0.001779990    0.000925333
      3        1           0.000785075   -0.001674751   -0.001358784
      4        6          -0.003570771    0.002387568    0.006125578
      5        1           0.001206158   -0.000661754   -0.004128962
      6        1           0.000643686   -0.000635646   -0.000149967
      7        8          -0.019067202   -0.011859790   -0.010713501
      8        1           0.002139781   -0.006142746    0.002698891
      9        8          -0.003499981    0.004579785   -0.001905971
     10        1           0.000005334    0.000389446    0.000167062
     11       14           0.001238575    0.006001157   -0.010600685
     12        8           0.000102331   -0.000410501    0.003125289
     13        1          -0.000101469   -0.000220652   -0.000342567
     14        8           0.008433911   -0.000034603    0.006327102
     15        1           0.007870985    0.007015311    0.004048285
     16        8           0.010658768   -0.000273393   -0.003114100
     17        1          -0.001335181   -0.000086001   -0.000134158
     18        8          -0.001390222   -0.002224895    0.003692407
     19        1           0.000711064   -0.000511687    0.000075213
 -------------------------------------------------------------------
 Cartesian Forces:  Max     0.019067202 RMS     0.004979032

 GradGradGradGradGradGradGradGradGradGradGradGradGradGradGradGradGradGrad
 Berny optimization.
 Using GEDIIS/GDIIS optimizer.
 FormGI is forming the generalized inverse of G from B-inverse, IUseBI=4.
 Internal  Forces:  Max     0.032761697 RMS     0.006600633
 Search for a local minimum.
 Step number   2 out of a maximum of   92
 All quantities printed in internal units (Hartrees-Bohrs-Radians)
 Mixed Optimization -- RFO/linear search
 Update second derivatives using D2CorX and points    2    1
 DE=  1.10D-03 DEPred=-1.05D-02 R=-1.05D-01
 Trust test=-1.05D-01 RLast= 4.29D-01 DXMaxT set to 1.50D-01
 ITU= -1  0
 Use linear search instead of GDIIS.
     Eigenvalues ---    0.00230   0.00311   0.00480   0.00894   0.01416
     Eigenvalues ---    0.01848   0.02086   0.03780   0.03968   0.04027
     Eigenvalues ---    0.04404   0.05191   0.05301   0.05459   0.05740
     Eigenvalues ---    0.09167   0.10037   0.10395   0.11219   0.12225
     Eigenvalues ---    0.12289   0.12481   0.13070   0.13469   0.15038
     Eigenvalues ---    0.16000   0.16000   0.16004   0.19247   0.21118
     Eigenvalues ---    0.21756   0.21985   0.22146   0.24359   0.28538
     Eigenvalues ---    0.31485   0.34021   0.34977   0.35302   0.35841
     Eigenvalues ---    0.43555   0.44559   0.45531   0.46916   0.51147
     Eigenvalues ---    0.54482   0.55293   0.55410   0.56788   0.57911
     Eigenvalues ---    0.67730
 RFO step:  Lambda=-8.86851541D-03 EMin= 2.30496893D-03
 Quartic linear search produced a step of -0.62230.
 Maximum step size (   0.150) exceeded in Quadratic search.
    -- Step size scaled by   0.685
 Iteration  1 RMS(Cart)=  0.22665406 RMS(Int)=  0.00762439
 Iteration  2 RMS(Cart)=  0.01779302 RMS(Int)=  0.00066500
 Iteration  3 RMS(Cart)=  0.00009012 RMS(Int)=  0.00066346
 Iteration  4 RMS(Cart)=  0.00000002 RMS(Int)=  0.00066346
 Variable       Old X    -DE/DX   Delta X   Delta X   Delta X     New X
                                 (Linear)    (Quad)   (Total)
    R1        2.07311   0.00031  -0.00011   0.00036   0.00025   2.07337
    R2        2.05728  -0.00019  -0.00010  -0.00003  -0.00012   2.05716
    R3        2.89353  -0.00940   0.00452  -0.01363  -0.00911   2.88443
    R4        2.65336  -0.00143  -0.00236   0.00200  -0.00036   2.65300
    R5        2.04150   0.00420   0.00032   0.00267   0.00299   2.04449
    R6        2.05260   0.00050  -0.00047   0.00092   0.00045   2.05305
    R7        2.83446  -0.01822  -0.00875  -0.00407  -0.01282   2.82164
    R8        3.63202  -0.00065  -0.06847   0.04035  -0.02812   3.60390
    R9        1.86770  -0.00951   0.00002  -0.00504  -0.00502   1.86268
   R10        1.84052  -0.00631  -0.00379   0.00149  -0.00230   1.83822
   R11        1.80524  -0.00024   0.00689  -0.00850  -0.00161   1.80363
   R12        3.06935   0.00121  -0.00059   0.00138   0.00080   3.07014
   R13        2.89217  -0.00014  -0.00135   0.00161   0.00026   2.89243
   R14        3.54131  -0.00541  -0.01557   0.01089  -0.00468   3.53663
   R15        3.10133   0.00216   0.00011   0.00115   0.00127   3.10260
   R16        1.80277  -0.00006  -0.00000  -0.00003  -0.00003   1.80274
   R17        1.81549   0.00050  -0.00005   0.00030   0.00025   1.81574
   R18        1.80525  -0.00001  -0.00751   0.00917   0.00166   1.80690
    A1        1.87165  -0.00222   0.00092   0.00319   0.00392   1.87557
    A2        1.85489   0.00929   0.02392  -0.00578   0.01805   1.87293
    A3        1.93252   0.00127   0.00859  -0.00558   0.00305   1.93558
    A4        1.91079   0.00152  -0.01740   0.01030  -0.00696   1.90383
    A5        1.87320   0.00849  -0.00157   0.00476   0.00353   1.87673
    A6        2.01622  -0.01767  -0.01456  -0.00611  -0.02046   1.99576
    A7        1.95808  -0.00016  -0.00846  -0.00982  -0.01880   1.93928
    A8        1.94053   0.00695   0.00955   0.01563   0.02533   1.96587
    A9        1.92528  -0.01575  -0.00259  -0.01766  -0.02058   1.90470
   A10        1.93590  -0.00200   0.00015   0.00359   0.00393   1.93983
   A11        1.88261   0.00226  -0.00823  -0.01018  -0.01901   1.86360
   A12        1.81534   0.00887   0.01008   0.01939   0.02961   1.84494
   A13        1.75657  -0.00571  -0.11902   0.11132  -0.00571   1.75086
   A14        1.81945   0.00638   0.00653   0.00027   0.00985   1.82930
   A15        2.00820   0.00049  -0.01625   0.00525  -0.00785   2.00035
   A16        2.57290   0.00079  -0.03980   0.04581   0.00601   2.57891
   A17        1.84738  -0.00040   0.00207  -0.00279  -0.00072   1.84666
   A18        2.10051   0.00113  -0.00589   0.00697   0.00102   2.10154
   A19        1.74745   0.00165   0.00750  -0.00954  -0.00177   1.74568
   A20        1.88715  -0.00132   0.00753  -0.00490   0.00285   1.89000
   A21        1.85114  -0.01002  -0.02830   0.01144  -0.01682   1.83432
   A22        2.10847   0.00650  -0.00183   0.01362   0.01142   2.11990
   A23        1.67584  -0.00082   0.02602  -0.03080  -0.00465   1.67119
   A24        2.07217  -0.00062   0.00087  -0.00189  -0.00102   2.07115
   A25        2.07956  -0.03276  -0.06366   0.02942  -0.03421   2.04535
   A26        1.90356   0.00966   0.00981  -0.01444  -0.00467   1.89889
   A27        1.92888   0.01242   0.01677  -0.01516   0.00174   1.93062
   A28        1.99399  -0.00029  -0.00318   0.00286  -0.00033   1.99366
    D1        2.35347  -0.00274   0.01449   0.07820   0.09277   2.44623
    D2       -1.75043  -0.00016   0.01553   0.08750   0.10295  -1.64748
    D3        0.25416   0.00534   0.03206   0.10982   0.14166   0.39582
    D4       -1.91361   0.00035   0.01928   0.08394   0.10351  -1.81011
    D5        0.26567   0.00292   0.02032   0.09324   0.11369   0.37936
    D6        2.27026   0.00842   0.03685   0.11556   0.15240   2.42266
    D7        0.20278   0.00024  -0.00508   0.09385   0.08886   0.29164
    D8        2.38206   0.00281  -0.00403   0.10315   0.09904   2.48110
    D9       -1.89653   0.00831   0.01249   0.12547   0.13775  -1.75878
   D10        2.94968   0.00249   0.08168   0.02369   0.10610   3.05578
   D11       -1.24786   0.00305   0.02566   0.07383   0.09875  -1.14912
   D12        0.91218  -0.00046   0.07682   0.02012   0.09765   1.00984
   D13        2.99783   0.00009   0.02080   0.07026   0.09030   3.08813
   D14       -1.22435   0.00297   0.10944   0.00723   0.11744  -1.10692
   D15        0.86129   0.00352   0.05341   0.05738   0.11009   0.97138
   D16        1.12205  -0.00664  -0.01939  -0.09791  -0.11706   1.00499
   D17       -2.92495  -0.00799  -0.03962  -0.10812  -0.14764  -3.07259
   D18       -1.02205   0.00189  -0.00228  -0.06818  -0.07057  -1.09263
   D19        1.21413   0.00054  -0.02251  -0.07839  -0.10115   1.11298
   D20       -3.07883  -0.00124  -0.00364  -0.07731  -0.08087   3.12349
   D21       -0.84264  -0.00259  -0.02387  -0.08752  -0.11145  -0.95409
   D22        0.16770   0.00255  -0.01148   0.08435   0.07092   0.23862
   D23       -1.77599  -0.00181   0.04580   0.01794   0.06569  -1.71030
   D24        2.67602   0.00048  -0.04617  -0.01898  -0.06514   2.61087
   D25        2.72966   0.00728   0.01246   0.00407   0.01655   2.74621
   D26       -1.53798  -0.00352  -0.02008   0.01474  -0.00529  -1.54327
   D27        0.20416  -0.00412   0.01290  -0.02311  -0.01028   0.19388
   D28       -1.98269  -0.00319  -0.01180  -0.05166  -0.06351  -2.04620
   D29        2.07606  -0.00009   0.01326  -0.04209  -0.02900   2.04706
   D30        0.21364  -0.00541  -0.02661  -0.04353  -0.07024   0.14340
   D31       -2.01079  -0.00231  -0.00155  -0.03396  -0.03573  -2.04652
   D32        2.38640  -0.00193  -0.02749  -0.03793  -0.06509   2.32130
   D33        0.16196   0.00117  -0.00243  -0.02836  -0.03058   0.13139
   D34        2.36489   0.00313  -0.01301   0.02056   0.00777   2.37266
   D35       -0.15727  -0.00607  -0.01091  -0.00394  -0.01499  -0.17226
   D36       -2.12522   0.00436   0.00639  -0.00159   0.00471  -2.12051
         Item               Value     Threshold  Converged?
 Maximum Force            0.032762     0.000450     NO 
 RMS     Force            0.006601     0.000300     NO 
 Maximum Displacement     0.820065     0.001800     NO 
 RMS     Displacement     0.232168     0.001200     NO 
 Predicted change in Energy=-3.672150D-03
 GradGradGradGradGradGradGradGradGradGradGradGradGradGradGradGradGradGrad

                          Input orientation:                          
 ---------------------------------------------------------------------
 Center     Atomic      Atomic             Coordinates (Angstroms)
 Number     Number       Type             X           Y           Z
 ---------------------------------------------------------------------
      1          6           0       -1.991516    0.501461    0.088917
      2          1           0       -2.756984    1.099256    0.599310
      3          1           0       -1.086121    0.546663    0.691634
      4          6           0       -2.492774   -0.939698    0.048738
      5          1           0       -2.262883   -1.405949   -0.900084
      6          1           0       -2.121146   -1.534938    0.878138
      7          8           0       -1.689011    1.044383   -1.169924
      8          1           0       -0.258106   -0.099416   -1.700284
      9          8           0        0.237208   -0.922524   -1.547365
     10          1           0        0.556912   -1.196495   -2.403918
     11         14           0       -4.955446    0.026375   -1.086062
     12          8           0       -5.655956    1.129094   -0.120254
     13          1           0       -6.495672    0.918806    0.280642
     14          8           0       -3.927682    0.456880   -2.135406
     15          1           0       -2.516025    0.937961   -1.695565
     16          8           0       -3.979940   -0.944447    0.182175
     17          1           0       -4.284616   -1.854973    0.218785
     18          8           0       -6.049759   -1.158218   -1.393960
     19          1           0       -6.081311   -1.435186   -2.308595
 ---------------------------------------------------------------------
                    Distance matrix (angstroms):
                    1          2          3          4          5
     1  C    0.000000
     2  H    1.097179   0.000000
     3  H    1.088600   1.762290   0.000000
     4  C    1.526372   2.128443   2.145053   0.000000
     5  H    2.165635   2.961143   2.780472   1.081898   0.000000
     6  H    2.187828   2.724154   2.332193   1.086426   1.788519
     7  O    1.403907   2.067309   2.019060   2.463280   2.531061
     8  H    2.562616   3.601297   2.612336   2.959543   2.523188
     9  O    3.110042   4.202498   2.987110   3.162379   2.627380
    10  H    3.948641   5.027102   3.914154   3.921996   3.202597
    11  Si   3.223533   2.970655   4.289823   2.878510   3.055493
    12  O    3.723681   2.987089   4.677797   3.783409   4.306684
    13  H    4.527511   3.756580   5.437890   4.419390   4.971429
    14  O    2.949295   3.043329   4.009325   2.963086   2.787061
    15  H    1.910503   2.313121   2.810064   2.562955   2.488129
    16  O    2.460321   2.417922   3.295018   1.493148   2.081479
    17  H    3.290586   3.347526   4.027631   2.019243   2.353910
    18  O    4.628476   4.462250   5.647479   3.844641   3.826972
    19  H    5.121044   5.092196   6.154756   4.322051   4.070031
                    6          7          8          9         10
     6  H    0.000000
     7  O    3.321776   0.000000
     8  H    3.489972   1.907104   0.000000
     9  O    3.438015   2.778760   0.972742   0.000000
    10  H    4.249521   3.404181   1.537185   0.954439   0.000000
    11  Si   3.785371   3.422422   4.738997   5.298760   5.798124
    12  O    4.537481   4.104344   5.756954   6.401185   7.015926
    13  H    5.051172   5.022340   6.623297   7.215523   7.837110
    14  O    4.038856   2.507780   3.736922   4.426608   4.787205
    15  H    3.590975   0.985685   2.484828   3.326208   3.807966
    16  O    2.070786   3.321442   4.255559   4.558083   5.228234
    17  H    2.284244   4.131821   4.793494   4.943241   5.545498
    18  O    4.553936   4.890579   5.895603   6.293253   6.683530
    19  H    5.084104   5.170796   6.005334   6.384824   6.643197
                   11         12         13         14         15
    11  Si   0.000000
    12  O    1.624651   0.000000
    13  H    2.244239   0.953971   0.000000
    14  O    1.530606   2.738547   3.556013   0.000000
    15  H    2.674558   3.518140   4.443349   1.554888   0.000000
    16  O    1.871506   2.683294   3.132143   2.708806   3.035197
    17  H    2.385814   3.301542   3.547738   3.318777   3.820096
    18  O    1.641823   2.647490   2.705025   2.767940   4.119734
    19  H    2.213214   3.397837   3.523793   2.871937   4.326534
                   16         17         18         19
    16  O    0.000000
    17  H    0.960846   0.000000
    18  O    2.610373   2.490410   0.000000
    19  H    3.295530   3.129214   0.956172   0.000000
 Stoichiometry    C2H10O6Si
 Framework group  C1[X(C2H10O6Si)]
 Deg. of freedom    51
 Full point group                 C1      NOp   1
 Largest Abelian subgroup         C1      NOp   1
 Largest concise Abelian subgroup C1      NOp   1
                         Standard orientation:                         
 ---------------------------------------------------------------------
 Center     Atomic      Atomic             Coordinates (Angstroms)
 Number     Number       Type             X           Y           Z
 ---------------------------------------------------------------------
      1          6           0       -1.420291    0.845598   -0.841173
      2          1           0       -0.610384    1.489203   -1.206719
      3          1           0       -2.297891    1.045283   -1.453541
      4          6           0       -0.982057   -0.600956   -1.053878
      5          1           0       -1.269489   -1.222411   -0.216214
      6          1           0       -1.344544   -1.014185   -1.990983
      7          8           0       -1.750342    1.161155    0.486399
      8          1           0       -3.248301    0.010348    0.748714
      9          8           0       -3.771175   -0.745285    0.429575
     10          1           0       -4.136460   -1.156593    1.209541
     11         14           0        1.471157    0.017978    0.318888
     12          8           0        2.255834    1.244390   -0.402005
     13          1           0        3.101487    1.070937   -0.808015
     14          8           0        0.420823    0.297193    1.396660
     15          1           0       -0.950448    0.919411    1.009184
     16          8           0        0.507773   -0.653551   -1.138327
     17          1           0        0.775156   -1.555467   -1.333978
     18          8           0        2.501397   -1.255021    0.435757
     19          1           0        2.484298   -1.697116    1.283415
 ---------------------------------------------------------------------
 Rotational constants (GHZ):           2.2988898           0.7032672           0.6904734
 Standard basis: def2TZVPP (5D, 7F)
 There are   486 symmetry adapted cartesian basis functions of A   symmetry.
 There are   430 symmetry adapted basis functions of A   symmetry.
   430 basis functions,   647 primitive gaussians,   486 cartesian basis functions
    42 alpha electrons       42 beta electrons
       nuclear repulsion energy       634.5732651502 Hartrees.
 NAtoms=   19 NActive=   19 NUniq=   19 SFac= 1.00D+00 NAtFMM=   60 NAOKFM=F Big=F
 Integral buffers will be    131072 words long.
 Raffenetti 2 integral format.
 Two-electron integral symmetry is turned on.
 Nuclear repulsion after empirical dispersion term =      634.5629332632 Hartrees.
 One-electron integrals computed using PRISM.
   1 Symmetry operations used in ECPInt.
 ECPInt:  NShTT=   13203 NPrTT=   36019 LenC2=   12417 LenP2D=   26492.
 LDataN:  DoStor=T MaxTD1= 6 Len=  172
 NBasis=   430 RedAO= T EigKep=  2.23D-04  NBF=   430
 NBsUse=   430 1.00D-06 EigRej= -1.00D+00 NBFU=   430
 Lowest energy guess from the checkpoint file:  "SiAttackIRCProductOpt.chk"
 B after Tr=    -0.000000    0.000000    0.000000
         Rot=    0.998064   -0.059899    0.013425    0.009972 Ang=  -7.13 deg.
 B after Tr=    -0.000000   -0.000000    0.000000
         Rot=    0.992199   -0.124105    0.008019    0.008653 Ang= -14.32 deg.
 Requested convergence on RMS density matrix=1.00D-08 within 128 cycles.
 Requested convergence on MAX density matrix=1.00D-06.
 Requested convergence on             energy=1.00D-06.
 No special actions if energy rises.
 Integral accuracy reduced to 1.0D-05 until final iterations.
 Initial convergence to 1.0D-05 achieved.  Increase integral accuracy.
 SCF Done:  E(RwB97XD) =  -823.303492814     A.U. after   12 cycles
            NFock= 12  Conv=0.56D-08     -V/T= 2.0034
   1 Symmetry operations used in ECPInt.
 ECPInt:  NShTT=   13203 NPrTT=   36019 LenC2=   12417 LenP2D=   26492.
 LDataN:  DoStor=T MaxTD1= 7 Len=  274
 Calling FoFJK, ICntrl=      2127 FMM=F ISym2X=0 I1Cent= 0 IOpClX= 0 NMat=1 NMatS=1 NMatT=0.
 ***** Axes restored to original set *****
 -------------------------------------------------------------------
 Center     Atomic                   Forces (Hartrees/Bohr)
 Number     Number              X              Y              Z
 -------------------------------------------------------------------
      1        6           0.001351601    0.004140244   -0.004227651
      2        1           0.000928043    0.001048269    0.001972716
      3        1           0.000586795   -0.001491638    0.000069140
      4        6          -0.003093041    0.003584768   -0.000213366
      5        1           0.004007923   -0.001132047   -0.001907291
      6        1          -0.001300115    0.000311012    0.001110276
      7        8           0.009253016   -0.003162366    0.011230254
      8        1          -0.000806526   -0.003123221    0.002486724
      9        8          -0.000927927    0.002205153   -0.000915387
     10        1           0.000454104    0.000175203   -0.000525560
     11       14          -0.001964725    0.002462240   -0.001148392
     12        8           0.000341685   -0.001166405    0.000189588
     13        1          -0.000148031   -0.000105841   -0.000329164
     14        8          -0.008244835   -0.002205748   -0.002018531
     15        1          -0.003499763    0.001276429   -0.005390038
     16        8           0.005324529   -0.002132278   -0.001322698
     17        1          -0.002220499    0.000128644    0.000047193
     18        8          -0.000123948   -0.000047327    0.000112283
     19        1           0.000081713   -0.000765091    0.000779903
[...]
 0847,0.01070939,-0.01094362,0.00076449,-0.00014766,-0.00287623,0.00090
 861,0.00113020,0.00069960,0.00015438,-0.18631100,0.13314506,-0.0046388
 1,0.20783575,0.02240373,-0.02248043,-0.00338668,-0.00341483,-0.0043517
 4,0.00145448,-0.00027722,0.00088369,-0.00007048,0.14086084,-0.18245368
 ,0.00968471,-0.14214675,0.19440194,-0.00521503,0.00423491,0.00076081,0
 .00029852,0.00107750,0.00080932,0.00005744,-0.00096105,0.00054025,0.00
 426399,0.00511204,-0.05121549,0.01572127,-0.00351860,0.05730141,-0.002
 77136,0.00458497,0.00862956,0.00083017,-0.00021388,-0.00038786,-0.0000
 8540,0.00004446,-0.00048203,-0.13642774,0.00148551,0.13668735,-0.00972
 264,-0.00159995,0.01872626,0.14010994,-0.01288515,0.00501009,0.0252564
 0,0.00089067,0.00075227,0.00037583,-0.00038482,0.00021979,-0.00122846,
 -0.00178428,-0.05213758,0.00416266,0.01165082,0.00128356,-0.01893492,0
 .00402020,0.05344675,0.00467639,-0.00014268,-0.00253667,-0.00043203,-0
 .00001522,0.00034768,0.00038642,0.00107205,-0.00039390,0.12248026,0.00
 249428,-0.24015602,-0.00083421,0.00028205,0.00457137,-0.13104713,0.001
 80618,0.26795096,-0.10653503,0.01149945,0.02577650,-0.00501138,-0.0045
 7187,0.02871213,0.01493183,0.00457288,-0.02458607,-0.00839419,-0.01015
 872,0.01562160,0.00017625,-0.00119794,0.00005944,0.00037787,-0.0029690
 9,0.00047498,0.40603403,0.00345805,-0.07400759,0.02074775,0.00530507,0
 .00803950,-0.02288545,0.00153458,0.00245173,0.00159257,-0.01482556,0.0
 0076157,0.03610580,0.00078697,0.00282376,-0.00093980,-0.00262345,-0.00
 658088,0.00095262,-0.07188725,0.12044993,0.06531806,0.00875815,-0.2286
 6498,0.01288059,0.00053900,-0.02786216,0.00919652,0.00540900,-0.035526
 80,0.00788271,0.00678378,-0.03254006,-0.00086448,0.00102179,0.00106400
 ,0.00072527,0.00398397,0.00017926,0.05868050,-0.06615545,0.43317346,-0
 .00129305,0.00092020,0.00118011,-0.00006696,-0.00005905,0.00035863,0.0
 0001036,-0.00013081,-0.00045280,0.00058238,0.00020024,0.00208186,-0.00
 005765,0.00007070,-0.00007112,0.00000462,0.00001826,-0.00013109,-0.006
 46520,-0.00444339,-0.00366733,0.10888686,0.00069091,0.00691013,-0.0098
 8216,-0.00125773,-0.00033411,0.00302693,0.00010284,-0.00034262,0.00133
 788,0.00137011,0.00288325,0.00321404,0.00028257,-0.00069440,0.00044727
 ,-0.00032854,-0.00104255,-0.00003504,-0.00528869,0.00024397,0.01549973
 ,0.11644672,0.36865435,0.00175316,-0.00118348,-0.00713931,-0.00059988,
 0.00009858,0.00090388,0.00009065,-0.00015112,0.00034260,0.00213768,0.0
 0029540,0.00023565,-0.00008264,0.00045955,-0.00040408,-0.00057177,-0.0
 0023742,-0.00002362,-0.00460989,0.01007750,-0.00042251,0.03602238,0.09
 022583,0.04907603,0.00036238,-0.00147371,0.00259493,0.00016018,0.00000
 279,-0.00066520,0.00017804,0.00048481,-0.00002224,-0.00649670,-0.00116
 017,-0.00552327,0.00073988,-0.00044511,0.00043322,0.00111765,0.0002817
 8,0.00094235,0.00633877,0.00099703,-0.00023048,-0.10654628,-0.09682186
 ,-0.03802941,0.46890338,-0.00121552,-0.00437649,0.00704586,0.00078145,
 0.00035123,-0.00183371,-0.00006399,0.00012000,-0.00087261,0.00011780,-
 0.00072497,-0.00046577,-0.00029127,0.00007413,-0.00057894,-0.00001007,
 0.00041989,-0.00021113,0.00483686,-0.01911901,-0.01762890,-0.14741741,
 -0.35270681,-0.10772642,-0.12828898,0.62729251,-0.00045181,0.00066231,
 0.00106547,0.00011813,-0.00014253,-0.00012981,-0.00011798,-0.00015844,
 -0.00000985,0.00211779,0.00250564,0.00175120,0.00063485,-0.00063790,0.
 00051333,0.00016069,-0.00052210,-0.00021516,0.00209357,-0.01117992,-0.
 00027628,-0.04759414,-0.10015390,-0.04707272,0.03550214,0.12181648,0.0
 7164950,-0.00003301,-0.00017985,0.00046995,0.00004819,-0.00003354,-0.0
 0008764,-0.00000340,0.00001073,-0.00009253,-0.00058033,0.00014963,-0.0
 0015976,0.00018457,0.00000636,0.00026962,0.00019631,-0.00002009,0.0001
 1854,0.00020686,-0.00205259,-0.00170226,0.01054701,-0.01071398,0.00003
 362,-0.35333228,0.26919097,0.00009301,0.34396975,0.00010128,-0.0004410
 5,-0.00000673,-0.00003550,0.00001899,-0.00006060,0.00005103,0.00001476
 ,-0.00009140,-0.00056060,-0.00023813,-0.00020310,0.00006908,0.00021036
 ,-0.00009858,0.00001595,0.00014710,0.00010022,-0.00085661,-0.00146727,
 -0.00172469,0.03683901,-0.01892459,0.00408755,0.22165722,-0.24140878,-
 0.00794294,-0.25886910,0.26079326,-0.00019124,-0.00021198,0.00035549,0
 .00003558,0.00013412,-0.00008721,-0.00002787,-0.00009939,-0.00006486,0
 .00129351,-0.00041197,0.00120534,-0.00023142,0.00019436,-0.00061663,-0
 .00030363,0.00018907,-0.00013365,-0.00060227,-0.00125354,-0.00121784,0
 .00981715,-0.00642131,-0.00067059,-0.01336564,0.00325126,-0.00374648,0
 .00312692,0.00737165,0.00552125,-0.00182578,-0.00199038,0.00020559,-0.
 00006721,-0.00045980,-0.00130153,0.00164459,0.00097907,-0.00010234,-0.
 01776866,-0.00225106,-0.02321289,0.00246813,0.00021196,0.00243304,0.00
 184566,0.00044134,0.00260570,0.00090505,0.00244698,-0.00000246,-0.0027
 4338,0.00063275,0.00193901,0.00575432,-0.00336677,-0.00617173,0.000308
 94,0.00127365,0.00028838,0.44873426,-0.00236347,0.00636773,-0.00795062
 ,-0.00080440,-0.00231809,-0.00180870,0.00051889,-0.00283999,0.00125206
 ,0.00673401,0.01432348,0.01755189,-0.00344863,-0.00178478,-0.00394317,
 -0.00109140,-0.00062908,-0.00163245,0.01608123,-0.00791726,0.01110379,
 -0.00034576,0.00628078,0.00074831,-0.00604770,-0.00320369,0.00414086,-
 0.00009808,-0.00056860,0.00024124,0.23542440,0.53470604,-0.00460246,-0
 .00230504,0.00932017,-0.00045775,-0.00179616,-0.00011883,0.00063849,0.
 00080375,-0.00112053,-0.01219247,0.00470553,-0.00912287,0.00118640,-0.
 00047953,-0.00045565,-0.00120452,0.00152276,-0.00198915,-0.01169631,0.
 00410591,-0.01338563,0.00059652,-0.00133843,0.00161124,0.00401088,0.00
 058452,-0.00669840,-0.00002809,0.00020385,-0.00017054,-0.14206325,-0.0
 3734131,0.54425272,0.00017863,0.00007052,-0.00050160,-0.00009716,0.000
 43337,0.00026212,-0.00039885,-0.00004579,0.00002750,0.00271032,0.00105
 270,0.00319917,-0.00053700,-0.00007305,-0.00006959,-0.00045324,-0.0002
 2861,0.00030107,-0.00138724,-0.00015146,-0.00020028,0.00050151,-0.0001
 7742,-0.00045234,-0.00196095,0.00080548,0.00211173,-0.00000515,-0.0003
 5745,-0.00003724,-0.10562674,0.01609766,0.11657694,0.47526452,0.000421
 43,-0.00145033,0.00063993,0.00006804,0.00049058,0.00014939,-0.00009755
 ,0.00042616,-0.00012951,-0.00147115,-0.00205276,-0.00235822,0.00037777
 ,0.00032369,0.00037439,-0.00021794,-0.00024084,-0.00011815,-0.00167362
 ,0.00141879,-0.00116681,-0.00000140,-0.00104674,-0.00005247,0.00141051
 ,0.00043694,-0.00117538,-0.00000830,0.00010970,-0.00007045,0.00272178,
 -0.04893207,-0.02118835,0.23309066,0.22674309,0.00117839,0.00076496,-0
 .00177433,-0.00009331,0.00021042,-0.00040433,0.00025106,0.00003641,0.0
 0025522,-0.00124404,-0.00105203,-0.00471993,0.00012626,0.00020332,0.00
 105139,0.00064350,-0.00032924,0.00119830,0.00306666,-0.00089798,0.0040
 1081,-0.00041905,0.00019541,-0.00017934,0.00067435,-0.00042285,0.00006
 196,-0.00001904,0.00015620,-0.00003598,0.09224241,-0.03958311,-0.21325
 648,-0.21421243,-0.01023559,0.27202826,0.00005448,-0.00026951,0.000039
 08,-0.00005051,0.00006115,-0.00000028,0.00002187,0.00005015,0.00002070
 ,-0.00028252,-0.00029199,-0.00017280,0.00011219,0.00002836,-0.00001432
 ,-0.00025593,-0.00004425,-0.00011581,0.00020365,0.00016902,-0.00005598
 ,-0.00006988,-0.00000973,0.00008915,0.00027178,-0.00008928,-0.00028247
 ,-0.00001713,0.00004375,0.00003101,-0.01107383,-0.00869055,0.00381442,
 -0.35878530,-0.24273417,0.09980471,0.36821554,-0.00005193,0.00005348,0
 .00011131,0.00004185,-0.00005536,0.00000507,0.00002685,-0.00000339,-0.
 00001351,-0.00021401,0.00008226,-0.00024479,0.00004970,-0.00001063,-0.
 00001017,0.00006097,0.00016261,0.00002394,0.00001013,-0.00006672,-0.00
 006389,-0.00000546,0.00004376,0.00003641,0.00007436,-0.00006286,-0.000
 13298,0.00001780,0.00003140,-0.00001421,0.00521089,0.00212154,-0.00555
 546,-0.25815545,-0.18085796,0.06539880,0.25098647,0.18235724,0.0000255
 4,-0.00019406,-0.00025367,0.00008689,0.00018353,0.00003456,-0.00011635
 ,0.00002645,0.00003162,0.00015161,0.00010928,0.00066415,-0.00007550,0.
 00002712,-0.00004613,-0.00013707,-0.00012591,0.00000336,-0.00004410,0.
 00001148,0.00011261,0.00001175,0.00006297,0.00000599,-0.00015474,-0.00
 001719,0.00003444,0.00001328,-0.00002672,0.00001190,0.02420922,0.01299
 513,-0.01131305,0.07722641,0.04571732,-0.03393812,-0.09923748,-0.05783
 132,0.04482470,-0.00612881,-0.00123321,0.01209294,0.00034402,-0.000307
 24,-0.00048220,0.00011976,0.00060371,-0.00228818,-0.00071435,-0.002519
 81,-0.00158042,0.00027705,0.00019479,0.00041982,0.00010421,0.00083144,
 -0.00051158,-0.04734146,0.01030303,-0.02809105,0.00105455,-0.00554992,
 -0.00249544,0.00085909,0.00418863,0.00103505,0.00012803,-0.00025982,-0
 .00032505,-0.16179997,-0.16091145,0.09731542,-0.00362070,-0.00963962,0
 .01390979,0.00177983,-0.00019879,0.00128722,0.18867242,-0.00134004,-0.
 00206573,0.00187420,0.00015390,0.00022396,0.00117063,-0.00012586,0.000
 89818,-0.00037979,-0.00504997,-0.00394935,-0.00656015,0.00096013,0.000
 66236,0.00095515,0.00047323,0.00039446,0.00062796,-0.00575685,0.010123
 84,-0.00517085,-0.00093382,-0.00230791,-0.00071706,0.00252393,0.000672
 17,-0.00101312,0.00008010,0.00026709,0.00012932,-0.16985780,-0.2881278
 4,0.14986807,-0.00105372,0.00521534,0.00195705,0.00080125,0.00082440,-
 0.00090002,0.17587264,0.31209517,0.00146188,-0.00177484,-0.00263124,-0
 .00141552,0.00144851,0.00057472,-0.00100880,0.00059121,0.00063142,0.00
 226405,-0.00095897,0.00302982,-0.00026706,0.00020236,-0.00006515,0.000
 04582,-0.00024924,0.00013415,-0.00711632,0.00069626,0.00548570,-0.0006
 2715,-0.00055589,-0.00207879,-0.00062562,0.00000366,0.00272102,0.00009
 766,-0.00006850,0.00000581,0.10336891,0.15099380,-0.14386992,0.0148499
 3,0.01113139,-0.00521973,-0.00057291,-0.00027806,-0.00255949,-0.101058
 71,-0.17204268,0.15066567,0.01652949,-0.00370460,-0.00512637,-0.001782
 20,0.00097045,0.00455658,-0.00067210,-0.00064897,0.00584952,0.00359330
 ,0.00298768,0.00834973,-0.00033665,-0.00000469,-0.00072546,-0.00092321
 ,-0.00147634,0.00002907,-0.25647589,0.06756637,-0.12576130,-0.00057347
 ,0.00886669,0.00411341,-0.00216360,-0.00448850,-0.00148017,-0.00045286
 ,-0.00006235,0.00012920,-0.00636559,-0.02762125,0.02099991,0.00200350,
 0.00295557,-0.00617139,-0.00014960,-0.00000942,-0.00003718,0.02293060,
 0.01265678,-0.00360665,0.22690809,0.00165399,-0.00031543,0.00512728,-0
 .00042820,0.00111237,-0.00158311,-0.00032294,0.00038670,-0.00291078,0.
 00146837,-0.00052041,0.00265245,-0.00004463,-0.00000462,-0.00003803,-0
 .00021355,0.00013126,-0.00029469,0.06969141,-0.04553688,0.04289592,0.0
 0530881,-0.00434431,0.00024557,-0.00141687,0.00103956,-0.00052759,0.00
 025931,0.00030550,0.00007458,-0.00698656,0.00130642,-0.00132613,0.0002
 4114,-0.00045721,0.00020196,-0.00006916,0.00000932,0.00002272,0.000139
 76,-0.01254040,0.00095320,-0.06970509,0.06293179,-0.02909720,0.0124841
 3,-0.04038013,-0.00146912,-0.00033835,0.00164269,0.00237245,0.00087943
 ,-0.00379126,0.00083426,0.00129153,0.00091027,-0.00013429,-0.00032832,
 -0.00027665,-0.00019740,-0.00051540,0.00013643,-0.09333878,0.03035337,
 -0.11328347,0.00258134,0.00196918,0.00489263,-0.00143383,-0.00214396,-
 0.00229331,-0.00003624,0.00018749,0.00008790,0.00318550,-0.00685887,0.
 00715292,0.00070434,0.00135040,-0.00257784,-0.00001875,0.00009526,-0.0
 0024343,0.00800594,0.00429852,-0.01337986,0.10974643,-0.04617206,0.163
 65118,-0.01716907,-0.00946246,-0.01933871,0.00049459,-0.00130485,0.000
 18956,0.00011353,-0.00545496,0.00173292,-0.12393603,0.00372921,-0.0230
 5500,-0.02415125,-0.01478620,-0.03306471,0.01044047,0.00382931,0.00605
 645,0.00652615,-0.00145542,0.00109894,0.00041631,0.00426375,-0.0000340
 9,-0.02288607,0.00657484,0.02142596,-0.00068584,-0.00293175,0.00342072
 ,-0.03312067,0.01302732,-0.00607183,-0.01694283,0.01344124,0.00671238,
 0.00066458,0.00204248,-0.00074984,0.00742001,0.00832493,-0.00403344,-0
 .00800194,0.00153924,-0.00261058,0.39509280,-0.02820149,-0.00669788,-0
 .02954243,0.00126840,0.00221381,0.00030655,-0.00221957,-0.00691355,0.0
 0175199,-0.00993762,-0.08287783,-0.03070694,0.01065348,0.00993286,0.01
 509616,-0.00465419,-0.00154713,-0.00633403,-0.00041887,0.00578199,-0.0
 0181359,0.00101144,-0.00525878,-0.00216099,0.01350024,0.00552533,-0.01
 048334,0.00007526,0.00148170,-0.00064095,0.00885597,-0.05313779,0.0059
 1068,0.01167533,-0.00060306,-0.00334832,0.00069323,-0.00241048,-0.0003
 1060,0.00916179,-0.01538631,0.01487711,0.00613817,-0.00029495,0.001778
 24,-0.08211208,0.20616253,-0.00579942,0.00080399,-0.01354594,0.0002873
 9,-0.00069487,0.00039102,0.00029815,-0.00221671,0.00194068,-0.05384389
 ,-0.03143838,-0.12511250,-0.01317644,-0.00531287,-0.01448786,-0.029403
 85,-0.01429230,-0.02844051,0.00440782,0.00222810,0.01200467,-0.0003760
 7,-0.00596189,-0.00294166,0.02753661,-0.00670057,-0.01291781,0.0019403
 8,0.00398394,-0.00439929,-0.00083390,0.00042667,-0.04596278,0.01201708
 ,-0.00709032,0.00310655,0.00027166,-0.00127556,-0.00060425,-0.00406643
 ,0.01672419,0.00032990,-0.00690931,-0.00060229,-0.00212529,-0.04800876
 ,0.12558825,0.45156812,-0.00025254,0.00142303,-0.00673257,-0.00017392,
 0.00023666,0.00066425,-0.00050165,-0.00097442,0.00054210,0.02175526,-0
 .00903194,-0.01364600,-0.00147643,0.00056357,-0.00241465,-0.00418720,-
 0.00208663,-0.00457716,-0.00281763,0.00470463,0.00510827,-0.00456344,-
 0.01217395,0.00125075,0.00973897,-0.00196189,-0.01066217,-0.00043871,0
 .00414325,-0.00292452,-0.01582259,0.01529190,0.00225055,0.00086915,-0.
 00048285,-0.00078846,-0.00030358,0.00011885,0.00024734,-0.00174625,-0.
 00461598,0.00214179,0.00363420,-0.00075077,0.00063260,-0.16010020,0.06
 954581,0.13237528,0.15297351,0.00056591,-0.00163975,-0.00200806,-0.000
 05415,-0.00001107,-0.00002671,0.00014742,0.00038990,0.00027135,0.00049
 303,-0.00417292,-0.01309123,0.00112730,0.00107539,0.00158128,0.0000432
 5,0.00026589,0.00124615,0.00203697,0.00075009,-0.00012611,-0.00780981,
 0.00341761,0.00662968,-0.00548545,-0.01563278,0.00427032,0.00225322,-0
 .00021574,-0.00240862,0.01523539,-0.00581188,-0.00389010,-0.00027583,0
 .00077721,0.00026021,0.00043034,-0.00029977,0.00002895,-0.00234256,0.0
 0295359,-0.00021748,-0.00084695,-0.00184787,0.00014679,0.05855409,-0.0
 6151485,-0.07778508,-0.06259507,0.08309111,-0.00015750,-0.00191002,0.0
 0480695,0.00021941,0.00017324,-0.00068882,0.00042813,0.00097899,-0.000
 41918,0.00385394,-0.01171043,-0.03099236,0.00156868,0.00050358,0.00163
 670,-0.00217099,-0.00066154,-0.00086382,0.00210424,-0.00297497,-0.0048
 3763,0.00056358,0.00857278,0.00442325,-0.01099808,0.00545774,-0.006063
 77,-0.00401062,-0.00578170,0.00397202,0.00965577,-0.00823942,0.0204926
 3,-0.00576723,0.00358398,0.00089245,0.00038070,0.00043249,-0.00003997,
 0.00139738,0.00264893,-0.00538305,-0.00166074,0.00070209,0.00051591,0.
 11020609,-0.07650260,-0.21192006,-0.10406704,0.08599005,0.22847275,-0.
 00032242,0.00019460,0.00003824,0.00004812,-0.00004896,0.00023606,-0.00
 025405,-0.00020139,-0.00002039,0.00152859,0.00307712,0.00389208,-0.000
 76261,-0.00033380,-0.00092367,-0.00022547,-0.00009948,-0.00046891,-0.0
 0155563,0.00011292,-0.00088478,0.00043889,-0.00011761,-0.00030920,-0.0
 0126678,0.00068245,0.00096417,-0.00004293,-0.00035937,-0.00018588,-0.1
 0544334,-0.08885825,-0.05203596,0.00782481,0.00191489,0.00325059,-0.00
 062499,0.00010019,-0.00228393,-0.00204472,-0.01499171,-0.00630470,0.00
 295528,-0.00034818,0.00057084,-0.01118861,-0.00442380,-0.01496847,0.00
 347000,-0.00136487,-0.00032942,0.11802058,-0.00000606,-0.00072664,0.00
 171573,0.00019371,0.00030126,0.00036124,-0.00016952,0.00032519,-0.0003
 0779,-0.00002241,-0.00041669,-0.00062572,-0.00008659,0.00012872,0.0001
 1791,0.00023376,-0.00001657,0.00017246,-0.00488891,0.00231542,-0.00266
 768,0.00048818,-0.00192157,-0.00084885,0.00026097,0.00189563,0.0009901
 6,-0.00013133,-0.00018739,-0.00010339,-0.08569099,-0.14801029,-0.06912
 358,-0.00154959,0.00224504,-0.00973759,-0.00078899,-0.00165707,-0.0002
 9999,-0.02088664,-0.01044131,-0.00816979,0.00794264,-0.00159982,0.0018
 7841,0.00166123,0.00616028,0.00311767,-0.00133360,-0.00211130,-0.00175
 868,0.11518341,0.16879867,0.00028333,0.00061839,-0.00154845,0.00009402
 ,0.00009905,0.00003161,-0.00010647,-0.00031570,0.00012685,0.00018829,0
 .00224141,0.00328870,-0.00085650,-0.00029627,-0.00075670,0.00026622,-0
 .00021289,0.00018168,0.00015310,-0.00036604,0.00165691,0.00024127,-0.0
 0040338,-0.00076297,-0.00093100,0.00068214,0.00208279,-0.00004529,-0.0
 0015386,-0.00011156,-0.06739485,-0.09358733,-0.11785782,-0.00528845,-0
 .01858682,-0.02151893,-0.00385276,-0.00071151,0.00320926,0.00230560,0.
 00324944,0.01018417,-0.00098185,0.00042445,-0.00042136,-0.01504171,-0.
 00310143,-0.00789302,0.00143006,-0.00113638,-0.00417431,0.04790347,0.0
 5203962,0.68222300,0.00004541,0.00013689,-0.00039181,-0.00002872,-0.00
 003755,-0.00000948,0.00004571,-0.00006982,0.00005219,-0.00056063,0.000
 34882,0.00025261,-0.00013052,-0.00006079,-0.00018407,0.00002529,0.0000
 1490,0.00004669,0.00028319,0.00005447,0.00056953,-0.00006317,-0.000216
 91,-0.00024514,0.00022823,0.00001519,0.00050340,0.00000198,0.00009831,
 0.00005227,-0.00000319,-0.00289447,-0.01703688,0.00046272,-0.00007529,
 0.00108760,0.00028936,-0.00010547,-0.00042308,-0.00029331,0.00187889,0
 .00240683,-0.00065733,-0.00001608,-0.00029752,-0.00298592,-0.00061150,
 -0.00174785,-0.00005696,-0.00011222,-0.00121630,-0.01055474,-0.0104092
 6,0.04163353,0.01395262,0.00009538,0.00013547,-0.00026809,-0.00000567,
 -0.00003532,-0.00007876,0.00004594,-0.00002980,0.00005168,0.00007104,0
 .00015214,-0.00015207,0.00003525,-0.00002018,0.00002668,-0.00000932,-0
 .00003905,0.00000548,0.00093949,-0.00046497,0.00052283,-0.00015666,0.0
 0049053,0.00017340,-0.00005377,-0.00059200,-0.00031563,0.00006347,0.00
 007172,0.00005022,-0.00283083,-0.00182463,-0.02336098,-0.00139849,-0.0
 0254557,-0.00377801,-0.00027610,-0.00026175,0.00052086,0.00255327,0.00
 048832,0.00341794,-0.00151620,0.00023897,-0.00035580,0.00052008,-0.000
 61589,0.00049801,-0.00002060,0.00053713,0.00049549,-0.01011815,-0.0150
 8157,0.05951711,0.01206187,0.01939646,0.00003077,-0.00000602,-0.000106
 90,-0.00002972,-0.00001955,-0.00008103,0.00005865,0.00000720,0.0000364
 8,-0.00024202,-0.00016167,-0.00033633,0.00009641,-0.00000267,0.0000757
 7,0.00002158,0.00001257,0.00004932,0.00084321,-0.00021822,0.00032992,-
 0.00011585,0.00019999,0.00020433,0.00028505,-0.00023961,-0.00045614,0.
 00001850,0.00006793,0.00009490,0.00094942,0.00149124,-0.01750806,-0.00
 074714,-0.00077474,0.00102006,-0.00012788,0.00002818,0.00006550,0.0031
 2989,0.00328021,0.00142484,-0.00131344,0.00015444,-0.00021735,0.001165
 66,-0.00036378,0.00101003,-0.00083040,0.00026497,0.00017029,0.02185983
 ,0.03324987,-0.54793987,-0.02505251,-0.03697034,0.56216424\\0.00000432
 ,-0.00000292,0.00002108,-0.00000312,-0.00000211,-0.00000194,-0.0000027
 3,0.00000344,-0.00000031,-0.00000681,-0.00000064,-0.00000031,0.0000014
 8,-0.00000022,-0.00000022,0.00000134,0.00000191,-0.00000002,-0.0000383
 6,-0.00001075,-0.00003342,0.00001967,-0.00000143,0.00000424,0.00000317
 ,0.00001161,0.00001157,-0.00000513,-0.00000039,-0.00000886,-0.00002787
 ,0.00000727,-0.00001971,-0.00000222,-0.00000557,-0.00000634,0.00000170
 ,-0.00000098,0.00000298,0.00000018,-0.00000484,0.00001071,0.00002210,0
 .00000521,0.00001710,0.00004709,-0.00000885,-0.00001562,-0.00002149,0.
 00000411,0.00001365,0.00000486,0.00001392,0.00000018,0.00000181,-0.000
 00879,0.00000522\\\@
 The archive entry for this job was punched.


 THE MEEK SHALL INHERIT THE EARTH.
 (THE REST OF US WILL ESCAPE TO THE STARS)
 Job cpu time:       0 days  4 hours  3 minutes 44.0 seconds.
 Elapsed time:       0 days  0 hours 15 minutes 16.7 seconds.
 File lengths (MBytes):  RWF=    293 Int=      0 D2E=      0 Chk=     16 Scr=      1
 Normal termination of Gaussian 16 at Sun Oct 22 20:56:29 2023.
