 Entering Gaussian System, Link 0=/opt/software/gaussian/g16.c01/g16
 Initial command:
 /opt/software/gaussian/g16.c01/l1.exe "/scratch/arhender/17208545/Gau-111910.inp" -scrdir="/scratch/arhender/17208545/"
 Entering Link 1 = /opt/software/gaussian/g16.c01/l1.exe PID=    111963.
  
 Copyright (c) 1988-2019, Gaussian, Inc.  All Rights Reserved.
  
 This is part of the Gaussian(R) 16 program.  It is based on
 the Gaussian(R) 09 system (copyright 2009, Gaussian, Inc.),
 the Gaussian(R) 03 system (copyright 2003, Gaussian, Inc.),
 the Gaussian(R) 98 system (copyright 1998, Gaussian, Inc.),
 the Gaussian(R) 94 system (copyright 1995, Gaussian, Inc.),
 the Gaussian 92(TM) system (copyright 1992, Gaussian, Inc.),
 the Gaussian 90(TM) system (copyright 1990, Gaussian, Inc.),
 the Gaussian 88(TM) system (copyright 1988, Gaussian, Inc.),
 the Gaussian 86(TM) system (copyright 1986, Carnegie Mellon
 University), and the Gaussian 82(TM) system (copyright 1983,
 Carnegie Mellon University). Gaussian is a federally registered
 trademark of Gaussian, Inc.
  
 This software contains proprietary and confidential information,
 including trade secrets, belonging to Gaussian, Inc.
  
 This software is provided under written license and may be
 used, copied, transmitted, or stored only in accord with that
 written license.
  
 The following legend is applicable only to US Government
 contracts under FAR:
  
                    RESTRICTED RIGHTS LEGEND
  
 Use, reproduction and disclosure by the US Government is
 subject to restrictions as set forth in subparagraphs (a)
 and (c) of the Commercial Computer Software - Restricted
 Rights clause in FAR 52.227-19.
  
 Gaussian, Inc.
 340 Quinnipiac St., Bldg. 40, Wallingford CT 06492
  
  
 ---------------------------------------------------------------
 Warning -- This program may not be used in any manner that
 competes with the business of Gaussian, Inc. or will provide
 assistance to any competitor of Gaussian, Inc.  The licensee
 of this program is prohibited from giving any competitor of
 Gaussian, Inc. access to this program.  By using this program,
 the user acknowledges that Gaussian, Inc. is engaged in the
 business of creating and licensing software in the field of
 computational chemistry and represents and warrants to the
 licensee that it is not a competitor of Gaussian, Inc. and that
 it will not use this program in any manner prohibited above.
 ---------------------------------------------------------------
  

 Cite this work as:
 Gaussian 16, Revision C.01,
 M. J. Frisch, G. W. Trucks, H. B. Schlegel, G. E. Scuseria, 
 M. A. Robb, J. R. Cheeseman, G. Scalmani, V. Barone, 
 G. A. Petersson, H. Nakatsuji, X. Li, M. Caricato, A. V. Marenich, 
 J. Bloino, B. G. Janesko, R. Gomperts, B. Mennucci, H. P. Hratchian, 
 J. V. Ortiz, A. F. Izmaylov, J. L. Sonnenberg, D. Williams-Young, 
 F. Ding, F. Lipparini, F. Egidi, J. Goings, B. Peng, A. Petrone, 
 T. Henderson, D. Ranasinghe, V. G. Zakrzewski, J. Gao, N. Rega, 
 G. Zheng, W. Liang, M. Hada, M. Ehara, K. Toyota, R. Fukuda, 
 J. Hasegawa, M. Ishida, T. Nakajima, Y. Honda, O. Kitao, H. Nakai, 
 T. Vreven, K. Throssell, J. A. Montgomery, Jr., J. E. Peralta, 
 F. Ogliaro, M. J. Bearpark, J. J. Heyd, E. N. Brothers, K. N. Kudin, 
 V. N. Staroverov, T. A. Keith, R. Kobayashi, J. Normand, 
 K. Raghavachari, A. P. Rendell, J. C. Burant, S. S. Iyengar, 
 J. Tomasi, M. Cossi, J. M. Millam, M. Klene, C. Adamo, R. Cammi, 
 J. W. Ochterski, R. L. Martin, K. Morokuma, O. Farkas, 
 J. B. Foresman, and D. J. Fox, Gaussian, Inc., Wallingford CT, 2019.
 
 ******************************************
 Gaussian 16:  ES64L-G16RevC.01  3-Jul-2019
                23-Feb-2024 
 ******************************************
 %chk=IRC_potentialSN1likeCollapseQbiLWithLattacking_reverse.chk
 %mem=1600MB
 %nprocs=4
 Will use up to    4 processors via shared memory.
 ----------------------------------------------------------------------
 # irc=(reverse,calcfc,maxpoints=100,maxcycle=100) wb97xd/def2tzvpp geo
 m=connectivity
 ----------------------------------------------------------------------
 1/6=100,10=4,18=10,22=2,26=3,38=1,42=100,44=3,57=2,172=1/1,23;
 2/12=2,17=6,18=5,29=1,40=1/2;
 3/5=44,7=202,11=2,25=1,30=1,71=2,74=-58,140=1/1,2,3;
 4//1;
 5/5=2,38=5/2;
 8/6=4,10=90,11=11/1;
 11/6=1,8=1,9=11,15=111,16=1/1,2,10;
 10/6=1,13=1/2;
 6/7=2,8=2,9=2,10=2,28=1/1;
 7/10=1,25=1/1,2,3,16;
 1/6=100,10=4,18=10,22=2,26=3,42=100,44=3/23(2);
 2/29=1/2;
 99/5=20/99;
 2/29=1/2;
 3/5=44,7=202,11=2,25=1,30=1,71=2,74=-58,140=1/1,2,3;
 4/5=5,16=3,69=1/1;
 5/5=2,38=5/2;
 8/6=4,10=90,11=11/1;
 11/6=1,8=1,9=11,15=111,16=1/1,2,10;
 10/6=1,13=1/2;
 7/10=1,25=1/1,2,3,16;
 1/6=100,18=10,22=2,26=3,42=100,44=3/23(-8);
 2/29=1/2;
 6/7=2,8=2,9=2,10=2,19=2,28=1/1;
 99/5=20,9=1/99;
 ----------------------------------------------------------------------
 irc for proton transfer with potential SN1 like transition state in L 
 attack on QbiL
 ----------------------------------------------------------------------
 Symbolic Z-matrix:
 Charge =  0 Multiplicity = 1
 Si                    0.57431   0.55933  -0.07492 
 O                     1.67752  -0.06432  -1.12559 
 O                     1.55965   2.07873   0.49424 
 H                     2.26799   2.3382   -0.09665 
 O                    -0.52577   1.68124  -0.29326 
 H                     0.53626   2.40705   0.13324 
 O                     0.78132  -0.46681   1.19087 
 C                    -1.87115  -1.42806  -0.0182 
 H                    -1.33321  -2.06166   0.68314 
 H                    -2.53109  -2.04287  -0.63264 
 C                    -2.65787  -0.3407    0.70251 
 H                    -2.0473    0.08793   1.5026 
 H                    -3.54229  -0.78876   1.15975 
 O                    -0.88547  -0.84826  -0.88708 
 H                    -1.37093  -0.27057  -1.48729 
 O                    -3.07061   0.65099  -0.20251 
 H                    -2.32818   1.27575  -0.27248 
 C                     1.91318  -1.2853    0.91218 
 H                     1.74584  -2.28112   1.32252 
 H                     2.79303  -0.85064   1.39439 
 C                     2.09349  -1.32715  -0.61666 
 H                     3.13419  -1.49677  -0.89089 
 H                     1.47631  -2.11247  -1.05922 
 
 IRC-IRC-IRC-IRC-IRC-IRC-IRC-IRC-IRC-IRC-IRC-IRC-IRC-IRC-IRC-IRC-IRC-IRC
 ------------------------------------------------------------------------
 INPUT DATA FOR L123
 ------------------------------------------------------------------------
 GENERAL PARAMETERS:
 Rxn path following direction = Reverse
 Maximum points per path      = 100
 Step size                    =   0.100 bohr
 Integration scheme           = HPC                                 
    Redo corrector integration= Yes                                 
    DWI Weight Power          =  2
    DWI will use Hessian update vectors when possible.
    Max correction cycles     = 100
 Initial Hessian              = CalcFC
 Hessian evaluation           = All updating
 Hessian updating method      = Bofill                              
 ------------------------------------------------------------------------
 IRC-IRC-IRC-IRC-IRC-IRC-IRC-IRC-IRC-IRC-IRC-IRC-IRC-IRC-IRC-IRC-IRC-IRC
                          Input orientation:                          
 ---------------------------------------------------------------------
 Center     Atomic      Atomic             Coordinates (Angstroms)
 Number     Number       Type             X           Y           Z
 ---------------------------------------------------------------------
      1         14           0        0.574308    0.559325   -0.074915
      2          8           0        1.677518   -0.064323   -1.125589
      3          8           0        1.559653    2.078730    0.494241
      4          1           0        2.267992    2.338203   -0.096649
      5          8           0       -0.525768    1.681244   -0.293261
      6          1           0        0.536256    2.407049    0.133236
      7          8           0        0.781322   -0.466809    1.190867
      8          6           0       -1.871151   -1.428056   -0.018202
      9          1           0       -1.333208   -2.061664    0.683138
     10          1           0       -2.531090   -2.042874   -0.632642
     11          6           0       -2.657866   -0.340696    0.702514
     12          1           0       -2.047298    0.087930    1.502603
     13          1           0       -3.542294   -0.788758    1.159746
     14          8           0       -0.885472   -0.848259   -0.887079
     15          1           0       -1.370925   -0.270567   -1.487293
     16          8           0       -3.070609    0.650990   -0.202510
     17          1           0       -2.328175    1.275745   -0.272475
     18          6           0        1.913178   -1.285296    0.912180
     19          1           0        1.745840   -2.281123    1.322520
     20          1           0        2.793029   -0.850641    1.394393
     21          6           0        2.093491   -1.327152   -0.616662
     22          1           0        3.134191   -1.496773   -0.890885
     23          1           0        1.476310   -2.112466   -1.059216
 ---------------------------------------------------------------------
                    Distance matrix (angstroms):
                    1          2          3          4          5
     1  Si   0.000000
     2  O    1.646185   0.000000
     3  O    1.898272   2.688944   0.000000
     4  H    2.456307   2.679460   0.958239   0.000000
     5  O    1.586362   2.931594   2.264318   2.876690   0.000000
     6  H    1.859801   2.999133   1.133781   1.748284   1.355208
     7  O    1.642562   2.516174   2.751519   3.425781   2.919803
     8  C    3.151693   3.959688   4.932602   5.596728   3.399038
     9  H    3.329091   4.040462   5.054423   5.738949   3.951541
    10  H    4.089743   4.676542   5.915375   6.520147   4.243295
    11  C    3.444036   4.713162   4.866669   5.663854   3.102523
    12  H    3.095738   4.561231   4.241483   5.122798   2.842328
    13  H    4.504234   5.744040   5.890267   6.716832   4.160717
    14  O    2.184459   2.690792   4.056346   4.552214   2.623050
    15  H    2.543121   3.076747   4.246641   4.688421   2.439174
    16  O    3.648301   4.889628   4.895225   5.599871   2.746976
    17  H    2.996113   4.309195   4.043247   4.720644   1.847575
    18  C    2.483859   2.387219   3.408273   3.778012   4.025159
    19  H    3.375419   3.303348   4.441737   4.860541   4.844719
    20  H    3.011576   2.865828   3.303438   3.559157   4.502558
    21  C    2.481975   1.423649   3.622033   3.706169   4.001944
    22  H    3.383245   2.056428   4.145113   4.011004   4.883876
    23  H    2.986791   2.059073   4.470604   4.621877   4.357435
                    6          7          8          9         10
     6  H    0.000000
     7  O    3.072084   0.000000
     8  C    4.530626   3.069439   0.000000
     9  H    4.875109   2.696774   1.087529   0.000000
    10  H    5.458662   4.096491   1.091356   1.779481   0.000000
    11  C    4.251658   3.475976   1.523386   2.171825   2.167054
    12  H    3.732054   2.899311   2.154551   2.408776   3.055103
    13  H    5.282185   4.335698   2.142191   2.593744   2.409978
    14  O    3.695860   2.691016   1.436202   2.034306   2.049366
    15  H    3.665117   3.441398   1.936036   2.814289   2.284181
    16  O    4.025661   4.245980   2.407302   3.340872   2.780827
    17  H    3.106351   3.853159   2.753918   3.611295   3.344268
    18  C    4.016974   1.424319   3.899633   3.345778   4.765702
    19  H    4.985624   2.058971   3.950681   3.152381   4.708668
    20  H    4.158856   2.058085   4.907485   4.358703   5.820355
    21  C    4.114801   2.393562   4.010826   3.737814   4.679665
    22  H    4.799783   3.306132   5.081313   4.770147   5.697396
    23  H    4.767773   2.872990   3.571781   3.306323   4.030641
                   11         12         13         14         15
    11  C    0.000000
    12  H    1.093918   0.000000
    13  H    1.091803   1.766676   0.000000
    14  O    2.434298   2.817245   3.354361   0.000000
    15  H    2.540943   3.086337   3.462684   0.964183   0.000000
    16  O    1.404588   2.066788   2.037425   2.737007   2.321392
    17  H    1.916294   2.154228   2.790612   2.640175   2.187051
    18  C    4.672330   4.233169   5.483613   3.355708   4.191954
    19  H    4.852040   4.475795   5.497091   3.722799   4.653129
    20  H    5.518242   4.931672   6.339969   4.328567   5.096971
    21  C    5.028789   4.862085   5.933596   3.029304   3.725124
    22  H    6.117463   5.923504   7.020101   4.071643   4.706947
    23  H    4.830556   4.880622   5.644677   2.684374   3.417980
                   16         17         18         19         20
    16  O    0.000000
    17  H    0.972842   0.000000
    18  C    5.461673   5.094253   0.000000
    19  H    5.841334   5.638521   1.089978   0.000000
    20  H    6.259972   5.790224   1.093431   1.774274   0.000000
    21  C    5.545493   5.142438   1.540007   2.188915   2.181916
    22  H    6.601991   6.156844   2.187839   2.727982   2.399244
    23  H    5.389351   5.154905   2.182078   2.402865   3.057147
                   21         22         23
    21  C    0.000000
    22  H    1.089507   0.000000
    23  H    1.092467   1.776509   0.000000
 Symmetry turned off by external request.
 Stoichiometry    C4H12O6Si
 Framework group  C1[X(C4H12O6Si)]
 Deg. of freedom    63
 Full point group                 C1      NOp   1
 Rotational constants (GHZ):           1.4818360           0.7780797           0.6305722
 Standard basis: def2TZVPP (5D, 7F)
   520 basis functions,   783 primitive gaussians,   588 cartesian basis functions
    49 alpha electrons       49 beta electrons
       nuclear repulsion energy       882.6598797849 Hartrees.
 NAtoms=   23 NActive=   23 NUniq=   23 SFac= 1.00D+00 NAtFMM=   60 NAOKFM=F Big=F
 Integral buffers will be    131072 words long.
 Raffenetti 2 integral format.
 Two-electron integral symmetry is turned off.
 Nuclear repulsion after empirical dispersion term =      882.6453291276 Hartrees.
 One-electron integrals computed using PRISM.
   1 Symmetry operations used in ECPInt.
 ECPInt:  NShTT=   19306 NPrTT=   52617 LenC2=   18321 LenP2D=   38753.
 LDataN:  DoStor=T MaxTD1= 6 Len=  172
 NBasis=   520 RedAO= T EigKep=  2.02D-04  NBF=   520
 NBsUse=   520 1.00D-06 EigRej= -1.00D+00 NBFU=   520
 ExpMin= 7.01D-02 ExpMax= 4.48D+04 ExpMxC= 1.53D+03 IAcc=3 IRadAn=         5 AccDes= 0.00D+00
 Harris functional with IExCor= 4639 and IRadAn=       5 diagonalized for initial guess.
 HarFok:  IExCor= 4639 AccDes= 0.00D+00 IRadAn=         5 IDoV= 1 UseB2=F ITyADJ=14
 ICtDFT=  3500011 ScaDFX=  1.000000  1.000000  1.000000  1.000000
 FoFCou: FMM=F IPFlag=           0 FMFlag=      100000 FMFlg1=           0
         NFxFlg=           0 DoJE=T BraDBF=F KetDBF=T FulRan=T
         wScrn=  0.000000 ICntrl=       500 IOpCl=  0 I1Cent=   200000004 NGrid=           0
         NMat0=    1 NMatS0=      1 NMatT0=    0 NMatD0=    1 NMtDS0=    0 NMtDT0=    0
 Symmetry not used in FoFCou.
 Requested convergence on RMS density matrix=1.00D-08 within 128 cycles.
 Requested convergence on MAX density matrix=1.00D-06.
 Requested convergence on             energy=1.00D-06.
 No special actions if energy rises.
 Integral accuracy reduced to 1.0D-05 until final iterations.
 Initial convergence to 1.0D-05 achieved.  Increase integral accuracy.
 SCF Done:  E(RwB97XD) =  -900.682765970     A.U. after   13 cycles
            NFock= 13  Conv=0.99D-08     -V/T= 2.0036
 DoSCS=F DFT=T ScalE2(SS,OS)=  1.000000  1.000000
 Range of M.O.s used for correlation:     1   520
 NBasis=   520 NAE=    49 NBE=    49 NFC=     0 NFV=     0
 NROrb=    520 NOA=    49 NOB=    49 NVA=   471 NVB=   471

 **** Warning!!: The largest alpha MO coefficient is  0.12846668D+02

   1 Symmetry operations used in ECPInt.
 ECPInt:  NShTT=   19306 NPrTT=   52617 LenC2=   18321 LenP2D=   38753.
 LDataN:  DoStor=T MaxTD1= 7 Len=  274
 Symmetrizing basis deriv contribution to polar:
 IMax=3 JMax=2 DiffMx= 0.00D+00
 G2DrvN: will do    24 centers at a time, making    1 passes.
 Calling FoFCou, ICntrl=  3107 FMM=F I1Cent=   0 AccDes= 0.00D+00.
 End of G2Drv F.D. properties file   721 does not exist.
 End of G2Drv F.D. properties file   722 does not exist.
 End of G2Drv F.D. properties file   788 does not exist.
          IDoAtm=11111111111111111111111
          Differentiating once with respect to nuclear coordinates.
 CalDSu exits because no D1Ps are significant.
          There are    72 degrees of freedom in the 1st order CPHF.  IDoFFX=6 NUNeed=     0.
     66 vectors produced by pass  0 Test12= 3.21D-14 1.39D-09 XBig12= 8.09D-02 4.18D-02.
 AX will form    66 AO Fock derivatives at one time.
     66 vectors produced by pass  1 Test12= 3.21D-14 1.39D-09 XBig12= 2.29D-02 2.13D-02.
     66 vectors produced by pass  2 Test12= 3.21D-14 1.39D-09 XBig12= 8.58D-04 3.41D-03.
     66 vectors produced by pass  3 Test12= 3.21D-14 1.39D-09 XBig12= 1.32D-05 5.01D-04.
     66 vectors produced by pass  4 Test12= 3.21D-14 1.39D-09 XBig12= 1.31D-07 4.63D-05.
     66 vectors produced by pass  5 Test12= 3.21D-14 1.39D-09 XBig12= 1.16D-09 3.44D-06.
     66 vectors produced by pass  6 Test12= 3.21D-14 1.39D-09 XBig12= 7.75D-12 2.36D-07.
     25 vectors produced by pass  7 Test12= 3.21D-14 1.39D-09 XBig12= 5.01D-14 1.88D-08.
      1 vectors produced by pass  8 Test12= 3.21D-14 1.39D-09 XBig12= 8.75D-16 2.27D-09.
 InvSVY:  IOpt=1 It=  1 EMax= 2.50D-16
 Solved reduced A of dimension   488 with    72 vectors.
 End of Minotr F.D. properties file   721 does not exist.
 End of Minotr F.D. properties file   722 does not exist.
 End of Minotr F.D. properties file   788 does not exist.

 **********************************************************************

            Population analysis using the SCF Density.

 **********************************************************************

 Alpha  occ. eigenvalues --  -66.31613 -19.29827 -19.27941 -19.25465 -19.25457
 Alpha  occ. eigenvalues --  -19.23221 -19.20039 -10.34695 -10.34515 -10.34307
 Alpha  occ. eigenvalues --  -10.32627  -5.43236  -3.77977  -3.77766  -3.77418
 Alpha  occ. eigenvalues --   -1.17791  -1.16080  -1.14086  -1.11126  -1.10108
 Alpha  occ. eigenvalues --   -1.02721  -0.84673  -0.84241  -0.72712  -0.72349
 Alpha  occ. eigenvalues --   -0.66706  -0.64403  -0.62079  -0.60580  -0.60070
 Alpha  occ. eigenvalues --   -0.58138  -0.56840  -0.54223  -0.53027  -0.52504
 Alpha  occ. eigenvalues --   -0.50872  -0.49783  -0.48912  -0.47519  -0.45776
 Alpha  occ. eigenvalues --   -0.43721  -0.42438  -0.41241  -0.40441  -0.39715
 Alpha  occ. eigenvalues --   -0.38673  -0.37505  -0.36846  -0.34948
 Alpha virt. eigenvalues --    0.08503   0.11251   0.11983   0.13397   0.14847
 Alpha virt. eigenvalues --    0.15400   0.16473   0.16861   0.18157   0.19179
 Alpha virt. eigenvalues --    0.19770   0.20555   0.20984   0.21112   0.22855
 Alpha virt. eigenvalues --    0.23051   0.25035   0.25817   0.26565   0.27098
 Alpha virt. eigenvalues --    0.27727   0.28887   0.29818   0.30400   0.30993
 Alpha virt. eigenvalues --    0.32469   0.33255   0.33850   0.37852   0.38282
 Alpha virt. eigenvalues --    0.38998   0.40922   0.41479   0.41878   0.42925
 Alpha virt. eigenvalues --    0.43673   0.44325   0.44928   0.45443   0.46131
 Alpha virt. eigenvalues --    0.47215   0.47764   0.48295   0.48517   0.49262
 Alpha virt. eigenvalues --    0.50343   0.50972   0.51448   0.52572   0.53144
 Alpha virt. eigenvalues --    0.53835   0.54767   0.55737   0.56746   0.57363
 Alpha virt. eigenvalues --    0.58362   0.58937   0.59833   0.60966   0.61392
 Alpha virt. eigenvalues --    0.63619   0.63956   0.67039   0.67832   0.69383
 Alpha virt. eigenvalues --    0.70144   0.71070   0.72026   0.72862   0.74637
 Alpha virt. eigenvalues --    0.76017   0.76780   0.78069   0.79144   0.79520
 Alpha virt. eigenvalues --    0.82142   0.83016   0.84644   0.85184   0.87217
 Alpha virt. eigenvalues --    0.88952   0.90040   0.90478   0.91733   0.92323
 Alpha virt. eigenvalues --    0.93921   0.94733   0.95666   0.97275   0.97981
 Alpha virt. eigenvalues --    0.98805   0.99853   1.02251   1.03214   1.04558
 Alpha virt. eigenvalues --    1.05029   1.06021   1.07115   1.07816   1.08026
 Alpha virt. eigenvalues --    1.09245   1.09710   1.10990   1.13324   1.14233
 Alpha virt. eigenvalues --    1.15805   1.17090   1.18397   1.19348   1.20029
 Alpha virt. eigenvalues --    1.20815   1.21795   1.23129   1.24685   1.24925
 Alpha virt. eigenvalues --    1.25712   1.26956   1.27560   1.28560   1.29102
 Alpha virt. eigenvalues --    1.31469   1.32723   1.34277   1.35373   1.36415
 Alpha virt. eigenvalues --    1.37178   1.37701   1.39487   1.40849   1.42794
 Alpha virt. eigenvalues --    1.42871   1.44900   1.45631   1.45931   1.46352
 Alpha virt. eigenvalues --    1.49213   1.49953   1.51893   1.52536   1.53764
 Alpha virt. eigenvalues --    1.54936   1.56122   1.57055   1.59295   1.61262
 Alpha virt. eigenvalues --    1.61698   1.62559   1.64925   1.66080   1.66589
 Alpha virt. eigenvalues --    1.67805   1.68899   1.70405   1.73977   1.75623
 Alpha virt. eigenvalues --    1.79076   1.80825   1.82271   1.85413   1.88827
 Alpha virt. eigenvalues --    1.90845   1.93011   1.94297   1.95797   1.96890
 Alpha virt. eigenvalues --    1.97794   2.00198   2.00788   2.03358   2.05243
 Alpha virt. eigenvalues --    2.06460   2.07926   2.08315   2.09292   2.10785
 Alpha virt. eigenvalues --    2.12781   2.13234   2.15244   2.18075   2.19295
 Alpha virt. eigenvalues --    2.21408   2.23756   2.25817   2.26925   2.28915
 Alpha virt. eigenvalues --    2.30298   2.33004   2.35822   2.37226   2.39698
 Alpha virt. eigenvalues --    2.40904   2.43183   2.44834   2.46834   2.48370
 Alpha virt. eigenvalues --    2.49862   2.52991   2.57234   2.57808   2.59335
 Alpha virt. eigenvalues --    2.61852   2.65998   2.67492   2.68357   2.70329
 Alpha virt. eigenvalues --    2.71185   2.73454   2.74947   2.77565   2.79083
 Alpha virt. eigenvalues --    2.79869   2.81230   2.81416   2.84422   2.86872
 Alpha virt. eigenvalues --    2.87510   2.90069   2.92606   2.92843   2.94199
 Alpha virt. eigenvalues --    2.95782   2.96423   2.98110   2.98383   3.01352
 Alpha virt. eigenvalues --    3.03160   3.04851   3.05756   3.06093   3.08436
 Alpha virt. eigenvalues --    3.10089   3.10835   3.11073   3.12789   3.13696
 Alpha virt. eigenvalues --    3.15424   3.16640   3.18694   3.19777   3.20703
 Alpha virt. eigenvalues --    3.21339   3.23099   3.23893   3.24353   3.25917
 Alpha virt. eigenvalues --    3.27601   3.28534   3.29905   3.31276   3.32787
 Alpha virt. eigenvalues --    3.33886   3.35263   3.35887   3.36640   3.39129
 Alpha virt. eigenvalues --    3.39631   3.42768   3.43663   3.44507   3.46764
 Alpha virt. eigenvalues --    3.47996   3.49539   3.50043   3.51632   3.52049
 Alpha virt. eigenvalues --    3.54154   3.56425   3.58863   3.59689   3.61111
 Alpha virt. eigenvalues --    3.63256   3.63528   3.65270   3.66226   3.67339
 Alpha virt. eigenvalues --    3.70006   3.72339   3.73238   3.74300   3.74739
 Alpha virt. eigenvalues --    3.75657   3.75715   3.76525   3.79604   3.79979
 Alpha virt. eigenvalues --    3.82491   3.83240   3.84114   3.85732   3.86336
 Alpha virt. eigenvalues --    3.88113   3.90440   3.92111   3.93639   3.95151
 Alpha virt. eigenvalues --    3.95345   3.96546   4.00091   4.00739   4.02666
 Alpha virt. eigenvalues --    4.03355   4.04556   4.06898   4.08411   4.08791
 Alpha virt. eigenvalues --    4.10125   4.11738   4.12548   4.13333   4.14295
 Alpha virt. eigenvalues --    4.15582   4.16570   4.17730   4.19677   4.20900
 Alpha virt. eigenvalues --    4.21861   4.23081   4.25363   4.27817   4.28319
 Alpha virt. eigenvalues --    4.28720   4.31533   4.32176   4.33250   4.35387
 Alpha virt. eigenvalues --    4.36255   4.38329   4.41253   4.41898   4.43320
 Alpha virt. eigenvalues --    4.44828   4.46564   4.48176   4.50504   4.53318
 Alpha virt. eigenvalues --    4.58124   4.59400   4.61677   4.64275   4.64889
 Alpha virt. eigenvalues --    4.65780   4.68328   4.72138   4.75369   4.76609
 Alpha virt. eigenvalues --    4.78221   4.78675   4.82363   4.83455   4.84856
 Alpha virt. eigenvalues --    4.87672   4.89381   4.90279   4.92579   4.94565
 Alpha virt. eigenvalues --    4.96284   4.97153   4.99576   5.01048   5.02794
 Alpha virt. eigenvalues --    5.04976   5.06747   5.08679   5.09128   5.10302
 Alpha virt. eigenvalues --    5.13239   5.16130   5.17657   5.21468   5.22254
 Alpha virt. eigenvalues --    5.23211   5.25697   5.30624   5.34196   5.35804
 Alpha virt. eigenvalues --    5.37684   5.39622   5.40661   5.41646   5.43177
 Alpha virt. eigenvalues --    5.43539   5.45261   5.46275   5.50375   5.51812
 Alpha virt. eigenvalues --    5.53689   5.56453   5.57668   5.57905   5.58518
 Alpha virt. eigenvalues --    5.60391   5.60741   5.62152   5.68706   5.69273
 Alpha virt. eigenvalues --    5.69965   5.72017   5.73666   5.76720   5.78170
 Alpha virt. eigenvalues --    5.79376   5.84569   5.86430   5.90357   5.94483
 Alpha virt. eigenvalues --    5.96216   5.97964   6.01034   6.02921   6.06832
 Alpha virt. eigenvalues --    6.12416   6.14596   6.16684   6.19520   6.27047
 Alpha virt. eigenvalues --    6.29492   6.49833   6.55604   6.57801   6.58833
 Alpha virt. eigenvalues --    6.62491   6.66959   6.69378   6.69490   6.71345
 Alpha virt. eigenvalues --    6.74051   6.78168   6.79449   6.79833   6.81277
 Alpha virt. eigenvalues --    6.83713   6.85788   6.86126   6.86788   6.88062
 Alpha virt. eigenvalues --    6.91527   6.97541   6.98945   7.02850   7.04867
 Alpha virt. eigenvalues --    7.05742   7.07596   7.10823   7.13359   7.15495
 Alpha virt. eigenvalues --    7.18523   7.21195   7.27770   7.28033   7.36344
 Alpha virt. eigenvalues --    7.38854   7.40649   7.46104   7.52658   7.54792
 Alpha virt. eigenvalues --    7.57630   7.64244   7.68704   7.73930   7.83357
 Alpha virt. eigenvalues --   13.00026  23.39586  23.42920  23.44600  23.49554
 Alpha virt. eigenvalues --   43.91680  44.02597  44.16859  44.22919  44.25915
 Alpha virt. eigenvalues --   44.33692
          Condensed to atoms (all electrons):
               1          2          3          4          5          6
     1  Si  11.559900   0.433473   0.250419  -0.011641   0.499926  -0.010199
     2  O    0.433473   7.911004  -0.024031   0.002299  -0.013681   0.002077
     3  O    0.250419  -0.024031   7.726694   0.322437  -0.144582   0.219805
     4  H   -0.011641   0.002299   0.322437   0.508280   0.006244  -0.007301
     5  O    0.499926  -0.013681  -0.144582   0.006244   8.188656   0.145795
     6  H   -0.010199   0.002077   0.219805  -0.007301   0.145795   0.363926
     7  O    0.399218  -0.010612  -0.017311   0.000880  -0.016613   0.002004
     8  C   -0.007128   0.001418  -0.000118  -0.000010  -0.002436  -0.000018
     9  H   -0.007753   0.000362   0.000032  -0.000002   0.000145  -0.000027
    10  H    0.001172  -0.000128   0.000000  -0.000000  -0.000182   0.000008
    11  C    0.007757  -0.000637   0.000135   0.000006   0.004241   0.000179
    12  H   -0.006232  -0.000099   0.000050  -0.000008   0.000210   0.000111
    13  H    0.000276  -0.000003  -0.000000   0.000000   0.000162  -0.000001
    14  O    0.146692  -0.022759  -0.000064   0.000088  -0.032145   0.000831
    15  H   -0.017935   0.000947   0.000137  -0.000064   0.007201  -0.000383
    16  O   -0.005316   0.000018  -0.000074   0.000007  -0.026856   0.000113
    17  H   -0.002783   0.000116   0.000237  -0.000032   0.042760  -0.000107
    18  C   -0.017073  -0.058287   0.003635  -0.001111  -0.000896  -0.000237
    19  H    0.004051   0.004218  -0.000103   0.000012  -0.000004   0.000021
    20  H   -0.006382   0.004145   0.002189  -0.000011  -0.000013  -0.000035
    21  C   -0.046679   0.252380  -0.000797   0.000883   0.000306  -0.000154
    22  H    0.001237  -0.032039  -0.000002   0.000007  -0.000005   0.000043
    23  H   -0.008540  -0.039509  -0.000060   0.000020   0.000100  -0.000036
               7          8          9         10         11         12
     1  Si   0.399218  -0.007128  -0.007753   0.001172   0.007757  -0.006232
     2  O   -0.010612   0.001418   0.000362  -0.000128  -0.000637  -0.000099
     3  O   -0.017311  -0.000118   0.000032   0.000000   0.000135   0.000050
     4  H    0.000880  -0.000010  -0.000002  -0.000000   0.000006  -0.000008
     5  O   -0.016613  -0.002436   0.000145  -0.000182   0.004241   0.000210
     6  H    0.002004  -0.000018  -0.000027   0.000008   0.000179   0.000111
     7  O    7.923247   0.007885   0.006862   0.000487  -0.011185   0.005708
     8  C    0.007885   4.893579   0.406497   0.417570   0.274267  -0.063216
     9  H    0.006862   0.406497   0.577719  -0.021038  -0.025293  -0.000429
    10  H    0.000487   0.417570  -0.021038   0.560885  -0.031652   0.007598
    11  C   -0.011185   0.274267  -0.025293  -0.031652   4.696816   0.442373
    12  H    0.005708  -0.063216  -0.000429   0.007598   0.442373   0.607877
    13  H    0.000024  -0.038797   0.003490  -0.007959   0.420391  -0.026658
    14  O   -0.023875   0.204040  -0.031592  -0.031124  -0.045594   0.000344
    15  H    0.001459  -0.031364   0.009806  -0.005371  -0.009427   0.002462
    16  O    0.000103  -0.066621   0.005055   0.004214   0.263656  -0.042232
    17  H    0.000303   0.002605  -0.000752  -0.000657  -0.033733  -0.011990
    18  C    0.258240   0.000475  -0.000791   0.000046  -0.000367   0.000139
    19  H   -0.037725   0.000047  -0.000914  -0.000061   0.000291  -0.000162
    20  H   -0.037385   0.000034   0.000164   0.000007  -0.000058   0.000000
    21  C   -0.061288  -0.001254  -0.000138   0.000276  -0.000189   0.000284
    22  H    0.003280  -0.000018   0.000004  -0.000009   0.000006  -0.000008
    23  H    0.005354  -0.000981  -0.000084  -0.000040   0.000414  -0.000018
              13         14         15         16         17         18
     1  Si   0.000276   0.146692  -0.017935  -0.005316  -0.002783  -0.017073
     2  O   -0.000003  -0.022759   0.000947   0.000018   0.000116  -0.058287
     3  O   -0.000000  -0.000064   0.000137  -0.000074   0.000237   0.003635
     4  H    0.000000   0.000088  -0.000064   0.000007  -0.000032  -0.001111
     5  O    0.000162  -0.032145   0.007201  -0.026856   0.042760  -0.000896
     6  H   -0.000001   0.000831  -0.000383   0.000113  -0.000107  -0.000237
     7  O    0.000024  -0.023875   0.001459   0.000103   0.000303   0.258240
     8  C   -0.038797   0.204040  -0.031364  -0.066621   0.002605   0.000475
     9  H    0.003490  -0.031592   0.009806   0.005055  -0.000752  -0.000791
    10  H   -0.007959  -0.031124  -0.005371   0.004214  -0.000657   0.000046
    11  C    0.420391  -0.045594  -0.009427   0.263656  -0.033733  -0.000367
    12  H   -0.026658   0.000344   0.002462  -0.042232  -0.011990   0.000139
    13  H    0.591477   0.003941   0.000593  -0.028703   0.005111   0.000001
    14  O    0.003941   7.774077   0.317071  -0.005133   0.001808   0.001036
    15  H    0.000593   0.317071   0.508772   0.031280  -0.001265   0.000303
    16  O   -0.028703  -0.005133   0.031280   7.941660   0.344459   0.000069
    17  H    0.005111   0.001808  -0.001265   0.344459   0.419837   0.000042
    18  C    0.000001   0.001036   0.000303   0.000069   0.000042   4.737536
    19  H   -0.000001   0.000101   0.000013  -0.000001   0.000001   0.406318
    20  H    0.000001  -0.000042  -0.000001   0.000001   0.000002   0.429994
    21  C    0.000025   0.001242  -0.000093   0.000028  -0.000018   0.287197
    22  H   -0.000000   0.000204  -0.000053   0.000000  -0.000000  -0.013226
    23  H    0.000002   0.007165   0.000292  -0.000007   0.000010  -0.048750
              19         20         21         22         23
     1  Si   0.004051  -0.006382  -0.046679   0.001237  -0.008540
     2  O    0.004218   0.004145   0.252380  -0.032039  -0.039509
     3  O   -0.000103   0.002189  -0.000797  -0.000002  -0.000060
     4  H    0.000012  -0.000011   0.000883   0.000007   0.000020
     5  O   -0.000004  -0.000013   0.000306  -0.000005   0.000100
     6  H    0.000021  -0.000035  -0.000154   0.000043  -0.000036
     7  O   -0.037725  -0.037385  -0.061288   0.003280   0.005354
     8  C    0.000047   0.000034  -0.001254  -0.000018  -0.000981
     9  H   -0.000914   0.000164  -0.000138   0.000004  -0.000084
    10  H   -0.000061   0.000007   0.000276  -0.000009  -0.000040
    11  C    0.000291  -0.000058  -0.000189   0.000006   0.000414
    12  H   -0.000162   0.000000   0.000284  -0.000008  -0.000018
    13  H   -0.000001   0.000001   0.000025  -0.000000   0.000002
    14  O    0.000101  -0.000042   0.001242   0.000204   0.007165
    15  H    0.000013  -0.000001  -0.000093  -0.000053   0.000292
    16  O   -0.000001   0.000001   0.000028   0.000000  -0.000007
    17  H    0.000001   0.000002  -0.000018  -0.000000   0.000010
    18  C    0.406318   0.429994   0.287197  -0.013226  -0.048750
    19  H    0.620667  -0.039295  -0.026377   0.005405  -0.009934
    20  H   -0.039295   0.605738  -0.036971  -0.011797   0.009013
    21  C   -0.026377  -0.036971   4.746369   0.402235   0.439996
    22  H    0.005405  -0.011797   0.402235   0.602748  -0.038634
    23  H   -0.009934   0.009013   0.439996  -0.038634   0.610822
 Mulliken charges:
               1
     1  Si   0.843541
     2  O   -0.410672
     3  O   -0.338626
     4  H    0.179017
     5  O   -0.658332
     6  H    0.283585
     7  O   -0.399057
     8  C    0.003542
     9  H    0.078676
    10  H    0.105958
    11  C    0.047601
    12  H    0.083897
    13  H    0.076629
    14  O   -0.266312
    15  H    0.185622
    16  O   -0.415720
    17  H    0.234048
    18  C    0.015703
    19  H    0.073433
    20  H    0.080703
    21  C    0.042737
    22  H    0.080623
    23  H    0.073405
 Sum of Mulliken charges =  -0.00000
 Mulliken charges with hydrogens summed into heavy atoms:
               1
     1  Si   0.843541
     2  O   -0.410672
     3  O    0.123975
     5  O   -0.658332
     7  O   -0.399057
     8  C    0.188176
    11  C    0.208127
    14  O   -0.080690
    16  O   -0.181672
    18  C    0.169839
    21  C    0.196765
 APT charges:
               1
     1  Si   0.570975
     2  O   -0.344528
     3  O   -0.673948
     4  H    0.641379
     5  O   -0.647468
     6  H    0.309410
     7  O   -0.390746
     8  C   -0.659278
     9  H    0.228225
    10  H    0.597260
    11  C   -0.641418
    12  H    0.103696
    13  H    0.687559
    14  O   -0.421012
    15  H    0.418360
    16  O   -0.244977
    17  H    0.097857
    18  C   -0.777835
    19  H    0.433759
    20  H    0.511970
    21  C   -0.718747
    22  H    0.631650
    23  H    0.287857
 Sum of APT charges =  -0.00000
 APT charges with hydrogens summed into heavy atoms:
               1
     1  Si   0.570975
     2  O   -0.344528
     3  O    0.276842
     5  O   -0.647468
     7  O   -0.390746
     8  C    0.166207
    11  C    0.149837
    14  O   -0.002652
    16  O   -0.147119
    18  C    0.167894
    21  C    0.200760
 Electronic spatial extent (au):  <R**2>=           1948.1302
 Charge=             -0.0000 electrons
 Dipole moment (field-independent basis, Debye):
    X=              2.7686    Y=             -2.7072    Z=             -0.0395  Tot=              3.8724
 Quadrupole moment (field-independent basis, Debye-Ang):
   XX=            -70.4277   YY=            -66.4656   ZZ=            -74.4087
   XY=              6.3344   XZ=             -1.5058   YZ=             -2.0364
 Traceless Quadrupole moment (field-independent basis, Debye-Ang):
   XX=              0.0063   YY=              3.9684   ZZ=             -3.9747
   XY=              6.3344   XZ=             -1.5058   YZ=             -2.0364
 Octapole moment (field-independent basis, Debye-Ang**2):
  XXX=             50.1778  YYY=             10.0419  ZZZ=             -7.0511  XYY=             15.2175
  XXY=            -13.0502  XXZ=              6.0524  XZZ=             -9.3946  YZZ=              0.6450
  YYZ=             -3.3094  XYZ=             -5.5943
 Hexadecapole moment (field-independent basis, Debye-Ang**3):
 XXXX=          -1487.4867 YYYY=           -637.2457 ZZZZ=           -304.7178 XXXY=             74.7861
 XXXZ=            -23.2740 YYYX=             33.8967 YYYZ=            -13.6996 ZZZX=             14.6646
 ZZZY=              1.1177 XXYY=           -309.8472 XXZZ=           -286.7103 YYZZ=           -165.3608
 XXYZ=             -7.8218 YYXZ=            -11.4323 ZZXY=             -2.5487
 N-N= 8.826453291276D+02 E-N=-3.893444519543D+03  KE= 8.974515317161D+02
  Exact polarizability:       0.000       0.000       0.000       0.000       0.000       0.000
 Approx polarizability:     101.205      -0.595      98.317       0.783      -2.480      90.778
   1 Symmetry operations used in ECPInt.
 ECPInt:  NShTT=   19306 NPrTT=   52617 LenC2=   18321 LenP2D=   38753.
 LDataN:  DoStor=T MaxTD1= 8 Len=  415
 Calling FoFJK, ICntrl=    100127 FMM=F ISym2X=0 I1Cent= 0 IOpClX= 0 NMat=1 NMatS=1 NMatT=0.
 -------------------------------------------------------------------
 Center     Atomic                   Forces (Hartrees/Bohr)
 Number     Number              X              Y              Z
 -------------------------------------------------------------------
      1       14           0.000001951    0.000001333    0.000000404
      2        8          -0.000001045    0.000003811    0.000001848
      3        8          -0.000002207   -0.000000431    0.000004951
      4        1          -0.000001145    0.000001822    0.000005580
      5        8          -0.000001041    0.000000545    0.000003041
      6        1          -0.000001503    0.000000627    0.000005667
      7        8          -0.000000947   -0.000001324    0.000000663
      8        6           0.000000128   -0.000001162   -0.000002439
      9        1           0.000001633   -0.000001687   -0.000003619
     10        1           0.000001119   -0.000000226   -0.000004557
     11        6          -0.000000417   -0.000003188   -0.000001342
     12        1          -0.000001130   -0.000004136    0.000000342
     13        1           0.000000093   -0.000003934   -0.000002426
     14        8           0.000000052    0.000002016   -0.000001770
     15        1           0.000001015    0.000001656   -0.000000462
     16        8          -0.000000624   -0.000001504    0.000000817
     17        1          -0.000000667   -0.000000510    0.000001803
     18        6           0.000000217   -0.000000697   -0.000001689
     19        1           0.000000452   -0.000001593   -0.000002844
     20        1          -0.000000170   -0.000000860    0.000000195
     21        6           0.000001850    0.000003030   -0.000000182
     22        1           0.000000803    0.000003761   -0.000001070
     23        1           0.000001584    0.000002651   -0.000002912
 -------------------------------------------------------------------
 Cartesian Forces:  Max     0.000005667 RMS     0.000002149
 IRC-IRC-IRC-IRC-IRC-IRC-IRC-IRC-IRC-IRC-IRC-IRC-IRC-IRC-IRC-IRC-IRC-IRC
          ******** Start new reaction path calculation ********
 Supplied step size of   0.1000 bohr.
    Integration on MW PES will use step size of   0.1075 sqrt(amu)*bohr.
 Point Number:   0          Path Number:   1
 Calculating another point on the path.
 IRC-IRC-IRC-IRC-IRC-IRC-IRC-IRC-IRC-IRC-IRC-IRC-IRC-IRC-IRC-IRC-IRC-IRC
                          Input orientation:                          
 ---------------------------------------------------------------------
 Center     Atomic      Atomic             Coordinates (Angstroms)
 Number     Number       Type             X           Y           Z
 ---------------------------------------------------------------------
      1         14           0        0.565361    0.527768   -0.066302
      2          8           0        1.671393   -0.095041   -1.115716
      3          8           0        1.554600    2.049495    0.504330
      4          1           0        2.261910    2.309897   -0.087942
      5          8           0       -0.533119    1.647658   -0.284472
      6          1           0        0.576281    2.393301    0.159742
      7          8           0        0.775424   -0.497618    1.200310
      8          6           0       -1.877546   -1.459168   -0.008812
      9          1           0       -1.339787   -2.092930    0.692619
     10          1           0       -2.537697   -2.074027   -0.623061
     11          6           0       -2.664336   -0.371710    0.711874
     12          1           0       -2.053623    0.056898    1.511894
     13          1           0       -3.548700   -0.820033    1.169149
     14          8           0       -0.891876   -0.879948   -0.877771
     15          1           0       -1.376627   -0.299374   -1.475859
     16          8           0       -3.076926    0.619960   -0.192982
     17          1           0       -2.331848    1.242890   -0.263906
     18          6           0        1.906768   -1.316420    0.921622
     19          1           0        1.739383   -2.312249    1.331939
     20          1           0        2.786981   -0.882302    1.403902
     21          6           0        2.087143   -1.358176   -0.607186
     22          1           0        3.127800   -1.528096   -0.881477
     23          1           0        1.469644   -2.143110   -1.049878
 ---------------------------------------------------------------------
                    Distance matrix (angstroms):
                    1          2          3          4          5
     1  Si   0.000000
     2  O    1.646957   0.000000
     3  O    1.902595   2.690209   0.000000
     4  H    2.460636   2.681185   0.958584   0.000000
     5  O    1.583796   2.930502   2.267654   2.879127   0.000000
     6  H    1.879210   3.002984   1.092727   1.705769   1.408573
     7  O    1.643121   2.515711   2.753050   3.428027   2.918745
     8  C    3.149447   3.959930   4.934943   5.598858   3.396446
     9  H    3.327702   4.040896   5.056936   5.741635   3.949357
    10  H    4.087577   4.677129   5.917883   6.522374   4.240745
    11  C    3.441737   4.713298   4.868750   5.665564   3.100426
    12  H    3.093783   4.561048   4.243218   5.124383   2.840666
    13  H    4.502044   5.744179   5.892354   6.718625   4.158875
    14  O    2.182587   2.691290   4.059197   4.554701   2.620974
    15  H    2.538175   3.076017   4.246225   4.687597   2.433484
    16  O    3.645655   4.889703   4.897024   5.600901   2.745084
    17  H    2.990696   4.305992   4.042929   4.719330   1.843823
    18  C    2.485236   2.387031   3.409918   3.780942   4.024112
    19  H    3.376256   3.303279   4.443410   4.863469   4.843337
    20  H    3.014199   2.865798   3.305060   3.562504   4.502708
    21  C    2.482975   1.423715   3.623712   3.708763   4.000620
    22  H    3.384846   2.056608   4.146634   4.013684   4.883048
    23  H    2.986426   2.059035   4.472216   4.624098   4.355093
                    6          7          8          9         10
     6  H    0.000000
     7  O    3.078937   0.000000
     8  C    4.570689   3.069985   0.000000
     9  H    4.907295   2.697570   1.087587   0.000000
    10  H    5.501514   4.097135   1.091399   1.779427   0.000000
    11  C    4.295548   3.476546   1.523480   2.171957   2.167019
    12  H    3.768751   2.899669   2.154532   2.408845   3.055029
    13  H    5.325400   4.336239   2.142158   2.593578   2.409698
    14  O    3.734445   2.691558   1.436013   2.034226   2.049251
    15  H    3.706689   3.439841   1.936045   2.814338   2.285769
    16  O    4.076159   4.246274   2.407323   3.340915   2.780881
    17  H    3.155968   3.850771   2.751832   3.609268   3.342649
    18  C    4.014061   1.424093   3.899630   3.345971   4.765845
    19  H    4.986888   2.058987   3.950637   3.152477   4.708735
    20  H    4.143031   2.058104   4.907785   4.359101   5.820738
    21  C    4.116366   2.393367   4.010861   3.738074   4.679940
    22  H    4.792885   3.305963   5.081317   4.770340   5.697603
    23  H    4.779153   2.872791   3.571453   3.306314   4.030599
                   11         12         13         14         15
    11  C    0.000000
    12  H    1.093941   0.000000
    13  H    1.091876   1.766844   0.000000
    14  O    2.434521   2.817417   3.354428   0.000000
    15  H    2.539607   3.084141   3.461944   0.964241   0.000000
    16  O    1.404423   2.066589   2.037535   2.737354   2.319906
    17  H    1.915628   2.153474   2.791062   2.637573   2.181709
    18  C    4.672414   4.233098   5.483593   3.355701   4.190821
    19  H    4.852103   4.475727   5.497001   3.722610   4.652410
    20  H    5.518737   4.932059   6.340335   4.328975   5.095927
    21  C    5.028875   4.861983   5.933606   3.029269   3.724696
    22  H    6.117584   5.923476   7.020119   4.071597   4.706688
    23  H    4.830261   4.880176   5.644324   2.683649   3.417907
                   16         17         18         19         20
    16  O    0.000000
    17  H    0.973763   0.000000
    18  C    5.461603   5.091307   0.000000
    19  H    5.841238   5.635659   1.089978   0.000000
    20  H    6.260370   5.787956   1.093540   1.774089   0.000000
    21  C    5.545466   5.139150   1.539978   2.188926   2.181904
    22  H    6.602030   6.153658   2.187897   2.727967   2.399201
    23  H    5.388889   5.151125   2.182041   2.403002   3.057131
                   21         22         23
    21  C    0.000000
    22  H    1.089530   0.000000
    23  H    1.092429   1.776536   0.000000
 Symmetry turned off by external request.
 Stoichiometry    C4H12O6Si
 Framework group  C1[X(C4H12O6Si)]
 Deg. of freedom    63
 Full point group                 C1      NOp   1
 Rotational constants (GHZ):           1.4814700           0.7779934           0.6304544
 Standard basis: def2TZVPP (5D, 7F)
   520 basis functions,   783 primitive gaussians,   588 cartesian basis functions
    49 alpha electrons       49 beta electrons
       nuclear repulsion energy       882.5915676714 Hartrees.
 NAtoms=   23 NActive=   23 NUniq=   23 SFac= 1.00D+00 NAtFMM=   60 NAOKFM=F Big=F
 Integral buffers will be    131072 words long.
 Raffenetti 2 integral format.
 Two-electron integral symmetry is turned off.
 Nuclear repulsion after empirical dispersion term =      882.5770442252 Hartrees.
 One-electron integrals computed using PRISM.
   1 Symmetry operations used in ECPInt.
 ECPInt:  NShTT=   19306 NPrTT=   52617 LenC2=   18315 LenP2D=   38738.
 LDataN:  DoStor=T MaxTD1= 6 Len=  172
 NBasis=   520 RedAO= T EigKep=  2.02D-04  NBF=   520
 NBsUse=   520 1.00D-06 EigRej= -1.00D+00 NBFU=   520
 Initial guess from the checkpoint file:  "IRC_potentialSN1likeCollapseQbiLWithLattacking_reverse.chk"
 B after Tr=    -0.011629   -0.058566    0.018000
         Rot=    1.000000   -0.000051    0.000001    0.000056 Ang=  -0.01 deg.
 ExpMin= 7.01D-02 ExpMax= 4.48D+04 ExpMxC= 1.53D+03 IAcc=3 IRadAn=         5 AccDes= 0.00D+00
 Harris functional with IExCor= 4639 and IRadAn=       5 diagonalized for initial guess.
 HarFok:  IExCor= 4639 AccDes= 0.00D+00 IRadAn=         5 IDoV= 1 UseB2=F ITyADJ=14
 ICtDFT=  3500011 ScaDFX=  1.000000  1.000000  1.000000  1.000000
 FoFCou: FMM=F IPFlag=           0 FMFlag=      100000 FMFlg1=           0
         NFxFlg=           0 DoJE=T BraDBF=F KetDBF=T FulRan=T
         wScrn=  0.000000 ICntrl=       500 IOpCl=  0 I1Cent=   200000004 NGrid=           0
         NMat0=    1 NMatS0=      1 NMatT0=    0 NMatD0=    1 NMtDS0=    0 NMtDT0=    0
 Symmetry not used in FoFCou.
 Requested convergence on RMS density matrix=1.00D-08 within 128 cycles.
 Requested convergence on MAX density matrix=1.00D-06.
 Requested convergence on             energy=1.00D-06.
 No special actions if energy rises.
 Integral accuracy reduced to 1.0D-05 until final iterations.
 Initial convergence to 1.0D-05 achieved.  Increase integral accuracy.
 SCF Done:  E(RwB97XD) =  -900.682994529     A.U. after   11 cycles
            NFock= 11  Conv=0.82D-08     -V/T= 2.0036
 DoSCS=F DFT=T ScalE2(SS,OS)=  1.000000  1.000000
 Range of M.O.s used for correlation:     1   520
 NBasis=   520 NAE=    49 NBE=    49 NFC=     0 NFV=     0
 NROrb=    520 NOA=    49 NOB=    49 NVA=   471 NVB=   471

 **** Warning!!: The largest alpha MO coefficient is  0.12855678D+02

 Symmetrizing basis deriv contribution to polar:
 IMax=3 JMax=2 DiffMx= 0.00D+00
   1 Symmetry operations used in ECPInt.
 ECPInt:  NShTT=   19306 NPrTT=   52617 LenC2=   18315 LenP2D=   38738.
 LDataN:  DoStor=T MaxTD1= 7 Len=  274
 Calling FoFJK, ICntrl=      2127 FMM=F ISym2X=0 I1Cent= 0 IOpClX= 0 NMat=1 NMatS=1 NMatT=0.
 -------------------------------------------------------------------
 Center     Atomic                   Forces (Hartrees/Bohr)
 Number     Number              X              Y              Z
 -------------------------------------------------------------------
      1       14          -0.006116830   -0.001122016   -0.001993771
      2        8           0.000388737    0.000524118    0.000613552
      3        8           0.003468423    0.001960410    0.001288047
      4        1           0.000107285    0.000171392    0.000013527
      5        8          -0.001443953   -0.003517776   -0.000954909
      6        1           0.002468584    0.002266796    0.001083828
      7        8           0.000703990    0.000403351    0.000008930
      8        6           0.000011109   -0.000027595   -0.000046945
      9        1          -0.000012973   -0.000016488    0.000000905
     10        1          -0.000015694   -0.000005544    0.000008616
     11        6          -0.000065948    0.000070617   -0.000079762
     12        1           0.000005444    0.000000129   -0.000012858
     13        1           0.000000795   -0.000019377   -0.000005939
     14        8           0.000002498   -0.000834169   -0.000187404
     15        1           0.000065195    0.000194623    0.000177642
     16        8           0.000146315    0.000093709    0.000121706
     17        1           0.000216221   -0.000165297   -0.000072557
     18        6           0.000001031   -0.000027574    0.000006556
     19        1          -0.000004869   -0.000004943   -0.000004222
     20        1           0.000029635   -0.000049564    0.000005650
     21        6           0.000063855    0.000080735    0.000044258
     22        1           0.000002096   -0.000015961   -0.000003437
     23        1          -0.000020946    0.000040422   -0.000011413
 -------------------------------------------------------------------
 Cartesian Forces:  Max     0.006116830 RMS     0.001144809
 IRC-IRC-IRC-IRC-IRC-IRC-IRC-IRC-IRC-IRC-IRC-IRC-IRC-IRC-IRC-IRC-IRC-IRC
 Pt  1 Step number   1 out of a maximum of 100
 Modified Bulirsch-Stoer Extrapolation Cycles:
    EPS =    0.000010000000000
      PEZero:  N= 2 I= 1 D=  2.80D-04 Err=  6.34D-04
      PEZero:  N= 3 I= 2 D=  2.80D-04 Err=  4.23D-04
      PEZero:  N= 3 I= 1 D=  5.60D-04 Err=  2.75D-07
 Maximum DWI energy   std dev =  0.000004070 at pt     1
 Maximum DWI gradient std dev =  0.185513886 at pt     1
 CORRECTOR INTEGRATION CONVERGENCE:
   Recorrection delta-x convergence threshold:    0.010000
   Delta-x Convergence Met
 Point Number:   1          Path Number:   1
   CHANGE IN THE REACTION COORDINATE =    0.10719
   NET REACTION COORDINATE UP TO THIS POINT =    0.10719
  # OF POINTS ALONG THE PATH =   1
  # OF STEPS =   1

 Calculating another point on the path.
 IRC-IRC-IRC-IRC-IRC-IRC-IRC-IRC-IRC-IRC-IRC-IRC-IRC-IRC-IRC-IRC-IRC-IRC
                          Input orientation:                          
 ---------------------------------------------------------------------
 Center     Atomic      Atomic             Coordinates (Angstroms)
 Number     Number       Type             X           Y           Z
 ---------------------------------------------------------------------
      1         14           0        0.562238    0.527257   -0.067329
      2          8           0        1.671718   -0.094535   -1.115125
      3          8           0        1.557444    2.051499    0.505417
      4          1           0        2.264146    2.312305   -0.087859
      5          8           0       -0.534530    1.644736   -0.285325
      6          1           0        0.617686    2.415231    0.176393
      7          8           0        0.776054   -0.497202    1.200303
      8          6           0       -1.877553   -1.459236   -0.008856
      9          1           0       -1.339987   -2.093168    0.692647
     10          1           0       -2.537915   -2.074097   -0.622944
     11          6           0       -2.664417   -0.371652    0.711780
     12          1           0       -2.053563    0.056885    1.511762
     13          1           0       -3.548704   -0.820289    1.169046
     14          8           0       -0.891856   -0.880706   -0.877948
     15          1           0       -1.375846   -0.296665   -1.473413
     16          8           0       -3.076777    0.620039   -0.192872
     17          1           0       -2.328783    1.240697   -0.265033
     18          6           0        1.906773   -1.316440    0.921625
     19          1           0        1.739242   -2.312289    1.331866
     20          1           0        2.787391   -0.882989    1.403988
     21          6           0        2.087209   -1.358040   -0.607130
     22          1           0        3.127810   -1.528283   -0.881535
     23          1           0        1.469360   -2.142540   -1.050034
 ---------------------------------------------------------------------
                    Distance matrix (angstroms):
                    1          2          3          4          5
     1  Si   0.000000
     2  O    1.647862   0.000000
     3  O    1.908346   2.691593   0.000000
     4  H    2.466437   2.683118   0.958866   0.000000
     5  O    1.580880   2.929362   2.273121   2.883960   0.000000
     6  H    1.904448   3.012960   1.060049   1.670705   1.460974
     7  O    1.643814   2.515067   2.754871   3.430322   2.917639
     8  C    3.146769   3.960249   4.938517   5.602182   3.393346
     9  H    3.326056   4.041403   5.060477   5.745185   3.946786
    10  H    4.084936   4.677812   5.921630   6.525843   4.237601
    11  C    3.438946   4.713432   4.872202   5.668666   3.097815
    12  H    3.091471   4.560831   4.246244   5.127214   2.838707
    13  H    4.499372   5.744298   5.895788   6.721769   4.156536
    14  O    2.180333   2.691883   4.063323   4.558499   2.618538
    15  H    2.532210   3.075203   4.246625   4.687859   2.426603
    16  O    3.642362   4.889721   4.900274   5.603592   2.742548
    17  H    2.984307   4.302268   4.043978   4.719612   1.839295
    18  C    2.486970   2.386766   3.411491   3.783459   4.023090
    19  H    3.377293   3.303144   4.445078   4.866006   4.841838
    20  H    3.017428   2.865714   3.306270   3.565010   4.503147
    21  C    2.484203   1.423776   3.625378   3.711116   3.999217
    22  H    3.386788   2.056794   4.147834   4.015713   4.882238
    23  H    2.986033   2.059007   4.474053   4.626350   4.352450
                    6          7          8          9         10
     6  H    0.000000
     7  O    3.091236   0.000000
     8  C    4.612162   3.070701   0.000000
     9  H    4.942132   2.698602   1.087637   0.000000
    10  H    5.545343   4.097953   1.091437   1.779375   0.000000
    11  C    4.338842   3.477248   1.523584   2.172118   2.166982
    12  H    3.805336   2.900129   2.154503   2.408914   3.054939
    13  H    5.367751   4.336922   2.142067   2.593378   2.409348
    14  O    3.775388   2.692235   1.435833   2.034122   2.049078
    15  H    3.748387   3.437971   1.936030   2.814343   2.287568
    16  O    4.124090   4.246583   2.407361   3.340970   2.780954
    17  H    3.202509   3.848054   2.749341   3.606872   3.340613
    18  C    4.017771   1.423846   3.899655   3.346219   4.766025
    19  H    4.994243   2.059025   3.950499   3.152501   4.708726
    20  H    4.134353   2.058106   4.908146   4.359563   5.821176
    21  C    4.124438   2.393112   4.010925   3.738383   4.680253
    22  H    4.792832   3.305743   5.081339   4.770571   5.697827
    23  H    4.796119   2.872600   3.571105   3.306328   4.030552
                   11         12         13         14         15
    11  C    0.000000
    12  H    1.093964   0.000000
    13  H    1.091939   1.767012   0.000000
    14  O    2.434818   2.817685   3.354500   0.000000
    15  H    2.537933   3.081488   3.460937   0.964328   0.000000
    16  O    1.404239   2.066370   2.037666   2.737780   2.318037
    17  H    1.914806   2.152710   2.791496   2.634535   2.175259
    18  C    4.672519   4.233030   5.483576   3.355689   4.189479
    19  H    4.852091   4.475569   5.496812   3.722283   4.651463
    20  H    5.519314   4.932527   6.340760   4.329446   5.094679
    21  C    5.028960   4.861863   5.933590   3.029195   3.724207
    22  H    6.117707   5.923450   7.020112   4.071497   4.706391
    23  H    4.829922   4.879678   5.643902   2.682757   3.417851
                   16         17         18         19         20
    16  O    0.000000
    17  H    0.974637   0.000000
    18  C    5.461485   5.087931   0.000000
    19  H    5.841011   5.632285   1.089991   0.000000
    20  H    6.260793   5.785406   1.093638   1.773899   0.000000
    21  C    5.545373   5.135314   1.539929   2.188922   2.181863
    22  H    6.602003   6.149938   2.187966   2.727991   2.399147
    23  H    5.388314   5.146690   2.182020   2.403144   3.057106
                   21         22         23
    21  C    0.000000
    22  H    1.089555   0.000000
    23  H    1.092402   1.776558   0.000000
 Symmetry turned off by external request.
 Stoichiometry    C4H12O6Si
 Framework group  C1[X(C4H12O6Si)]
 Deg. of freedom    63
 Full point group                 C1      NOp   1
 Rotational constants (GHZ):           1.4810593           0.7778177           0.6302741
 Standard basis: def2TZVPP (5D, 7F)
   520 basis functions,   783 primitive gaussians,   588 cartesian basis functions
    49 alpha electrons       49 beta electrons
       nuclear repulsion energy       882.4665092309 Hartrees.
 NAtoms=   23 NActive=   23 NUniq=   23 SFac= 1.00D+00 NAtFMM=   60 NAOKFM=F Big=F
 Integral buffers will be    131072 words long.
 Raffenetti 2 integral format.
 Two-electron integral symmetry is turned off.
 Nuclear repulsion after empirical dispersion term =      882.4520123812 Hartrees.
 One-electron integrals computed using PRISM.
   1 Symmetry operations used in ECPInt.
 ECPInt:  NShTT=   19306 NPrTT=   52617 LenC2=   18314 LenP2D=   38731.
 LDataN:  DoStor=T MaxTD1= 6 Len=  172
 NBasis=   520 RedAO= T EigKep=  2.02D-04  NBF=   520
 NBsUse=   520 1.00D-06 EigRej= -1.00D+00 NBFU=   520
 Initial guess from the checkpoint file:  "IRC_potentialSN1likeCollapseQbiLWithLattacking_reverse.chk"
 B after Tr=     0.000464    0.000233    0.000179
         Rot=    1.000000   -0.000055    0.000003    0.000051 Ang=  -0.01 deg.
 ExpMin= 7.01D-02 ExpMax= 4.48D+04 ExpMxC= 1.53D+03 IAcc=3 IRadAn=         5 AccDes= 0.00D+00
 Harris functional with IExCor= 4639 and IRadAn=       5 diagonalized for initial guess.
 HarFok:  IExCor= 4639 AccDes= 0.00D+00 IRadAn=         5 IDoV= 1 UseB2=F ITyADJ=14
 ICtDFT=  3500011 ScaDFX=  1.000000  1.000000  1.000000  1.000000
 FoFCou: FMM=F IPFlag=           0 FMFlag=      100000 FMFlg1=           0
         NFxFlg=           0 DoJE=T BraDBF=F KetDBF=T FulRan=T
         wScrn=  0.000000 ICntrl=       500 IOpCl=  0 I1Cent=   200000004 NGrid=           0
         NMat0=    1 NMatS0=      1 NMatT0=    0 NMatD0=    1 NMtDS0=    0 NMtDT0=    0
 Symmetry not used in FoFCou.
 Requested convergence on RMS density matrix=1.00D-08 within 128 cycles.
 Requested convergence on MAX density matrix=1.00D-06.
 Requested convergence on             energy=1.00D-06.
 No special actions if energy rises.
 Integral accuracy reduced to 1.0D-05 until final iterations.
 Initial convergence to 1.0D-05 achieved.  Increase integral accuracy.
 SCF Done:  E(RwB97XD) =  -900.683520246     A.U. after   11 cycles
            NFock= 11  Conv=0.81D-08     -V/T= 2.0036
 DoSCS=F DFT=T ScalE2(SS,OS)=  1.000000  1.000000
 Range of M.O.s used for correlation:     1   520
 NBasis=   520 NAE=    49 NBE=    49 NFC=     0 NFV=     0
 NROrb=    520 NOA=    49 NOB=    49 NVA=   471 NVB=   471

 **** Warning!!: The largest alpha MO coefficient is  0.12760069D+02

 Symmetrizing basis deriv contribution to polar:
 IMax=3 JMax=2 DiffMx= 0.00D+00
   1 Symmetry operations used in ECPInt.
 ECPInt:  NShTT=   19306 NPrTT=   52617 LenC2=   18314 LenP2D=   38731.
 LDataN:  DoStor=T MaxTD1= 7 Len=  274
 Calling FoFJK, ICntrl=      2127 FMM=F ISym2X=0 I1Cent= 0 IOpClX= 0 NMat=1 NMatS=1 NMatT=0.
 -------------------------------------------------------------------
 Center     Atomic                   Forces (Hartrees/Bohr)
 Number     Number              X              Y              Z
 -------------------------------------------------------------------
      1       14          -0.010326536   -0.001766220   -0.003411958
      2        8           0.000621280    0.000969960    0.001129361
      3        8           0.007620991    0.002905103    0.002608919
      4        1           0.000354391    0.000171266    0.000095847
      5        8          -0.002646538   -0.005718384   -0.001641625
      6        1           0.002489437    0.003813323    0.001345894
      7        8           0.001197916    0.000794304   -0.000014623
      8        6          -0.000012196   -0.000097526   -0.000065873
      9        1          -0.000026336   -0.000024512    0.000007425
     10        1          -0.000028091   -0.000007407    0.000019738
     11        6          -0.000111717    0.000084931   -0.000128226
     12        1           0.000006667    0.000002170   -0.000014035
     13        1           0.000001037   -0.000022633   -0.000009823
     14        8           0.000019036   -0.001440328   -0.000353275
     15        1           0.000103410    0.000300132    0.000297794
     16        8           0.000330237    0.000194807    0.000203423
     17        1           0.000317251   -0.000275028   -0.000127478
     18        6           0.000008478   -0.000030422    0.000001353
     19        1          -0.000019008   -0.000004733   -0.000005250
     20        1           0.000046243   -0.000080962    0.000008379
     21        6           0.000091098    0.000195887    0.000075801
     22        1          -0.000000482   -0.000026432   -0.000006082
     23        1          -0.000036568    0.000062703   -0.000015687
 -------------------------------------------------------------------
 Cartesian Forces:  Max     0.010326536 RMS     0.001968587
 IRC-IRC-IRC-IRC-IRC-IRC-IRC-IRC-IRC-IRC-IRC-IRC-IRC-IRC-IRC-IRC-IRC-IRC
 Pt  2 Step number   1 out of a maximum of 100
 Modified Bulirsch-Stoer Extrapolation Cycles:
    EPS =    0.000010000000000
      PEZero:  N= 2 I= 1 D=  5.60D-04 Err=  6.47D-05
      PEZero:  N= 3 I= 2 D=  5.60D-04 Err=  4.31D-05
      PEZero:  N= 3 I= 1 D=  1.12D-03 Err=  1.64D-07
 Maximum DWI energy   std dev =  0.000009541 at pt    37
 Maximum DWI gradient std dev =  0.156774965 at pt    27
 CORRECTOR INTEGRATION CONVERGENCE:
   Recorrection delta-x convergence threshold:    0.010000
   Delta-x Convergence NOT Met
 IRC-IRC-IRC-IRC-IRC-IRC-IRC-IRC-IRC-IRC-IRC-IRC-IRC-IRC-IRC-IRC-IRC-IRC
                          Input orientation:                          
 ---------------------------------------------------------------------
 Center     Atomic      Atomic             Coordinates (Angstroms)
 Number     Number       Type             X           Y           Z
 ---------------------------------------------------------------------
      1         14           0        0.561966    0.527232   -0.067421
      2          8           0        1.671746   -0.094476   -1.115055
      3          8           0        1.558201    2.051540    0.505637
      4          1           0        2.265073    2.312057   -0.087493
      5          8           0       -0.534705    1.644505   -0.285411
      6          1           0        0.613793    2.418579    0.175907
      7          8           0        0.776114   -0.497151    1.200298
      8          6           0       -1.877561   -1.459250   -0.008858
      9          1           0       -1.340011   -2.093177    0.692656
     10          1           0       -2.537939   -2.074095   -0.622932
     11          6           0       -2.664422   -0.371651    0.711773
     12          1           0       -2.053565    0.056880    1.511762
     13          1           0       -3.548700   -0.820289    1.169035
     14          8           0       -0.891851   -0.880778   -0.877971
     15          1           0       -1.375792   -0.296456   -1.473190
     16          8           0       -3.076745    0.620059   -0.192862
     17          1           0       -2.328638    1.240479   -0.265157
     18          6           0        1.906777   -1.316442    0.921622
     19          1           0        1.739201   -2.312295    1.331857
     20          1           0        2.787418   -0.883053    1.403987
     21          6           0        2.087212   -1.358016   -0.607126
     22          1           0        3.127802   -1.528302   -0.881546
     23          1           0        1.469331   -2.142497   -1.050045
 ---------------------------------------------------------------------
                    Distance matrix (angstroms):
                    1          2          3          4          5
     1  Si   0.000000
     2  O    1.647929   0.000000
     3  O    1.909030   2.691639   0.000000
     4  H    2.467099   2.683155   0.958822   0.000000
     5  O    1.580666   2.929298   2.274135   2.885057   0.000000
     6  H    1.907640   3.016835   1.065526   1.675545   1.459813
     7  O    1.643876   2.514988   2.755003   3.430314   2.917579
     8  C    3.146559   3.960285   4.939111   5.602710   3.393087
     9  H    3.325925   4.041448   5.060958   5.745551   3.946568
    10  H    4.084716   4.677876   5.922238   6.526404   4.237317
    11  C    3.438708   4.713436   4.872873   5.669306   3.097573
    12  H    3.091287   4.560814   4.246859   5.127775   2.838542
    13  H    4.499134   5.744295   5.896434   6.722381   4.156295
    14  O    2.180152   2.691933   4.063940   4.559080   2.618345
    15  H    2.531710   3.075149   4.247018   4.688325   2.426021
    16  O    3.642056   4.889700   4.900997   5.604372   2.742267
    17  H    2.983859   4.302035   4.044684   4.720384   1.838979
    18  C    2.487138   2.386733   3.411430   3.783212   4.023054
    19  H    3.377391   3.303127   4.445048   4.865771   4.841742
    20  H    3.017711   2.865685   3.306031   3.564560   4.503234
    21  C    2.484314   1.423776   3.625351   3.710942   3.999135
    22  H    3.386965   2.056814   4.147673   4.015368   4.882216
    23  H    2.986020   2.059026   4.474147   4.626312   4.352265
                    6          7          8          9         10
     6  H    0.000000
     7  O    3.094706   0.000000
     8  C    4.612867   3.070779   0.000000
     9  H    4.943716   2.698701   1.087632   0.000000
    10  H    5.545781   4.098033   1.091431   1.779373   0.000000
    11  C    4.338114   3.477311   1.523591   2.172114   2.166968
    12  H    3.804856   2.900180   2.154510   2.408909   3.054930
    13  H    5.366835   4.336982   2.142057   2.593354   2.409318
    14  O    3.776688   2.692300   1.435832   2.034116   2.049063
    15  H    3.748251   3.437807   1.936009   2.814316   2.287690
    16  O    4.121983   4.246596   2.407369   3.340963   2.780960
    17  H    3.200056   3.847909   2.749127   3.606668   3.340391
    18  C    4.022223   1.423832   3.899667   3.346248   4.766045
    19  H    4.998393   2.059027   3.950465   3.152482   4.708702
    20  H    4.139275   2.058094   4.908173   4.359594   5.821204
    21  C    4.128774   2.393084   4.010935   3.738416   4.680283
    22  H    4.797532   3.305720   5.081340   4.770593   5.697841
    23  H    4.799825   2.872588   3.571076   3.306334   4.030548
                   11         12         13         14         15
    11  C    0.000000
    12  H    1.093969   0.000000
    13  H    1.091930   1.767007   0.000000
    14  O    2.434852   2.817731   3.354510   0.000000
    15  H    2.537772   3.081261   3.460822   0.964322   0.000000
    16  O    1.404230   2.066352   2.037672   2.737818   2.317862
    17  H    1.914708   2.152676   2.791455   2.634318   2.174726
    18  C    4.672529   4.233036   5.483576   3.355690   4.189362
    19  H    4.852062   4.475537   5.496771   3.722233   4.651352
    20  H    5.519352   4.932566   6.340783   4.329475   5.094562
    21  C    5.028960   4.861858   5.933582   3.029180   3.724161
    22  H    6.117709   5.923453   7.020103   4.071475   4.706362
    23  H    4.829888   4.879643   5.643862   2.682671   3.417842
                   16         17         18         19         20
    16  O    0.000000
    17  H    0.974583   0.000000
    18  C    5.461465   5.087733   0.000000
    19  H    5.840959   5.632049   1.089999   0.000000
    20  H    6.260805   5.785280   1.093632   1.773892   0.000000
    21  C    5.545345   5.135061   1.539921   2.188930   2.181847
    22  H    6.601981   6.149701   2.187968   2.728005   2.399140
    23  H    5.388255   5.146372   2.182017   2.403148   3.057095
                   21         22         23
    21  C    0.000000
    22  H    1.089555   0.000000
    23  H    1.092412   1.776557   0.000000
 Symmetry turned off by external request.
 Stoichiometry    C4H12O6Si
 Framework group  C1[X(C4H12O6Si)]
 Deg. of freedom    63
 Full point group                 C1      NOp   1
 Rotational constants (GHZ):           1.4810296           0.7777783           0.6302448
 Standard basis: def2TZVPP (5D, 7F)
   520 basis functions,   783 primitive gaussians,   588 cartesian basis functions
    49 alpha electrons       49 beta electrons
       nuclear repulsion energy       882.4245324312 Hartrees.
 NAtoms=   23 NActive=   23 NUniq=   23 SFac= 1.00D+00 NAtFMM=   60 NAOKFM=F Big=F
 Integral buffers will be    131072 words long.
 Raffenetti 2 integral format.
 Two-electron integral symmetry is turned off.
 Nuclear repulsion after empirical dispersion term =      882.4100363719 Hartrees.
 One-electron integrals computed using PRISM.
   1 Symmetry operations used in ECPInt.
 ECPInt:  NShTT=   19306 NPrTT=   52617 LenC2=   18314 LenP2D=   38730.
 LDataN:  DoStor=T MaxTD1= 6 Len=  172
 NBasis=   520 RedAO= T EigKep=  2.02D-04  NBF=   520
 NBsUse=   520 1.00D-06 EigRej= -1.00D+00 NBFU=   520
 Initial guess from the checkpoint file:  "IRC_potentialSN1likeCollapseQbiLWithLattacking_reverse.chk"
 B after Tr=    -0.000021    0.000032    0.000002
         Rot=    1.000000   -0.000001    0.000001   -0.000004 Ang=  -0.00 deg.
 ExpMin= 7.01D-02 ExpMax= 4.48D+04 ExpMxC= 1.53D+03 IAcc=3 IRadAn=         5 AccDes= 0.00D+00
 Harris functional with IExCor= 4639 and IRadAn=       5 diagonalized for initial guess.
 HarFok:  IExCor= 4639 AccDes= 0.00D+00 IRadAn=         5 IDoV= 1 UseB2=F ITyADJ=14
 ICtDFT=  3500011 ScaDFX=  1.000000  1.000000  1.000000  1.000000
 FoFCou: FMM=F IPFlag=           0 FMFlag=      100000 FMFlg1=           0
         NFxFlg=           0 DoJE=T BraDBF=F KetDBF=T FulRan=T
         wScrn=  0.000000 ICntrl=       500 IOpCl=  0 I1Cent=   200000004 NGrid=           0
         NMat0=    1 NMatS0=      1 NMatT0=    0 NMatD0=    1 NMtDS0=    0 NMtDT0=    0
 Symmetry not used in FoFCou.
 Requested convergence on RMS density matrix=1.00D-08 within 128 cycles.
 Requested convergence on MAX density matrix=1.00D-06.
 Requested convergence on             energy=1.00D-06.
 No special actions if energy rises.
 Integral accuracy reduced to 1.0D-05 until final iterations.
 Initial convergence to 1.0D-05 achieved.  Increase integral accuracy.
 SCF Done:  E(RwB97XD) =  -900.683535559     A.U. after    9 cycles
            NFock=  9  Conv=0.51D-08     -V/T= 2.0036
 DoSCS=F DFT=T ScalE2(SS,OS)=  1.000000  1.000000
 Range of M.O.s used for correlation:     1   520
 NBasis=   520 NAE=    49 NBE=    49 NFC=     0 NFV=     0
 NROrb=    520 NOA=    49 NOB=    49 NVA=   471 NVB=   471

 **** Warning!!: The largest alpha MO coefficient is  0.12790263D+02

 Symmetrizing basis deriv contribution to polar:
 IMax=3 JMax=2 DiffMx= 0.00D+00
   1 Symmetry operations used in ECPInt.
 ECPInt:  NShTT=   19306 NPrTT=   52617 LenC2=   18314 LenP2D=   38730.
 LDataN:  DoStor=T MaxTD1= 7 Len=  274
 Calling FoFJK, ICntrl=      2127 FMM=F ISym2X=0 I1Cent= 0 IOpClX= 0 NMat=1 NMatS=1 NMatT=0.
 -------------------------------------------------------------------
 Center     Atomic                   Forces (Hartrees/Bohr)
 Number     Number              X              Y              Z
 -------------------------------------------------------------------
      1       14          -0.009503159   -0.001520186   -0.003155151
      2        8           0.000551139    0.000935974    0.001093031
      3        8           0.005509793    0.003548294    0.001976962
      4        1           0.000351082    0.000180155    0.000055446
      5        8          -0.002621356   -0.005038193   -0.001526669
      6        1           0.003977540    0.002174403    0.001707045
      7        8           0.001106823    0.000793004   -0.000031567
      8        6          -0.000031187   -0.000114111   -0.000044944
      9        1          -0.000023851   -0.000022897    0.000006605
     10        1          -0.000025585   -0.000007118    0.000014569
     11        6          -0.000100140    0.000067810   -0.000115916
     12        1           0.000004502   -0.000001112   -0.000011451
     13        1          -0.000000783   -0.000020644   -0.000010174
     14        8           0.000039692   -0.001345959   -0.000332814
     15        1           0.000079940    0.000274679    0.000261211
     16        8           0.000318312    0.000174960    0.000190679
     17        1           0.000298696   -0.000232234   -0.000124382
     18        6           0.000011675   -0.000020120   -0.000003143
     19        1          -0.000022135   -0.000002725   -0.000007205
     20        1           0.000041623   -0.000072848    0.000007882
     21        6           0.000070779    0.000209777    0.000071921
     22        1          -0.000001652   -0.000020520   -0.000007545
     23        1          -0.000031747    0.000059612   -0.000014391
 -------------------------------------------------------------------
 Cartesian Forces:  Max     0.009503159 RMS     0.001762675
 IRC-IRC-IRC-IRC-IRC-IRC-IRC-IRC-IRC-IRC-IRC-IRC-IRC-IRC-IRC-IRC-IRC-IRC
 Error in corrector energy =          -0.0000035923
 Magnitude of corrector gradient =     0.0149928649
 Magnitude of analytic gradient =      0.0146418798
 Magnitude of difference =             0.0010471612
 Angle between gradients (degrees)=    3.8159
 Pt  2 Step number   2 out of a maximum of 100
 Modified Bulirsch-Stoer Extrapolation Cycles:
    EPS =    0.000010000000000
      PEZero:  N= 2 I= 1 D=  5.60D-04 Err=  4.77D-05
      PEZero:  N= 3 I= 2 D=  5.60D-04 Err=  3.18D-05
      PEZero:  N= 3 I= 1 D=  1.12D-03 Err=  9.99D-08
 Maximum DWI energy   std dev =  0.000011632 at pt    35
 Maximum DWI gradient std dev =  0.128997946 at pt    27
 CORRECTOR INTEGRATION CONVERGENCE:
   Recorrection delta-x convergence threshold:    0.010000
   Delta-x Convergence Met
 Point Number:   2          Path Number:   1
   CHANGE IN THE REACTION COORDINATE =    0.10720
   NET REACTION COORDINATE UP TO THIS POINT =    0.21440
  # OF POINTS ALONG THE PATH =   2
  # OF STEPS =   2

 Calculating another point on the path.
 IRC-IRC-IRC-IRC-IRC-IRC-IRC-IRC-IRC-IRC-IRC-IRC-IRC-IRC-IRC-IRC-IRC-IRC
                          Input orientation:                          
 ---------------------------------------------------------------------
 Center     Atomic      Atomic             Coordinates (Angstroms)
 Number     Number       Type             X           Y           Z
 ---------------------------------------------------------------------
      1         14           0        0.558531    0.526660   -0.068569
      2          8           0        1.672083   -0.093876   -1.114360
      3          8           0        1.561756    2.053741    0.506913
      4          1           0        2.268505    2.313851   -0.086969
      5          8           0       -0.536391    1.641316   -0.286380
      6          1           0        0.651919    2.441085    0.192145
      7          8           0        0.776805   -0.496633    1.200275
      8          6           0       -1.877592   -1.459363   -0.008888
      9          1           0       -1.340254   -2.093421    0.692736
     10          1           0       -2.538201   -2.074195   -0.622776
     11          6           0       -2.664508   -0.371604    0.711675
     12          1           0       -2.053527    0.056859    1.511646
     13          1           0       -3.548719   -0.820506    1.168930
     14          8           0       -0.891828   -0.881649   -0.878182
     15          1           0       -1.375026   -0.293755   -1.470645
     16          8           0       -3.076561    0.620148   -0.192748
     17          1           0       -2.325605    1.238230   -0.266381
     18          6           0        1.906784   -1.316444    0.921622
     19          1           0        1.738973   -2.312303    1.331793
     20          1           0        2.787837   -0.883767    1.404073
     21          6           0        2.087268   -1.357829   -0.607061
     22          1           0        3.127784   -1.528486   -0.881622
     23          1           0        1.469014   -2.141881   -1.050185
 ---------------------------------------------------------------------
                    Distance matrix (angstroms):
                    1          2          3          4          5
     1  Si   0.000000
     2  O    1.648861   0.000000
     3  O    1.915624   2.693131   0.000000
     4  H    2.473540   2.684847   0.959087   0.000000
     5  O    1.577578   2.928105   2.280707   2.891281   0.000000
     6  H    1.934351   3.028814   1.037746   1.645430   1.510198
     7  O    1.644608   2.514214   2.757046   3.432344   2.916411
     8  C    3.143651   3.960659   4.943386   5.606546   3.389695
[...]
    23  H    5.289174   5.266605   6.150027   3.209070   3.972672
                   16         17         18         19         20
    16  O    0.000000
    17  H    0.979773   0.000000
    18  C    5.497859   5.065078   0.000000
    19  H    6.064085   5.770619   1.089990   0.000000
    20  H    6.092448   5.536354   1.091625   1.781751   0.000000
    21  C    5.656588   5.203437   1.537573   2.188603   2.180251
    22  H    6.650379   6.127682   2.187337   2.734869   2.403018
    23  H    5.765917   5.478772   2.182362   2.401682   3.057889
                   21         22         23
    21  C    0.000000
    22  H    1.088810   0.000000
    23  H    1.093458   1.773649   0.000000
 Symmetry turned off by external request.
 Stoichiometry    C4H12O6Si
 Framework group  C1[X(C4H12O6Si)]
 Deg. of freedom    63
 Full point group                 C1      NOp   1
 Rotational constants (GHZ):           1.4732390           0.7171722           0.5953450
 Standard basis: def2TZVPP (5D, 7F)
   520 basis functions,   783 primitive gaussians,   588 cartesian basis functions
    49 alpha electrons       49 beta electrons
       nuclear repulsion energy       867.7124260952 Hartrees.
 NAtoms=   23 NActive=   23 NUniq=   23 SFac= 1.00D+00 NAtFMM=   60 NAOKFM=F Big=F
 Integral buffers will be    131072 words long.
 Raffenetti 2 integral format.
 Two-electron integral symmetry is turned off.
 Nuclear repulsion after empirical dispersion term =      867.6983907613 Hartrees.
 One-electron integrals computed using PRISM.
   1 Symmetry operations used in ECPInt.
 ECPInt:  NShTT=   19306 NPrTT=   52617 LenC2=   18185 LenP2D=   38324.
 LDataN:  DoStor=T MaxTD1= 6 Len=  172
 NBasis=   520 RedAO= T EigKep=  2.02D-04  NBF=   520
 NBsUse=   520 1.00D-06 EigRej= -1.00D+00 NBFU=   520
 Initial guess from the checkpoint file:  "IRC_potentialSN1likeCollapseQbiLWithLattacking_reverse.chk"
 B after Tr=     0.000351    0.000033    0.000126
         Rot=    1.000000    0.000004    0.000005    0.000010 Ang=   0.00 deg.
 ExpMin= 7.01D-02 ExpMax= 4.48D+04 ExpMxC= 1.53D+03 IAcc=3 IRadAn=         5 AccDes= 0.00D+00
 Harris functional with IExCor= 4639 and IRadAn=       5 diagonalized for initial guess.
 HarFok:  IExCor= 4639 AccDes= 0.00D+00 IRadAn=         5 IDoV= 1 UseB2=F ITyADJ=14
 ICtDFT=  3500011 ScaDFX=  1.000000  1.000000  1.000000  1.000000
 FoFCou: FMM=F IPFlag=           0 FMFlag=      100000 FMFlg1=           0
         NFxFlg=           0 DoJE=T BraDBF=F KetDBF=T FulRan=T
         wScrn=  0.000000 ICntrl=       500 IOpCl=  0 I1Cent=   200000004 NGrid=           0
         NMat0=    1 NMatS0=      1 NMatT0=    0 NMatD0=    1 NMtDS0=    0 NMtDT0=    0
 Symmetry not used in FoFCou.
 Requested convergence on RMS density matrix=1.00D-08 within 128 cycles.
 Requested convergence on MAX density matrix=1.00D-06.
 Requested convergence on             energy=1.00D-06.
 No special actions if energy rises.
 Integral accuracy reduced to 1.0D-05 until final iterations.
 Initial convergence to 1.0D-05 achieved.  Increase integral accuracy.
 SCF Done:  E(RwB97XD) =  -900.695232810     A.U. after    9 cycles
            NFock=  9  Conv=0.51D-08     -V/T= 2.0036
 DoSCS=F DFT=T ScalE2(SS,OS)=  1.000000  1.000000
 Range of M.O.s used for correlation:     1   520
 NBasis=   520 NAE=    49 NBE=    49 NFC=     0 NFV=     0
 NROrb=    520 NOA=    49 NOB=    49 NVA=   471 NVB=   471

 **** Warning!!: The largest alpha MO coefficient is  0.11029536D+02

 Symmetrizing basis deriv contribution to polar:
 IMax=3 JMax=2 DiffMx= 0.00D+00
   1 Symmetry operations used in ECPInt.
 ECPInt:  NShTT=   19306 NPrTT=   52617 LenC2=   18185 LenP2D=   38324.
 LDataN:  DoStor=T MaxTD1= 7 Len=  274
 Calling FoFJK, ICntrl=      2127 FMM=F ISym2X=0 I1Cent= 0 IOpClX= 0 NMat=1 NMatS=1 NMatT=0.
 -------------------------------------------------------------------
 Center     Atomic                   Forces (Hartrees/Bohr)
 Number     Number              X              Y              Z
 -------------------------------------------------------------------
      1       14          -0.000526724   -0.000676231   -0.000411376
      2        8          -0.000146484   -0.000166681   -0.000120781
      3        8          -0.001316789    0.001123729    0.000165660
      4        1          -0.000046577    0.000063470   -0.000001596
      5        8           0.000327572   -0.000549658    0.000117142
      6        1           0.001643481   -0.000313164    0.000334313
      7        8           0.000181783   -0.000613871   -0.000213041
      8        6          -0.000291875    0.000054389    0.000106519
      9        1          -0.000029199    0.000008699   -0.000008878
     10        1          -0.000026040    0.000005922    0.000008788
     11        6          -0.000162949    0.000219756    0.000021221
     12        1          -0.000006284    0.000011306   -0.000004939
     13        1          -0.000016117    0.000016606    0.000002206
     14        8          -0.000419052   -0.000180914   -0.000046563
     15        1          -0.000002234    0.000024451    0.000010623
     16        8           0.000078789    0.000288785   -0.000048282
     17        1           0.000011703    0.000009053    0.000001590
     18        6           0.000410566    0.000468040    0.000252511
     19        1          -0.000037954    0.000257093   -0.000100910
     20        1          -0.000222082   -0.000237727   -0.000146529
     21        6           0.000296399    0.000434557    0.000228070
     22        1           0.000327847    0.000092340   -0.000037958
     23        1          -0.000027778   -0.000339951   -0.000107788
 -------------------------------------------------------------------
 Cartesian Forces:  Max     0.001643481 RMS     0.000371027
 IRC-IRC-IRC-IRC-IRC-IRC-IRC-IRC-IRC-IRC-IRC-IRC-IRC-IRC-IRC-IRC-IRC-IRC
 Error in corrector energy =          -0.0000088492
 Magnitude of corrector gradient =     0.0019714269
 Magnitude of analytic gradient =      0.0030819856
 Magnitude of difference =             0.0026457086
 Angle between gradients (degrees)=   58.3003
 Pt 79 Step number  99 out of a maximum of 100
 Modified Bulirsch-Stoer Extrapolation Cycles:
    EPS =    0.000010000000000
      PEZero:  N= 2 I= 1 D=  5.59D-04 Err=  2.74D-02
      PEZero:  N= 3 I= 2 D=  5.59D-04 Err=  3.88D-03
      PEZero:  N= 3 I= 1 D=  1.12D-03 Err=  2.15D-02
      PEZero:  N= 4 I= 3 D=  2.80D-04 Err=  3.44D-05
      PEZero:  N= 4 I= 2 D=  8.39D-04 Err=  3.87D-03
      PEZero:  N= 5 I= 4 D=  2.80D-04 Err=  2.29D-05
      PEZero:  N= 5 I= 3 D=  5.59D-04 Err=  6.26D-08
      PEZero:  N= 5 I= 2 D=  1.12D-03 Err=  1.94D-03
 Maximum DWI energy   std dev =  0.000002720 at pt    29
 Maximum DWI gradient std dev =  0.804013179 at pt    71
 CORRECTOR INTEGRATION CONVERGENCE:
   Recorrection delta-x convergence threshold:    0.010000
   Delta-x Convergence NOT Met
 IRC-IRC-IRC-IRC-IRC-IRC-IRC-IRC-IRC-IRC-IRC-IRC-IRC-IRC-IRC-IRC-IRC-IRC
                          Input orientation:                          
 ---------------------------------------------------------------------
 Center     Atomic      Atomic             Coordinates (Angstroms)
 Number     Number       Type             X           Y           Z
 ---------------------------------------------------------------------
      1         14           0        0.305461    0.273490   -0.213943
      2          8           0        1.569927   -0.128780   -1.172348
      3          8           0        2.024294    2.288577    0.755582
      4          1           0        2.517119    2.504860   -0.035212
      5          8           0       -0.483143    1.592289   -0.263859
      6          1           0        1.108382    2.504015    0.533326
      7          8           0        0.703625   -0.596674    1.118731
      8          6           0       -1.974469   -1.477170    0.054021
      9          1           0       -1.401604   -2.075857    0.755000
     10          1           0       -2.634036   -2.109030   -0.537800
     11          6           0       -2.728922   -0.330556    0.722660
     12          1           0       -2.124064    0.090442    1.530068
     13          1           0       -3.649824   -0.722051    1.157662
     14          8           0       -1.013856   -0.913734   -0.889701
     15          1           0       -1.553042   -0.338110   -1.457838
     16          8           0       -3.045554    0.646865   -0.233511
     17          1           0       -2.284726    1.263994   -0.253200
     18          6           0        2.030995   -1.092008    0.961362
     19          1           0        2.109547   -2.065718    1.442990
     20          1           0        2.720890   -0.394119    1.436790
     21          6           0        2.297823   -1.183462   -0.550275
     22          1           0        3.357432   -1.069038   -0.778333
     23          1           0        1.953507   -2.141812   -0.951983
 ---------------------------------------------------------------------
                    Distance matrix (angstroms):
                    1          2          3          4          5
     1  Si   0.000000
     2  O    1.636837   0.000000
     3  O    2.820450   3.125216   0.000000
     4  H    3.146806   3.020978   0.956562   0.000000
     5  O    1.537407   2.828874   2.794873   3.144303   0.000000
     6  H    2.485625   3.170797   0.966801   1.519137   1.999925
     7  O    1.640652   2.493682   3.193856   3.773574   2.848075
     8  C    2.886987   3.985584   5.537431   6.003240   3.427343
     9  H    3.061430   4.041754   5.548428   6.079785   3.916240
    10  H    3.797622   4.690133   6.535428   6.933612   4.289656
    11  C    3.232581   4.702326   5.427154   6.011231   3.116741
    12  H    2.996276   4.582213   4.758203   5.460778   2.857680
    13  H    4.303101   5.746887   6.435927   7.061663   4.171901
    14  O    1.899144   2.715138   4.710850   4.988459   2.636946
    15  H    2.318483   3.142969   4.959439   5.164547   2.509324
    16  O    3.371809   4.773438   5.420044   5.868118   2.731428
    17  H    2.773393   4.200357   4.542583   4.964371   1.831281
    18  C    2.494673   2.386024   3.386848   3.763899   3.876533
    19  H    3.387041   3.298926   4.409046   4.820932   4.797540
    20  H    3.000820   2.864040   2.854146   3.257667   4.135681
    21  C    2.491051   1.424487   3.719561   3.730563   3.939620
    22  H    3.381633   2.057792   3.924759   3.745812   4.700783
    23  H    3.015699   2.061066   4.748593   4.769663   4.511572
                    6          7          8          9         10
     6  H    0.000000
     7  O    3.181320   0.000000
     8  C    5.058017   3.013481   0.000000
     9  H    5.227274   2.598513   1.085344   0.000000
    10  H    6.035991   4.021355   1.088360   1.786427   0.000000
    11  C    4.774468   3.465555   1.526762   2.192919   2.181911
    12  H    4.155422   2.938903   2.158356   2.411541   3.061671
    13  H    5.782544   4.355427   2.143605   2.655074   2.414566
    14  O    4.267307   2.661591   1.459743   2.050833   2.043906
    15  H    4.373280   3.434837   1.939273   2.817685   2.269621
    16  O    4.614351   4.175080   2.396127   3.330606   2.803016
    17  H    3.697223   3.778164   2.775721   3.598746   3.402985
    18  C    3.737085   1.425494   4.124968   3.576770   5.004432
    19  H    4.765740   2.059090   4.353712   3.577934   5.140718
    20  H    3.437384   2.052206   5.013127   4.504224   5.959460
    21  C    4.023238   2.381464   4.324803   4.023167   5.017974
    22  H    4.421016   3.296160   5.411889   5.100315   6.085813
    23  H    4.950160   2.870107   4.108867   3.764958   4.606318
                   11         12         13         14         15
    11  C    0.000000
    12  H    1.093161   0.000000
    13  H    1.091125   1.768269   0.000000
    14  O    2.425131   2.845384   3.343167   0.000000
    15  H    2.477363   3.072020   3.374129   0.972032   0.000000
    16  O    1.403521   2.066146   2.043143   2.644590   2.167198
    17  H    1.921511   2.140813   2.792562   2.600528   2.133835
    18  C    4.826344   4.357308   5.696236   3.567819   4.389330
    19  H    5.190418   4.751849   5.920912   4.064992   4.981364
    20  H    5.496769   4.870018   6.385252   4.430675   5.162219
    21  C    5.255091   5.050123   6.205196   3.339937   4.045671
    22  H    6.312055   6.059695   7.278056   4.375463   5.010861
    23  H    5.292468   5.269736   6.153343   3.212054   3.975564
                   16         17         18         19         20
    16  O    0.000000
    17  H    0.979845   0.000000
    18  C    5.497523   5.064717   0.000000
    19  H    6.061669   5.768334   1.089150   0.000000
    20  H    6.093064   5.537292   1.090429   1.779894   0.000000
    21  C    5.657042   5.203657   1.537728   2.187905   2.179559
    22  H    6.651269   6.128029   2.187807   2.735848   2.401557
    23  H    5.769188   5.481827   2.183800   2.401257   3.057703
                   21         22         23
    21  C    0.000000
    22  H    1.089896   0.000000
    23  H    1.094695   1.775388   0.000000
 Symmetry turned off by external request.
 Stoichiometry    C4H12O6Si
 Framework group  C1[X(C4H12O6Si)]
 Deg. of freedom    63
 Full point group                 C1      NOp   1
 Rotational constants (GHZ):           1.4731878           0.7171841           0.5953409
 Standard basis: def2TZVPP (5D, 7F)
   520 basis functions,   783 primitive gaussians,   588 cartesian basis functions
    49 alpha electrons       49 beta electrons
       nuclear repulsion energy       867.7186901661 Hartrees.
 NAtoms=   23 NActive=   23 NUniq=   23 SFac= 1.00D+00 NAtFMM=   60 NAOKFM=F Big=F
 Integral buffers will be    131072 words long.
 Raffenetti 2 integral format.
 Two-electron integral symmetry is turned off.
 Nuclear repulsion after empirical dispersion term =      867.7046567197 Hartrees.
 One-electron integrals computed using PRISM.
   1 Symmetry operations used in ECPInt.
 ECPInt:  NShTT=   19306 NPrTT=   52617 LenC2=   18185 LenP2D=   38323.
 LDataN:  DoStor=T MaxTD1= 6 Len=  172
 NBasis=   520 RedAO= T EigKep=  2.02D-04  NBF=   520
 NBsUse=   520 1.00D-06 EigRej= -1.00D+00 NBFU=   520
 Initial guess from the checkpoint file:  "IRC_potentialSN1likeCollapseQbiLWithLattacking_reverse.chk"
 B after Tr=    -0.000351   -0.000033   -0.000126
         Rot=    1.000000   -0.000004   -0.000005   -0.000010 Ang=  -0.00 deg.
 ExpMin= 7.01D-02 ExpMax= 4.48D+04 ExpMxC= 1.53D+03 IAcc=3 IRadAn=         5 AccDes= 0.00D+00
 Harris functional with IExCor= 4639 and IRadAn=       5 diagonalized for initial guess.
 HarFok:  IExCor= 4639 AccDes= 0.00D+00 IRadAn=         5 IDoV= 1 UseB2=F ITyADJ=14
 ICtDFT=  3500011 ScaDFX=  1.000000  1.000000  1.000000  1.000000
 FoFCou: FMM=F IPFlag=           0 FMFlag=      100000 FMFlg1=           0
         NFxFlg=           0 DoJE=T BraDBF=F KetDBF=T FulRan=T
         wScrn=  0.000000 ICntrl=       500 IOpCl=  0 I1Cent=   200000004 NGrid=           0
         NMat0=    1 NMatS0=      1 NMatT0=    0 NMatD0=    1 NMtDS0=    0 NMtDT0=    0
 Symmetry not used in FoFCou.
 Requested convergence on RMS density matrix=1.00D-08 within 128 cycles.
 Requested convergence on MAX density matrix=1.00D-06.
 Requested convergence on             energy=1.00D-06.
 No special actions if energy rises.
 Integral accuracy reduced to 1.0D-05 until final iterations.
 Initial convergence to 1.0D-05 achieved.  Increase integral accuracy.
 SCF Done:  E(RwB97XD) =  -900.695233112     A.U. after    9 cycles
            NFock=  9  Conv=0.50D-08     -V/T= 2.0036
 DoSCS=F DFT=T ScalE2(SS,OS)=  1.000000  1.000000
 Range of M.O.s used for correlation:     1   520
 NBasis=   520 NAE=    49 NBE=    49 NFC=     0 NFV=     0
 NROrb=    520 NOA=    49 NOB=    49 NVA=   471 NVB=   471

 **** Warning!!: The largest alpha MO coefficient is  0.11049470D+02

 Symmetrizing basis deriv contribution to polar:
 IMax=3 JMax=2 DiffMx= 0.00D+00
   1 Symmetry operations used in ECPInt.
 ECPInt:  NShTT=   19306 NPrTT=   52617 LenC2=   18185 LenP2D=   38323.
 LDataN:  DoStor=T MaxTD1= 7 Len=  274
 Calling FoFJK, ICntrl=      2127 FMM=F ISym2X=0 I1Cent= 0 IOpClX= 0 NMat=1 NMatS=1 NMatT=0.
 -------------------------------------------------------------------
 Center     Atomic                   Forces (Hartrees/Bohr)
 Number     Number              X              Y              Z
 -------------------------------------------------------------------
      1       14          -0.000214329   -0.000849807   -0.000200582
      2        8          -0.000060201   -0.000414812   -0.000136834
      3        8           0.001680399    0.000485954    0.000865628
      4        1           0.000107133    0.000048391   -0.000058208
      5        8           0.000203884   -0.000415337    0.000067533
      6        1          -0.001469443    0.000313786   -0.000296514
      7        8          -0.000250239   -0.000354445   -0.000344161
      8        6          -0.000366121    0.000058594    0.000100228
      9        1           0.000008423   -0.000005838    0.000015151
     10        1          -0.000000874    0.000000438   -0.000001256
     11        6          -0.000157600    0.000230065    0.000037833
     12        1          -0.000004250    0.000001096    0.000006140
     13        1          -0.000001740    0.000003406   -0.000003391
     14        8          -0.000482990   -0.000188098   -0.000057099
     15        1          -0.000017687   -0.000005585   -0.000001145
     16        8           0.000084258    0.000312505   -0.000072662
     17        1           0.000002312   -0.000001160   -0.000000215
     18        6           0.000131586    0.000165488   -0.000259202
     19        1           0.000093142   -0.000269930    0.000128576
     20        1           0.000234767    0.000311932    0.000160655
     21        6           0.000710129    0.000175904   -0.000145266
     22        1          -0.000359918   -0.000026967    0.000060172
     23        1           0.000129361    0.000424421    0.000134619
 -------------------------------------------------------------------
 Cartesian Forces:  Max     0.001680399 RMS     0.000373060
 IRC-IRC-IRC-IRC-IRC-IRC-IRC-IRC-IRC-IRC-IRC-IRC-IRC-IRC-IRC-IRC-IRC-IRC
 Error in corrector energy =          -0.0000085950
 Magnitude of corrector gradient =     0.0021099090
 Magnitude of analytic gradient =      0.0030988694
 Magnitude of difference =             0.0024583321
 Angle between gradients (degrees)=   52.2192
 Pt 79 Step number 100 out of a maximum of 100
 Modified Bulirsch-Stoer Extrapolation Cycles:
    EPS =    0.000010000000000
      PEZero:  N= 2 I= 1 D=  5.59D-04 Err=  2.57D-02
      PEZero:  N= 3 I= 2 D=  5.59D-04 Err=  3.07D-03
      PEZero:  N= 3 I= 1 D=  1.12D-03 Err=  2.11D-02
      PEZero:  N= 4 I= 3 D=  2.80D-04 Err=  3.85D-05
      PEZero:  N= 4 I= 2 D=  8.39D-04 Err=  3.06D-03
      PEZero:  N= 5 I= 4 D=  2.80D-04 Err=  2.57D-05
      PEZero:  N= 5 I= 3 D=  5.59D-04 Err=  7.52D-08
      PEZero:  N= 5 I= 2 D=  1.12D-03 Err=  1.53D-03
 Maximum DWI energy   std dev =  0.000002057 at pt    31
 Maximum DWI gradient std dev =  0.583201215 at pt    37
 CORRECTOR INTEGRATION CONVERGENCE:
   Recorrection delta-x convergence threshold:    0.010000
   Delta-x Convergence NOT Met
 Maximum number of corrector steps exceded.
 Error termination via Lnk1e in /opt/software/gaussian/g16.c01/l123.exe at Sun Feb 25 18:57:02 2024.
 Job cpu time:       5 days 23 hours  9 minutes 37.7 seconds.
 Elapsed time:       1 days 13 hours  5 minutes 56.9 seconds.
 File lengths (MBytes):  RWF=    468 Int=      0 D2E=      0 Chk=     22 Scr=      1
