 Entering Gaussian System, Link 0=/opt/software/gaussian/g16.c01/g16
 Initial command:
 /opt/software/gaussian/g16.c01/l1.exe "/scratch/arhender/17114532/Gau-230008.inp" -scrdir="/scratch/arhender/17114532/"
 Entering Link 1 = /opt/software/gaussian/g16.c01/l1.exe PID=    230010.
  
 Copyright (c) 1988-2019, Gaussian, Inc.  All Rights Reserved.
  
 This is part of the Gaussian(R) 16 program.  It is based on
 the Gaussian(R) 09 system (copyright 2009, Gaussian, Inc.),
 the Gaussian(R) 03 system (copyright 2003, Gaussian, Inc.),
 the Gaussian(R) 98 system (copyright 1998, Gaussian, Inc.),
 the Gaussian(R) 94 system (copyright 1995, Gaussian, Inc.),
 the Gaussian 92(TM) system (copyright 1992, Gaussian, Inc.),
 the Gaussian 90(TM) system (copyright 1990, Gaussian, Inc.),
 the Gaussian 88(TM) system (copyright 1988, Gaussian, Inc.),
 the Gaussian 86(TM) system (copyright 1986, Carnegie Mellon
 University), and the Gaussian 82(TM) system (copyright 1983,
 Carnegie Mellon University). Gaussian is a federally registered
 trademark of Gaussian, Inc.
  
 This software contains proprietary and confidential information,
 including trade secrets, belonging to Gaussian, Inc.
  
 This software is provided under written license and may be
 used, copied, transmitted, or stored only in accord with that
 written license.
  
 The following legend is applicable only to US Government
 contracts under FAR:
  
                    RESTRICTED RIGHTS LEGEND
  
 Use, reproduction and disclosure by the US Government is
 subject to restrictions as set forth in subparagraphs (a)
 and (c) of the Commercial Computer Software - Restricted
 Rights clause in FAR 52.227-19.
  
 Gaussian, Inc.
 340 Quinnipiac St., Bldg. 40, Wallingford CT 06492
  
  
 ---------------------------------------------------------------
 Warning -- This program may not be used in any manner that
 competes with the business of Gaussian, Inc. or will provide
 assistance to any competitor of Gaussian, Inc.  The licensee
 of this program is prohibited from giving any competitor of
 Gaussian, Inc. access to this program.  By using this program,
 the user acknowledges that Gaussian, Inc. is engaged in the
 business of creating and licensing software in the field of
 computational chemistry and represents and warrants to the
 licensee that it is not a competitor of Gaussian, Inc. and that
 it will not use this program in any manner prohibited above.
 ---------------------------------------------------------------
  

 Cite this work as:
 Gaussian 16, Revision C.01,
 M. J. Frisch, G. W. Trucks, H. B. Schlegel, G. E. Scuseria, 
 M. A. Robb, J. R. Cheeseman, G. Scalmani, V. Barone, 
 G. A. Petersson, H. Nakatsuji, X. Li, M. Caricato, A. V. Marenich, 
 J. Bloino, B. G. Janesko, R. Gomperts, B. Mennucci, H. P. Hratchian, 
 J. V. Ortiz, A. F. Izmaylov, J. L. Sonnenberg, D. Williams-Young, 
 F. Ding, F. Lipparini, F. Egidi, J. Goings, B. Peng, A. Petrone, 
 T. Henderson, D. Ranasinghe, V. G. Zakrzewski, J. Gao, N. Rega, 
 G. Zheng, W. Liang, M. Hada, M. Ehara, K. Toyota, R. Fukuda, 
 J. Hasegawa, M. Ishida, T. Nakajima, Y. Honda, O. Kitao, H. Nakai, 
 T. Vreven, K. Throssell, J. A. Montgomery, Jr., J. E. Peralta, 
 F. Ogliaro, M. J. Bearpark, J. J. Heyd, E. N. Brothers, K. N. Kudin, 
 V. N. Staroverov, T. A. Keith, R. Kobayashi, J. Normand, 
 K. Raghavachari, A. P. Rendell, J. C. Burant, S. S. Iyengar, 
 J. Tomasi, M. Cossi, J. M. Millam, M. Klene, C. Adamo, R. Cammi, 
 J. W. Ochterski, R. L. Martin, K. Morokuma, O. Farkas, 
 J. B. Foresman, and D. J. Fox, Gaussian, Inc., Wallingford CT, 2019.
 
 ******************************************
 Gaussian 16:  ES64L-G16RevC.01  3-Jul-2019
                20-Feb-2024 
 ******************************************
 %chk=IRC_depEGattPL2_reverse.chk
 %mem=1600MB
 %nprocs=4
 Will use up to    4 processors via shared memory.
 ----------------------------------------------------------------------
 # irc=(reverse,calcfc,maxpoints=100,maxcycle=100) wb97xd/def2tzvpp geo
 m=connectivity
 ----------------------------------------------------------------------
 1/6=100,10=4,18=10,22=2,26=3,38=1,42=100,44=3,57=2,172=1/1,23;
 2/12=2,17=6,18=5,29=1,40=1/2;
 3/5=44,7=202,11=2,25=1,30=1,71=2,74=-58,140=1/1,2,3;
 4//1;
 5/5=2,38=5/2;
 8/6=4,10=90,11=11/1;
 11/6=1,8=1,9=11,15=111,16=1/1,2,10;
 10/6=1,13=1/2;
 6/7=2,8=2,9=2,10=2,28=1/1;
 7/10=1,25=1/1,2,3,16;
 1/6=100,10=4,18=10,22=2,26=3,42=100,44=3/23(2);
 2/29=1/2;
 99/5=20/99;
 2/29=1/2;
 3/5=44,7=202,11=2,25=1,30=1,71=2,74=-58,140=1/1,2,3;
 4/5=5,16=3,69=1/1;
 5/5=2,38=5/2;
 8/6=4,10=90,11=11/1;
 11/6=1,8=1,9=11,15=111,16=1/1,2,10;
 10/6=1,13=1/2;
 7/10=1,25=1/1,2,3,16;
 1/6=100,18=10,22=2,26=3,42=100,44=3/23(-8);
 2/29=1/2;
 6/7=2,8=2,9=2,10=2,19=2,28=1/1;
 99/5=20,9=1/99;
 ----------------------------------------------------------
 IRC for deprotonated ethylene glycol attack on PL2 complex
 ----------------------------------------------------------
 Symbolic Z-matrix:
 Charge = -2 Multiplicity = 1
 Si                   -1.02875   0.39153  -0.01603 
 O                    -0.35546   1.49182   1.19037 
 O                    -0.01419   1.14252  -1.22302 
 O                    -1.37556  -0.85563  -1.17967 
 O                    -1.55451  -0.67129   1.26594 
 O                     1.0922   -0.92095   0.41496 
 O                    -2.4923    1.29844  -0.23483 
 H                    -2.48797   1.93553   0.4761 
 C                    -2.02489  -1.94318  -0.63657 
 H                    -3.12393  -1.84763  -0.75116 
 H                    -1.721    -2.87495  -1.14368 
 C                    -1.66634  -1.9836    0.85509 
 H                    -2.44807  -2.51053   1.43155 
 H                    -0.70893  -2.50934   0.98886 
 C                     0.7858    2.13282   0.74636 
 H                     0.88754   3.12628   1.21844 
 H                     1.68255   1.54223   0.98178 
 C                     0.64396   2.26483  -0.77507 
 H                     0.06844   3.18483  -1.01286 
 H                     1.63074   2.3621   -1.25811 
 C                     1.80984  -1.29535  -0.67165 
 H                     1.37259  -0.96012  -1.62857 
 H                     1.92721  -2.41043  -0.75161 
 C                     3.24051  -0.69911  -0.53385 
 H                     3.99464  -1.28166  -1.08549 
 H                     3.24627   0.33161  -0.92644 
 O                     3.54415  -0.69806   0.84272 
 H                     2.59446  -0.72264   1.16793 
 
 IRC-IRC-IRC-IRC-IRC-IRC-IRC-IRC-IRC-IRC-IRC-IRC-IRC-IRC-IRC-IRC-IRC-IRC
 ------------------------------------------------------------------------
 INPUT DATA FOR L123
 ------------------------------------------------------------------------
 GENERAL PARAMETERS:
 Rxn path following direction = Reverse
 Maximum points per path      = 100
 Step size                    =   0.100 bohr
 Integration scheme           = HPC                                 
    Redo corrector integration= Yes                                 
    DWI Weight Power          =  2
    DWI will use Hessian update vectors when possible.
    Max correction cycles     = 100
 Initial Hessian              = CalcFC
 Hessian evaluation           = All updating
 Hessian updating method      = Bofill                              
 ------------------------------------------------------------------------
 IRC-IRC-IRC-IRC-IRC-IRC-IRC-IRC-IRC-IRC-IRC-IRC-IRC-IRC-IRC-IRC-IRC-IRC
                          Input orientation:                          
 ---------------------------------------------------------------------
 Center     Atomic      Atomic             Coordinates (Angstroms)
 Number     Number       Type             X           Y           Z
 ---------------------------------------------------------------------
      1         14           0       -1.028746    0.391526   -0.016025
      2          8           0       -0.355463    1.491822    1.190372
      3          8           0       -0.014193    1.142518   -1.223019
      4          8           0       -1.375564   -0.855629   -1.179666
      5          8           0       -1.554506   -0.671285    1.265943
      6          8           0        1.092201   -0.920951    0.414957
      7          8           0       -2.492304    1.298441   -0.234828
      8          1           0       -2.487974    1.935529    0.476097
      9          6           0       -2.024886   -1.943179   -0.636570
     10          1           0       -3.123929   -1.847633   -0.751161
     11          1           0       -1.721000   -2.874946   -1.143677
     12          6           0       -1.666344   -1.983597    0.855090
     13          1           0       -2.448074   -2.510531    1.431546
     14          1           0       -0.708933   -2.509337    0.988857
     15          6           0        0.785804    2.132822    0.746356
     16          1           0        0.887542    3.126282    1.218436
     17          1           0        1.682553    1.542225    0.981775
     18          6           0        0.643960    2.264829   -0.775070
     19          1           0        0.068436    3.184831   -1.012864
     20          1           0        1.630738    2.362102   -1.258105
     21          6           0        1.809842   -1.295346   -0.671651
     22          1           0        1.372589   -0.960115   -1.628570
     23          1           0        1.927206   -2.410432   -0.751611
     24          6           0        3.240512   -0.699110   -0.533854
     25          1           0        3.994642   -1.281658   -1.085492
     26          1           0        3.246274    0.331611   -0.926438
     27          8           0        3.544154   -0.698063    0.842720
     28          1           0        2.594456   -0.722640    1.167927
 ---------------------------------------------------------------------
                    Distance matrix (angstroms):
                    1          2          3          4          5
     1  Si   0.000000
     2  O    1.766170   0.000000
     3  O    1.746465   2.462303   0.000000
     4  O    1.740614   3.488296   2.418223   0.000000
     5  O    1.746263   2.474358   3.443454   2.459066   0.000000
     6  O    2.531157   2.918642   2.857442   2.938869   2.791338
     7  O    1.735619   2.575787   2.672427   2.603813   2.647942
     8  H    2.180705   2.292306   3.104103   3.430681   2.879357
     9  C    2.613086   4.233665   3.729388   1.378164   2.336349
    10  H    3.153419   4.752464   4.339828   2.055351   2.813466
    11  H    3.524295   5.136257   4.365719   2.048966   3.269573
    12  C    2.608943   3.729525   4.101309   2.344589   1.379663
    13  H    3.540041   4.522833   5.129840   3.272217   2.051515
    14  H    3.086596   4.021793   4.325633   2.807426   2.042108
    15  C    2.627913   1.382216   2.345023   4.160759   3.689178
    16  H    3.560189   2.053609   3.272483   5.169928   4.515238
    17  H    3.109800   2.049283   2.810663   4.446753   3.931784
    18  C    2.623616   2.336525   1.376011   3.738908   4.197589
    19  H    3.162285   2.810733   2.054759   4.293981   4.764088
    20  H    3.535362   3.270691   2.048027   4.404293   5.071295
    21  C    3.366447   3.990486   3.094235   3.255494   3.932246
    22  H    3.192749   4.116381   2.551216   2.786535   4.126683
    23  H    4.138805   4.920311   4.076114   3.675450   4.383774
    24  C    4.436688   4.550184   3.802584   4.663660   5.121742
    25  H    5.401642   5.638720   4.686822   5.387901   6.057627
    26  H    4.371297   4.335837   3.372859   4.778603   5.372134
    27  O    4.778709   4.485919   4.507422   5.321513   5.116265
    28  H    3.971234   3.688681   4.000061   4.614102   4.150437
                    6          7          8          9         10
     6  O    0.000000
     7  O    4.265747   0.000000
     8  H    4.580488   0.954628   0.000000
     9  C    3.444835   3.299693   4.061632   0.000000
    10  H    4.471501   3.250128   4.027768   1.109124   0.000000
    11  H    3.763182   4.340285   5.133477   1.103492   1.782597
    12  C    2.988730   3.555546   4.022221   1.534678   2.173265
    13  H    4.011703   4.157767   4.547738   2.185882   2.379164
    14  H    2.469092   4.379154   4.815054   2.166629   3.049216
    15  C    3.086946   3.522060   3.290834   5.140647   5.776902
    16  H    4.131290   4.108082   3.655553   6.133736   6.686632
    17  H    2.595580   4.355340   4.219442   5.339680   6.131596
    18  C    3.430201   3.325946   3.388638   4.984902   5.577625
    19  H    4.465894   3.274324   3.211385   5.551584   5.965348
    20  H    3.723922   4.379263   4.489233   5.682019   6.370692
    21  C    1.354953   5.042520   5.497918   3.889223   4.965223
    22  H    2.063045   4.688389   5.264819   3.673325   4.666499
    23  H    2.068011   5.792657   6.315731   3.981280   5.082392
    24  C    2.358961   6.078224   6.385677   5.411347   6.470891
    25  H    3.287190   7.032852   7.403591   6.072385   7.148857
    26  H    2.829891   5.860406   6.117292   5.748375   6.734932
    27  O    2.498947   6.448718   6.592176   5.895152   6.951640
    28  H    1.692058   5.650453   5.777161   5.107274   6.135832
                   11         12         13         14         15
    11  H    0.000000
    12  C    2.189192   0.000000
    13  H    2.700594   1.105017   0.000000
    14  H    2.388650   1.100424   1.794599   0.000000
    15  C    5.910502   4.792678   5.699840   4.882897   0.000000
    16  H    6.956925   5.724091   6.553275   5.861880   1.104614
    17  H    5.967673   4.864420   5.804240   4.704722   1.099266
    18  C    5.669761   5.103337   6.101958   5.266348   1.533715
    19  H    6.319817   5.762930   6.689179   6.085617   2.171680
    20  H    6.218835   5.849910   6.900252   5.852676   2.187315
    21  C    3.896767   3.858561   4.902036   3.251967   3.848602
    22  H    3.670421   4.056007   5.134741   3.685613   3.943457
    23  H    3.698499   3.959454   4.890733   3.160418   4.918116
    24  C    5.451857   5.258927   6.285225   4.603660   3.960349
    25  H    5.933845   6.025391   7.025254   5.285238   5.031002
    26  H    5.916334   5.715579   6.787007   5.232877   3.478004
    27  O    6.033775   5.366753   6.287969   4.625021   3.953693
    28  H    5.347812   4.454469   5.356599   3.759884   3.406260
                   16         17         18         19         20
    16  H    0.000000
    17  H    1.788096   0.000000
    18  C    2.185292   2.165026   0.000000
    19  H    2.377617   3.046656   1.110935   0.000000
    20  H    2.696213   2.385780   1.102958   1.782642   0.000000
    21  C    4.896311   3.286614   3.747642   4.818808   3.708495
    22  H    5.003934   3.629281   3.414619   4.388677   3.352762
    23  H    5.968014   4.322960   4.848230   5.901716   4.808483
    24  C    4.820852   3.122171   3.947810   5.037511   3.533685
    25  H    5.864477   4.194480   4.888865   5.947259   4.346818
    26  H    4.239609   2.748106   3.245348   4.271649   2.615885
    27  O    4.671655   2.916125   4.450517   5.531788   4.176031
    28  H    4.210737   2.448639   4.062591   5.138575   4.041042
                   21         22         23         24         25
    21  C    0.000000
    22  H    1.104203   0.000000
    23  H    1.124093   1.783277   0.000000
    24  C    1.556053   2.180748   2.168136   0.000000
    25  H    2.223691   2.696940   2.379054   1.101081   0.000000
    26  H    2.185233   2.381647   3.047836   1.102969   1.785494
    27  O    2.378635   3.300248   2.844050   1.409665   2.064346
    28  H    2.080303   3.061005   2.641683   1.820440   2.711258
                   26         27         28
    26  H    0.000000
    27  O    2.068546   0.000000
    28  H    2.433655   1.004136   0.000000
 Symmetry turned off by external request.
 Stoichiometry    C6H14O7Si(2-)
 Framework group  C1[X(C6H14O7Si)]
 Deg. of freedom    78
 Full point group                 C1      NOp   1
 Rotational constants (GHZ):           0.8561262           0.5528639           0.4285848
 Standard basis: def2TZVPP (5D, 7F)
   641 basis functions,   970 primitive gaussians,   726 cartesian basis functions
    61 alpha electrons       61 beta electrons
       nuclear repulsion energy      1246.1735365084 Hartrees.
 NAtoms=   28 NActive=   28 NUniq=   28 SFac= 1.00D+00 NAtFMM=   60 NAOKFM=F Big=F
 Integral buffers will be    131072 words long.
 Raffenetti 2 integral format.
 Two-electron integral symmetry is turned off.
 Nuclear repulsion after empirical dispersion term =     1246.1536044602 Hartrees.
 One-electron integrals computed using PRISM.
   1 Symmetry operations used in ECPInt.
 ECPInt:  NShTT=   29161 NPrTT=   80163 LenC2=   27125 LenP2D=   56434.
 LDataN:  DoStor=T MaxTD1= 6 Len=  172
 NBasis=   641 RedAO= T EigKep=  2.13D-04  NBF=   641
 NBsUse=   641 1.00D-06 EigRej= -1.00D+00 NBFU=   641
 ExpMin= 7.01D-02 ExpMax= 4.48D+04 ExpMxC= 1.53D+03 IAcc=3 IRadAn=         5 AccDes= 0.00D+00
 Harris functional with IExCor= 4639 and IRadAn=       5 diagonalized for initial guess.
 HarFok:  IExCor= 4639 AccDes= 0.00D+00 IRadAn=         5 IDoV= 1 UseB2=F ITyADJ=14
 ICtDFT=  3500011 ScaDFX=  1.000000  1.000000  1.000000  1.000000
 FoFCou: FMM=F IPFlag=           0 FMFlag=      100000 FMFlg1=           0
         NFxFlg=           0 DoJE=T BraDBF=F KetDBF=T FulRan=T
         wScrn=  0.000000 ICntrl=       500 IOpCl=  0 I1Cent=   200000004 NGrid=           0
         NMat0=    1 NMatS0=      1 NMatT0=    0 NMatD0=    1 NMtDS0=    0 NMtDT0=    0
 Symmetry not used in FoFCou.
 Requested convergence on RMS density matrix=1.00D-08 within 128 cycles.
 Requested convergence on MAX density matrix=1.00D-06.
 Requested convergence on             energy=1.00D-06.
 No special actions if energy rises.
 Integral accuracy reduced to 1.0D-05 until final iterations.
 Initial convergence to 1.0D-05 achieved.  Increase integral accuracy.
 SCF Done:  E(RwB97XD) =  -1053.33008246     A.U. after   16 cycles
            NFock= 16  Conv=0.40D-08     -V/T= 2.0037
 DoSCS=F DFT=T ScalE2(SS,OS)=  1.000000  1.000000
 Range of M.O.s used for correlation:     1   641
 NBasis=   641 NAE=    61 NBE=    61 NFC=     0 NFV=     0
 NROrb=    641 NOA=    61 NOB=    61 NVA=   580 NVB=   580

 **** Warning!!: The largest alpha MO coefficient is  0.13044018D+02

   1 Symmetry operations used in ECPInt.
 ECPInt:  NShTT=   29161 NPrTT=   80163 LenC2=   27125 LenP2D=   56434.
 LDataN:  DoStor=T MaxTD1= 7 Len=  274
 Number of processors reduced to   2 by ecpmxn.
 Symmetrizing basis deriv contribution to polar:
 IMax=3 JMax=2 DiffMx= 0.00D+00
 G2DrvN: will do    29 centers at a time, making    1 passes.
 Calling FoFCou, ICntrl=  3107 FMM=F I1Cent=   0 AccDes= 0.00D+00.
 End of G2Drv F.D. properties file   721 does not exist.
 End of G2Drv F.D. properties file   722 does not exist.
 End of G2Drv F.D. properties file   788 does not exist.
          IDoAtm=1111111111111111111111111111
          Differentiating once with respect to nuclear coordinates.
 CalDSu exits because no D1Ps are significant.
          There are    87 degrees of freedom in the 1st order CPHF.  IDoFFX=6 NUNeed=     0.
     81 vectors produced by pass  0 Test12= 4.07D-14 1.15D-09 XBig12= 9.93D-02 4.12D-02.
 AX will form    44 AO Fock derivatives at one time.
     81 vectors produced by pass  1 Test12= 4.07D-14 1.15D-09 XBig12= 3.49D-02 2.94D-02.
     81 vectors produced by pass  2 Test12= 4.07D-14 1.15D-09 XBig12= 5.67D-04 3.10D-03.
     81 vectors produced by pass  3 Test12= 4.07D-14 1.15D-09 XBig12= 7.94D-06 3.06D-04.
     81 vectors produced by pass  4 Test12= 4.07D-14 1.15D-09 XBig12= 9.75D-08 3.19D-05.
     81 vectors produced by pass  5 Test12= 4.07D-14 1.15D-09 XBig12= 9.99D-10 3.31D-06.
     81 vectors produced by pass  6 Test12= 4.07D-14 1.15D-09 XBig12= 8.03D-12 3.00D-07.
     41 vectors produced by pass  7 Test12= 4.07D-14 1.15D-09 XBig12= 5.59D-14 1.95D-08.
      4 vectors produced by pass  8 Test12= 4.07D-14 1.15D-09 XBig12= 2.20D-15 2.70D-09.
      4 vectors produced by pass  9 Test12= 4.07D-14 1.15D-09 XBig12= 4.58D-15 4.04D-09.
      2 vectors produced by pass 10 Test12= 4.07D-14 1.15D-09 XBig12= 7.49D-16 1.72D-09.
 InvSVY:  IOpt=1 It=  1 EMax= 2.78D-16
 Solved reduced A of dimension   618 with    87 vectors.
 End of Minotr F.D. properties file   721 does not exist.
 End of Minotr F.D. properties file   722 does not exist.
 End of Minotr F.D. properties file   788 does not exist.

 **********************************************************************

            Population analysis using the SCF Density.

 **********************************************************************

 Alpha  occ. eigenvalues --  -65.99482 -18.94882 -18.91541 -18.91537 -18.91485
 Alpha  occ. eigenvalues --  -18.91010 -18.90928 -18.85599 -10.04515 -10.04416
 Alpha  occ. eigenvalues --  -10.04175 -10.03790 -10.03521 -10.01250  -5.10260
 Alpha  occ. eigenvalues --   -3.44936  -3.44783  -3.44677  -0.83700  -0.83321
 Alpha  occ. eigenvalues --   -0.81515  -0.77354  -0.76016  -0.75711  -0.72247
 Alpha  occ. eigenvalues --   -0.53585  -0.51575  -0.50927  -0.41676  -0.39378
 Alpha  occ. eigenvalues --   -0.38274  -0.32906  -0.29938  -0.29684  -0.28193
 Alpha  occ. eigenvalues --   -0.27922  -0.27697  -0.26290  -0.24714  -0.24110
 Alpha  occ. eigenvalues --   -0.22955  -0.21753  -0.20250  -0.19622  -0.18207
 Alpha  occ. eigenvalues --   -0.17074  -0.15043  -0.13805  -0.12080  -0.10356
 Alpha  occ. eigenvalues --   -0.09866  -0.09535  -0.08012  -0.07568  -0.07418
 Alpha  occ. eigenvalues --   -0.06533  -0.04666  -0.03771  -0.02305  -0.00280
 Alpha  occ. eigenvalues --    0.01291
 Alpha virt. eigenvalues --    0.35929   0.36455   0.37414   0.38925   0.39465
 Alpha virt. eigenvalues --    0.40194   0.40808   0.41210   0.42737   0.43489
 Alpha virt. eigenvalues --    0.44573   0.45765   0.46765   0.47849   0.48237
 Alpha virt. eigenvalues --    0.49344   0.50158   0.51383   0.52056   0.52164
 Alpha virt. eigenvalues --    0.52647   0.54149   0.54406   0.55333   0.55757
 Alpha virt. eigenvalues --    0.56565   0.57435   0.58054   0.59037   0.61905
 Alpha virt. eigenvalues --    0.62567   0.64454   0.64756   0.65302   0.66493
 Alpha virt. eigenvalues --    0.68198   0.68541   0.69092   0.69766   0.69970
 Alpha virt. eigenvalues --    0.70345   0.71460   0.72455   0.72880   0.73844
 Alpha virt. eigenvalues --    0.74160   0.74446   0.74695   0.75305   0.75970
 Alpha virt. eigenvalues --    0.76672   0.77298   0.77429   0.78211   0.78534
 Alpha virt. eigenvalues --    0.78736   0.79955   0.80094   0.80758   0.81390
 Alpha virt. eigenvalues --    0.81887   0.81978   0.82403   0.84680   0.85581
 Alpha virt. eigenvalues --    0.85952   0.86232   0.87243   0.88456   0.88859
 Alpha virt. eigenvalues --    0.89808   0.90980   0.91931   0.92442   0.93731
 Alpha virt. eigenvalues --    0.94372   0.95720   0.96228   0.97515   0.99108
 Alpha virt. eigenvalues --    0.99272   0.99829   1.02507   1.03434   1.03983
 Alpha virt. eigenvalues --    1.05191   1.06225   1.07589   1.07811   1.08578
 Alpha virt. eigenvalues --    1.10110   1.11098   1.12168   1.13378   1.14506
 Alpha virt. eigenvalues --    1.15623   1.16004   1.16787   1.18085   1.19470
 Alpha virt. eigenvalues --    1.19722   1.20511   1.20877   1.21603   1.23649
 Alpha virt. eigenvalues --    1.24116   1.24431   1.25485   1.27810   1.29089
 Alpha virt. eigenvalues --    1.29944   1.30884   1.31877   1.33041   1.33476
 Alpha virt. eigenvalues --    1.33655   1.34676   1.34938   1.36406   1.36743
 Alpha virt. eigenvalues --    1.36944   1.38519   1.40570   1.41226   1.41949
 Alpha virt. eigenvalues --    1.42751   1.43486   1.44146   1.44567   1.45768
 Alpha virt. eigenvalues --    1.46469   1.47309   1.48083   1.48521   1.49754
 Alpha virt. eigenvalues --    1.50542   1.51278   1.52163   1.53028   1.53533
 Alpha virt. eigenvalues --    1.54382   1.55726   1.56860   1.57439   1.58847
 Alpha virt. eigenvalues --    1.59273   1.59446   1.61452   1.61798   1.62557
 Alpha virt. eigenvalues --    1.63825   1.64586   1.66411   1.67233   1.68049
 Alpha virt. eigenvalues --    1.69085   1.70174   1.70219   1.71589   1.72545
 Alpha virt. eigenvalues --    1.72833   1.73483   1.75122   1.75429   1.76399
 Alpha virt. eigenvalues --    1.77600   1.77891   1.78409   1.79284   1.80937
 Alpha virt. eigenvalues --    1.82110   1.82470   1.83801   1.84721   1.87025
 Alpha virt. eigenvalues --    1.87403   1.88024   1.88923   1.89380   1.91452
 Alpha virt. eigenvalues --    1.92482   1.93665   1.94330   1.95554   1.97345
 Alpha virt. eigenvalues --    1.97564   2.00110   2.01635   2.03705   2.04636
 Alpha virt. eigenvalues --    2.06282   2.08424   2.11602   2.13351   2.16456
 Alpha virt. eigenvalues --    2.17708   2.22231   2.22715   2.24120   2.26458
 Alpha virt. eigenvalues --    2.27314   2.28041   2.28941   2.29465   2.31240
 Alpha virt. eigenvalues --    2.33280   2.34212   2.35696   2.36428   2.38547
 Alpha virt. eigenvalues --    2.39477   2.40322   2.42156   2.43269   2.44753
 Alpha virt. eigenvalues --    2.45275   2.46135   2.48496   2.48622   2.49621
 Alpha virt. eigenvalues --    2.50536   2.52916   2.54656   2.55791   2.57749
 Alpha virt. eigenvalues --    2.58909   2.60610   2.61532   2.62607   2.63387
 Alpha virt. eigenvalues --    2.66161   2.69145   2.69644   2.70206   2.72667
 Alpha virt. eigenvalues --    2.73465   2.74985   2.75860   2.76475   2.80522
 Alpha virt. eigenvalues --    2.81715   2.84338   2.84899   2.86144   2.90368
 Alpha virt. eigenvalues --    2.91796   2.93876   2.96460   2.97381   2.97847
 Alpha virt. eigenvalues --    2.99222   2.99868   3.00773   3.01482   3.01799
 Alpha virt. eigenvalues --    3.03185   3.04392   3.05271   3.08054   3.08953
 Alpha virt. eigenvalues --    3.10106   3.11808   3.12057   3.14767   3.16083
 Alpha virt. eigenvalues --    3.16362   3.16892   3.18813   3.20004   3.20494
 Alpha virt. eigenvalues --    3.21607   3.22728   3.24746   3.25204   3.27091
 Alpha virt. eigenvalues --    3.27486   3.29129   3.30566   3.30692   3.33246
 Alpha virt. eigenvalues --    3.33490   3.34711   3.34987   3.36547   3.36669
 Alpha virt. eigenvalues --    3.37962   3.38300   3.39003   3.40327   3.41302
 Alpha virt. eigenvalues --    3.41612   3.42670   3.44386   3.46500   3.46966
 Alpha virt. eigenvalues --    3.47429   3.48073   3.49521   3.50478   3.51177
 Alpha virt. eigenvalues --    3.51867   3.53002   3.53321   3.54657   3.55924
 Alpha virt. eigenvalues --    3.57221   3.58284   3.58612   3.59626   3.60766
 Alpha virt. eigenvalues --    3.61898   3.62380   3.63411   3.65885   3.65896
 Alpha virt. eigenvalues --    3.67654   3.69215   3.70088   3.72401   3.73417
 Alpha virt. eigenvalues --    3.74358   3.75469   3.77269   3.77872   3.78478
 Alpha virt. eigenvalues --    3.80699   3.82235   3.82881   3.84966   3.85568
 Alpha virt. eigenvalues --    3.86877   3.88505   3.89840   3.90846   3.92246
 Alpha virt. eigenvalues --    3.93058   3.93538   3.93984   3.95142   3.95774
 Alpha virt. eigenvalues --    3.96746   3.99340   4.00248   4.02230   4.02785
 Alpha virt. eigenvalues --    4.03716   4.05092   4.05492   4.06070   4.07193
 Alpha virt. eigenvalues --    4.08421   4.08959   4.09787   4.10182   4.10830
 Alpha virt. eigenvalues --    4.12082   4.13035   4.13254   4.14939   4.16104
 Alpha virt. eigenvalues --    4.16946   4.18090   4.18581   4.20336   4.20604
 Alpha virt. eigenvalues --    4.22034   4.25511   4.26228   4.27115   4.28663
 Alpha virt. eigenvalues --    4.31070   4.31352   4.32184   4.33572   4.35434
 Alpha virt. eigenvalues --    4.36240   4.36942   4.38032   4.39145   4.41599
 Alpha virt. eigenvalues --    4.42387   4.42759   4.44012   4.45021   4.46233
 Alpha virt. eigenvalues --    4.47127   4.49049   4.49679   4.51157   4.52639
 Alpha virt. eigenvalues --    4.53480   4.54502   4.55518   4.55905   4.56775
 Alpha virt. eigenvalues --    4.58882   4.59549   4.60169   4.62091   4.63200
 Alpha virt. eigenvalues --    4.65566   4.66464   4.67872   4.68049   4.68737
 Alpha virt. eigenvalues --    4.69431   4.70876   4.71635   4.73318   4.74714
 Alpha virt. eigenvalues --    4.75496   4.78048   4.78966   4.84591   4.88219
 Alpha virt. eigenvalues --    4.89833   4.91195   4.92486   4.93821   4.95172
 Alpha virt. eigenvalues --    4.95290   4.96507   4.97575   4.98507   5.01321
 Alpha virt. eigenvalues --    5.03550   5.03947   5.06578   5.08120   5.10971
 Alpha virt. eigenvalues --    5.12042   5.13863   5.14387   5.15739   5.16450
 Alpha virt. eigenvalues --    5.17546   5.18818   5.20253   5.21651   5.22925
 Alpha virt. eigenvalues --    5.24564   5.25896   5.28260   5.28531   5.29736
 Alpha virt. eigenvalues --    5.30210   5.31975   5.32061   5.33731   5.37045
 Alpha virt. eigenvalues --    5.39482   5.42171   5.43250   5.44655   5.45872
 Alpha virt. eigenvalues --    5.46307   5.48150   5.49246   5.51085   5.52231
 Alpha virt. eigenvalues --    5.53556   5.55796   5.56128   5.59379   5.60834
 Alpha virt. eigenvalues --    5.63834   5.64934   5.65946   5.67966   5.68801
 Alpha virt. eigenvalues --    5.69466   5.70873   5.71532   5.75367   5.78267
 Alpha virt. eigenvalues --    5.79653   5.80754   5.82740   5.84694   5.85202
 Alpha virt. eigenvalues --    5.85828   5.86840   5.88506   5.90501   5.90808
 Alpha virt. eigenvalues --    5.92456   5.93194   5.94098   5.94737   5.96985
 Alpha virt. eigenvalues --    5.97589   6.00049   6.00670   6.02140   6.03191
 Alpha virt. eigenvalues --    6.05097   6.05641   6.07643   6.10139   6.10758
 Alpha virt. eigenvalues --    6.11763   6.13762   6.20899   6.26142   6.31208
 Alpha virt. eigenvalues --    6.37580   6.38236   6.38658   6.41308   6.42271
 Alpha virt. eigenvalues --    6.46684   6.48767   6.49495   6.52049   6.53231
 Alpha virt. eigenvalues --    6.54422   6.55780   6.58695   6.64293   6.67211
 Alpha virt. eigenvalues --    6.69262   6.73560   6.77183   6.88326   6.93914
 Alpha virt. eigenvalues --    6.95400   6.99281   7.00513   7.01308   7.05166
 Alpha virt. eigenvalues --    7.07216   7.08635   7.09107   7.11527   7.12990
 Alpha virt. eigenvalues --    7.14238   7.17182   7.18947   7.21657   7.22838
 Alpha virt. eigenvalues --    7.23535   7.28195   7.29368   7.32084   7.36423
 Alpha virt. eigenvalues --    7.39336   7.41210   7.44263   7.46734   7.49519
 Alpha virt. eigenvalues --    7.50835   7.52024   7.53634   7.55890   7.61983
 Alpha virt. eigenvalues --    7.63337   7.65578   7.66736   7.70938   7.76942
 Alpha virt. eigenvalues --    7.78874   7.85933   7.88846   7.92620   7.95704
 Alpha virt. eigenvalues --    8.05027  12.38080  23.64180  23.68137  23.69938
 Alpha virt. eigenvalues --   23.81228  23.82569  23.86070  44.25680  44.37069
 Alpha virt. eigenvalues --   44.55244  44.56900  44.62861  44.69695  44.79792
          Condensed to atoms (all electrons):
               1          2          3          4          5          6
     1  Si  11.533406   0.329001   0.338951   0.350210   0.364270   0.067537
     2  O    0.329001   8.138082  -0.026047   0.006306  -0.047975  -0.018108
     3  O    0.338951  -0.026047   8.063190  -0.047491   0.001890  -0.015049
     4  O    0.350210   0.006306  -0.047491   8.067466  -0.033948  -0.007996
     5  O    0.364270  -0.047975   0.001890  -0.033948   8.053465  -0.023406
     6  O    0.067537  -0.018108  -0.015049  -0.007996  -0.023406   8.468742
     7  O    0.479064  -0.068677  -0.045128  -0.036160  -0.048842   0.000168
     8  H   -0.061630   0.012316   0.000558   0.004756  -0.000778   0.000040
     9  C   -0.078686  -0.002244   0.000451   0.364833  -0.111775   0.003044
    10  H    0.006265  -0.000114   0.000413  -0.061419   0.011552  -0.000127
    11  H   -0.003491   0.000099  -0.000054  -0.047795   0.007466  -0.000882
    12  C   -0.036143   0.000787  -0.001347  -0.102696   0.380857  -0.007224
    13  H   -0.011748  -0.000317  -0.000053   0.006337  -0.046303   0.001661
    14  H   -0.007748   0.001142   0.000831   0.010112  -0.053151   0.026996
    15  C   -0.062786   0.363420  -0.099067  -0.000838   0.001266   0.028800
    16  H   -0.014133  -0.046825   0.005429  -0.000012  -0.000528   0.001880
    17  H    0.000974  -0.052054   0.010774   0.000271   0.000992   0.002456
    18  C   -0.032780  -0.114289   0.368128   0.002772  -0.002845  -0.004357
    19  H   -0.001740   0.013164  -0.062795   0.000581  -0.000005  -0.000520
    20  H   -0.002282   0.008462  -0.053734   0.000033   0.000121  -0.000000
    21  C   -0.034460   0.003457  -0.010349  -0.004692   0.000709   0.351228
    22  H   -0.010076   0.000750   0.015186   0.008405   0.000538  -0.076617
    23  H    0.005067  -0.000255   0.000338   0.000047  -0.000581  -0.057451
    24  C    0.004016  -0.001297   0.001100   0.001401  -0.000171  -0.113317
    25  H    0.000218  -0.000011  -0.000063   0.000005   0.000005   0.008091
    26  H   -0.002042  -0.000287  -0.000367  -0.000006   0.000008   0.008634
    27  O    0.000038   0.000049  -0.000123  -0.000021  -0.000025  -0.067040
    28  H    0.000359   0.001231  -0.000127   0.000142   0.000219   0.121366
               7          8          9         10         11         12
     1  Si   0.479064  -0.061630  -0.078686   0.006265  -0.003491  -0.036143
     2  O   -0.068677   0.012316  -0.002244  -0.000114   0.000099   0.000787
     3  O   -0.045128   0.000558   0.000451   0.000413  -0.000054  -0.001347
     4  O   -0.036160   0.004756   0.364833  -0.061419  -0.047795  -0.102696
     5  O   -0.048842  -0.000778  -0.111775   0.011552   0.007466   0.380857
     6  O    0.000168   0.000040   0.003044  -0.000127  -0.000882  -0.007224
     7  O    7.946394   0.305499  -0.005009   0.005137  -0.000715  -0.008304
     8  H    0.305499   0.617876  -0.000166  -0.000756   0.000099   0.000057
     9  C   -0.005009  -0.000166   4.903466   0.346125   0.336109   0.197900
    10  H    0.005137  -0.000756   0.346125   0.880730  -0.112855  -0.042022
    11  H   -0.000715   0.000099   0.336109  -0.112855   0.861791  -0.011508
    12  C   -0.008304   0.000057   0.197900  -0.042022  -0.011508   4.836306
    13  H   -0.000088   0.000062   0.016636  -0.030630   0.015819   0.284559
    14  H   -0.000365  -0.000088  -0.079530   0.019479  -0.018916   0.417387
    15  C   -0.008886   0.001901  -0.002400  -0.000068   0.000102   0.002789
    16  H    0.000082  -0.000625  -0.000096   0.000002  -0.000000  -0.000039
    17  H   -0.000545   0.000551   0.000326  -0.000004   0.000001   0.000401
    18  C   -0.005730  -0.003034  -0.001858   0.000265  -0.000027  -0.001451
    19  H    0.006753   0.001727   0.000361  -0.000023   0.000000  -0.000113
    20  H   -0.000454   0.000061  -0.000034  -0.000000  -0.000002   0.000082
    21  C   -0.000320  -0.000036   0.002976  -0.000098   0.001362  -0.008898
    22  H    0.000187  -0.000047   0.001685   0.000206  -0.001661  -0.004939
    23  H    0.000002   0.000004  -0.005730   0.000083   0.001455   0.010335
    24  C    0.000007  -0.000002   0.000510   0.000035  -0.000360   0.000801
    25  H    0.000000  -0.000000  -0.000036   0.000000   0.000005   0.000066
    26  H   -0.000002   0.000000  -0.000039  -0.000000   0.000011   0.000016
    27  O    0.000000   0.000000  -0.000013  -0.000000   0.000005   0.000095
    28  H    0.000003  -0.000008   0.000022   0.000003   0.000007  -0.001028
              13         14         15         16         17         18
     1  Si  -0.011748  -0.007748  -0.062786  -0.014133   0.000974  -0.032780
     2  O   -0.000317   0.001142   0.363420  -0.046825  -0.052054  -0.114289
     3  O   -0.000053   0.000831  -0.099067   0.005429   0.010774   0.368128
     4  O    0.006337   0.010112  -0.000838  -0.000012   0.000271   0.002772
     5  O   -0.046303  -0.053151   0.001266  -0.000528   0.000992  -0.002845
     6  O    0.001661   0.026996   0.028800   0.001880   0.002456  -0.004357
     7  O   -0.000088  -0.000365  -0.008886   0.000082  -0.000545  -0.005730
     8  H    0.000062  -0.000088   0.001901  -0.000625   0.000551  -0.003034
     9  C    0.016636  -0.079530  -0.002400  -0.000096   0.000326  -0.001858
    10  H   -0.030630   0.019479  -0.000068   0.000002  -0.000004   0.000265
    11  H    0.015819  -0.018916   0.000102  -0.000000   0.000001  -0.000027
    12  C    0.284559   0.417387   0.002789  -0.000039   0.000401  -0.001451
    13  H    0.898384  -0.095935  -0.000126  -0.000010   0.000022  -0.000056
    14  H   -0.095935   0.768498  -0.000249   0.000006  -0.000168   0.000442
    15  C   -0.000126  -0.000249   4.853290   0.302896   0.394574   0.220039
    16  H   -0.000010   0.000006   0.302896   0.889113  -0.092836   0.007397
    17  H    0.000022  -0.000168   0.394574  -0.092836   0.779437  -0.074886
    18  C   -0.000056   0.000442   0.220039   0.007397  -0.074886   4.860093
    19  H    0.000001   0.000005  -0.043036  -0.030825   0.020258   0.332774
    20  H   -0.000000  -0.000002  -0.025878   0.016077  -0.018604   0.357251
    21  C    0.000618   0.002558  -0.008106   0.000615  -0.002033   0.000793
    22  H    0.000014   0.003449   0.001334  -0.000164  -0.001863  -0.002380
    23  H   -0.000448  -0.008435   0.002223   0.000046  -0.000352  -0.000762
    24  C    0.000011   0.000184  -0.001087  -0.001058   0.009891   0.001952
    25  H   -0.000001  -0.000104  -0.000865   0.000014   0.001531   0.000501
    26  H   -0.000002  -0.000095   0.017764   0.000378  -0.018273  -0.011327
    27  O   -0.000001  -0.000187  -0.013659   0.000148   0.021718   0.002407
    28  H   -0.000001   0.000991   0.002300   0.000415  -0.008115   0.000077
              19         20         21         22         23         24
     1  Si  -0.001740  -0.002282  -0.034460  -0.010076   0.005067   0.004016
     2  O    0.013164   0.008462   0.003457   0.000750  -0.000255  -0.001297
     3  O   -0.062795  -0.053734  -0.010349   0.015186   0.000338   0.001100
     4  O    0.000581   0.000033  -0.004692   0.008405   0.000047   0.001401
     5  O   -0.000005   0.000121   0.000709   0.000538  -0.000581  -0.000171
     6  O   -0.000520  -0.000000   0.351228  -0.076617  -0.057451  -0.113317
     7  O    0.006753  -0.000454  -0.000320   0.000187   0.000002   0.000007
     8  H    0.001727   0.000061  -0.000036  -0.000047   0.000004  -0.000002
     9  C    0.000361  -0.000034   0.002976   0.001685  -0.005730   0.000510
    10  H   -0.000023  -0.000000  -0.000098   0.000206   0.000083   0.000035
    11  H    0.000000  -0.000002   0.001362  -0.001661   0.001455  -0.000360
    12  C   -0.000113   0.000082  -0.008898  -0.004939   0.010335   0.000801
    13  H    0.000001  -0.000000   0.000618   0.000014  -0.000448   0.000011
    14  H    0.000005  -0.000002   0.002558   0.003449  -0.008435   0.000184
    15  C   -0.043036  -0.025878  -0.008106   0.001334   0.002223  -0.001087
    16  H   -0.030825   0.016077   0.000615  -0.000164   0.000046  -0.001058
    17  H    0.020258  -0.018604  -0.002033  -0.001863  -0.000352   0.009891
    18  C    0.332774   0.357251   0.000793  -0.002380  -0.000762   0.001952
    19  H    0.896472  -0.105368  -0.000364   0.000768  -0.000002   0.000329
    20  H   -0.105368   0.838337   0.005667  -0.002129  -0.000042  -0.003655
    21  C   -0.000364   0.005667   4.712004   0.452330   0.255291   0.282494
    22  H    0.000768  -0.002129   0.452330   0.816555  -0.109340  -0.094649
    23  H   -0.000002  -0.000042   0.255291  -0.109340   1.045958  -0.085744
    24  C    0.000329  -0.003655   0.282494  -0.094649  -0.085744   5.007235
    25  H   -0.000008  -0.000043  -0.001733   0.004002  -0.006240   0.339732
    26  H   -0.000102   0.003095  -0.071969  -0.008924   0.024450   0.383425
    27  O   -0.000029  -0.000468  -0.063676   0.003684   0.009141   0.314586
    28  H   -0.000030   0.000248  -0.007824   0.012994   0.000372  -0.137743
              25         26         27         28
     1  Si   0.000218  -0.002042   0.000038   0.000359
     2  O   -0.000011  -0.000287   0.000049   0.001231
     3  O   -0.000063  -0.000367  -0.000123  -0.000127
     4  O    0.000005  -0.000006  -0.000021   0.000142
     5  O    0.000005   0.000008  -0.000025   0.000219
     6  O    0.008091   0.008634  -0.067040   0.121366
     7  O    0.000000  -0.000002   0.000000   0.000003
     8  H   -0.000000   0.000000   0.000000  -0.000008
     9  C   -0.000036  -0.000039  -0.000013   0.000022
    10  H    0.000000  -0.000000  -0.000000   0.000003
    11  H    0.000005   0.000011   0.000005   0.000007
    12  C    0.000066   0.000016   0.000095  -0.001028
    13  H   -0.000001  -0.000002  -0.000001  -0.000001
    14  H   -0.000104  -0.000095  -0.000187   0.000991
    15  C   -0.000865   0.017764  -0.013659   0.002300
    16  H    0.000014   0.000378   0.000148   0.000415
    17  H    0.001531  -0.018273   0.021718  -0.008115
    18  C    0.000501  -0.011327   0.002407   0.000077
    19  H   -0.000008  -0.000102  -0.000029  -0.000030
    20  H   -0.000043   0.003095  -0.000468   0.000248
    21  C   -0.001733  -0.071969  -0.063676  -0.007824
    22  H    0.004002  -0.008924   0.003684   0.012994
    23  H   -0.006240   0.024450   0.009141   0.000372
    24  C    0.339732   0.383425   0.314586  -0.137743
    25  H    0.778417  -0.073352  -0.041356   0.010477
    26  H   -0.073352   0.804424  -0.065271   0.010748
    27  O   -0.041356  -0.065271   8.093275   0.318433
    28  H    0.010477   0.010748   0.318433   0.449446
 Mulliken charges:
               1
     1  Si   0.880368
     2  O   -0.499766
     3  O   -0.445449
     4  O   -0.480605
     5  O   -0.453022
     6  O   -0.698548
     7  O   -0.514068
     8  H    0.121662
     9  C    0.113173
    10  H   -0.022176
    11  H   -0.026066
    12  C    0.093272
    13  H   -0.038405
    14  H    0.012893
    15  C    0.074352
    16  H   -0.037347
    17  H    0.025554
    18  C    0.100889
    19  H   -0.028233
    20  H   -0.016738
    21  C    0.142456
    22  H   -0.009300
    23  H   -0.079433
    24  C    0.091375
    25  H   -0.019253
    26  H   -0.000895
    27  O   -0.511710
    28  H    0.225021
 Sum of Mulliken charges =  -2.00000
 Mulliken charges with hydrogens summed into heavy atoms:
               1
     1  Si   0.880368
     2  O   -0.499766
     3  O   -0.445449
     4  O   -0.480605
     5  O   -0.453022
     6  O   -0.698548
     7  O   -0.392407
     9  C    0.064931
    12  C    0.067760
    15  C    0.062559
    18  C    0.055918
    21  C    0.053723
    24  C    0.071227
    27  O   -0.286689
 APT charges:
               1
     1  Si  -0.055310
     2  O   -0.373315
     3  O   -0.358542
     4  O   -0.378450
     5  O   -0.338330
     6  O   -0.659749
     7  O   -0.549260
     8  H    0.409318
     9  C   -0.568084
    10  H    0.421965
    11  H    0.324364
    12  C   -0.502431
    13  H    0.430325
    14  H    0.174067
    15  C   -0.523700
    16  H    0.419344
    17  H    0.160511
    18  C   -0.531594
    19  H    0.373510
    20  H    0.294809
    21  C   -0.307342
    22  H    0.080366
    23  H    0.208692
    24  C   -0.741558
    25  H    0.583285
    26  H    0.146830
    27  O   -0.103795
    28  H   -0.035925
 Sum of APT charges =  -2.00000
 APT charges with hydrogens summed into heavy atoms:
               1
     1  Si  -0.055310
     2  O   -0.373315
     3  O   -0.358542
     4  O   -0.378450
     5  O   -0.338330
     6  O   -0.659749
     7  O   -0.139942
     9  C    0.178245
    12  C    0.101960
    15  C    0.056155
    18  C    0.136725
    21  C   -0.018284
    24  C   -0.011444
    27  O   -0.139720
 Electronic spatial extent (au):  <R**2>=           2945.6410
 Charge=             -2.0000 electrons
 Dipole moment (field-independent basis, Debye):
    X=             -0.6457    Y=              0.9310    Z=             -0.7227  Tot=              1.3439
 Quadrupole moment (field-independent basis, Debye-Ang):
   XX=           -146.7924   YY=           -114.1334   ZZ=           -114.7111
   XY=              7.0853   XZ=             -7.1306   YZ=              2.3883
 Traceless Quadrupole moment (field-independent basis, Debye-Ang):
   XX=            -21.5801   YY=             11.0789   ZZ=             10.5012
   XY=              7.0853   XZ=             -7.1306   YZ=              2.3883
 Octapole moment (field-independent basis, Debye-Ang**2):
  XXX=            -78.0108  YYY=              7.8914  ZZZ=              6.5690  XYY=             -6.1477
  XXY=             24.2099  XXZ=            -11.7451  XZZ=              2.5124  YZZ=              0.6514
  YYZ=              5.3104  XYZ=             -2.1817
 Hexadecapole moment (field-independent basis, Debye-Ang**3):
 XXXX=          -2715.8752 YYYY=          -1475.1628 ZZZZ=           -570.9644 XXXY=             66.4320
 XXXZ=            -95.0111 YYYX=            -39.7087 YYYZ=              2.7902 ZZZX=             21.2542
 ZZZY=             -5.7811 XXYY=           -644.3953 XXZZ=           -495.8932 YYZZ=           -351.0657
 XXYZ=             27.5748 YYXZ=             -6.2494 ZZXY=            -10.5634
 N-N= 1.246153604460D+03 E-N=-5.017284978555D+03  KE= 1.049451252400D+03
  Exact polarizability:       0.000       0.000       0.000       0.000       0.000       0.000
 Approx polarizability:     140.451       3.260     143.480      -3.625       3.041     134.239
   1 Symmetry operations used in ECPInt.
 ECPInt:  NShTT=   29161 NPrTT=   80163 LenC2=   27125 LenP2D=   56434.
 LDataN:  DoStor=T MaxTD1= 8 Len=  415
 Calling FoFJK, ICntrl=    100127 FMM=F ISym2X=0 I1Cent= 0 IOpClX= 0 NMat=1 NMatS=1 NMatT=0.
 -------------------------------------------------------------------
 Center     Atomic                   Forces (Hartrees/Bohr)
 Number     Number              X              Y              Z
 -------------------------------------------------------------------
      1       14           0.000006107   -0.000001902    0.000000119
      2        8          -0.000000000   -0.000000644   -0.000000620
      3        8           0.000001544    0.000000428   -0.000001362
      4        8          -0.000000520   -0.000001404    0.000000729
      5        8          -0.000000515   -0.000000122    0.000000722
      6        8          -0.000002803   -0.000003263   -0.000001529
      7        8          -0.000000250    0.000001601   -0.000001386
      8        1           0.000000162    0.000000738   -0.000001994
      9        6          -0.000000817    0.000000484   -0.000000347
     10        1          -0.000000079    0.000000632   -0.000000251
     11        1           0.000000022   -0.000000267    0.000000372
     12        6          -0.000000539    0.000001137   -0.000000312
     13        1          -0.000000866    0.000001226   -0.000000065
     14        1          -0.000002274    0.000001009    0.000002120
     15        6           0.000000450   -0.000001670   -0.000001588
     16        1           0.000000419    0.000000218   -0.000001130
     17        1          -0.000002474    0.000009464    0.000001971
     18        6           0.000000453   -0.000001281   -0.000002173
     19        1           0.000001037   -0.000000464   -0.000001240
     20        1           0.000001458   -0.000000882   -0.000000655
     21        6           0.000000170   -0.000000471    0.000001617
     22        1          -0.000000122    0.000000276    0.000000225
     23        1          -0.000000191   -0.000001322    0.000001727
     24        6           0.000000307   -0.000000068    0.000001971
     25        1           0.000000199   -0.000001484    0.000001702
     26        1          -0.000000103   -0.000001847    0.000000538
     27        8          -0.000000286   -0.000000056    0.000000311
     28        1          -0.000000488   -0.000000069    0.000000528
 -------------------------------------------------------------------
 Cartesian Forces:  Max     0.000009464 RMS     0.000001678
 IRC-IRC-IRC-IRC-IRC-IRC-IRC-IRC-IRC-IRC-IRC-IRC-IRC-IRC-IRC-IRC-IRC-IRC
          ******** Start new reaction path calculation ********
 Supplied step size of   0.1000 bohr.
    Integration on MW PES will use step size of   0.2952 sqrt(amu)*bohr.
 Point Number:   0          Path Number:   1
 Calculating another point on the path.
 IRC-IRC-IRC-IRC-IRC-IRC-IRC-IRC-IRC-IRC-IRC-IRC-IRC-IRC-IRC-IRC-IRC-IRC
                          Input orientation:                          
 ---------------------------------------------------------------------
 Center     Atomic      Atomic             Coordinates (Angstroms)
 Number     Number       Type             X           Y           Z
 ---------------------------------------------------------------------
      1         14           0       -1.010057    0.386191   -0.027299
      2          8           0       -0.332052    1.482886    1.178956
      3          8           0        0.012216    1.129356   -1.230884
      4          8           0       -1.350652   -0.863138   -1.189282
      5          8           0       -1.526476   -0.679366    1.254203
      6          8           0        1.138613   -0.947957    0.410651
      7          8           0       -2.471029    1.292521   -0.245853
      8          1           0       -2.463474    1.934520    0.460671
      9          6           0       -1.994733   -1.954159   -0.646501
     10          1           0       -3.094236   -1.863845   -0.760967
     11          1           0       -1.686239   -2.883911   -1.154151
     12          6           0       -1.634902   -1.992863    0.844715
     13          1           0       -2.414735   -2.521011    1.422422
     14          1           0       -0.675456   -2.514373    0.978209
     15          6           0        0.814324    2.117406    0.737559
     16          1           0        0.920406    3.110297    1.209653
     17          1           0        1.706556    1.521016    0.974870
     18          6           0        0.675927    2.249125   -0.783865
     19          1           0        0.105533    3.171686   -1.023955
     20          1           0        1.663635    2.339796   -1.265800
     21          6           0        1.851721   -1.312529   -0.681587
     22          1           0        1.408735   -0.972841   -1.634554
     23          1           0        1.973884   -2.426886   -0.770090
     24          6           0        3.281165   -0.710587   -0.545512
     25          1           0        4.036980   -1.290084   -1.098270
     26          1           0        3.282909    0.320354   -0.937988
     27          8           0        3.584185   -0.709149    0.830733
     28          1           0        2.632204   -0.742692    1.153853
 ---------------------------------------------------------------------
                    Distance matrix (angstroms):
                    1          2          3          4          5
     1  Si   0.000000
     2  O    1.765639   0.000000
     3  O    1.745266   2.459844   0.000000
     4  O    1.739837   3.485674   2.414368   0.000000
     5  O    1.744806   2.471365   3.437253   2.456686   0.000000
     6  O    2.566814   2.943153   2.877262   2.960307   2.808278
     7  O    1.733101   2.577119   2.676456   2.606179   2.651544
     8  H    2.178958   2.294094   3.104624   3.433308   2.887915
     9  C    2.613473   4.232031   3.725240   1.378324   2.336031
    10  H    3.153527   4.753269   4.339368   2.055468   2.814564
    11  H    3.524286   5.132848   4.358549   2.048750   3.268901
    12  C    2.609740   3.726924   4.095041   2.343975   1.380113
    13  H    3.539299   4.519738   5.123993   3.271362   2.051575
    14  H    3.088086   4.017002   4.316219   2.807219   2.041485
    15  C    2.628778   1.382616   2.344011   4.157340   3.683504
    16  H    3.560546   2.053792   3.271874   5.167280   4.511182
    17  H    3.110009   2.049153   2.808832   4.440075   3.920741
    18  C    2.624015   2.335768   1.376306   3.735982   4.192894
    19  H    3.161779   2.810044   2.054906   4.292740   4.762779
    20  H    3.535404   3.270152   2.047820   4.398928   5.063848
    21  C    3.391683   4.005600   3.106173   3.273362   3.944667
    22  H    3.206367   4.120288   2.555865   2.797234   4.128742
    23  H    4.167619   4.939883   4.087460   3.697779   4.405010
    24  C    4.459377   4.565134   3.813286   4.678829   5.133553
    25  H    5.424892   5.653633   4.697872   5.405288   6.071174
    26  H    4.388991   4.347514   3.381967   4.788913   5.379157
    27  O    4.800317   4.501466   4.515454   5.334491   5.128263
    28  H    3.991936   3.706837   4.006977   4.622545   4.160373
                    6          7          8          9         10
     6  O    0.000000
     7  O    4.298867   0.000000
     8  H    4.613698   0.954670   0.000000
     9  C    3.456570   3.305800   4.070304   0.000000
    10  H    4.486485   3.258278   4.039533   1.109128   0.000000
    11  H    3.765144   4.345514   5.140916   1.103320   1.782578
    12  C    2.995434   3.561208   4.032166   1.534504   2.173595
    13  H    4.015528   4.162853   4.558409   2.185902   2.379239
    14  H    2.463052   4.383475   4.822603   2.166567   3.049330
    15  C    3.099756   3.527191   3.294552   5.136543   5.776918
    16  H    4.141913   4.113957   3.659792   6.131237   6.689004
    17  H    2.595522   4.358278   4.221912   5.329656   6.125195
    18  C    3.444166   3.332848   3.391708   4.981856   5.579531
    19  H    4.482947   3.282587   3.214731   5.552286   5.971956
    20  H    3.727661   4.385490   4.491991   5.674966   6.368892
    21  C    1.354407   5.065799   5.519872   3.899760   4.977222
    22  H    2.063117   4.702438   5.276051   3.677340   4.672663
    23  H    2.068589   5.819456   6.342459   3.998583   5.099307
    24  C    2.358203   6.098358   6.403895   5.421418   6.482450
    25  H    3.285487   7.053414   7.421878   6.084953   7.162207
    26  H    2.832922   5.876390   6.130473   5.754293   6.743147
    27  O    2.492854   6.467715   6.610606   5.903948   6.961906
    28  H    1.680861   5.669590   5.797749   5.110526   6.141305
                   11         12         13         14         15
    11  H    0.000000
    12  C    2.189079   0.000000
    13  H    2.702060   1.104910   0.000000
    14  H    2.388555   1.100150   1.795121   0.000000
    15  C    5.902928   4.785865   5.693046   4.871420   0.000000
    16  H    6.950734   5.718831   6.548287   5.851261   1.104517
    17  H    5.953753   4.850735   5.789933   4.685975   1.099125
    18  C    5.662596   5.097712   6.097056   5.255668   1.533374
    19  H    6.316459   5.761390   6.689044   6.078641   2.171824
    20  H    6.206548   5.840081   6.891087   5.836941   2.187289
    21  C    3.899964   3.866392   4.908149   3.253609   3.854170
    22  H    3.669038   4.055976   5.134282   3.680584   3.940796
    23  H    3.708487   3.977349   4.906725   3.175406   4.926275
    24  C    5.456087   5.267321   6.292350   4.607626   3.965995
    25  H    5.941266   6.036500   7.035175   5.293175   5.036544
    26  H    5.916627   5.719604   6.790290   5.232222   3.482925
    27  O    6.037113   5.374662   6.294441   4.628728   3.958564
    28  H    5.344216   4.457206   5.357811   3.756370   3.414403
                   16         17         18         19         20
    16  H    0.000000
    17  H    1.788566   0.000000
    18  C    2.185292   2.164599   0.000000
    19  H    2.378401   3.046848   1.110906   0.000000
    20  H    2.697022   2.385968   1.102746   1.782754   0.000000
    21  C    4.899543   3.285407   3.752110   4.824373   3.703533
    22  H    5.000000   3.621756   3.412000   4.387285   3.342831
    23  H    5.974077   4.324614   4.852830   5.907554   4.802420
    24  C    4.822130   3.125861   3.950186   5.038411   3.527046
    25  H    5.865398   4.198937   4.890964   5.947200   4.340146
    26  H    4.239996   2.754180   3.246577   4.270035   2.609148
    27  O    4.671987   2.918887   4.451547   5.531886   4.168936
    28  H    4.216501   2.452189   4.066046   5.142885   4.036654
                   21         22         23         24         25
    21  C    0.000000
    22  H    1.104433   0.000000
    23  H    1.124521   1.783519   0.000000
    24  C    1.556972   2.181922   2.169125   0.000000
    25  H    2.224744   2.701096   2.378316   1.101188   0.000000
    26  H    2.186401   2.381195   3.047797   1.103123   1.785448
    27  O    2.377522   3.298448   2.847162   1.409211   2.064840
    28  H    2.074296   3.053696   2.640351   1.819346   2.710183
                   26         27         28
    26  H    0.000000
    27  O    2.068579   0.000000
    28  H    2.435012   1.005883   0.000000
 Symmetry turned off by external request.
 Stoichiometry    C6H14O7Si(2-)
 Framework group  C1[X(C6H14O7Si)]
 Deg. of freedom    78
 Full point group                 C1      NOp   1
 Rotational constants (GHZ):           0.8562957           0.5498550           0.4266875
 Standard basis: def2TZVPP (5D, 7F)
   641 basis functions,   970 primitive gaussians,   726 cartesian basis functions
    61 alpha electrons       61 beta electrons
       nuclear repulsion energy      1244.8107623315 Hartrees.
 NAtoms=   28 NActive=   28 NUniq=   28 SFac= 1.00D+00 NAtFMM=   60 NAOKFM=F Big=F
 Integral buffers will be    131072 words long.
 Raffenetti 2 integral format.
 Two-electron integral symmetry is turned off.
 Nuclear repulsion after empirical dispersion term =     1244.7908614848 Hartrees.
 One-electron integrals computed using PRISM.
   1 Symmetry operations used in ECPInt.
 ECPInt:  NShTT=   29161 NPrTT=   80163 LenC2=   27112 LenP2D=   56390.
 LDataN:  DoStor=T MaxTD1= 6 Len=  172
 NBasis=   641 RedAO= T EigKep=  2.13D-04  NBF=   641
 NBsUse=   641 1.00D-06 EigRej= -1.00D+00 NBFU=   641
 Initial guess from the checkpoint file:  "IRC_depEGattPL2_reverse.chk"
 B after Tr=     0.057563   -0.021916   -0.019074
         Rot=    1.000000   -0.000013    0.000015    0.000002 Ang=  -0.00 deg.
 ExpMin= 7.01D-02 ExpMax= 4.48D+04 ExpMxC= 1.53D+03 IAcc=3 IRadAn=         5 AccDes= 0.00D+00
 Harris functional with IExCor= 4639 and IRadAn=       5 diagonalized for initial guess.
 HarFok:  IExCor= 4639 AccDes= 0.00D+00 IRadAn=         5 IDoV= 1 UseB2=F ITyADJ=14
 ICtDFT=  3500011 ScaDFX=  1.000000  1.000000  1.000000  1.000000
 FoFCou: FMM=F IPFlag=           0 FMFlag=      100000 FMFlg1=           0
         NFxFlg=           0 DoJE=T BraDBF=F KetDBF=T FulRan=T
         wScrn=  0.000000 ICntrl=       500 IOpCl=  0 I1Cent=   200000004 NGrid=           0
         NMat0=    1 NMatS0=      1 NMatT0=    0 NMatD0=    1 NMtDS0=    0 NMtDT0=    0
 Symmetry not used in FoFCou.
 Requested convergence on RMS density matrix=1.00D-08 within 128 cycles.
 Requested convergence on MAX density matrix=1.00D-06.
 Requested convergence on             energy=1.00D-06.
 No special actions if energy rises.
 Integral accuracy reduced to 1.0D-05 until final iterations.
 Initial convergence to 1.0D-05 achieved.  Increase integral accuracy.
 SCF Done:  E(RwB97XD) =  -1053.33010035     A.U. after   11 cycles
            NFock= 11  Conv=0.42D-08     -V/T= 2.0037
 DoSCS=F DFT=T ScalE2(SS,OS)=  1.000000  1.000000
 Range of M.O.s used for correlation:     1   641
 NBasis=   641 NAE=    61 NBE=    61 NFC=     0 NFV=     0
 NROrb=    641 NOA=    61 NOB=    61 NVA=   580 NVB=   580

 **** Warning!!: The largest alpha MO coefficient is  0.12933032D+02

 Symmetrizing basis deriv contribution to polar:
 IMax=3 JMax=2 DiffMx= 0.00D+00
   1 Symmetry operations used in ECPInt.
 ECPInt:  NShTT=   29161 NPrTT=   80163 LenC2=   27112 LenP2D=   56390.
 LDataN:  DoStor=T MaxTD1= 7 Len=  274
 Calling FoFJK, ICntrl=      2127 FMM=F ISym2X=0 I1Cent= 0 IOpClX= 0 NMat=1 NMatS=1 NMatT=0.
 -------------------------------------------------------------------
 Center     Atomic                   Forces (Hartrees/Bohr)
 Number     Number              X              Y              Z
 -------------------------------------------------------------------
      1       14          -0.000111572    0.000061381   -0.000011803
      2        8          -0.000094214    0.000065148   -0.000018151
      3        8          -0.000050666   -0.000005009    0.000029907
      4        8          -0.000108726    0.000041066   -0.000002784
      5        8          -0.000035410    0.000043332   -0.000023350
      6        8           0.000148592   -0.000183971    0.000057486
      7        8          -0.000142905    0.000108612    0.000006773
      8        1          -0.000004729   -0.000010243   -0.000027883
      9        6          -0.000000782    0.000012191   -0.000005717
     10        1           0.000006506   -0.000005756    0.000001454
     11        1           0.000002178    0.000007781    0.000001209
     12        6           0.000015660    0.000037486   -0.000003374
     13        1           0.000004601    0.000000846    0.000001007
     14        1          -0.000001820    0.000004549    0.000000649
     15        6          -0.000029196   -0.000054737    0.000019995
     16        1           0.000002963   -0.000009449    0.000000579
     17        1          -0.000018961    0.000011115    0.000003206
     18        6           0.000011277   -0.000055359    0.000005196
     19        1           0.000012771   -0.000009078    0.000000586
     20        1          -0.000006862   -0.000011084    0.000005685
     21        6           0.000117938   -0.000070267   -0.000020930
     22        1           0.000009027   -0.000010169    0.000031380
     23        1           0.000005887    0.000025215   -0.000001692
     24        6           0.000106909    0.000008755   -0.000008605
     25        1           0.000004426    0.000003218    0.000000045
     26        1           0.000006385   -0.000006924   -0.000002043
     27        8           0.000136378    0.000009213   -0.000030309
     28        1           0.000014344   -0.000007862   -0.000008517
 -------------------------------------------------------------------
 Cartesian Forces:  Max     0.000183971 RMS     0.000049545
 IRC-IRC-IRC-IRC-IRC-IRC-IRC-IRC-IRC-IRC-IRC-IRC-IRC-IRC-IRC-IRC-IRC-IRC
 Pt  1 Step number   1 out of a maximum of 100
 Modified Bulirsch-Stoer Extrapolation Cycles:
    EPS =    0.000010000000000
      PEZero:  N= 2 I= 1 D=  7.69D-04 Err=  3.19D-03
      PEZero:  N= 3 I= 2 D=  7.69D-04 Err=  5.02D-03
      PEZero:  N= 3 I= 1 D=  1.54D-03 Err=  4.34D-03
      PEZero:  N= 4 I= 3 D=  3.84D-04 Err=  8.48D-03
      PEZero:  N= 4 I= 2 D=  1.15D-03 Err=  6.29D-03
      PEZero:  N= 4 I= 1 D=  1.92D-03 Err=  4.94D-03
      PEZero:  N= 5 I= 4 D=  3.84D-04 Err=  1.22D-02
      PEZero:  N= 5 I= 3 D=  7.69D-04 Err=  9.81D-03
      PEZero:  N= 5 I= 2 D=  1.54D-03 Err=  6.66D-03
      PEZero:  N= 5 I= 1 D=  2.31D-03 Err=  5.01D-03
      PEZero:  N= 6 I= 5 D=  1.92D-04 Err=  1.95D-02
      PEZero:  N= 6 I= 4 D=  5.77D-04 Err=  1.38D-02
      PEZero:  N= 6 I= 3 D=  9.61D-04 Err=  1.07D-02
      PEZero:  N= 6 I= 2 D=  1.73D-03 Err=  7.26D-03
      PEZero:  N= 6 I= 1 D=  2.50D-03 Err=  5.54D-03
      PEZero:  N= 7 I= 6 D=  1.92D-04 Err=  2.87D-02
      PEZero:  N= 7 I= 5 D=  3.84D-04 Err=  2.36D-02
      PEZero:  N= 7 I= 4 D=  7.69D-04 Err=  1.67D-02
      PEZero:  N= 7 I= 3 D=  1.15D-03 Err=  1.31D-02
      PEZero:  N= 7 I= 2 D=  1.92D-03 Err=  9.06D-03
      PEZero:  N= 7 I= 1 D=  2.69D-03 Err=  6.98D-03
      PEZero:  N= 8 I= 7 D=  9.61D-05 Err=  4.43D-02
      PEZero:  N= 8 I= 6 D=  2.88D-04 Err=  3.04D-02
      PEZero:  N= 8 I= 5 D=  4.80D-04 Err=  2.23D-02
      PEZero:  N= 8 I= 4 D=  8.65D-04 Err=  1.43D-02
      PEZero:  N= 8 I= 3 D=  1.25D-03 Err=  1.01D-02
      PEZero:  N= 8 I= 2 D=  2.02D-03 Err=  6.42D-03
      PEZero:  N= 8 I= 1 D=  2.79D-03 Err=  4.59D-03
      PEZero:  N= 9 I= 8 D=  9.61D-05 Err=  1.11D-02
      PEZero:  N= 9 I= 7 D=  1.92D-04 Err=  2.76D-02
      PEZero:  N=10 I= 9 D=  4.80D-05 Err=  6.15D-05
      PEZero:  N=10 I= 8 D=  1.44D-04 Err=  1.10D-02
      PEZero:  N=11 I=10 D=  4.80D-05 Err=  4.00D-05
      PEZero:  N=11 I= 9 D=  9.61D-05 Err=  1.45D-06
      PEZero:  N=11 I= 8 D=  1.92D-04 Err=  1.52D-02
 Maximum DWI energy   std dev =  0.000000452 at pt   331
 Maximum DWI gradient std dev =  0.343720602 at pt     2
 CORRECTOR INTEGRATION CONVERGENCE:
   Recorrection delta-x convergence threshold:    0.010000
   Delta-x Convergence Met
 Point Number:   1          Path Number:   1
   CHANGE IN THE REACTION COORDINATE =    0.29502
   NET REACTION COORDINATE UP TO THIS POINT =    0.29502
  # OF POINTS ALONG THE PATH =   1
  # OF STEPS =   1

 PES minimum detected on this side of the pathway.
    Magnitude of the gradient =      0.0001106
 Calculation of REVERSE path complete.
 Reaction path calculation complete.
 
 Energies reported relative to the TS energy of       -1053.330082
 --------------------------------------------------------------------------
    Summary of reaction path following
 --------------------------------------------------------------------------
                        Energy    RxCoord
   1                   -0.00002  -0.29502
   2                    0.00000   0.00000
 --------------------------------------------------------------------------
 
 Total number of points:                    1
 Total number of gradient calculations:     2
 Total number of Hessian calculations:      1
 IRC-IRC-IRC-IRC-IRC-IRC-IRC-IRC-IRC-IRC-IRC-IRC-IRC-IRC-IRC-IRC-IRC-IRC
                          Input orientation:                          
 ---------------------------------------------------------------------
 Center     Atomic      Atomic             Coordinates (Angstroms)
 Number     Number       Type             X           Y           Z
 ---------------------------------------------------------------------
      1         14           0       -1.010057    0.386191   -0.027299
      2          8           0       -0.332052    1.482886    1.178956
      3          8           0        0.012216    1.129356   -1.230884
      4          8           0       -1.350652   -0.863138   -1.189282
      5          8           0       -1.526476   -0.679366    1.254203
      6          8           0        1.138613   -0.947957    0.410651
      7          8           0       -2.471029    1.292521   -0.245853
      8          1           0       -2.463474    1.934520    0.460671
      9          6           0       -1.994733   -1.954159   -0.646501
     10          1           0       -3.094236   -1.863845   -0.760967
     11          1           0       -1.686239   -2.883911   -1.154151
     12          6           0       -1.634902   -1.992863    0.844715
     13          1           0       -2.414735   -2.521011    1.422422
     14          1           0       -0.675456   -2.514373    0.978209
     15          6           0        0.814324    2.117406    0.737559
     16          1           0        0.920406    3.110297    1.209653
     17          1           0        1.706556    1.521016    0.974870
     18          6           0        0.675927    2.249125   -0.783865
     19          1           0        0.105533    3.171686   -1.023955
     20          1           0        1.663635    2.339796   -1.265800
     21          6           0        1.851721   -1.312529   -0.681587
     22          1           0        1.408735   -0.972841   -1.634554
     23          1           0        1.973884   -2.426886   -0.770090
     24          6           0        3.281165   -0.710587   -0.545512
     25          1           0        4.036980   -1.290084   -1.098270
     26          1           0        3.282909    0.320354   -0.937988
     27          8           0        3.584185   -0.709149    0.830733
     28          1           0        2.632204   -0.742692    1.153853
 ---------------------------------------------------------------------
                    Distance matrix (angstroms):
                    1          2          3          4          5
     1  Si   0.000000
     2  O    1.765639   0.000000
     3  O    1.745266   2.459844   0.000000
     4  O    1.739837   3.485674   2.414368   0.000000
     5  O    1.744806   2.471365   3.437253   2.456686   0.000000
     6  O    2.566814   2.943153   2.877262   2.960307   2.808278
     7  O    1.733101   2.577119   2.676456   2.606179   2.651544
     8  H    2.178958   2.294094   3.104624   3.433308   2.887915
     9  C    2.613473   4.232031   3.725240   1.378324   2.336031
    10  H    3.153527   4.753269   4.339368   2.055468   2.814564
    11  H    3.524286   5.132848   4.358549   2.048750   3.268901
    12  C    2.609740   3.726924   4.095041   2.343975   1.380113
    13  H    3.539299   4.519738   5.123993   3.271362   2.051575
    14  H    3.088086   4.017002   4.316219   2.807219   2.041485
    15  C    2.628778   1.382616   2.344011   4.157340   3.683504
    16  H    3.560546   2.053792   3.271874   5.167280   4.511182
    17  H    3.110009   2.049153   2.808832   4.440075   3.920741
    18  C    2.624015   2.335768   1.376306   3.735982   4.192894
    19  H    3.161779   2.810044   2.054906   4.292740   4.762779
    20  H    3.535404   3.270152   2.047820   4.398928   5.063848
    21  C    3.391683   4.005600   3.106173   3.273362   3.944667
    22  H    3.206367   4.120288   2.555865   2.797234   4.128742
    23  H    4.167619   4.939883   4.087460   3.697779   4.405010
    24  C    4.459377   4.565134   3.813286   4.678829   5.133553
    25  H    5.424892   5.653633   4.697872   5.405288   6.071174
    26  H    4.388991   4.347514   3.381967   4.788913   5.379157
    27  O    4.800317   4.501466   4.515454   5.334491   5.128263
    28  H    3.991936   3.706837   4.006977   4.622545   4.160373
                    6          7          8          9         10
     6  O    0.000000
     7  O    4.298867   0.000000
     8  H    4.613698   0.954670   0.000000
     9  C    3.456570   3.305800   4.070304   0.000000
    10  H    4.486485   3.258278   4.039533   1.109128   0.000000
    11  H    3.765144   4.345514   5.140916   1.103320   1.782578
    12  C    2.995434   3.561208   4.032166   1.534504   2.173595
    13  H    4.015528   4.162853   4.558409   2.185902   2.379239
    14  H    2.463052   4.383475   4.822603   2.166567   3.049330
    15  C    3.099756   3.527191   3.294552   5.136543   5.776918
    16  H    4.141913   4.113957   3.659792   6.131237   6.689004
    17  H    2.595522   4.358278   4.221912   5.329656   6.125195
    18  C    3.444166   3.332848   3.391708   4.981856   5.579531
    19  H    4.482947   3.282587   3.214731   5.552286   5.971956
    20  H    3.727661   4.385490   4.491991   5.674966   6.368892
    21  C    1.354407   5.065799   5.519872   3.899760   4.977222
    22  H    2.063117   4.702438   5.276051   3.677340   4.672663
    23  H    2.068589   5.819456   6.342459   3.998583   5.099307
    24  C    2.358203   6.098358   6.403895   5.421418   6.482450
    25  H    3.285487   7.053414   7.421878   6.084953   7.162207
    26  H    2.832922   5.876390   6.130473   5.754293   6.743147
    27  O    2.492854   6.467715   6.610606   5.903948   6.961906
    28  H    1.680861   5.669590   5.797749   5.110526   6.141305
                   11         12         13         14         15
    11  H    0.000000
    12  C    2.189079   0.000000
    13  H    2.702060   1.104910   0.000000
    14  H    2.388555   1.100150   1.795121   0.000000
    15  C    5.902928   4.785865   5.693046   4.871420   0.000000
    16  H    6.950734   5.718831   6.548287   5.851261   1.104517
    17  H    5.953753   4.850735   5.789933   4.685975   1.099125
    18  C    5.662596   5.097712   6.097056   5.255668   1.533374
    19  H    6.316459   5.761390   6.689044   6.078641   2.171824
    20  H    6.206548   5.840081   6.891087   5.836941   2.187289
    21  C    3.899964   3.866392   4.908149   3.253609   3.854170
    22  H    3.669038   4.055976   5.134282   3.680584   3.940796
    23  H    3.708487   3.977349   4.906725   3.175406   4.926275
    24  C    5.456087   5.267321   6.292350   4.607626   3.965995
    25  H    5.941266   6.036500   7.035175   5.293175   5.036544
    26  H    5.916627   5.719604   6.790290   5.232222   3.482925
    27  O    6.037113   5.374662   6.294441   4.628728   3.958564
    28  H    5.344216   4.457206   5.357811   3.756370   3.414403
                   16         17         18         19         20
    16  H    0.000000
    17  H    1.788566   0.000000
    18  C    2.185292   2.164599   0.000000
    19  H    2.378401   3.046848   1.110906   0.000000
    20  H    2.697022   2.385968   1.102746   1.782754   0.000000
    21  C    4.899543   3.285407   3.752110   4.824373   3.703533
    22  H    5.000000   3.621756   3.412000   4.387285   3.342831
    23  H    5.974077   4.324614   4.852830   5.907554   4.802420
    24  C    4.822130   3.125861   3.950186   5.038411   3.527046
    25  H    5.865398   4.198937   4.890964   5.947200   4.340146
    26  H    4.239996   2.754180   3.246577   4.270035   2.609148
    27  O    4.671987   2.918887   4.451547   5.531886   4.168936
    28  H    4.216501   2.452189   4.066046   5.142885   4.036654
                   21         22         23         24         25
    21  C    0.000000
    22  H    1.104433   0.000000
    23  H    1.124521   1.783519   0.000000
    24  C    1.556972   2.181922   2.169125   0.000000
    25  H    2.224744   2.701096   2.378316   1.101188   0.000000
    26  H    2.186401   2.381195   3.047797   1.103123   1.785448
    27  O    2.377522   3.298448   2.847162   1.409211   2.064840
    28  H    2.074296   3.053696   2.640351   1.819346   2.710183
                   26         27         28
    26  H    0.000000
    27  O    2.068579   0.000000
    28  H    2.435012   1.005883   0.000000
 Symmetry turned off by external request.
 Stoichiometry    C6H14O7Si(2-)
 Framework group  C1[X(C6H14O7Si)]
 Deg. of freedom    78
 Full point group                 C1      NOp   1
 Rotational constants (GHZ):           0.8562957           0.5498550           0.4266875

 **********************************************************************

            Population analysis using the SCF Density.

 **********************************************************************

 Alpha  occ. eigenvalues --  -65.99543 -18.94742 -18.91626 -18.91611 -18.91586
 Alpha  occ. eigenvalues --  -18.91126 -18.91100 -18.85497 -10.04567 -10.04469
 Alpha  occ. eigenvalues --  -10.04100 -10.03822 -10.03548 -10.01196  -5.10337
 Alpha  occ. eigenvalues --   -3.45016  -3.44858  -3.44751  -0.83772  -0.83227
 Alpha  occ. eigenvalues --   -0.81591  -0.77433  -0.76173  -0.75818  -0.72156
 Alpha  occ. eigenvalues --   -0.53658  -0.51631  -0.50820  -0.41745  -0.39430
 Alpha  occ. eigenvalues --   -0.38159  -0.33000  -0.29943  -0.29680  -0.28216
 Alpha  occ. eigenvalues --   -0.27973  -0.27753  -0.26252  -0.24870  -0.24008
 Alpha  occ. eigenvalues --   -0.23033  -0.21832  -0.20301  -0.19671  -0.18135
 Alpha  occ. eigenvalues --   -0.17134  -0.14943  -0.13945  -0.11948  -0.10445
 Alpha  occ. eigenvalues --   -0.09989  -0.09613  -0.08066  -0.07551  -0.07409
 Alpha  occ. eigenvalues --   -0.06662  -0.04760  -0.03870  -0.02385  -0.00201
 Alpha  occ. eigenvalues --    0.01372
 Alpha virt. eigenvalues --    0.35916   0.36442   0.37410   0.38901   0.39433
 Alpha virt. eigenvalues --    0.40189   0.40820   0.41207   0.42745   0.43461
 Alpha virt. eigenvalues --    0.44524   0.45730   0.46790   0.47885   0.48233
 Alpha virt. eigenvalues --    0.49396   0.50171   0.51345   0.51989   0.52147
 Alpha virt. eigenvalues --    0.52621   0.54174   0.54385   0.55271   0.55684
 Alpha virt. eigenvalues --    0.56500   0.57437   0.58014   0.59009   0.61815
 Alpha virt. eigenvalues --    0.62470   0.64446   0.64761   0.65265   0.66371
 Alpha virt. eigenvalues --    0.68084   0.68521   0.69039   0.69762   0.69926
 Alpha virt. eigenvalues --    0.70349   0.71451   0.72417   0.72832   0.73833
 Alpha virt. eigenvalues --    0.74158   0.74420   0.74631   0.75253   0.75909
 Alpha virt. eigenvalues --    0.76666   0.77265   0.77439   0.78205   0.78569
 Alpha virt. eigenvalues --    0.78734   0.79927   0.80113   0.80763   0.81309
 Alpha virt. eigenvalues --    0.81866   0.81938   0.82439   0.84722   0.85581
 Alpha virt. eigenvalues --    0.85959   0.86122   0.87172   0.88436   0.88786
 Alpha virt. eigenvalues --    0.89791   0.90922   0.92025   0.92415   0.93771
 Alpha virt. eigenvalues --    0.94294   0.95709   0.96200   0.97532   0.99074
 Alpha virt. eigenvalues --    0.99205   0.99868   1.02434   1.03373   1.03880
 Alpha virt. eigenvalues --    1.05150   1.06064   1.07493   1.07800   1.08509
 Alpha virt. eigenvalues --    1.10097   1.11108   1.12112   1.13231   1.14418
 Alpha virt. eigenvalues --    1.15569   1.15956   1.16680   1.17965   1.19404
 Alpha virt. eigenvalues --    1.19660   1.20479   1.20825   1.21513   1.23613
 Alpha virt. eigenvalues --    1.24049   1.24245   1.25447   1.27715   1.28966
 Alpha virt. eigenvalues --    1.29804   1.30869   1.31859   1.33035   1.33509
 Alpha virt. eigenvalues --    1.33671   1.34637   1.34961   1.36390   1.36713
 Alpha virt. eigenvalues --    1.36853   1.38493   1.40495   1.41196   1.41893
 Alpha virt. eigenvalues --    1.42669   1.43502   1.44075   1.44476   1.45691
 Alpha virt. eigenvalues --    1.46406   1.47269   1.48091   1.48315   1.49620
 Alpha virt. eigenvalues --    1.50512   1.51209   1.52123   1.52944   1.53345
 Alpha virt. eigenvalues --    1.54280   1.55610   1.56888   1.57351   1.58711
 Alpha virt. eigenvalues --    1.59080   1.59348   1.61285   1.61750   1.62339
 Alpha virt. eigenvalues --    1.63652   1.64467   1.66324   1.67112   1.68143
 Alpha virt. eigenvalues --    1.69061   1.70174   1.70262   1.71502   1.72538
 Alpha virt. eigenvalues --    1.72804   1.73337   1.75128   1.75349   1.76447
 Alpha virt. eigenvalues --    1.77507   1.77848   1.78370   1.79166   1.80938
 Alpha virt. eigenvalues --    1.82149   1.82332   1.83659   1.84772   1.86964
 Alpha virt. eigenvalues --    1.87337   1.87944   1.88940   1.89387   1.91368
 Alpha virt. eigenvalues --    1.92524   1.93667   1.94302   1.95527   1.97313
 Alpha virt. eigenvalues --    1.97554   2.00043   2.01673   2.03597   2.04434
 Alpha virt. eigenvalues --    2.06363   2.08469   2.11770   2.13147   2.16508
 Alpha virt. eigenvalues --    2.17734   2.22152   2.22649   2.24182   2.26210
 Alpha virt. eigenvalues --    2.27173   2.27961   2.28822   2.29583   2.31184
 Alpha virt. eigenvalues --    2.33221   2.34133   2.35616   2.36418   2.38422
 Alpha virt. eigenvalues --    2.39292   2.40278   2.42130   2.43144   2.44660
 Alpha virt. eigenvalues --    2.45263   2.46013   2.48341   2.48632   2.49623
 Alpha virt. eigenvalues --    2.50457   2.52894   2.54662   2.55712   2.57766
 Alpha virt. eigenvalues --    2.58478   2.60506   2.61474   2.62075   2.63160
[...]
 Alpha virt. eigenvalues --    3.33455   3.34583   3.34841   3.36474   3.36639
 Alpha virt. eigenvalues --    3.37825   3.38260   3.38918   3.40191   3.41287
 Alpha virt. eigenvalues --    3.41468   3.42600   3.44281   3.46389   3.46803
 Alpha virt. eigenvalues --    3.47391   3.48125   3.49375   3.50483   3.51222
 Alpha virt. eigenvalues --    3.51872   3.52956   3.53319   3.54577   3.55850
 Alpha virt. eigenvalues --    3.57202   3.58222   3.58497   3.59537   3.60520
 Alpha virt. eigenvalues --    3.61795   3.62225   3.63424   3.65752   3.65909
 Alpha virt. eigenvalues --    3.67535   3.69083   3.70188   3.72264   3.73230
 Alpha virt. eigenvalues --    3.74255   3.75338   3.77296   3.77779   3.78285
 Alpha virt. eigenvalues --    3.80622   3.82120   3.82863   3.84915   3.85487
 Alpha virt. eigenvalues --    3.86798   3.88431   3.89813   3.90775   3.92264
 Alpha virt. eigenvalues --    3.93057   3.93458   3.93967   3.95042   3.95742
 Alpha virt. eigenvalues --    3.96732   3.99315   4.00213   4.02161   4.02816
 Alpha virt. eigenvalues --    4.03691   4.04999   4.05428   4.05973   4.07074
 Alpha virt. eigenvalues --    4.08336   4.08975   4.09727   4.10101   4.10874
 Alpha virt. eigenvalues --    4.12131   4.12986   4.13173   4.14948   4.16108
 Alpha virt. eigenvalues --    4.16744   4.17993   4.18532   4.20257   4.20431
 Alpha virt. eigenvalues --    4.21922   4.25281   4.26217   4.27180   4.28523
 Alpha virt. eigenvalues --    4.30968   4.31297   4.32105   4.33473   4.35265
 Alpha virt. eigenvalues --    4.36127   4.36725   4.37905   4.39089   4.41514
 Alpha virt. eigenvalues --    4.42251   4.42696   4.44006   4.44885   4.46166
 Alpha virt. eigenvalues --    4.47072   4.48939   4.49574   4.51202   4.52218
 Alpha virt. eigenvalues --    4.53363   4.54439   4.55468   4.55917   4.56812
 Alpha virt. eigenvalues --    4.58831   4.59431   4.60114   4.61976   4.63123
 Alpha virt. eigenvalues --    4.65528   4.66382   4.67815   4.67984   4.68560
 Alpha virt. eigenvalues --    4.69397   4.70768   4.71618   4.73220   4.74678
 Alpha virt. eigenvalues --    4.75420   4.78143   4.79095   4.84724   4.88155
 Alpha virt. eigenvalues --    4.89765   4.91125   4.92439   4.93767   4.95179
 Alpha virt. eigenvalues --    4.95248   4.96638   4.97560   4.98441   5.01438
 Alpha virt. eigenvalues --    5.03498   5.03904   5.06416   5.08165   5.11100
 Alpha virt. eigenvalues --    5.12014   5.13909   5.14417   5.15732   5.16404
 Alpha virt. eigenvalues --    5.17542   5.18808   5.20229   5.21546   5.22843
 Alpha virt. eigenvalues --    5.24497   5.25810   5.28155   5.28450   5.29700
 Alpha virt. eigenvalues --    5.30154   5.31912   5.32149   5.33742   5.36980
 Alpha virt. eigenvalues --    5.39392   5.42147   5.43295   5.44508   5.45819
 Alpha virt. eigenvalues --    5.46328   5.48161   5.49277   5.51039   5.52246
 Alpha virt. eigenvalues --    5.53511   5.55786   5.56006   5.59338   5.60734
 Alpha virt. eigenvalues --    5.63811   5.64766   5.65839   5.67888   5.68709
 Alpha virt. eigenvalues --    5.69441   5.70764   5.71358   5.75296   5.78220
 Alpha virt. eigenvalues --    5.79691   5.80779   5.82689   5.84616   5.85178
 Alpha virt. eigenvalues --    5.85828   5.86789   5.88507   5.90467   5.90926
 Alpha virt. eigenvalues --    5.92400   5.93147   5.94082   5.94840   5.96928
 Alpha virt. eigenvalues --    5.97555   5.99988   6.00560   6.02283   6.03141
 Alpha virt. eigenvalues --    6.05127   6.05507   6.07450   6.10345   6.10711
 Alpha virt. eigenvalues --    6.11725   6.13664   6.20742   6.25831   6.31384
 Alpha virt. eigenvalues --    6.37489   6.38059   6.38532   6.41319   6.42154
 Alpha virt. eigenvalues --    6.46503   6.48646   6.49745   6.51897   6.53164
 Alpha virt. eigenvalues --    6.54241   6.55631   6.58785   6.63940   6.67181
 Alpha virt. eigenvalues --    6.69151   6.73614   6.76774   6.88053   6.94113
 Alpha virt. eigenvalues --    6.95376   6.99345   7.00500   7.01376   7.05194
 Alpha virt. eigenvalues --    7.07057   7.08517   7.09196   7.11329   7.12950
 Alpha virt. eigenvalues --    7.14173   7.17081   7.18694   7.21541   7.22550
 Alpha virt. eigenvalues --    7.23487   7.27876   7.29517   7.32159   7.36329
 Alpha virt. eigenvalues --    7.39280   7.41137   7.44023   7.46425   7.49398
 Alpha virt. eigenvalues --    7.50791   7.51770   7.53589   7.55522   7.61827
 Alpha virt. eigenvalues --    7.63335   7.65638   7.67015   7.71385   7.76681
 Alpha virt. eigenvalues --    7.78804   7.86034   7.88902   7.92492   7.95255
 Alpha virt. eigenvalues --    8.05216  12.38853  23.64107  23.67950  23.69792
 Alpha virt. eigenvalues --   23.81171  23.82491  23.85912  44.25490  44.36961
 Alpha virt. eigenvalues --   44.55450  44.56801  44.63097  44.69173  44.79512
          Condensed to atoms (all electrons):
               1          2          3          4          5          6
     1  Si  11.536361   0.330583   0.340385   0.351095   0.365701   0.062534
     2  O    0.330583   8.135714  -0.026228   0.006111  -0.047905  -0.016763
     3  O    0.340385  -0.026228   8.059415  -0.047523   0.001525  -0.014006
     4  O    0.351095   0.006111  -0.047523   8.065301  -0.033998  -0.007307
     5  O    0.365701  -0.047905   0.001525  -0.033998   8.049904  -0.022015
     6  O    0.062534  -0.016763  -0.014006  -0.007307  -0.022015   8.471168
     7  O    0.478948  -0.068253  -0.044497  -0.035551  -0.048363   0.000104
     8  H   -0.061171   0.012368   0.000441   0.004736  -0.000849   0.000042
     9  C   -0.077910  -0.002262   0.000514   0.364304  -0.111357   0.003253
    10  H    0.006040  -0.000118   0.000400  -0.061436   0.011503  -0.000120
    11  H   -0.003241   0.000099  -0.000049  -0.047710   0.007400  -0.000854
    12  C   -0.036717   0.000856  -0.001362  -0.101947   0.379424  -0.008712
    13  H   -0.011432  -0.000318  -0.000057   0.006361  -0.046209   0.001707
    14  H   -0.007651   0.001134   0.000837   0.009904  -0.052788   0.027707
    15  C   -0.063394   0.363206  -0.097769  -0.000832   0.001406   0.027261
    16  H   -0.013935  -0.046944   0.005433  -0.000014  -0.000537   0.001895
    17  H    0.001021  -0.051585   0.010517   0.000273   0.000988   0.003071
    18  C   -0.031921  -0.114699   0.366709   0.002729  -0.002915  -0.003935
    19  H   -0.002047   0.013155  -0.062656   0.000578  -0.000008  -0.000498
    20  H   -0.002118   0.008484  -0.053618   0.000040   0.000120  -0.000012
    21  C   -0.033552   0.003242  -0.010582  -0.004603   0.000669   0.353124
    22  H   -0.010231   0.000745   0.014942   0.008262   0.000553  -0.077539
    23  H    0.004883  -0.000242   0.000360   0.000019  -0.000576  -0.057471
    24  C    0.004235  -0.001240   0.001197   0.001350  -0.000165  -0.113430
    25  H    0.000200  -0.000011  -0.000061   0.000005   0.000005   0.008074
    26  H   -0.002044  -0.000283  -0.000383  -0.000005   0.000007   0.008722
    27  O    0.000046   0.000050  -0.000118  -0.000019  -0.000024  -0.068964
    28  H    0.000242   0.001168  -0.000139   0.000135   0.000221   0.123803
               7          8          9         10         11         12
     1  Si   0.478948  -0.061171  -0.077910   0.006040  -0.003241  -0.036717
     2  O   -0.068253   0.012368  -0.002262  -0.000118   0.000099   0.000856
     3  O   -0.044497   0.000441   0.000514   0.000400  -0.000049  -0.001362
     4  O   -0.035551   0.004736   0.364304  -0.061436  -0.047710  -0.101947
     5  O   -0.048363  -0.000849  -0.111357   0.011503   0.007400   0.379424
     6  O    0.000104   0.000042   0.003253  -0.000120  -0.000854  -0.008712
     7  O    7.939693   0.305890  -0.004589   0.004931  -0.000698  -0.008381
     8  H    0.305890   0.616736  -0.000110  -0.000754   0.000098   0.000033
     9  C   -0.004589  -0.000110   4.901746   0.345399   0.337444   0.197021
    10  H    0.004931  -0.000754   0.345399   0.880950  -0.112465  -0.041124
    11  H   -0.000698   0.000098   0.337444  -0.112465   0.859182  -0.011759
    12  C   -0.008381   0.000033   0.197021  -0.041124  -0.011759   4.839105
    13  H   -0.000080   0.000066   0.016547  -0.030585   0.015692   0.284581
    14  H   -0.000352  -0.000089  -0.078535   0.019234  -0.018851   0.417718
    15  C   -0.008968   0.001896  -0.002344  -0.000073   0.000103   0.002824
    16  H    0.000096  -0.000626  -0.000098   0.000002   0.000000  -0.000032
    17  H   -0.000539   0.000547   0.000329  -0.000004   0.000001   0.000399
    18  C   -0.005270  -0.003068  -0.001890   0.000265  -0.000026  -0.001389
    19  H    0.006489   0.001775   0.000359  -0.000022   0.000000  -0.000117
    20  H   -0.000446   0.000055  -0.000032  -0.000000  -0.000002   0.000084
    21  C   -0.000322  -0.000032   0.002902  -0.000105   0.001355  -0.008826
    22  H    0.000184  -0.000046   0.001808   0.000200  -0.001679  -0.005083
    23  H    0.000001   0.000004  -0.005743   0.000081   0.001462   0.010533
    24  C    0.000007  -0.000002   0.000515   0.000033  -0.000353   0.000744
    25  H    0.000000  -0.000000  -0.000036   0.000000   0.000004   0.000067
    26  H   -0.000002   0.000000  -0.000041  -0.000000   0.000012   0.000026
    27  O    0.000000   0.000000  -0.000013  -0.000000   0.000005   0.000100
    28  H    0.000003  -0.000007   0.000023   0.000002   0.000007  -0.001019
              13         14         15         16         17         18
     1  Si  -0.011432  -0.007651  -0.063394  -0.013935   0.001021  -0.031921
     2  O   -0.000318   0.001134   0.363206  -0.046944  -0.051585  -0.114699
     3  O   -0.000057   0.000837  -0.097769   0.005433   0.010517   0.366709
     4  O    0.006361   0.009904  -0.000832  -0.000014   0.000273   0.002729
     5  O   -0.046209  -0.052788   0.001406  -0.000537   0.000988  -0.002915
     6  O    0.001707   0.027707   0.027261   0.001895   0.003071  -0.003935
     7  O   -0.000080  -0.000352  -0.008968   0.000096  -0.000539  -0.005270
     8  H    0.000066  -0.000089   0.001896  -0.000626   0.000547  -0.003068
     9  C    0.016547  -0.078535  -0.002344  -0.000098   0.000329  -0.001890
    10  H   -0.030585   0.019234  -0.000073   0.000002  -0.000004   0.000265
    11  H    0.015692  -0.018851   0.000103   0.000000   0.000001  -0.000026
    12  C    0.284581   0.417718   0.002824  -0.000032   0.000399  -0.001389
    13  H    0.896499  -0.094793  -0.000122  -0.000011   0.000022  -0.000057
    14  H   -0.094793   0.763459  -0.000286   0.000005  -0.000174   0.000451
    15  C   -0.000122  -0.000286   4.852439   0.302649   0.395518   0.220402
    16  H   -0.000011   0.000005   0.302649   0.888453  -0.091893   0.007232
    17  H    0.000022  -0.000174   0.395518  -0.091893   0.774053  -0.074165
    18  C   -0.000057   0.000451   0.220402   0.007232  -0.074165   4.859169
    19  H    0.000001   0.000005  -0.041923  -0.030775   0.020018   0.331897
    20  H   -0.000000  -0.000003  -0.026332   0.015934  -0.018406   0.358803
    21  C    0.000601   0.002699  -0.007621   0.000607  -0.002266   0.000661
    22  H    0.000009   0.003546   0.001440  -0.000172  -0.001950  -0.002377
    23  H   -0.000429  -0.008685   0.002168   0.000046  -0.000310  -0.000760
    24  C    0.000013   0.000187  -0.001285  -0.001049   0.009946   0.002068
    25  H   -0.000001  -0.000105  -0.000887   0.000013   0.001554   0.000521
    26  H   -0.000002  -0.000100   0.017733   0.000391  -0.018220  -0.011442
    27  O   -0.000001  -0.000191  -0.013751   0.000143   0.021865   0.002453
    28  H   -0.000004   0.000992   0.002375   0.000396  -0.008040   0.000025
              19         20         21         22         23         24
     1  Si  -0.002047  -0.002118  -0.033552  -0.010231   0.004883   0.004235
     2  O    0.013155   0.008484   0.003242   0.000745  -0.000242  -0.001240
     3  O   -0.062656  -0.053618  -0.010582   0.014942   0.000360   0.001197
     4  O    0.000578   0.000040  -0.004603   0.008262   0.000019   0.001350
     5  O   -0.000008   0.000120   0.000669   0.000553  -0.000576  -0.000165
     6  O   -0.000498  -0.000012   0.353124  -0.077539  -0.057471  -0.113430
     7  O    0.006489  -0.000446  -0.000322   0.000184   0.000001   0.000007
     8  H    0.001775   0.000055  -0.000032  -0.000046   0.000004  -0.000002
     9  C    0.000359  -0.000032   0.002902   0.001808  -0.005743   0.000515
    10  H   -0.000022  -0.000000  -0.000105   0.000200   0.000081   0.000033
    11  H    0.000000  -0.000002   0.001355  -0.001679   0.001462  -0.000353
    12  C   -0.000117   0.000084  -0.008826  -0.005083   0.010533   0.000744
    13  H    0.000001  -0.000000   0.000601   0.000009  -0.000429   0.000013
    14  H    0.000005  -0.000003   0.002699   0.003546  -0.008685   0.000187
    15  C   -0.041923  -0.026332  -0.007621   0.001440   0.002168  -0.001285
    16  H   -0.030775   0.015934   0.000607  -0.000172   0.000046  -0.001049
    17  H    0.020018  -0.018406  -0.002266  -0.001950  -0.000310   0.009946
    18  C    0.331897   0.358803   0.000661  -0.002377  -0.000760   0.002068
    19  H    0.896036  -0.104693  -0.000376   0.000765  -0.000002   0.000337
    20  H   -0.104693   0.835049   0.005758  -0.002162  -0.000039  -0.003771
    21  C   -0.000376   0.005758   4.710905   0.453892   0.253016   0.281158
    22  H    0.000765  -0.002162   0.453892   0.820211  -0.111226  -0.096111
    23  H   -0.000002  -0.000039   0.253016  -0.111226   1.051503  -0.085080
    24  C    0.000337  -0.003771   0.281158  -0.096111  -0.085080   5.009498
    25  H   -0.000008  -0.000052  -0.001548   0.004076  -0.006657   0.339626
    26  H   -0.000108   0.003188  -0.071686  -0.009164   0.024682   0.382152
    27  O   -0.000028  -0.000478  -0.064638   0.003598   0.009280   0.316654
    28  H   -0.000030   0.000248  -0.007406   0.013286   0.000363  -0.139127
              25         26         27         28
     1  Si   0.000200  -0.002044   0.000046   0.000242
     2  O   -0.000011  -0.000283   0.000050   0.001168
     3  O   -0.000061  -0.000383  -0.000118  -0.000139
     4  O    0.000005  -0.000005  -0.000019   0.000135
     5  O    0.000005   0.000007  -0.000024   0.000221
     6  O    0.008074   0.008722  -0.068964   0.123803
     7  O    0.000000  -0.000002   0.000000   0.000003
     8  H   -0.000000   0.000000   0.000000  -0.000007
     9  C   -0.000036  -0.000041  -0.000013   0.000023
    10  H    0.000000  -0.000000  -0.000000   0.000002
    11  H    0.000004   0.000012   0.000005   0.000007
    12  C    0.000067   0.000026   0.000100  -0.001019
    13  H   -0.000001  -0.000002  -0.000001  -0.000004
    14  H   -0.000105  -0.000100  -0.000191   0.000992
    15  C   -0.000887   0.017733  -0.013751   0.002375
    16  H    0.000013   0.000391   0.000143   0.000396
    17  H    0.001554  -0.018220   0.021865  -0.008040
    18  C    0.000521  -0.011442   0.002453   0.000025
    19  H   -0.000008  -0.000108  -0.000028  -0.000030
    20  H   -0.000052   0.003188  -0.000478   0.000248
    21  C   -0.001548  -0.071686  -0.064638  -0.007406
    22  H    0.004076  -0.009164   0.003598   0.013286
    23  H   -0.006657   0.024682   0.009280   0.000363
    24  C    0.339626   0.382152   0.316654  -0.139127
    25  H    0.780572  -0.074201  -0.041591   0.010429
    26  H   -0.074201   0.807418  -0.065494   0.010930
    27  O   -0.041591  -0.065494   8.098097   0.316827
    28  H    0.010429   0.010930   0.316827   0.449205
 Mulliken charges:
               1
     1  Si   0.875091
     2  O   -0.500066
     3  O   -0.443624
     4  O   -0.480258
     5  O   -0.451716
     6  O   -0.700837
     7  O   -0.510033
     8  H    0.122069
     9  C    0.112796
    10  H   -0.022234
    11  H   -0.025175
    12  C    0.092950
    13  H   -0.038000
    14  H    0.014722
    15  C    0.074166
    16  H   -0.037210
    17  H    0.027433
    18  C    0.100529
    19  H   -0.028124
    20  H   -0.015598
    21  C    0.142974
    22  H   -0.009773
    23  H   -0.081184
    24  C    0.091892
    25  H   -0.019992
    26  H   -0.002085
    27  O   -0.513808
    28  H    0.225095
 Sum of Mulliken charges =  -2.00000
 Mulliken charges with hydrogens summed into heavy atoms:
               1
     1  Si   0.875091
     2  O   -0.500066
     3  O   -0.443624
     4  O   -0.480258
     5  O   -0.451716
     6  O   -0.700837
     7  O   -0.387964
     9  C    0.065386
    12  C    0.069673
    15  C    0.064388
    18  C    0.056806
    21  C    0.052017
    24  C    0.069815
    27  O   -0.288712
 APT charges:
               1
     1  Si  -0.038327
     2  O   -0.376743
     3  O   -0.358415
     4  O   -0.378885
     5  O   -0.340722
     6  O   -0.662798
     7  O   -0.549964
     8  H    0.409680
     9  C   -0.568976
    10  H    0.419573
    11  H    0.327357
    12  C   -0.504239
    13  H    0.429001
    14  H    0.177335
    15  C   -0.525822
    16  H    0.418269
    17  H    0.163564
    18  C   -0.532354
    19  H    0.371773
    20  H    0.298484
    21  C   -0.307097
    22  H    0.077204
    23  H    0.208121
    24  C   -0.746678
    25  H    0.587811
    26  H    0.143884
    27  O   -0.103231
    28  H   -0.037805
 Sum of APT charges =  -2.00000
 APT charges with hydrogens summed into heavy atoms:
               1
     1  Si  -0.038327
     2  O   -0.376743
     3  O   -0.358415
     4  O   -0.378885
     5  O   -0.340722
     6  O   -0.662798
     7  O   -0.140284
     9  C    0.177954
    12  C    0.102097
    15  C    0.056011
    18  C    0.137904
    21  C   -0.021773
    24  C   -0.014982
    27  O   -0.141036
 Electronic spatial extent (au):  <R**2>=           2955.7526
 Charge=             -2.0000 electrons
 Dipole moment (field-independent basis, Debye):
    X=             -1.0899    Y=              1.1212    Z=             -0.6443  Tot=              1.6912
 Quadrupole moment (field-independent basis, Debye-Ang):
   XX=           -147.2539   YY=           -114.0716   ZZ=           -114.6769
   XY=              7.3291   XZ=             -7.1705   YZ=              2.3662
 Traceless Quadrupole moment (field-independent basis, Debye-Ang):
   XX=            -21.9198   YY=             11.2625   ZZ=             10.6573
   XY=              7.3291   XZ=             -7.1705   YZ=              2.3662
 Octapole moment (field-independent basis, Debye-Ang**2):
  XXX=            -93.4169  YYY=             12.3066  ZZZ=             10.0764  XYY=            -10.2509
  XXY=             26.7506  XXZ=            -10.7478  XZZ=             -1.0368  YZZ=              2.0086
  YYZ=              6.3986  XYZ=             -2.0958
 Hexadecapole moment (field-independent basis, Debye-Ang**3):
 XXXX=          -2747.8033 YYYY=          -1474.0209 ZZZZ=           -570.7188 XXXY=             74.5312
 XXXZ=            -95.6976 YYYX=            -35.1556 YYYZ=              2.1264 ZZZX=             21.5441
 ZZZY=             -6.2380 XXYY=           -647.6214 XXZZ=           -498.2055 YYZZ=           -350.9317
 XXYZ=             27.1844 YYXZ=             -5.8290 ZZXY=             -9.0502
 N-N= 1.244790861485D+03 E-N=-5.014523752631D+03  KE= 1.049455430257D+03
  Exact polarizability:       0.000       0.000       0.000       0.000       0.000       0.000
 Approx polarizability:     140.361       3.362     143.403      -3.633       3.029     134.270

 This type of calculation cannot be archived.


 KNOWLEDGE IS OF TWO KINDS:  WE KNOW A SUBJECT OURSELVES OR WE KNOW 
 WHERE WE CAN FIND INFORMATION UPON IT.

                                    -- SAMUEL JOHNSON
 Job cpu time:       0 days 13 hours 33 minutes 59.1 seconds.
 Elapsed time:       0 days  3 hours 24 minutes  3.1 seconds.
 File lengths (MBytes):  RWF=    782 Int=      0 D2E=      0 Chk=     33 Scr=      1
 Normal termination of Gaussian 16 at Tue Feb 20 17:36:40 2024.
