 Entering Gaussian System, Link 0=/opt/software/gaussian/g16.c01/g16
 Initial command:
 /opt/software/gaussian/g16.c01/l1.exe "/scratch/arhender/18119177/Gau-16281.inp" -scrdir="/scratch/arhender/18119177/"
 Entering Link 1 = /opt/software/gaussian/g16.c01/l1.exe PID=     16287.
  
 Copyright (c) 1988-2019, Gaussian, Inc.  All Rights Reserved.
  
 This is part of the Gaussian(R) 16 program.  It is based on
 the Gaussian(R) 09 system (copyright 2009, Gaussian, Inc.),
 the Gaussian(R) 03 system (copyright 2003, Gaussian, Inc.),
 the Gaussian(R) 98 system (copyright 1998, Gaussian, Inc.),
 the Gaussian(R) 94 system (copyright 1995, Gaussian, Inc.),
 the Gaussian 92(TM) system (copyright 1992, Gaussian, Inc.),
 the Gaussian 90(TM) system (copyright 1990, Gaussian, Inc.),
 the Gaussian 88(TM) system (copyright 1988, Gaussian, Inc.),
 the Gaussian 86(TM) system (copyright 1986, Carnegie Mellon
 University), and the Gaussian 82(TM) system (copyright 1983,
 Carnegie Mellon University). Gaussian is a federally registered
 trademark of Gaussian, Inc.
  
 This software contains proprietary and confidential information,
 including trade secrets, belonging to Gaussian, Inc.
  
 This software is provided under written license and may be
 used, copied, transmitted, or stored only in accord with that
 written license.
  
 The following legend is applicable only to US Government
 contracts under FAR:
  
                    RESTRICTED RIGHTS LEGEND
  
 Use, reproduction and disclosure by the US Government is
 subject to restrictions as set forth in subparagraphs (a)
 and (c) of the Commercial Computer Software - Restricted
 Rights clause in FAR 52.227-19.
  
 Gaussian, Inc.
 340 Quinnipiac St., Bldg. 40, Wallingford CT 06492
  
  
 ---------------------------------------------------------------
 Warning -- This program may not be used in any manner that
 competes with the business of Gaussian, Inc. or will provide
 assistance to any competitor of Gaussian, Inc.  The licensee
 of this program is prohibited from giving any competitor of
 Gaussian, Inc. access to this program.  By using this program,
 the user acknowledges that Gaussian, Inc. is engaged in the
 business of creating and licensing software in the field of
 computational chemistry and represents and warrants to the
 licensee that it is not a competitor of Gaussian, Inc. and that
 it will not use this program in any manner prohibited above.
 ---------------------------------------------------------------
  

 Cite this work as:
 Gaussian 16, Revision C.01,
 M. J. Frisch, G. W. Trucks, H. B. Schlegel, G. E. Scuseria, 
 M. A. Robb, J. R. Cheeseman, G. Scalmani, V. Barone, 
 G. A. Petersson, H. Nakatsuji, X. Li, M. Caricato, A. V. Marenich, 
 J. Bloino, B. G. Janesko, R. Gomperts, B. Mennucci, H. P. Hratchian, 
 J. V. Ortiz, A. F. Izmaylov, J. L. Sonnenberg, D. Williams-Young, 
 F. Ding, F. Lipparini, F. Egidi, J. Goings, B. Peng, A. Petrone, 
 T. Henderson, D. Ranasinghe, V. G. Zakrzewski, J. Gao, N. Rega, 
 G. Zheng, W. Liang, M. Hada, M. Ehara, K. Toyota, R. Fukuda, 
 J. Hasegawa, M. Ishida, T. Nakajima, Y. Honda, O. Kitao, H. Nakai, 
 T. Vreven, K. Throssell, J. A. Montgomery, Jr., J. E. Peralta, 
 F. Ogliaro, M. J. Bearpark, J. J. Heyd, E. N. Brothers, K. N. Kudin, 
 V. N. Staroverov, T. A. Keith, R. Kobayashi, J. Normand, 
 K. Raghavachari, A. P. Rendell, J. C. Burant, S. S. Iyengar, 
 J. Tomasi, M. Cossi, J. M. Millam, M. Klene, C. Adamo, R. Cammi, 
 J. W. Ochterski, R. L. Martin, K. Morokuma, O. Farkas, 
 J. B. Foresman, and D. J. Fox, Gaussian, Inc., Wallingford CT, 2019.
 
 ******************************************
 Gaussian 16:  ES64L-G16RevC.01  3-Jul-2019
                26-Mar-2024 
 ******************************************
 %chk=PbiLmL_to_QbiLmL_collapseIRC_Reverse.chk
 %mem=1600MB
 %nprocs=4
 Will use up to    4 processors via shared memory.
 ----------------------------------------------------------------------
 # irc=(reverse,calcfc,maxpoints=100,maxcycle=100) wb97xd/def2tzvpp geo
 m=connectivity
 ----------------------------------------------------------------------
 1/6=100,10=4,18=10,22=2,26=3,38=1,42=100,44=3,57=2,172=1/1,23;
 2/12=2,17=6,18=5,29=1,40=1/2;
 3/5=44,7=202,11=2,25=1,30=1,71=2,74=-58,140=1/1,2,3;
 4//1;
 5/5=2,38=5/2;
 8/6=4,10=90,11=11/1;
 11/6=1,8=1,9=11,15=111,16=1/1,2,10;
 10/6=1,13=1/2;
 6/7=2,8=2,9=2,10=2,28=1/1;
 7/10=1,25=1/1,2,3,16;
 1/6=100,10=4,18=10,22=2,26=3,42=100,44=3/23(2);
 2/29=1/2;
 99/5=20/99;
 2/29=1/2;
 3/5=44,7=202,11=2,25=1,30=1,71=2,74=-58,140=1/1,2,3;
 4/5=5,16=3,69=1/1;
 5/5=2,38=5/2;
 8/6=4,10=90,11=11/1;
 11/6=1,8=1,9=11,15=111,16=1/1,2,10;
 10/6=1,13=1/2;
 7/10=1,25=1/1,2,3,16;
 1/6=100,18=10,22=2,26=3,42=100,44=3/23(-8);
 2/29=1/2;
 6/7=2,8=2,9=2,10=2,19=2,28=1/1;
 99/5=20,9=1/99;
 --------------------------------------------------------
 Convert TS for PbiL to QbiL collapse to PbiLmL to QbiLmL
 --------------------------------------------------------
 Symbolic Z-matrix:
 Charge = -1 Multiplicity = 1
 Si                   -0.82682   0.12947   0.30069 
 O                     0.27083   1.37814   0.25174 
 O                    -2.38125   1.58096  -0.62842 
 H                    -1.98073   2.4402   -0.5039 
 O                    -0.9498   -0.69856  -1.15571 
 O                    -2.04619   0.31955   1.30885 
 H                    -2.49551   1.05285   0.51844 
 O                     0.18477  -1.1067    0.98458 
 C                     0.00825  -2.30462   0.28136 
 H                     0.89247  -2.94104   0.38699 
 H                    -0.8609   -2.85231   0.67055 
 C                    -0.22649  -1.89929  -1.17544 
 H                     0.73889  -1.74933  -1.67775 
 H                    -0.78634  -2.66203  -1.72624 
 C                     1.34209   1.44501  -0.64515 
 H                     1.17407   0.80175  -1.51769 
 H                     1.42609   2.47649  -1.01092 
 C                     2.65517   1.06342   0.01742 
 H                     3.47735   1.29324  -0.66896 
 H                     2.78042   1.6906    0.91181 
 O                     2.75175  -0.29981   0.34197 
 H                     1.89471  -0.57885   0.71486 
 
 IRC-IRC-IRC-IRC-IRC-IRC-IRC-IRC-IRC-IRC-IRC-IRC-IRC-IRC-IRC-IRC-IRC-IRC
 ------------------------------------------------------------------------
 INPUT DATA FOR L123
 ------------------------------------------------------------------------
 GENERAL PARAMETERS:
 Rxn path following direction = Reverse
 Maximum points per path      = 100
 Step size                    =   0.100 bohr
 Integration scheme           = HPC                                 
    Redo corrector integration= Yes                                 
    DWI Weight Power          =  2
    DWI will use Hessian update vectors when possible.
    Max correction cycles     = 100
 Initial Hessian              = CalcFC
 Hessian evaluation           = All updating
 Hessian updating method      = Bofill                              
 ------------------------------------------------------------------------
 IRC-IRC-IRC-IRC-IRC-IRC-IRC-IRC-IRC-IRC-IRC-IRC-IRC-IRC-IRC-IRC-IRC-IRC
                          Input orientation:                          
 ---------------------------------------------------------------------
 Center     Atomic      Atomic             Coordinates (Angstroms)
 Number     Number       Type             X           Y           Z
 ---------------------------------------------------------------------
      1         14           0       -0.826815    0.129472    0.300690
      2          8           0        0.270825    1.378142    0.251743
      3          8           0       -2.381253    1.580959   -0.628422
      4          1           0       -1.980733    2.440201   -0.503898
      5          8           0       -0.949803   -0.698557   -1.155710
      6          8           0       -2.046190    0.319552    1.308846
      7          1           0       -2.495513    1.052853    0.518435
      8          8           0        0.184769   -1.106703    0.984576
      9          6           0        0.008252   -2.304618    0.281356
     10          1           0        0.892468   -2.941042    0.386992
     11          1           0       -0.860896   -2.852311    0.670548
     12          6           0       -0.226493   -1.899294   -1.175443
     13          1           0        0.738891   -1.749332   -1.677746
     14          1           0       -0.786342   -2.662034   -1.726242
     15          6           0        1.342094    1.445012   -0.645145
     16          1           0        1.174067    0.801754   -1.517685
     17          1           0        1.426089    2.476492   -1.010922
     18          6           0        2.655171    1.063420    0.017423
     19          1           0        3.477352    1.293239   -0.668955
     20          1           0        2.780419    1.690601    0.911809
     21          8           0        2.751746   -0.299807    0.341967
     22          1           0        1.894714   -0.578850    0.714857
 ---------------------------------------------------------------------
                    Distance matrix (angstroms):
                    1          2          3          4          5
     1  Si   0.000000
     2  O    1.663246   0.000000
     3  O    2.320849   2.801668   0.000000
     4  H    2.705246   2.601630   0.956148   0.000000
     5  O    1.679839   2.789899   2.742859   3.367414   0.000000
     6  O    1.593545   2.758013   2.335899   2.790605   2.883166
     7  H    1.919531   2.798136   1.267767   1.798582   2.873920
     8  O    1.737565   2.592085   4.050896   4.414236   2.456555
     9  C    2.573423   3.692227   4.651359   5.204420   2.358487
    10  H    3.520147   4.365785   5.674223   6.164961   3.286736
    11  H    3.004827   4.399196   4.863403   5.535706   2.825204
    12  C    2.579776   3.609123   4.129695   4.728588   1.401904
    13  H    3.145719   3.704471   4.682651   5.130932   2.056292
    14  H    3.450014   4.620936   4.663897   5.380845   2.051211
    15  C    2.707289   1.398748   3.725866   3.471532   3.179364
    16  H    2.786033   2.068561   3.746765   3.696625   2.625411
    17  H    3.507764   2.033551   3.929903   3.444536   3.968219
    18  C    3.616176   2.416415   5.103972   4.864042   4.180507
    19  H    4.562940   3.337171   5.865806   5.579736   4.878922
    20  H    3.977779   2.613691   5.387689   5.023415   4.888483
    21  O    3.604453   2.996435   5.552172   5.533488   4.012917
    22  H    2.842530   2.584823   4.975245   5.061534   3.406557
                    6          7          8          9         10
     6  O    0.000000
     7  H    1.168063   0.000000
     8  O    2.667683   3.473454   0.000000
     9  C    3.487511   4.194956   1.400242   0.000000
    10  H    4.485198   5.238978   2.054932   1.094547   0.000000
    11  H    3.445731   4.236203   2.058926   1.098570   1.778360
    12  C    3.795559   4.090580   2.337310   1.530247   2.185982
    13  H    4.577848   4.810075   2.794277   2.163390   2.388912
    14  H    4.437210   4.664786   3.272712   2.188510   2.713302
    15  C    4.070038   4.029260   3.241395   4.086229   4.528238
    16  H    4.311827   4.204123   3.298822   3.774284   4.208992
    17  H    4.700046   4.443494   4.285111   5.151627   5.620373
    18  C    4.931927   5.175004   3.427492   4.291797   4.390834
    19  H    5.947208   6.094489   4.397157   5.087467   5.072059
    20  H    5.033246   5.328876   3.816753   4.903484   5.029106
    21  O    4.933422   5.421675   2.766478   3.398485   3.230335
    22  H    4.085422   4.687764   1.809776   2.593248   2.586879
                   11         12         13         14         15
    11  H    0.000000
    12  C    2.172186   0.000000
    13  H    3.048010   1.098528   0.000000
    14  H    2.405487   1.094798   1.778120   0.000000
    15  C    5.005117   3.731764   3.410858   4.750457   0.000000
    16  H    4.720342   3.061757   2.592882   3.985540   1.096969
    17  H    6.037697   4.680342   4.332953   5.640123   1.097633
    18  C    5.303041   4.301696   3.802276   5.363151   1.519467
    19  H    6.148191   4.916021   4.215930   5.911102   2.140778
    20  H    5.827129   5.126937   4.765162   6.215024   2.133823
    21  O    4.435586   3.705509   3.198742   4.730293   2.450694
    22  H    3.572671   3.133102   2.903533   4.181708   2.500202
                   16         17         18         19         20
    16  H    0.000000
    17  H    1.767787   0.000000
    18  C    2.149115   2.136565   0.000000
    19  H    2.503402   2.392636   1.095405   0.000000
    20  H    3.045137   2.479663   1.099531   1.772689   0.000000
    21  O    2.675970   3.360880   1.404651   2.021451   2.070571
    22  H    2.722066   3.540203   1.939526   2.815030   2.444110
                   21         22
    21  O    0.000000
    22  H    0.975405   0.000000
 Symmetry turned off by external request.
 Stoichiometry    C4H11O6Si(1-)
 Framework group  C1[X(C4H11O6Si)]
 Deg. of freedom    60
 Full point group                 C1      NOp   1
 Rotational constants (GHZ):           1.2531081           0.8844156           0.6706108
 Standard basis: def2TZVPP (5D, 7F)
   506 basis functions,   766 primitive gaussians,   573 cartesian basis functions
    49 alpha electrons       49 beta electrons
       nuclear repulsion energy       866.0287420074 Hartrees.
 NAtoms=   22 NActive=   22 NUniq=   22 SFac= 1.00D+00 NAtFMM=   60 NAOKFM=F Big=F
 Integral buffers will be    131072 words long.
 Raffenetti 2 integral format.
 Two-electron integral symmetry is turned off.
 Nuclear repulsion after empirical dispersion term =      866.0148379280 Hartrees.
 One-electron integrals computed using PRISM.
   1 Symmetry operations used in ECPInt.
 ECPInt:  NShTT=   18145 NPrTT=   50058 LenC2=   17266 LenP2D=   36911.
 LDataN:  DoStor=T MaxTD1= 6 Len=  172
 NBasis=   506 RedAO= T EigKep=  2.42D-04  NBF=   506
 NBsUse=   506 1.00D-06 EigRej= -1.00D+00 NBFU=   506
 ExpMin= 7.01D-02 ExpMax= 4.48D+04 ExpMxC= 1.53D+03 IAcc=3 IRadAn=         5 AccDes= 0.00D+00
 Harris functional with IExCor= 4639 and IRadAn=       5 diagonalized for initial guess.
 HarFok:  IExCor= 4639 AccDes= 0.00D+00 IRadAn=         5 IDoV= 1 UseB2=F ITyADJ=14
 ICtDFT=  3500011 ScaDFX=  1.000000  1.000000  1.000000  1.000000
 FoFCou: FMM=F IPFlag=           0 FMFlag=      100000 FMFlg1=           0
         NFxFlg=           0 DoJE=T BraDBF=F KetDBF=T FulRan=T
         wScrn=  0.000000 ICntrl=       500 IOpCl=  0 I1Cent=   200000004 NGrid=           0
         NMat0=    1 NMatS0=      1 NMatT0=    0 NMatD0=    1 NMtDS0=    0 NMtDT0=    0
 Symmetry not used in FoFCou.
 Requested convergence on RMS density matrix=1.00D-08 within 128 cycles.
 Requested convergence on MAX density matrix=1.00D-06.
 Requested convergence on             energy=1.00D-06.
 No special actions if energy rises.
 Integral accuracy reduced to 1.0D-05 until final iterations.
 Initial convergence to 1.0D-05 achieved.  Increase integral accuracy.
 SCF Done:  E(RwB97XD) =  -900.172966861     A.U. after   14 cycles
            NFock= 14  Conv=0.74D-08     -V/T= 2.0036
 DoSCS=F DFT=T ScalE2(SS,OS)=  1.000000  1.000000
 Range of M.O.s used for correlation:     1   506
 NBasis=   506 NAE=    49 NBE=    49 NFC=     0 NFV=     0
 NROrb=    506 NOA=    49 NOB=    49 NVA=   457 NVB=   457

 **** Warning!!: The largest alpha MO coefficient is  0.13236050D+02

   1 Symmetry operations used in ECPInt.
 ECPInt:  NShTT=   18145 NPrTT=   50058 LenC2=   17266 LenP2D=   36911.
 LDataN:  DoStor=T MaxTD1= 7 Len=  274
 Symmetrizing basis deriv contribution to polar:
 IMax=3 JMax=2 DiffMx= 0.00D+00
 G2DrvN: will do    23 centers at a time, making    1 passes.
 Calling FoFCou, ICntrl=  3107 FMM=F I1Cent=   0 AccDes= 0.00D+00.
 End of G2Drv F.D. properties file   721 does not exist.
 End of G2Drv F.D. properties file   722 does not exist.
 End of G2Drv F.D. properties file   788 does not exist.
          IDoAtm=1111111111111111111111
          Differentiating once with respect to nuclear coordinates.
 CalDSu exits because no D1Ps are significant.
          There are    69 degrees of freedom in the 1st order CPHF.  IDoFFX=6 NUNeed=     0.
     63 vectors produced by pass  0 Test12= 3.25D-14 1.45D-09 XBig12= 8.60D-02 3.87D-02.
 AX will form    63 AO Fock derivatives at one time.
     63 vectors produced by pass  1 Test12= 3.25D-14 1.45D-09 XBig12= 2.67D-02 2.76D-02.
     63 vectors produced by pass  2 Test12= 3.25D-14 1.45D-09 XBig12= 7.15D-04 3.05D-03.
     63 vectors produced by pass  3 Test12= 3.25D-14 1.45D-09 XBig12= 1.24D-05 4.27D-04.
     63 vectors produced by pass  4 Test12= 3.25D-14 1.45D-09 XBig12= 1.48D-07 4.49D-05.
     63 vectors produced by pass  5 Test12= 3.25D-14 1.45D-09 XBig12= 1.34D-09 3.22D-06.
     63 vectors produced by pass  6 Test12= 3.25D-14 1.45D-09 XBig12= 1.00D-11 3.64D-07.
     32 vectors produced by pass  7 Test12= 3.25D-14 1.45D-09 XBig12= 7.12D-14 2.74D-08.
      2 vectors produced by pass  8 Test12= 3.25D-14 1.45D-09 XBig12= 9.90D-16 2.21D-09.
 InvSVY:  IOpt=1 It=  1 EMax= 2.22D-16
 Solved reduced A of dimension   475 with    69 vectors.
 End of Minotr F.D. properties file   721 does not exist.
 End of Minotr F.D. properties file   722 does not exist.
 End of Minotr F.D. properties file   788 does not exist.

 **********************************************************************

            Population analysis using the SCF Density.

 **********************************************************************

 Alpha  occ. eigenvalues --  -66.13857 -19.10473 -19.09254 -19.09137 -19.09046
 Alpha  occ. eigenvalues --  -19.02205 -19.01686 -10.20149 -10.20045 -10.19898
 Alpha  occ. eigenvalues --  -10.19869  -5.25348  -3.60008  -3.59891  -3.59629
 Alpha  occ. eigenvalues --   -1.00453  -0.98623  -0.96197  -0.93705  -0.89258
 Alpha  occ. eigenvalues --   -0.83301  -0.70440  -0.68866  -0.58454  -0.57100
 Alpha  occ. eigenvalues --   -0.48577  -0.46650  -0.45602  -0.44207  -0.43082
 Alpha  occ. eigenvalues --   -0.41699  -0.39900  -0.37868  -0.36532  -0.36437
 Alpha  occ. eigenvalues --   -0.35995  -0.31129  -0.29994  -0.28703  -0.27009
 Alpha  occ. eigenvalues --   -0.26211  -0.25251  -0.24640  -0.23409  -0.22549
 Alpha  occ. eigenvalues --   -0.21154  -0.19927  -0.18119  -0.16083
 Alpha virt. eigenvalues --    0.23621   0.24513   0.26273   0.26790   0.27586
 Alpha virt. eigenvalues --    0.28604   0.29602   0.30398   0.31968   0.32794
 Alpha virt. eigenvalues --    0.33354   0.34700   0.35118   0.36294   0.38159
 Alpha virt. eigenvalues --    0.39370   0.39827   0.41125   0.41994   0.42273
 Alpha virt. eigenvalues --    0.42909   0.43664   0.45938   0.46217   0.48597
 Alpha virt. eigenvalues --    0.48959   0.49363   0.51530   0.51889   0.53690
 Alpha virt. eigenvalues --    0.54662   0.56194   0.56464   0.57548   0.58760
 Alpha virt. eigenvalues --    0.59168   0.59253   0.59763   0.60722   0.61659
 Alpha virt. eigenvalues --    0.62381   0.62865   0.63447   0.64069   0.64962
 Alpha virt. eigenvalues --    0.65252   0.66448   0.67354   0.67968   0.68724
 Alpha virt. eigenvalues --    0.69094   0.69949   0.71457   0.72458   0.74239
 Alpha virt. eigenvalues --    0.75235   0.77329   0.79299   0.79596   0.80519
 Alpha virt. eigenvalues --    0.81550   0.82307   0.83338   0.84386   0.86244
 Alpha virt. eigenvalues --    0.88562   0.89356   0.90124   0.90477   0.91929
 Alpha virt. eigenvalues --    0.93099   0.94190   0.96236   0.97087   0.97376
 Alpha virt. eigenvalues --    0.97974   1.00012   1.01349   1.02074   1.03480
 Alpha virt. eigenvalues --    1.04092   1.04952   1.06981   1.08566   1.09125
 Alpha virt. eigenvalues --    1.10124   1.10731   1.13497   1.13871   1.15885
 Alpha virt. eigenvalues --    1.16802   1.17082   1.19297   1.19653   1.20533
 Alpha virt. eigenvalues --    1.21727   1.22758   1.23755   1.24782   1.26137
 Alpha virt. eigenvalues --    1.28249   1.28712   1.30173   1.31414   1.32516
 Alpha virt. eigenvalues --    1.32738   1.34891   1.35259   1.35403   1.36339
 Alpha virt. eigenvalues --    1.37635   1.39714   1.40521   1.42422   1.43059
 Alpha virt. eigenvalues --    1.44315   1.44899   1.46101   1.47304   1.49210
 Alpha virt. eigenvalues --    1.50061   1.52412   1.54449   1.55432   1.56184
 Alpha virt. eigenvalues --    1.56647   1.57378   1.58404   1.58972   1.61190
 Alpha virt. eigenvalues --    1.62385   1.63537   1.64948   1.66314   1.67945
 Alpha virt. eigenvalues --    1.70227   1.70846   1.72423   1.73539   1.75556
 Alpha virt. eigenvalues --    1.75855   1.77187   1.78426   1.80997   1.81972
 Alpha virt. eigenvalues --    1.83037   1.86832   1.89450   1.89628   1.92445
 Alpha virt. eigenvalues --    1.95789   1.97906   1.99732   2.03082   2.05548
 Alpha virt. eigenvalues --    2.07238   2.08372   2.09207   2.11590   2.11859
 Alpha virt. eigenvalues --    2.14195   2.14554   2.16861   2.18343   2.20208
 Alpha virt. eigenvalues --    2.21964   2.23206   2.24474   2.26212   2.27676
 Alpha virt. eigenvalues --    2.29840   2.32050   2.33700   2.35268   2.36625
 Alpha virt. eigenvalues --    2.38755   2.39644   2.42262   2.44395   2.44894
 Alpha virt. eigenvalues --    2.47568   2.48562   2.49959   2.51252   2.55058
 Alpha virt. eigenvalues --    2.55581   2.56752   2.59504   2.60777   2.62080
 Alpha virt. eigenvalues --    2.65044   2.66811   2.68215   2.71872   2.73575
 Alpha virt. eigenvalues --    2.76407   2.79274   2.82669   2.83537   2.84365
 Alpha virt. eigenvalues --    2.86073   2.87164   2.92318   2.93857   2.95061
 Alpha virt. eigenvalues --    2.96786   2.97891   2.99572   3.00967   3.02075
 Alpha virt. eigenvalues --    3.03283   3.04439   3.07175   3.08838   3.10434
 Alpha virt. eigenvalues --    3.11150   3.11941   3.14316   3.16253   3.18119
 Alpha virt. eigenvalues --    3.19088   3.20523   3.21504   3.23280   3.23639
 Alpha virt. eigenvalues --    3.25129   3.27607   3.28493   3.29501   3.29908
 Alpha virt. eigenvalues --    3.31637   3.32602   3.33035   3.33731   3.36130
 Alpha virt. eigenvalues --    3.36802   3.37582   3.38177   3.40711   3.41584
 Alpha virt. eigenvalues --    3.44732   3.45531   3.46857   3.47998   3.48513
 Alpha virt. eigenvalues --    3.52241   3.53635   3.54607   3.56888   3.57678
 Alpha virt. eigenvalues --    3.59848   3.60521   3.62401   3.63585   3.64991
 Alpha virt. eigenvalues --    3.66210   3.68315   3.68972   3.72734   3.73320
 Alpha virt. eigenvalues --    3.74652   3.76633   3.77421   3.78689   3.79496
 Alpha virt. eigenvalues --    3.82533   3.83511   3.83749   3.85296   3.85850
 Alpha virt. eigenvalues --    3.86949   3.88211   3.89165   3.90081   3.90517
 Alpha virt. eigenvalues --    3.93602   3.95139   3.95362   3.96317   3.98600
 Alpha virt. eigenvalues --    4.00762   4.02974   4.03733   4.06335   4.07284
 Alpha virt. eigenvalues --    4.07756   4.08938   4.10312   4.13513   4.15202
 Alpha virt. eigenvalues --    4.15754   4.16138   4.17680   4.19184   4.21076
 Alpha virt. eigenvalues --    4.22990   4.23434   4.26915   4.27413   4.28038
 Alpha virt. eigenvalues --    4.29722   4.32522   4.32869   4.35347   4.36146
 Alpha virt. eigenvalues --    4.37372   4.38705   4.39063   4.41630   4.43805
 Alpha virt. eigenvalues --    4.44542   4.46332   4.47732   4.48681   4.53017
 Alpha virt. eigenvalues --    4.53371   4.54092   4.58147   4.59304   4.59838
 Alpha virt. eigenvalues --    4.63754   4.70984   4.72167   4.73000   4.74248
 Alpha virt. eigenvalues --    4.75948   4.77256   4.80432   4.81344   4.85559
 Alpha virt. eigenvalues --    4.86828   4.87611   4.88867   4.89407   4.93812
 Alpha virt. eigenvalues --    4.95308   4.96818   4.99198   5.00634   5.02300
 Alpha virt. eigenvalues --    5.05435   5.05956   5.07260   5.09593   5.11363
 Alpha virt. eigenvalues --    5.12155   5.13463   5.14318   5.17436   5.19481
 Alpha virt. eigenvalues --    5.21688   5.24482   5.28094   5.30020   5.33466
 Alpha virt. eigenvalues --    5.34815   5.36653   5.37776   5.42506   5.45882
 Alpha virt. eigenvalues --    5.47046   5.49322   5.52238   5.54283   5.55287
 Alpha virt. eigenvalues --    5.56017   5.57867   5.60831   5.63449   5.64436
 Alpha virt. eigenvalues --    5.65471   5.66798   5.68911   5.70809   5.72455
 Alpha virt. eigenvalues --    5.72577   5.72986   5.76337   5.80173   5.80828
 Alpha virt. eigenvalues --    5.81383   5.83684   5.84186   5.85252   5.86410
 Alpha virt. eigenvalues --    5.88767   5.91993   5.93263   5.98050   6.00341
 Alpha virt. eigenvalues --    6.05857   6.13321   6.15663   6.16830   6.18805
 Alpha virt. eigenvalues --    6.20030   6.24311   6.28351   6.33789   6.34887
 Alpha virt. eigenvalues --    6.37229   6.37980   6.40463   6.47670   6.54629
 Alpha virt. eigenvalues --    6.71890   6.74198   6.79145   6.83639   6.86451
 Alpha virt. eigenvalues --    6.89162   6.90963   6.91813   6.91904   6.93684
 Alpha virt. eigenvalues --    6.94583   6.96158   6.96337   6.98835   7.00689
 Alpha virt. eigenvalues --    7.01238   7.06184   7.06844   7.10571   7.12158
 Alpha virt. eigenvalues --    7.15332   7.18288   7.20533   7.22187   7.27584
 Alpha virt. eigenvalues --    7.30468   7.34063   7.35720   7.36527   7.41872
 Alpha virt. eigenvalues --    7.50766   7.51045   7.55521   7.56710   7.65857
 Alpha virt. eigenvalues --    7.72925   7.74269   7.81260   7.86086   7.92927
 Alpha virt. eigenvalues --    8.02389  12.72455  23.50942  23.53517  23.64951
 Alpha virt. eigenvalues --   23.66260  44.06749  44.15707  44.28196  44.40778
 Alpha virt. eigenvalues --   44.43465  44.47990
          Condensed to atoms (all electrons):
               1          2          3          4          5          6
     1  Si  11.671791   0.387936   0.140957  -0.018037   0.356472   0.580507
     2  O    0.387936   7.969893  -0.022074   0.004951  -0.012809  -0.029798
     3  O    0.140957  -0.022074   8.220619   0.289321  -0.021419  -0.178629
     4  H   -0.018037   0.004951   0.289321   0.595834   0.001040   0.013986
     5  O    0.356472  -0.012809  -0.021419   0.001040   7.935293  -0.023548
     6  O    0.580507  -0.029798  -0.178629   0.013986  -0.023548   8.073593
     7  H   -0.046197   0.004149   0.177339  -0.014152   0.003302   0.205007
     8  O    0.321971  -0.032249   0.001131   0.000005  -0.020439  -0.023820
     9  C   -0.014068   0.001304   0.001051  -0.000094  -0.064334  -0.000023
    10  H    0.005113  -0.000298   0.000006  -0.000000   0.004871  -0.000290
    11  H   -0.012446  -0.000219   0.000053  -0.000002   0.003130   0.001628
    12  C   -0.069999  -0.001088   0.001095  -0.000213   0.312081  -0.006325
    13  H   -0.010227   0.000166  -0.000009   0.000018  -0.059950  -0.000077
    14  H    0.000461  -0.000233   0.000057  -0.000013  -0.039024  -0.000015
    15  C   -0.061557   0.264654   0.007663  -0.000119  -0.014090  -0.002485
    16  H   -0.023732  -0.045732   0.000456   0.000025   0.019337  -0.000063
    17  H    0.005830  -0.039306   0.000647  -0.000299   0.000049  -0.000088
    18  C    0.004975  -0.051551   0.000792  -0.000125  -0.000817  -0.000574
    19  H    0.000951   0.006856   0.000009  -0.000006   0.000042  -0.000002
    20  H   -0.003912   0.004385  -0.000015   0.000005  -0.000011   0.000002
    21  O    0.001128   0.001730  -0.000003  -0.000000  -0.000228   0.000001
    22  H   -0.002050   0.001954   0.000054  -0.000004   0.001085   0.000129
               7          8          9         10         11         12
     1  Si  -0.046197   0.321971  -0.014068   0.005113  -0.012446  -0.069999
     2  O    0.004149  -0.032249   0.001304  -0.000298  -0.000219  -0.001088
     3  O    0.177339   0.001131   0.001051   0.000006   0.000053   0.001095
     4  H   -0.014152   0.000005  -0.000094  -0.000000  -0.000002  -0.000213
     5  O    0.003302  -0.020439  -0.064334   0.004871   0.003130   0.312081
     6  O    0.205007  -0.023820  -0.000023  -0.000290   0.001628  -0.006325
     7  H    0.405454   0.001144  -0.000508   0.000006  -0.000183   0.000192
     8  O    0.001144   8.061142   0.263947  -0.045818  -0.032628  -0.064720
     9  C   -0.000508   0.263947   4.750954   0.407629   0.415266   0.272773
    10  H    0.000006  -0.045818   0.407629   0.688884  -0.055155  -0.038136
    11  H   -0.000183  -0.032628   0.415266  -0.055155   0.667014  -0.040337
    12  C    0.000192  -0.064720   0.272773  -0.038136  -0.040337   4.784864
    13  H   -0.000060   0.007911  -0.065016  -0.010909   0.012285   0.427606
    14  H    0.000005   0.005897  -0.011511   0.007017  -0.010984   0.377757
    15  C   -0.001174   0.018414  -0.006091   0.000422   0.000649   0.003219
    16  H   -0.000251  -0.001517   0.003870   0.000026  -0.000164  -0.002909
    17  H    0.000094  -0.000228   0.000180  -0.000022   0.000002  -0.000273
    18  C   -0.000258  -0.004704   0.001917   0.000501  -0.000209  -0.000035
    19  H   -0.000001  -0.000395  -0.000148   0.000008  -0.000005   0.000063
    20  H   -0.000013   0.000495   0.000628  -0.000008   0.000012  -0.000159
    21  O    0.000017  -0.029829   0.010969   0.002252  -0.000178  -0.006598
    22  H   -0.000049   0.057488  -0.011816  -0.007554   0.001571   0.004732
              13         14         15         16         17         18
     1  Si  -0.010227   0.000461  -0.061557  -0.023732   0.005830   0.004975
     2  O    0.000166  -0.000233   0.264654  -0.045732  -0.039306  -0.051551
     3  O   -0.000009   0.000057   0.007663   0.000456   0.000647   0.000792
     4  H    0.000018  -0.000013  -0.000119   0.000025  -0.000299  -0.000125
     5  O   -0.059950  -0.039024  -0.014090   0.019337   0.000049  -0.000817
     6  O   -0.000077  -0.000015  -0.002485  -0.000063  -0.000088  -0.000574
     7  H   -0.000060   0.000005  -0.001174  -0.000251   0.000094  -0.000258
     8  O    0.007911   0.005897   0.018414  -0.001517  -0.000228  -0.004704
     9  C   -0.065016  -0.011511  -0.006091   0.003870   0.000180   0.001917
    10  H   -0.010909   0.007017   0.000422   0.000026  -0.000022   0.000501
    11  H    0.012285  -0.010984   0.000649  -0.000164   0.000002  -0.000209
    12  C    0.427606   0.377757   0.003219  -0.002909  -0.000273  -0.000035
    13  H    0.717828  -0.059526   0.008774  -0.007841   0.000154  -0.001693
    14  H   -0.059526   0.690228   0.000178   0.000896   0.000012  -0.000104
    15  C    0.008774   0.000178   4.811237   0.421358   0.361842   0.301819
    16  H   -0.007841   0.000896   0.421358   0.667808  -0.032175  -0.069731
    17  H    0.000154   0.000012   0.361842  -0.032175   0.675483  -0.020938
    18  C   -0.001693  -0.000104   0.301819  -0.069731  -0.020938   4.699657
    19  H   -0.000300  -0.000009  -0.026606  -0.000820   0.001288   0.369868
    20  H    0.000282   0.000009  -0.051794   0.012710  -0.000735   0.405785
    21  O    0.006358   0.000306  -0.068105   0.002023   0.006710   0.319317
    22  H   -0.000418  -0.000225   0.000911  -0.000070  -0.000762  -0.042262
              19         20         21         22
     1  Si   0.000951  -0.003912   0.001128  -0.002050
     2  O    0.006856   0.004385   0.001730   0.001954
     3  O    0.000009  -0.000015  -0.000003   0.000054
     4  H   -0.000006   0.000005  -0.000000  -0.000004
     5  O    0.000042  -0.000011  -0.000228   0.001085
     6  O   -0.000002   0.000002   0.000001   0.000129
     7  H   -0.000001  -0.000013   0.000017  -0.000049
     8  O   -0.000395   0.000495  -0.029829   0.057488
     9  C   -0.000148   0.000628   0.010969  -0.011816
    10  H    0.000008  -0.000008   0.002252  -0.007554
    11  H   -0.000005   0.000012  -0.000178   0.001571
    12  C    0.000063  -0.000159  -0.006598   0.004732
    13  H   -0.000300   0.000282   0.006358  -0.000418
    14  H   -0.000009   0.000009   0.000306  -0.000225
    15  C   -0.026606  -0.051794  -0.068105   0.000911
    16  H   -0.000820   0.012710   0.002023  -0.000070
    17  H    0.001288  -0.000735   0.006710  -0.000762
    18  C    0.369868   0.405785   0.319317  -0.042262
    19  H    0.709117  -0.053395  -0.043698   0.010832
    20  H   -0.053395   0.708998  -0.049843  -0.009344
    21  O   -0.043698  -0.049843   7.950792   0.338129
    22  H    0.010832  -0.009344   0.338129   0.426413
 Mulliken charges:
               1
     1  Si   0.784134
     2  O   -0.412620
     3  O   -0.619100
     4  H    0.127878
     5  O   -0.380031
     6  O   -0.609117
     7  H    0.266136
     8  O   -0.483197
     9  C    0.043121
    10  H    0.041457
    11  H    0.050902
    12  C    0.046413
    13  H    0.034643
    14  H    0.038821
    15  C    0.030883
    16  H    0.056496
    17  H    0.042537
    18  C    0.088373
    19  H    0.026351
    20  H    0.035917
    21  O   -0.441250
    22  H    0.231255
 Sum of Mulliken charges =  -1.00000
 Mulliken charges with hydrogens summed into heavy atoms:
               1
     1  Si   0.784134
     2  O   -0.412620
     3  O   -0.491222
     5  O   -0.380031
     6  O   -0.342981
     8  O   -0.483197
     9  C    0.135480
    12  C    0.119877
    15  C    0.129915
    18  C    0.150640
    21  O   -0.209995
 APT charges:
               1
     1  Si   0.405364
     2  O   -0.385491
     3  O   -0.674739
     4  H    0.271319
     5  O   -0.349517
     6  O   -0.423440
     7  H    0.242089
     8  O   -0.447477
     9  C   -0.718577
    10  H    0.404403
    11  H    0.440366
    12  C   -0.591991
    13  H    0.240735
    14  H    0.511517
    15  C   -0.459028
    16  H    0.140894
    17  H    0.444245
    18  C   -0.803261
    19  H    0.543580
    20  H    0.361846
    21  O   -0.178147
    22  H    0.025308
 Sum of APT charges =  -1.00000
 APT charges with hydrogens summed into heavy atoms:
               1
     1  Si   0.405364
     2  O   -0.385491
     3  O   -0.403420
     5  O   -0.349517
     6  O   -0.181351
     8  O   -0.447477
     9  C    0.126192
    12  C    0.160262
    15  C    0.126112
    18  C    0.102165
    21  O   -0.152839
 Electronic spatial extent (au):  <R**2>=           1912.5902
 Charge=             -1.0000 electrons
 Dipole moment (field-independent basis, Debye):
    X=              4.9499    Y=             -1.5651    Z=             -1.8955  Tot=              5.5267
 Quadrupole moment (field-independent basis, Debye-Ang):
   XX=           -104.2133   YY=            -74.6501   ZZ=            -85.1764
   XY=              8.8328   XZ=             -2.3319   YZ=              1.5747
 Traceless Quadrupole moment (field-independent basis, Debye-Ang):
   XX=            -16.2000   YY=             13.3632   ZZ=              2.8369
   XY=              8.8328   XZ=             -2.3319   YZ=              1.5747
 Octapole moment (field-independent basis, Debye-Ang**2):
  XXX=              9.3506  YYY=              1.6507  ZZZ=             -2.2244  XYY=              2.3183
  XXY=             -6.4211  XXZ=             -2.4298  XZZ=             16.4258  YZZ=              0.0293
  YYZ=             -0.1471  XYZ=             -5.5471
 Hexadecapole moment (field-independent basis, Debye-Ang**3):
 XXXX=          -1466.6282 YYYY=           -850.3467 ZZZZ=           -384.1953 XXXY=             67.6635
 XXXZ=            -24.1936 YYYX=            -14.3878 YYYZ=             -3.4118 ZZZX=             13.6095
 ZZZY=              1.8992 XXYY=           -369.7061 XXZZ=           -303.7632 YYZZ=           -212.8097
 XXYZ=             16.1571 YYXZ=             -6.4581 ZZXY=              6.1618
 N-N= 8.660148379280D+02 E-N=-3.875577319977D+03  KE= 8.969755203717D+02
  Exact polarizability:       0.000       0.000       0.000       0.000       0.000       0.000
 Approx polarizability:     100.079       0.035     105.055      -2.229      -1.206      97.135
   1 Symmetry operations used in ECPInt.
 ECPInt:  NShTT=   18145 NPrTT=   50058 LenC2=   17266 LenP2D=   36911.
 LDataN:  DoStor=T MaxTD1= 8 Len=  415
 Calling FoFJK, ICntrl=    100127 FMM=F ISym2X=0 I1Cent= 0 IOpClX= 0 NMat=1 NMatS=1 NMatT=0.
 -------------------------------------------------------------------
 Center     Atomic                   Forces (Hartrees/Bohr)
 Number     Number              X              Y              Z
 -------------------------------------------------------------------
      1       14           0.000018625   -0.000020048    0.000017677
      2        8          -0.000022243    0.000005318   -0.000009430
      3        8          -0.000002792    0.000000617   -0.000011630
      4        1          -0.000003362   -0.000001372   -0.000002820
      5        8          -0.000003948    0.000005201    0.000001061
      6        8           0.000002240    0.000001648   -0.000013681
      7        1           0.000001454   -0.000000917   -0.000004585
      8        8          -0.000014596    0.000001747   -0.000000422
      9        6           0.000000607    0.000000040    0.000002121
     10        1           0.000001532    0.000000732    0.000001716
     11        1           0.000001153   -0.000000274    0.000000166
     12        6           0.000007197    0.000000170    0.000002026
     13        1           0.000000625   -0.000002130   -0.000000782
     14        1           0.000003473   -0.000001429    0.000000395
     15        6          -0.000000302   -0.000015557    0.000010160
     16        1           0.000000228    0.000007894   -0.000000762
     17        1           0.000000922    0.000005442    0.000005987
     18        6           0.000000537   -0.000008409   -0.000002698
     19        1          -0.000004510    0.000001878   -0.000002158
     20        1           0.000004117    0.000002882    0.000000871
     21        8           0.000002913    0.000014530    0.000023625
     22        1           0.000006130    0.000002038   -0.000016838
 -------------------------------------------------------------------
 Cartesian Forces:  Max     0.000023625 RMS     0.000007896
 IRC-IRC-IRC-IRC-IRC-IRC-IRC-IRC-IRC-IRC-IRC-IRC-IRC-IRC-IRC-IRC-IRC-IRC
          ******** Start new reaction path calculation ********
 Supplied step size of   0.1000 bohr.
    Integration on MW PES will use step size of   0.1065 sqrt(amu)*bohr.
 Point Number:   0          Path Number:   1
 Calculating another point on the path.
 IRC-IRC-IRC-IRC-IRC-IRC-IRC-IRC-IRC-IRC-IRC-IRC-IRC-IRC-IRC-IRC-IRC-IRC
                          Input orientation:                          
 ---------------------------------------------------------------------
 Center     Atomic      Atomic             Coordinates (Angstroms)
 Number     Number       Type             X           Y           Z
 ---------------------------------------------------------------------
      1         14           0       -0.793074    0.125366    0.277266
      2          8           0        0.304939    1.372427    0.231229
      3          8           0       -2.345542    1.574802   -0.650470
      4          1           0       -1.946342    2.435121   -0.528883
      5          8           0       -0.916090   -0.704508   -1.176667
      6          8           0       -2.013691    0.313949    1.289106
      7          1           0       -2.462478    1.021832    0.543333
      8          8           0        0.217627   -1.111761    0.963706
      9          6           0        0.041946   -2.310147    0.260275
     10          1           0        0.926439   -2.945968    0.366430
     11          1           0       -0.826968   -2.858202    0.649376
     12          6           0       -0.192669   -1.904938   -1.196502
     13          1           0        0.772666   -1.754848   -1.698782
     14          1           0       -0.752401   -2.667757   -1.747244
     15          6           0        1.375870    1.439496   -0.666148
     16          1           0        1.207569    0.796382   -1.538689
     17          1           0        1.459409    2.470938   -1.031838
     18          6           0        2.688971    1.057948   -0.003711
     19          1           0        3.511171    1.287635   -0.690058
     20          1           0        2.814279    1.685044    0.890699
     21          8           0        2.785531   -0.305367    0.320886
     22          1           0        1.928725   -0.584040    0.693979
 ---------------------------------------------------------------------
                    Distance matrix (angstroms):
                    1          2          3          4          5
     1  Si   0.000000
     2  O    1.662201   0.000000
     3  O    2.317696   2.800607   0.000000
     4  H    2.704602   2.602952   0.956186   0.000000
     5  O    1.678615   2.790473   2.741436   3.367241   0.000000
     6  O    1.596649   2.759624   2.337055   2.794457   2.884791
     7  H    1.913466   2.806942   1.320838   1.847547   2.886168
     8  O    1.738735   2.591396   4.048829   4.414856   2.456088
     9  C    2.574737   3.692067   4.649988   5.205154   2.358117
    10  H    3.521047   4.364982   5.672504   6.165272   3.286367
    11  H    3.006875   4.399350   4.862838   5.537198   2.825027
    12  C    2.579654   3.609314   4.128148   4.728340   1.401700
    13  H    3.145078   3.704532   4.680678   5.130059   2.056141
    14  H    3.449904   4.621191   4.662652   5.380452   2.051024
    15  C    2.705788   1.398813   3.723904   3.470909   3.179696
    16  H    2.783977   2.068617   3.744258   3.694906   2.625578
    17  H    3.505587   2.033437   3.927613   3.442875   3.968302
    18  C    3.615701   2.416133   5.102132   4.864004   4.180735
    19  H    4.562139   3.337046   5.863882   5.579171   4.879146
    20  H    3.977675   2.613316   5.386196   5.024077   4.888724
    21  O    3.604698   2.996058   5.550358   5.533806   4.012977
    22  H    2.843431   2.584295   4.973681   5.062299   3.406876
                    6          7          8          9         10
     6  O    0.000000
     7  H    1.121911   0.000000
     8  O    2.667830   3.451361   0.000000
     9  C    3.488555   4.177840   1.400646   0.000000
    10  H    4.485840   5.221062   2.055108   1.094470   0.000000
    11  H    3.446754   4.211983   2.059136   1.098533   1.778257
    12  C    3.797082   4.092070   2.337514   1.530176   2.186070
    13  H    4.579430   4.816968   2.794722   2.163380   2.389040
    14  H    4.438564   4.667352   3.272817   2.188379   2.713581
    15  C    4.071732   4.046011   3.241429   4.086249   4.527747
    16  H    4.313430   4.225504   3.298935   3.774317   4.208763
    17  H    4.701255   4.467915   4.284850   5.151459   5.619793
    18  C    4.933552   5.180539   3.427983   4.291910   4.390315
    19  H    5.948887   6.105439   4.397666   5.087503   5.071528
    20  H    5.034673   5.329604   3.817073   4.903552   5.028426
    21  O    4.934931   5.417798   2.767240   3.398541   3.229717
    22  H    4.086956   4.678053   1.810827   2.593738   2.586613
                   11         12         13         14         15
    11  H    0.000000
    12  C    2.172168   0.000000
    13  H    3.047960   1.098491   0.000000
    14  H    2.405330   1.094765   1.778083   0.000000
    15  C    5.005328   3.731866   3.410868   4.750561   0.000000
    16  H    4.720482   3.061843   2.592979   3.985628   1.096927
    17  H    6.037692   4.680252   4.332862   5.640043   1.097534
    18  C    5.303261   4.301778   3.802277   5.363192   1.519419
    19  H    6.148292   4.916039   4.215879   5.911075   2.140827
    20  H    5.827350   5.126999   4.765129   6.215049   2.133797
    21  O    4.435654   3.705506   3.198700   4.730223   2.450699
    22  H    3.573184   3.133529   2.903889   4.182090   2.500058
                   16         17         18         19         20
    16  H    0.000000
    17  H    1.767614   0.000000
    18  C    2.149215   2.136681   0.000000
    19  H    2.503614   2.393062   1.095373   0.000000
    20  H    3.045187   2.479809   1.099510   1.772677   0.000000
    21  O    2.676160   3.361001   1.404747   2.021439   2.070567
    22  H    2.722212   3.539999   1.939297   2.814758   2.443696
                   21         22
    21  O    0.000000
    22  H    0.975179   0.000000
 Symmetry turned off by external request.
 Stoichiometry    C4H11O6Si(1-)
 Framework group  C1[X(C4H11O6Si)]
 Deg. of freedom    60
 Full point group                 C1      NOp   1
 Rotational constants (GHZ):           1.2530376           0.8843748           0.6707389
 Standard basis: def2TZVPP (5D, 7F)
   506 basis functions,   766 primitive gaussians,   573 cartesian basis functions
    49 alpha electrons       49 beta electrons
       nuclear repulsion energy       866.0238145506 Hartrees.
 NAtoms=   22 NActive=   22 NUniq=   22 SFac= 1.00D+00 NAtFMM=   60 NAOKFM=F Big=F
 Integral buffers will be    131072 words long.
 Raffenetti 2 integral format.
 Two-electron integral symmetry is turned off.
 Nuclear repulsion after empirical dispersion term =      866.0098995384 Hartrees.
 One-electron integrals computed using PRISM.
   1 Symmetry operations used in ECPInt.
 ECPInt:  NShTT=   18145 NPrTT=   50058 LenC2=   17266 LenP2D=   36910.
 LDataN:  DoStor=T MaxTD1= 6 Len=  172
 NBasis=   506 RedAO= T EigKep=  2.42D-04  NBF=   506
 NBsUse=   506 1.00D-06 EigRej= -1.00D+00 NBFU=   506
 Initial guess from the checkpoint file:  "PbiLmL_to_QbiLmL_collapseIRC_Reverse.chk"
 B after Tr=     0.063821   -0.010680   -0.039434
         Rot=    1.000000   -0.000055   -0.000085   -0.000039 Ang=  -0.01 deg.
 ExpMin= 7.01D-02 ExpMax= 4.48D+04 ExpMxC= 1.53D+03 IAcc=3 IRadAn=         5 AccDes= 0.00D+00
 Harris functional with IExCor= 4639 and IRadAn=       5 diagonalized for initial guess.
 HarFok:  IExCor= 4639 AccDes= 0.00D+00 IRadAn=         5 IDoV= 1 UseB2=F ITyADJ=14
 ICtDFT=  3500011 ScaDFX=  1.000000  1.000000  1.000000  1.000000
 FoFCou: FMM=F IPFlag=           0 FMFlag=      100000 FMFlg1=           0
         NFxFlg=           0 DoJE=T BraDBF=F KetDBF=T FulRan=T
         wScrn=  0.000000 ICntrl=       500 IOpCl=  0 I1Cent=   200000004 NGrid=           0
         NMat0=    1 NMatS0=      1 NMatT0=    0 NMatD0=    1 NMtDS0=    0 NMtDT0=    0
 Symmetry not used in FoFCou.
 Requested convergence on RMS density matrix=1.00D-08 within 128 cycles.
 Requested convergence on MAX density matrix=1.00D-06.
 Requested convergence on             energy=1.00D-06.
 No special actions if energy rises.
 Integral accuracy reduced to 1.0D-05 until final iterations.
 Initial convergence to 1.0D-05 achieved.  Increase integral accuracy.
 SCF Done:  E(RwB97XD) =  -900.173170524     A.U. after   11 cycles
            NFock= 11  Conv=0.97D-08     -V/T= 2.0036
 DoSCS=F DFT=T ScalE2(SS,OS)=  1.000000  1.000000
 Range of M.O.s used for correlation:     1   506
 NBasis=   506 NAE=    49 NBE=    49 NFC=     0 NFV=     0
 NROrb=    506 NOA=    49 NOB=    49 NVA=   457 NVB=   457

 **** Warning!!: The largest alpha MO coefficient is  0.13898214D+02

 Symmetrizing basis deriv contribution to polar:
 IMax=3 JMax=2 DiffMx= 0.00D+00
   1 Symmetry operations used in ECPInt.
 ECPInt:  NShTT=   18145 NPrTT=   50058 LenC2=   17266 LenP2D=   36910.
 LDataN:  DoStor=T MaxTD1= 7 Len=  274
 Calling FoFJK, ICntrl=      2127 FMM=F ISym2X=0 I1Cent= 0 IOpClX= 0 NMat=1 NMatS=1 NMatT=0.
 -------------------------------------------------------------------
 Center     Atomic                   Forces (Hartrees/Bohr)
 Number     Number              X              Y              Z
 -------------------------------------------------------------------
      1       14          -0.000149901    0.003075617   -0.004983988
      2        8           0.000425849   -0.000210948    0.000689886
      3        8           0.002504509   -0.000580186   -0.001595576
      4        1           0.000059010    0.000017029   -0.000332653
      5        8          -0.000073486   -0.000530952    0.000139362
      6        8          -0.000807079   -0.001198073    0.002743351
      7        1          -0.000885761   -0.001104946    0.002905862
      8        8          -0.001137559    0.000575003    0.000260905
      9        6          -0.000069585    0.000003700    0.000010038
     10        1           0.000018109    0.000046823    0.000041904
     11        1           0.000012538   -0.000028577   -0.000006196
     12        6           0.000056108   -0.000108972    0.000025898
     13        1           0.000001866   -0.000001606    0.000002702
     14        1           0.000016483   -0.000017869    0.000006231
     15        6           0.000002652   -0.000005633    0.000094729
     16        1          -0.000020663    0.000019158    0.000004879
     17        1          -0.000033148    0.000005275    0.000018556
     18        6           0.000026250    0.000043383   -0.000048616
     19        1           0.000000133   -0.000003824   -0.000003900
     20        1           0.000010747    0.000000965   -0.000000810
     21        8           0.000023759   -0.000021362    0.000026158
     22        1           0.000019169    0.000025995    0.000001276
 -------------------------------------------------------------------
 Cartesian Forces:  Max     0.004983988 RMS     0.001003031
 IRC-IRC-IRC-IRC-IRC-IRC-IRC-IRC-IRC-IRC-IRC-IRC-IRC-IRC-IRC-IRC-IRC-IRC
 Pt  1 Step number   1 out of a maximum of 100
 Modified Bulirsch-Stoer Extrapolation Cycles:
    EPS =    0.000010000000000
      PEZero:  N= 2 I= 1 D=  2.77D-04 Err=  6.61D-04
      PEZero:  N= 3 I= 2 D=  2.77D-04 Err=  4.41D-04
      PEZero:  N= 3 I= 1 D=  5.55D-04 Err=  2.77D-07
 Maximum DWI energy   std dev =  0.000003791 at pt     1
 Maximum DWI gradient std dev =  0.158928049 at pt     1
 CORRECTOR INTEGRATION CONVERGENCE:
   Recorrection delta-x convergence threshold:    0.010000
   Delta-x Convergence Met
 Point Number:   1          Path Number:   1
   CHANGE IN THE REACTION COORDINATE =    0.10625
   NET REACTION COORDINATE UP TO THIS POINT =    0.10625
  # OF POINTS ALONG THE PATH =   1
  # OF STEPS =   1

 Calculating another point on the path.
 IRC-IRC-IRC-IRC-IRC-IRC-IRC-IRC-IRC-IRC-IRC-IRC-IRC-IRC-IRC-IRC-IRC-IRC
                          Input orientation:                          
 ---------------------------------------------------------------------
 Center     Atomic      Atomic             Coordinates (Angstroms)
 Number     Number       Type             X           Y           Z
 ---------------------------------------------------------------------
      1         14           0       -0.793435    0.127242    0.274473
      2          8           0        0.305400    1.372258    0.231910
      3          8           0       -2.343027    1.574077   -0.651893
      4          1           0       -1.945170    2.435577   -0.534061
      5          8           0       -0.916183   -0.705045   -1.176607
      6          8           0       -2.014569    0.312808    1.291805
      7          1           0       -2.468250    1.000130    0.588068
      8          8           0        0.216454   -1.111159    0.963912
      9          6           0        0.041851   -2.310080    0.260331
     10          1           0        0.926720   -2.945190    0.367083
     11          1           0       -0.826780   -2.858652    0.649271
     12          6           0       -0.192581   -1.905102   -1.196459
     13          1           0        0.772709   -1.754854   -1.698712
     14          1           0       -0.752133   -2.668045   -1.747156
     15          6           0        1.375887    1.439517   -0.666019
     16          1           0        1.207261    0.796625   -1.538610
     17          1           0        1.458966    2.470970   -1.031561
     18          6           0        2.689019    1.058001   -0.003775
     19          1           0        3.511206    1.287567   -0.690131
     20          1           0        2.814425    1.685050    0.890642
     21          8           0        2.785553   -0.305382    0.320912
     22          1           0        1.928865   -0.583690    0.694087
 ---------------------------------------------------------------------
                    Distance matrix (angstroms):
                    1          2          3          4          5
     1  Si   0.000000
     2  O    1.661119   0.000000
     3  O    2.313595   2.799287   0.000000
     4  H    2.703449   2.604309   0.956221   0.000000
     5  O    1.677320   2.791303   2.739636   3.366777   0.000000
     6  O    1.600178   2.761896   2.340224   2.800849   2.887133
     7  H    1.914493   2.821075   1.372078   1.895599   2.903552
     8  O    1.740356   2.590579   4.046265   4.415414   2.455528
     9  C    2.576517   3.691866   4.648276   5.205821   2.357702
    10  H    3.522406   4.364019   5.670391   6.165425   3.285958
    11  H    3.009509   4.399616   4.862213   5.538947   2.824863
    12  C    2.579746   3.609614   4.126216   4.727773   1.401475
    13  H    3.144606   3.704660   4.678186   5.128644   2.055979
    14  H    3.449974   4.621594   4.661131   5.379767   2.050807
    15  C    2.704173   1.398836   3.721375   3.469722   3.180162
    16  H    2.781749   2.068683   3.741022   3.692303   2.625847
    17  H    3.503155   2.033284   3.924757   3.440480   3.968556
    18  C    3.615414   2.415770   5.099792   4.863602   4.181070
    19  H    4.561441   3.336843   5.861364   5.578021   4.879439
    20  H    3.977824   2.612847   5.384333   5.024621   4.889121
    21  O    3.605339   2.995589   5.548067   5.533857   4.013121
    22  H    2.844717   2.583598   4.971587   5.062852   3.407128
                    6          7          8          9         10
     6  O    0.000000
     7  H    1.083275   0.000000
     8  O    2.666957   3.436050   0.000000
     9  C    3.488889   4.167195   1.401043   0.000000
    10  H    4.485626   5.209626   2.055322   1.094419   0.000000
    11  H    3.447006   4.193849   2.059385   1.098511   1.778168
    12  C    3.798714   4.099217   2.337703   1.530099   2.186157
    13  H    4.581194   4.829401   2.795233   2.163395   2.389169
    14  H    4.440103   4.674809   3.272911   2.188277   2.713921
    15  C    4.074033   4.067332   3.241437   4.086228   4.527108
    16  H    4.315729   4.251301   3.299085   3.774386   4.208509
    17  H    4.703312   4.495508   4.284554   5.151275   5.619100
    18  C    4.935341   5.191441   3.428594   4.291995   4.389621
    19  H    5.950833   6.121299   4.398311   5.087520   5.070848
    20  H    5.036186   5.335478   3.817540   4.903623   5.027590
    21  O    4.936190   5.420164   2.768212   3.398585   3.228928
    22  H    4.087989   4.674864   1.812010   2.594106   2.586099
                   11         12         13         14         15
    11  H    0.000000
    12  C    2.172138   0.000000
    13  H    3.047911   1.098462   0.000000
    14  H    2.405155   1.094736   1.778036   0.000000
    15  C    5.005596   3.732016   3.410907   4.750726   0.000000
    16  H    4.720720   3.062018   2.593166   3.985807   1.096887
    17  H    6.037773   4.680257   4.332854   5.640080   1.097460
    18  C    5.303535   4.301871   3.802263   5.363238   1.519354
    19  H    6.148435   4.916049   4.215794   5.911026   2.140854
    20  H    5.827680   5.127111   4.765112   6.215123   2.133746
    21  O    4.435759   3.705509   3.198654   4.730149   2.450686
    22  H    3.573659   3.133820   2.904101   4.182338   2.499808
                   16         17         18         19         20
    16  H    0.000000
    17  H    1.767451   0.000000
    18  C    2.149336   2.136787   0.000000
    19  H    2.503817   2.393471   1.095342   0.000000
    20  H    3.045250   2.479880   1.099500   1.772665   0.000000
    21  O    2.676425   3.361123   1.404832   2.021451   2.070566
    22  H    2.722300   3.539720   1.939071   2.814509   2.443365
                   21         22
    21  O    0.000000
    22  H    0.975002   0.000000
 Symmetry turned off by external request.
 Stoichiometry    C4H11O6Si(1-)
 Framework group  C1[X(C4H11O6Si)]
 Deg. of freedom    60
 Full point group                 C1      NOp   1
 Rotational constants (GHZ):           1.2527736           0.8842809           0.6708971
 Standard basis: def2TZVPP (5D, 7F)
   506 basis functions,   766 primitive gaussians,   573 cartesian basis functions
    49 alpha electrons       49 beta electrons
       nuclear repulsion energy       865.9733892315 Hartrees.
 NAtoms=   22 NActive=   22 NUniq=   22 SFac= 1.00D+00 NAtFMM=   60 NAOKFM=F Big=F
 Integral buffers will be    131072 words long.
 Raffenetti 2 integral format.
 Two-electron integral symmetry is turned off.
 Nuclear repulsion after empirical dispersion term =      865.9594643100 Hartrees.
 One-electron integrals computed using PRISM.
   1 Symmetry operations used in ECPInt.
 ECPInt:  NShTT=   18145 NPrTT=   50058 LenC2=   17264 LenP2D=   36904.
 LDataN:  DoStor=T MaxTD1= 6 Len=  172
 NBasis=   506 RedAO= T EigKep=  2.42D-04  NBF=   506
 NBsUse=   506 1.00D-06 EigRej= -1.00D+00 NBFU=   506
 Initial guess from the checkpoint file:  "PbiLmL_to_QbiLmL_collapseIRC_Reverse.chk"
 B after Tr=    -0.000036   -0.000212    0.000410
         Rot=    1.000000   -0.000049   -0.000078   -0.000039 Ang=  -0.01 deg.
 ExpMin= 7.01D-02 ExpMax= 4.48D+04 ExpMxC= 1.53D+03 IAcc=3 IRadAn=         5 AccDes= 0.00D+00
 Harris functional with IExCor= 4639 and IRadAn=       5 diagonalized for initial guess.
 HarFok:  IExCor= 4639 AccDes= 0.00D+00 IRadAn=         5 IDoV= 1 UseB2=F ITyADJ=14
 ICtDFT=  3500011 ScaDFX=  1.000000  1.000000  1.000000  1.000000
 FoFCou: FMM=F IPFlag=           0 FMFlag=      100000 FMFlg1=           0
         NFxFlg=           0 DoJE=T BraDBF=F KetDBF=T FulRan=T
         wScrn=  0.000000 ICntrl=       500 IOpCl=  0 I1Cent=   200000004 NGrid=           0
         NMat0=    1 NMatS0=      1 NMatT0=    0 NMatD0=    1 NMtDS0=    0 NMtDT0=    0
 Symmetry not used in FoFCou.
 Requested convergence on RMS density matrix=1.00D-08 within 128 cycles.
 Requested convergence on MAX density matrix=1.00D-06.
 Requested convergence on             energy=1.00D-06.
 No special actions if energy rises.
 Integral accuracy reduced to 1.0D-05 until final iterations.
 Initial convergence to 1.0D-05 achieved.  Increase integral accuracy.
 SCF Done:  E(RwB97XD) =  -900.173648002     A.U. after   11 cycles
            NFock= 11  Conv=0.92D-08     -V/T= 2.0036
 DoSCS=F DFT=T ScalE2(SS,OS)=  1.000000  1.000000
 Range of M.O.s used for correlation:     1   506
 NBasis=   506 NAE=    49 NBE=    49 NFC=     0 NFV=     0
 NROrb=    506 NOA=    49 NOB=    49 NVA=   457 NVB=   457

 **** Warning!!: The largest alpha MO coefficient is  0.14100944D+02

 Symmetrizing basis deriv contribution to polar:
 IMax=3 JMax=2 DiffMx= 0.00D+00
   1 Symmetry operations used in ECPInt.
 ECPInt:  NShTT=   18145 NPrTT=   50058 LenC2=   17264 LenP2D=   36904.
 LDataN:  DoStor=T MaxTD1= 7 Len=  274
 Calling FoFJK, ICntrl=      2127 FMM=F ISym2X=0 I1Cent= 0 IOpClX= 0 NMat=1 NMatS=1 NMatT=0.
 -------------------------------------------------------------------
 Center     Atomic                   Forces (Hartrees/Bohr)
 Number     Number              X              Y              Z
 -------------------------------------------------------------------
      1       14          -0.001204118    0.005949207   -0.008812909
      2        8           0.000871356   -0.000294831    0.001242647
      3        8           0.004760049   -0.001275119   -0.002789473
      4        1           0.000152013    0.000005940   -0.000596305
      5        8          -0.000160862   -0.000989280    0.000094806
      6        8          -0.000421288   -0.003672344    0.006439434
      7        1          -0.002020409   -0.000818543    0.003695676
      8        8          -0.002105551    0.001089581    0.000367947
      9        6          -0.000128383    0.000095260    0.000075206
     10        1           0.000030967    0.000085474    0.000070560
     11        1           0.000018864   -0.000049431   -0.000010811
     12        6           0.000110449   -0.000219328    0.000056052
     13        1           0.000004063    0.000000717    0.000007387
     14        1           0.000025269   -0.000032363    0.000008586
     15        6           0.000020942    0.000036845    0.000168855
     16        1          -0.000035226    0.000020467    0.000009828
     17        1          -0.000049186    0.000004115    0.000022847
     18        6           0.000064584    0.000078701   -0.000084349
     19        1           0.000009102   -0.000009866   -0.000007630
     20        1           0.000014255   -0.000002305   -0.000006363
     21        8           0.000032993   -0.000039943    0.000022404
     22        1           0.000010117    0.000037045    0.000025605
 -------------------------------------------------------------------
 Cartesian Forces:  Max     0.008812909 RMS     0.001866064
 IRC-IRC-IRC-IRC-IRC-IRC-IRC-IRC-IRC-IRC-IRC-IRC-IRC-IRC-IRC-IRC-IRC-IRC
 Pt  2 Step number   1 out of a maximum of 100
 Modified Bulirsch-Stoer Extrapolation Cycles:
    EPS =    0.000010000000000
      PEZero:  N= 2 I= 1 D=  5.55D-04 Err=  6.70D-05
      PEZero:  N= 3 I= 2 D=  5.55D-04 Err=  4.46D-05
      PEZero:  N= 3 I= 1 D=  1.11D-03 Err=  1.54D-07
 Maximum DWI energy   std dev =  0.000007911 at pt    29
 Maximum DWI gradient std dev =  0.151155729 at pt    27
 CORRECTOR INTEGRATION CONVERGENCE:
   Recorrection delta-x convergence threshold:    0.010000
   Delta-x Convergence NOT Met
 IRC-IRC-IRC-IRC-IRC-IRC-IRC-IRC-IRC-IRC-IRC-IRC-IRC-IRC-IRC-IRC-IRC-IRC
                          Input orientation:                          
 ---------------------------------------------------------------------
 Center     Atomic      Atomic             Coordinates (Angstroms)
 Number     Number       Type             X           Y           Z
 ---------------------------------------------------------------------
      1         14           0       -0.793572    0.127478    0.274207
      2          8           0        0.305469    1.372257    0.231982
      3          8           0       -2.342717    1.573983   -0.652064
      4          1           0       -1.944891    2.435545   -0.534682
      5          8           0       -0.916196   -0.705110   -1.176627
      6          8           0       -2.014360    0.312247    1.292525
      7          1           0       -2.472030    1.003331    0.586661
      8          8           0        0.216324   -1.111094    0.963918
      9          6           0        0.041844   -2.310054    0.260350
     10          1           0        0.926762   -2.945108    0.367137
     11          1           0       -0.826765   -2.858700    0.649259
     12          6           0       -0.192568   -1.905125   -1.196453
     13          1           0        0.772718   -1.754854   -1.698712
     14          1           0       -0.752112   -2.668078   -1.747156
     15          6           0        1.375888    1.439525   -0.666000
     16          1           0        1.207231    0.796641   -1.538599
     17          1           0        1.458944    2.470991   -1.031544
     18          6           0        2.689027    1.058006   -0.003784
     19          1           0        3.511215    1.287561   -0.690151
     20          1           0        2.814444    1.685054    0.890631
     21          8           0        2.785555   -0.305378    0.320911
     22          1           0        1.928832   -0.583677    0.694111
 ---------------------------------------------------------------------
                    Distance matrix (angstroms):
                    1          2          3          4          5
     1  Si   0.000000
     2  O    1.661069   0.000000
     3  O    2.313051   2.799128   0.000000
     4  H    2.703147   2.604318   0.956208   0.000000
     5  O    1.677247   2.791433   2.739415   3.366603   0.000000
     6  O    1.600448   2.762243   2.341202   2.802125   2.887507
     7  H    1.918845   2.824253   1.369966   1.893811   2.906643
     8  O    1.740589   2.590504   4.045951   4.415347   2.455475
     9  C    2.576757   3.691845   4.648051   5.205756   2.357666
    10  H    3.522637   4.363934   5.670137   6.165314   3.285924
    11  H    3.009821   4.399667   4.862121   5.539038   2.824855
    12  C    2.579830   3.609668   4.125978   4.727577   1.401452
    13  H    3.144654   3.704689   4.677880   5.128333   2.055958
    14  H    3.450038   4.621663   4.660937   5.379571   2.050773
    15  C    2.704074   1.398818   3.721061   3.469420   3.180228
    16  H    2.781592   2.068686   3.740633   3.691846   2.625875
    17  H    3.502980   2.033277   3.924443   3.440090   3.968621
    18  C    3.615475   2.415717   5.099505   4.863400   4.181121
    19  H    4.561466   3.336811   5.861058   5.577735   4.879483
    20  H    3.977914   2.612779   5.384102   5.024542   4.889183
    21  O    3.605509   2.995529   5.547779   5.533698   4.013149
    22  H    2.844916   2.583515   4.971299   5.062742   3.407138
                    6          7          8          9         10
     6  O    0.000000
     7  H    1.088716   0.000000
     8  O    2.666427   3.440982   0.000000
     9  C    3.488528   4.171877   1.401056   0.000000
    10  H    4.485188   5.214418   2.055354   1.094430   0.000000
    11  H    3.446603   4.198344   2.059410   1.098519   1.778178
    12  C    3.798773   4.102994   2.337709   1.530095   2.186156
    13  H    4.581289   4.833105   2.795282   2.163411   2.389177
    14  H    4.440188   4.678040   3.272918   2.188293   2.713963
    15  C    4.074355   4.070123   3.241432   4.086214   4.527041
    16  H    4.316081   4.253988   3.299081   3.774373   4.208465
    17  H    4.703756   4.497241   4.284542   5.151267   5.619044
    18  C    4.935426   5.195010   3.428659   4.291989   4.389542
    19  H    5.950985   6.124561   4.398385   5.087516   5.070773
    20  H    5.036216   5.338909   3.817596   4.903616   5.027503
    21  O    4.936060   5.424532   2.768318   3.398579   3.228842
    22  H    4.087731   4.679501   1.812084   2.594080   2.586003
                   11         12         13         14         15
    11  H    0.000000
    12  C    2.172133   0.000000
    13  H    3.047915   1.098463   0.000000
    14  H    2.405143   1.094742   1.778041   0.000000
    15  C    5.005629   3.732040   3.410919   4.750757   0.000000
    16  H    4.720739   3.062032   2.593176   3.985825   1.096893
    17  H    6.037811   4.680286   4.332873   5.640115   1.097470
    18  C    5.303569   4.301883   3.802263   5.363253   1.519349
    19  H    6.148460   4.916054   4.215786   5.911032   2.140863
    20  H    5.827723   5.127126   4.765114   6.215143   2.133735
    21  O    4.435777   3.705509   3.198652   4.730152   2.450682
    22  H    3.573661   3.133815   2.904111   4.182341   2.499800
                   16         17         18         19         20
    16  H    0.000000
    17  H    1.767459   0.000000
    18  C    2.149346   2.136802   0.000000
    19  H    2.503839   2.393506   1.095348   0.000000
    20  H    3.045254   2.479886   1.099499   1.772671   0.000000
    21  O    2.676440   3.361139   1.404835   2.021456   2.070564
    22  H    2.722311   3.539728   1.939092   2.814542   2.443372
                   21         22
    21  O    0.000000
    22  H    0.975040   0.000000
 Symmetry turned off by external request.
 Stoichiometry    C4H11O6Si(1-)
 Framework group  C1[X(C4H11O6Si)]
 Deg. of freedom    60
 Full point group                 C1      NOp   1
 Rotational constants (GHZ):           1.2526883           0.8842562           0.6709108
 Standard basis: def2TZVPP (5D, 7F)
   506 basis functions,   766 primitive gaussians,   573 cartesian basis functions
    49 alpha electrons       49 beta electrons
       nuclear repulsion energy       865.9340620001 Hartrees.
 NAtoms=   22 NActive=   22 NUniq=   22 SFac= 1.00D+00 NAtFMM=   60 NAOKFM=F Big=F
 Integral buffers will be    131072 words long.
 Raffenetti 2 integral format.
 Two-electron integral symmetry is turned off.
 Nuclear repulsion after empirical dispersion term =      865.9201389315 Hartrees.
 One-electron integrals computed using PRISM.
   1 Symmetry operations used in ECPInt.
 ECPInt:  NShTT=   18145 NPrTT=   50058 LenC2=   17264 LenP2D=   36906.
 LDataN:  DoStor=T MaxTD1= 6 Len=  172
 NBasis=   506 RedAO= T EigKep=  2.42D-04  NBF=   506
 NBsUse=   506 1.00D-06 EigRej= -1.00D+00 NBFU=   506
 Initial guess from the checkpoint file:  "PbiLmL_to_QbiLmL_collapseIRC_Reverse.chk"
 B after Tr=    -0.000034    0.000028   -0.000013
         Rot=    1.000000    0.000005    0.000005    0.000002 Ang=   0.00 deg.
 ExpMin= 7.01D-02 ExpMax= 4.48D+04 ExpMxC= 1.53D+03 IAcc=3 IRadAn=         5 AccDes= 0.00D+00
 Harris functional with IExCor= 4639 and IRadAn=       5 diagonalized for initial guess.
 HarFok:  IExCor= 4639 AccDes= 0.00D+00 IRadAn=         5 IDoV= 1 UseB2=F ITyADJ=14
 ICtDFT=  3500011 ScaDFX=  1.000000  1.000000  1.000000  1.000000
 FoFCou: FMM=F IPFlag=           0 FMFlag=      100000 FMFlg1=           0
         NFxFlg=           0 DoJE=T BraDBF=F KetDBF=T FulRan=T
         wScrn=  0.000000 ICntrl=       500 IOpCl=  0 I1Cent=   200000004 NGrid=           0
         NMat0=    1 NMatS0=      1 NMatT0=    0 NMatD0=    1 NMtDS0=    0 NMtDT0=    0
 Symmetry not used in FoFCou.
 Requested convergence on RMS density matrix=1.00D-08 within 128 cycles.
 Requested convergence on MAX density matrix=1.00D-06.
 Requested convergence on             energy=1.00D-06.
 No special actions if energy rises.
 Integral accuracy reduced to 1.0D-05 until final iterations.
 Initial convergence to 1.0D-05 achieved.  Increase integral accuracy.
 SCF Done:  E(RwB97XD) =  -900.173662819     A.U. after    9 cycles
            NFock=  9  Conv=0.62D-08     -V/T= 2.0036
 DoSCS=F DFT=T ScalE2(SS,OS)=  1.000000  1.000000
 Range of M.O.s used for correlation:     1   506
 NBasis=   506 NAE=    49 NBE=    49 NFC=     0 NFV=     0
 NROrb=    506 NOA=    49 NOB=    49 NVA=   457 NVB=   457

 **** Warning!!: The largest alpha MO coefficient is  0.14103434D+02

 Symmetrizing basis deriv contribution to polar:
 IMax=3 JMax=2 DiffMx= 0.00D+00
   1 Symmetry operations used in ECPInt.
 ECPInt:  NShTT=   18145 NPrTT=   50058 LenC2=   17264 LenP2D=   36906.
 LDataN:  DoStor=T MaxTD1= 7 Len=  274
 Calling FoFJK, ICntrl=      2127 FMM=F ISym2X=0 I1Cent= 0 IOpClX= 0 NMat=1 NMatS=1 NMatT=0.
 -------------------------------------------------------------------
 Center     Atomic                   Forces (Hartrees/Bohr)
 Number     Number              X              Y              Z
 -------------------------------------------------------------------
      1       14          -0.001728182    0.005838944   -0.008141609
      2        8           0.000863455   -0.000226360    0.001160025
      3        8           0.004472450   -0.001389006   -0.002353165
      4        1           0.000150757    0.000019800   -0.000544091
      5        8          -0.000177145   -0.000932969   -0.000004541
      6        8          -0.001082465   -0.002546233    0.005203233
      7        1          -0.000620558   -0.001870871    0.004015457
      8        8          -0.002025718    0.001050699    0.000280074
      9        6          -0.000123097    0.000146846    0.000111755
     10        1           0.000029674    0.000081450    0.000064746
     11        1           0.000017890   -0.000045184   -0.000010863
     12        6           0.000114812   -0.000225541    0.000061685
     13        1           0.000004993    0.000000250    0.000007288
     14        1           0.000025678   -0.000029834    0.000007631
     15        6           0.000028923    0.000047378    0.000160529
     16        1          -0.000030103    0.000018378    0.000011440
     17        1          -0.000039903    0.000004167    0.000020338
     18        6           0.000073442    0.000062238   -0.000082850
     19        1           0.000007247   -0.000008365   -0.000006903
     20        1           0.000013262    0.000000228   -0.000006039
     21        8           0.000016186   -0.000029856    0.000024303
     22        1           0.000008403    0.000033842    0.000021557
 -------------------------------------------------------------------
 Cartesian Forces:  Max     0.008141609 RMS     0.001716266
 IRC-IRC-IRC-IRC-IRC-IRC-IRC-IRC-IRC-IRC-IRC-IRC-IRC-IRC-IRC-IRC-IRC-IRC
 Error in corrector energy =          -0.0000034340
 Magnitude of corrector gradient =     0.0143201529
 Magnitude of analytic gradient =      0.0139430098
 Magnitude of difference =             0.0009525846
 Angle between gradients (degrees)=    3.5475
 Pt  2 Step number   2 out of a maximum of 100
 Modified Bulirsch-Stoer Extrapolation Cycles:
    EPS =    0.000010000000000
      PEZero:  N= 2 I= 1 D=  5.55D-04 Err=  5.55D-05
      PEZero:  N= 3 I= 2 D=  5.55D-04 Err=  3.69D-05
      PEZero:  N= 3 I= 1 D=  1.11D-03 Err=  1.02D-07
 Maximum DWI energy   std dev =  0.000009792 at pt    35
 Maximum DWI gradient std dev =  0.123165974 at pt    27
 CORRECTOR INTEGRATION CONVERGENCE:
   Recorrection delta-x convergence threshold:    0.010000
   Delta-x Convergence Met
 Point Number:   2          Path Number:   1
   CHANGE IN THE REACTION COORDINATE =    0.10618
   NET REACTION COORDINATE UP TO THIS POINT =    0.21243
  # OF POINTS ALONG THE PATH =   2
  # OF STEPS =   2

 Calculating another point on the path.
 IRC-IRC-IRC-IRC-IRC-IRC-IRC-IRC-IRC-IRC-IRC-IRC-IRC-IRC-IRC-IRC-IRC-IRC
                          Input orientation:                          
 ---------------------------------------------------------------------
 Center     Atomic      Atomic             Coordinates (Angstroms)
 Number     Number       Type             X           Y           Z
 ---------------------------------------------------------------------
      1         14           0       -0.794294    0.129752    0.271071
      2          8           0        0.306061    1.372122    0.232755
      3          8           0       -2.339619    1.573004   -0.653687
      4          1           0       -1.943114    2.435788   -0.540481
      5          8           0       -0.916320   -0.705734   -1.176663
      6          8           0       -2.015018    0.310463    1.296069
      7          1           0       -2.479402    0.984496    0.628397
      8          8           0        0.214938   -1.110362    0.964085
      9          6           0        0.041722   -2.309898    0.260462
     10          1           0        0.927062   -2.944209    0.367853
     11          1           0       -0.826589   -2.859169    0.649144
     12          6           0       -0.192462   -1.905331   -1.196396
     13          1           0        0.772777   -1.754855   -1.698621
     14          1           0       -0.751824   -2.668409   -1.747071
     15          6           0        1.375930    1.439569   -0.665865
     16          1           0        1.206921    0.796823   -1.538464
     17          1           0        1.458540    2.471023   -1.031350
     18          6           0        2.689100    1.058056   -0.003853
     19          1           0        3.511307    1.287460   -0.690212
     20          1           0        2.814585    1.685055    0.890569
     21          8           0        2.785557   -0.305402    0.320936
     22          1           0        1.928918   -0.583301    0.694344
 ---------------------------------------------------------------------
                    Distance matrix (angstroms):
                    1          2          3          4          5
     1  Si   0.000000
     2  O    1.660040   0.000000
     3  O    2.307853   2.797456   0.000000
     4  H    2.701150   2.605392   0.956257   0.000000
     5  O    1.675965   2.792518   2.737139   3.365738   0.000000
     6  O    1.604196   2.764989   2.345406   2.809821   2.890363
     7  H    1.922982   2.839998   1.417611   1.939105   2.925465
     8  O    1.742613   2.589571   4.042698   4.415438   2.454847
     9  C    2.578939   3.691600   4.645792   5.206017   2.357226
    10  H    3.524439   4.362867   5.667448   6.165010   3.285477
    11  H    3.012910   4.400011   4.861151   5.540614   2.824696
    12  C    2.580160   3.610083   4.123547   4.726555   1.401212
    13  H    3.144383   3.704865   4.674778   5.126290   2.055760
    14  H    3.450276   4.622199   4.658988   5.378462   2.050492
    15  C    2.702470   1.398816   3.717965   3.467597   3.180825
    16  H    2.779256   2.068752   3.736741   3.688482   2.626163
    17  H    3.500445   2.033163   3.921107   3.437070   3.968988
    18  C    3.615434   2.415263   5.096614   4.862461   4.181565
    19  H    4.560982   3.336561   5.858004   5.576002   4.879892
    20  H    3.978286   2.612153   5.381739   5.024660   4.889680
    21  O    3.606546   2.994956   5.544883   5.533217   4.013348
    22  H    2.846662   2.582713   4.968627   5.062838   3.407497
                    6          7          8          9         10
     6  O    0.000000
     7  H    1.056295   0.000000
     8  O    2.664895   3.429372   0.000000
     9  C    3.488403   4.164670   1.401419   0.000000
    10  H    4.484453   5.206401   2.055628   1.094400   0.000000
    11  H    3.446367   4.184016   2.059682   1.098515   1.778102
    12  C    3.800505   4.112307   2.337869   1.530016   2.186201
    13  H    4.583177   4.847240   2.795811   2.163451   2.389284
    14  H    4.441851   4.687333   3.272996   2.188248   2.714337
    15  C    4.077081   4.092162   3.241418   4.086158   4.526319
    16  H    4.318798   4.280127   3.299112   3.774326   4.208050
    17  H    4.706432   4.524590   4.284230   5.151054   5.618271
    18  C    4.937349   5.207548   3.429346   4.292037   4.388743
    19  H    5.953160   6.141589   4.399125   5.087513   5.069995
    20  H    5.037758   5.346571   3.818106   4.903616   5.026535
    21  O    4.937174   5.429379   2.769419   3.398572   3.227926
    22  H    4.088462   4.679276   1.813362   2.594398   2.585382
                   11         12         13         14         15
    11  H    0.000000
    12  C    2.172082   0.000000
    13  H    3.047865   1.098436   0.000000
    14  H    2.404959   1.094721   1.778014   0.000000
    15  C    5.005945   3.732248   3.410971   4.750981   0.000000
    16  H    4.720918   3.062177   2.593298   3.985980   1.096866
    17  H    6.037948   4.680334   4.332848   5.640188   1.097407
    18  C    5.303877   4.302002   3.802236   5.363329   1.519285
    19  H    6.148638   4.916101   4.215699   5.911018   2.140927
    20  H    5.828070   5.127244   4.765068   6.215228   2.133654
    21  O    4.435881   3.705492   3.198563   4.730065   2.450663
    22  H    3.574134   3.134154   2.904390   4.182650   2.499593
                   16         17         18         19         20
    16  H    0.000000
    17  H    1.767320   0.000000
    18  C    2.149448   2.136938   0.000000
[...]
      9          6           0        0.009788   -2.229339    0.286621
     10          1           0        0.897669   -2.855941    0.437940
     11          1           0       -0.861461   -2.773183    0.687475
     12          6           0       -0.206989   -1.910153   -1.189697
     13          1           0        0.764948   -1.751722   -1.679001
     14          1           0       -0.729949   -2.715096   -1.719719
     15          6           0        1.384760    1.451944   -0.651461
     16          1           0        1.205702    0.801539   -1.518686
     17          1           0        1.499948    2.477254   -1.035475
     18          6           0        2.694795    1.045385    0.001242
     19          1           0        3.516188    1.244410   -0.697931
     20          1           0        2.846444    1.684440    0.884550
     21          8           0        2.745510   -0.312038    0.345955
     22          1           0        1.852339   -0.559410    0.672949
 ---------------------------------------------------------------------
                    Distance matrix (angstroms):
                    1          2          3          4          5
     1  Si   0.000000
     2  O    1.702700   0.000000
     3  O    1.757233   2.508758   0.000000
     4  H    2.247246   2.288160   0.953478   0.000000
     5  O    1.704241   2.912057   2.444983   3.032129   0.000000
     6  O    1.679575   2.881396   2.444029   3.079665   3.009520
     7  H    2.139269   3.238895   2.120892   2.762320   3.382232
     8  O    1.819523   2.506487   3.574624   4.003672   2.427783
     9  C    2.658667   3.659880   4.242823   4.819751   2.340352
    10  H    3.617417   4.316502   5.256147   5.754483   3.277131
    11  H    3.077249   4.375562   4.506581   5.230080   2.798886
    12  C    2.647236   3.662595   3.801454   4.348351   1.396196
    13  H    3.199433   3.735623   4.326843   4.677231   2.054069
    14  H    3.517249   4.695445   4.430784   5.072686   2.049879
    15  C    2.720822   1.395360   3.418906   3.053054   3.263776
    16  H    2.760775   2.070533   3.408637   3.197198   2.676466
    17  H    3.495019   2.041186   3.723557   3.096865   4.056002
    18  C    3.706397   2.417889   4.780714   4.488629   4.253399
    19  H    4.627037   3.339162   5.551416   5.178506   4.928752
    20  H    4.097368   2.620594   5.117125   4.749232   4.986972
    21  O    3.717888   2.981756   5.160179   5.119344   4.053929
    22  H    2.939817   2.537892   4.530667   4.629682   3.404902
                    6          7          8          9         10
     6  O    0.000000
     7  H    0.956338   0.000000
     8  O    2.458663   3.338443   0.000000
     9  C    3.289900   4.118291   1.387316   0.000000
    10  H    4.254732   5.131136   2.054150   1.097206   0.000000
    11  H    3.200056   3.990122   2.061004   1.102508   1.778667
    12  C    3.782842   4.382690   2.314301   1.525906   2.182656
    13  H    4.568006   5.176538   2.758895   2.159180   2.391308
    14  H    4.450160   4.971882   3.260896   2.192846   2.706376
    15  C    4.169320   4.553799   3.148913   4.040098   4.470115
    16  H    4.401147   4.788322   3.193494   3.724992   4.159378
    17  H    4.868857   5.084598   4.198284   5.110826   5.565669
    18  C    4.956995   5.526622   3.377798   4.244352   4.317490
    19  H    5.985801   6.518458   4.341952   5.033003   4.995971
    20  H    5.074776   5.612579   3.795204   4.870504   4.961073
    21  O    4.848494   5.595524   2.732135   3.341218   3.145539
    22  H    3.945716   4.743379   1.762991   2.516527   2.498135
                   11         12         13         14         15
    11  H    0.000000
    12  C    2.167240   0.000000
    13  H    3.047753   1.099628   0.000000
    14  H    2.411483   1.096515   1.778894   0.000000
    15  C    4.968899   3.758598   3.421035   4.793474   0.000000
    16  H    4.681767   3.075256   2.595978   4.019189   1.098711
    17  H    6.009318   4.710282   4.340344   5.692199   1.100907
    18  C    5.263016   4.309744   3.790954   5.369525   1.519047
    19  H    6.101165   4.904605   4.184331   5.895034   2.142012
    20  H    5.801535   5.152383   4.765672   6.239289   2.133051
    21  O    4.379966   3.691808   3.177382   4.703244   2.440924
    22  H    3.502243   3.087845   2.852314   4.127960   2.453210
                   16         17         18         19         20
    16  H    0.000000
    17  H    1.768642   0.000000
    18  C    2.141737   2.133704   0.000000
    19  H    2.491610   2.387272   1.096878   0.000000
    20  H    3.040903   2.475501   1.100737   1.773818   0.000000
    21  O    2.662320   3.352600   1.401427   2.026370   2.070314
    22  H    2.659621   3.502032   1.932949   2.810956   2.463308
                   21         22
    21  O    0.000000
    22  H    0.982788   0.000000
 Symmetry turned off by external request.
 Stoichiometry    C4H11O6Si(1-)
 Framework group  C1[X(C4H11O6Si)]
 Deg. of freedom    60
 Full point group                 C1      NOp   1
 Rotational constants (GHZ):           1.2855483           0.9028359           0.7067001
 Standard basis: def2TZVPP (5D, 7F)
   506 basis functions,   766 primitive gaussians,   573 cartesian basis functions
    49 alpha electrons       49 beta electrons
       nuclear repulsion energy       875.2320170442 Hartrees.
 NAtoms=   22 NActive=   22 NUniq=   22 SFac= 1.00D+00 NAtFMM=   60 NAOKFM=F Big=F
 Integral buffers will be    131072 words long.
 Raffenetti 2 integral format.
 Two-electron integral symmetry is turned off.
 Nuclear repulsion after empirical dispersion term =      875.2178853805 Hartrees.
 One-electron integrals computed using PRISM.
   1 Symmetry operations used in ECPInt.
 ECPInt:  NShTT=   18145 NPrTT=   50058 LenC2=   17322 LenP2D=   37125.
 LDataN:  DoStor=T MaxTD1= 6 Len=  172
 NBasis=   506 RedAO= T EigKep=  2.35D-04  NBF=   506
 NBsUse=   506 1.00D-06 EigRej= -1.00D+00 NBFU=   506
 Initial guess from the checkpoint file:  "PbiLmL_to_QbiLmL_collapseIRC_Reverse.chk"
 B after Tr=     0.000039   -0.000021   -0.000016
         Rot=    1.000000    0.000020    0.000001    0.000006 Ang=   0.00 deg.
 ExpMin= 7.01D-02 ExpMax= 4.48D+04 ExpMxC= 1.53D+03 IAcc=3 IRadAn=         5 AccDes= 0.00D+00
 Harris functional with IExCor= 4639 and IRadAn=       5 diagonalized for initial guess.
 HarFok:  IExCor= 4639 AccDes= 0.00D+00 IRadAn=         5 IDoV= 1 UseB2=F ITyADJ=14
 ICtDFT=  3500011 ScaDFX=  1.000000  1.000000  1.000000  1.000000
 FoFCou: FMM=F IPFlag=           0 FMFlag=      100000 FMFlg1=           0
         NFxFlg=           0 DoJE=T BraDBF=F KetDBF=T FulRan=T
         wScrn=  0.000000 ICntrl=       500 IOpCl=  0 I1Cent=   200000004 NGrid=           0
         NMat0=    1 NMatS0=      1 NMatT0=    0 NMatD0=    1 NMtDS0=    0 NMtDT0=    0
 Symmetry not used in FoFCou.
 Requested convergence on RMS density matrix=1.00D-08 within 128 cycles.
 Requested convergence on MAX density matrix=1.00D-06.
 Requested convergence on             energy=1.00D-06.
 No special actions if energy rises.
 Integral accuracy reduced to 1.0D-05 until final iterations.
 Initial convergence to 1.0D-05 achieved.  Increase integral accuracy.
 SCF Done:  E(RwB97XD) =  -900.209037196     A.U. after    9 cycles
            NFock=  9  Conv=0.72D-08     -V/T= 2.0036
 DoSCS=F DFT=T ScalE2(SS,OS)=  1.000000  1.000000
 Range of M.O.s used for correlation:     1   506
 NBasis=   506 NAE=    49 NBE=    49 NFC=     0 NFV=     0
 NROrb=    506 NOA=    49 NOB=    49 NVA=   457 NVB=   457

 **** Warning!!: The largest alpha MO coefficient is  0.13651893D+02

 Symmetrizing basis deriv contribution to polar:
 IMax=3 JMax=2 DiffMx= 0.00D+00
   1 Symmetry operations used in ECPInt.
 ECPInt:  NShTT=   18145 NPrTT=   50058 LenC2=   17322 LenP2D=   37125.
 LDataN:  DoStor=T MaxTD1= 7 Len=  274
 Calling FoFJK, ICntrl=      2127 FMM=F ISym2X=0 I1Cent= 0 IOpClX= 0 NMat=1 NMatS=1 NMatT=0.
 -------------------------------------------------------------------
 Center     Atomic                   Forces (Hartrees/Bohr)
 Number     Number              X              Y              Z
 -------------------------------------------------------------------
      1       14           0.000246651    0.000416529   -0.000810225
      2        8          -0.000265812    0.000994984   -0.000499023
      3        8           0.001122032    0.000955777    0.000308994
      4        1          -0.000555906   -0.001002718   -0.000037361
      5        8          -0.000862527   -0.000416409   -0.000194079
      6        8           0.001022225   -0.002184612    0.000130996
      7        1          -0.000015751   -0.000083927    0.000052336
      8        8           0.001281022    0.001437990   -0.001180516
      9        6          -0.000381556    0.000609645    0.000327052
     10        1          -0.000055505   -0.000010249    0.000035199
     11        1          -0.000047843    0.000112758    0.000074684
     12        6          -0.000707687   -0.000369747    0.000206562
     13        1          -0.000050580   -0.000050344   -0.000011097
     14        1          -0.000064593   -0.000043096    0.000050938
     15        6           0.000273209    0.000259939    0.000121618
     16        1           0.000018383    0.000026148   -0.000002310
     17        1           0.000052980    0.000017655    0.000015044
     18        6          -0.000033296   -0.000330983    0.000387380
     19        1           0.000008002   -0.000048620    0.000021012
     20        1           0.000012284   -0.000006881    0.000017316
     21        8          -0.000933648   -0.000281218    0.000979080
     22        1          -0.000062083   -0.000002623    0.000006400
 -------------------------------------------------------------------
 Cartesian Forces:  Max     0.002184612 RMS     0.000569003
 IRC-IRC-IRC-IRC-IRC-IRC-IRC-IRC-IRC-IRC-IRC-IRC-IRC-IRC-IRC-IRC-IRC-IRC
 Error in corrector energy =          -0.0000048637
 Magnitude of corrector gradient =     0.0043037295
 Magnitude of analytic gradient =      0.0046225990
 Magnitude of difference =             0.0019012893
 Angle between gradients (degrees)=   24.2582
 Pt 49 Step number  84 out of a maximum of 100
 Modified Bulirsch-Stoer Extrapolation Cycles:
    EPS =    0.000010000000000
      PEZero:  N= 2 I= 1 D=  5.54D-04 Err=  1.04D-04
      PEZero:  N= 3 I= 2 D=  5.54D-04 Err=  6.91D-05
      PEZero:  N= 3 I= 1 D=  1.11D-03 Err=  2.54D-07
 Maximum DWI energy   std dev =  0.000003915 at pt    27
 Maximum DWI gradient std dev =  0.459256276 at pt    37
 CORRECTOR INTEGRATION CONVERGENCE:
   Recorrection delta-x convergence threshold:    0.010000
   Delta-x Convergence NOT Met
 IRC-IRC-IRC-IRC-IRC-IRC-IRC-IRC-IRC-IRC-IRC-IRC-IRC-IRC-IRC-IRC-IRC-IRC
                          Input orientation:                          
 ---------------------------------------------------------------------
 Center     Atomic      Atomic             Coordinates (Angstroms)
 Number     Number       Type             X           Y           Z
 ---------------------------------------------------------------------
      1         14           0       -0.923645    0.256769    0.151683
      2          8           0        0.318418    1.417304    0.247862
      3          8           0       -2.032369    1.375414   -0.625151
      4          1           0       -1.577711    2.197884   -0.771343
      5          8           0       -0.964678   -0.738127   -1.231353
      6          8           0       -1.948534    0.131112    1.477022
      7          1           0       -2.669708    0.731511    1.292212
      8          8           0        0.160208   -0.996330    0.904609
      9          6           0        0.009748   -2.229310    0.286656
     10          1           0        0.897574   -2.856062    0.437887
     11          1           0       -0.861509   -2.773207    0.687469
     12          6           0       -0.206998   -1.910157   -1.189708
     13          1           0        0.764960   -1.751609   -1.678967
     14          1           0       -0.729871   -2.715082   -1.719867
     15          6           0        1.384753    1.451968   -0.651463
     16          1           0        1.205667    0.801573   -1.518691
     17          1           0        1.499853    2.477290   -1.035481
     18          6           0        2.694781    1.045375    0.001256
     19          1           0        3.516164    1.244397   -0.697959
     20          1           0        2.846422    1.684478    0.884546
     21          8           0        2.745465   -0.312061    0.346006
     22          1           0        1.852333   -0.559435    0.673130
 ---------------------------------------------------------------------
                    Distance matrix (angstroms):
                    1          2          3          4          5
     1  Si   0.000000
     2  O    1.702591   0.000000
     3  O    1.756163   2.508009   0.000000
     4  H    2.246710   2.289845   0.951074   0.000000
     5  O    1.704198   2.912095   2.444280   3.034400   0.000000
     6  O    1.680092   2.881700   2.444269   3.076394   3.009792
     7  H    2.138906   3.238808   2.120635   2.756985   3.381619
     8  O    1.819860   2.506387   3.573895   4.004020   2.427832
     9  C    2.658952   3.659860   4.242130   4.820729   2.340402
    10  H    3.617798   4.316617   5.255473   5.756009   3.277192
    11  H    3.077609   4.375599   4.506100   5.229992   2.798941
    12  C    2.647353   3.662604   3.800747   4.350848   1.396232
    13  H    3.199414   3.735516   4.325951   4.680853   2.054056
    14  H    3.517406   4.695475   4.430244   5.075014   2.049910
    15  C    2.720708   1.395370   3.418080   3.057279   3.263834
    16  H    2.760604   2.070519   3.407724   3.202407   2.676497
    17  H    3.494770   2.041159   3.722780   3.101489   4.056006
    18  C    3.706419   2.417901   4.779880   4.492146   4.253451
    19  H    4.627009   3.339170   5.550557   5.182865   4.928779
    20  H    4.097420   2.620601   5.116376   4.751685   4.987036
    21  O    3.718023   2.981759   5.159303   5.122318   4.053979
    22  H    2.940094   2.537961   4.529910   4.631901   3.405075
                    6          7          8          9         10
     6  O    0.000000
     7  H    0.956413   0.000000
     8  O    2.458775   3.338277   0.000000
     9  C    3.289898   4.117898   1.387352   0.000000
    10  H    4.254801   5.130891   2.054298   1.097235   0.000000
    11  H    3.200013   3.989780   2.061152   1.102526   1.778631
    12  C    3.783011   4.382154   2.314322   1.525938   2.182632
    13  H    4.568145   5.175976   2.758810   2.159216   2.391332
    14  H    4.450400   4.971377   3.261016   2.192976   2.706354
    15  C    4.169642   4.553634   3.148815   4.040113   4.470251
    16  H    4.401455   4.787966   3.193403   3.725017   4.159497
    17  H    4.869147   5.084401   4.198170   5.110826   5.565806
    18  C    4.957230   5.526556   3.377672   4.244340   4.317616
    19  H    5.986056   6.518347   4.341834   5.032998   4.996091
    20  H    5.074995   5.612667   3.795112   4.870516   4.961251
    21  O    4.848631   5.595395   2.731998   3.341184   3.145645
    22  H    3.945844   4.743275   1.762880   2.516538   2.498279
                   11         12         13         14         15
    11  H    0.000000
    12  C    2.167265   0.000000
    13  H    3.047799   1.099642   0.000000
    14  H    2.411634   1.096526   1.778896   0.000000
    15  C    4.968957   3.758625   3.420938   4.793478   0.000000
    16  H    4.681818   3.075278   2.595892   4.019160   1.098713
    17  H    6.009352   4.710288   4.340246   5.692168   1.100910
    18  C    5.263046   4.309743   3.790842   5.369502   1.519057
    19  H    6.101195   4.904586   4.184204   5.894963   2.142000
    20  H    5.801599   5.152407   4.765583   6.239308   2.133040
    21  O    4.379965   3.691797   3.177296   4.703222   2.440959
    22  H    3.502275   3.087954   2.852371   4.128078   2.453349
                   16         17         18         19         20
    16  H    0.000000
    17  H    1.768633   0.000000
    18  C    2.141761   2.133790   0.000000
    19  H    2.491604   2.387354   1.096897   0.000000
    20  H    3.040912   2.475541   1.100748   1.773851   0.000000
    21  O    2.662377   3.352691   1.401447   2.026426   2.070359
    22  H    2.659812   3.502185   1.933016   2.811056   2.463343
                   21         22
    21  O    0.000000
    22  H    0.982797   0.000000
 Symmetry turned off by external request.
 Stoichiometry    C4H11O6Si(1-)
 Framework group  C1[X(C4H11O6Si)]
 Deg. of freedom    60
 Full point group                 C1      NOp   1
 Rotational constants (GHZ):           1.2855779           0.9028660           0.7067391
 Standard basis: def2TZVPP (5D, 7F)
   506 basis functions,   766 primitive gaussians,   573 cartesian basis functions
    49 alpha electrons       49 beta electrons
       nuclear repulsion energy       875.2536783150 Hartrees.
 NAtoms=   22 NActive=   22 NUniq=   22 SFac= 1.00D+00 NAtFMM=   60 NAOKFM=F Big=F
 Integral buffers will be    131072 words long.
 Raffenetti 2 integral format.
 Two-electron integral symmetry is turned off.
 Nuclear repulsion after empirical dispersion term =      875.2395466720 Hartrees.
 One-electron integrals computed using PRISM.
   1 Symmetry operations used in ECPInt.
 ECPInt:  NShTT=   18145 NPrTT=   50058 LenC2=   17322 LenP2D=   37126.
 LDataN:  DoStor=T MaxTD1= 6 Len=  172
 NBasis=   506 RedAO= T EigKep=  2.35D-04  NBF=   506
 NBsUse=   506 1.00D-06 EigRej= -1.00D+00 NBFU=   506
 Initial guess from the checkpoint file:  "PbiLmL_to_QbiLmL_collapseIRC_Reverse.chk"
 B after Tr=    -0.000039    0.000021    0.000016
         Rot=    1.000000   -0.000020   -0.000001   -0.000006 Ang=  -0.00 deg.
 ExpMin= 7.01D-02 ExpMax= 4.48D+04 ExpMxC= 1.53D+03 IAcc=3 IRadAn=         5 AccDes= 0.00D+00
 Harris functional with IExCor= 4639 and IRadAn=       5 diagonalized for initial guess.
 HarFok:  IExCor= 4639 AccDes= 0.00D+00 IRadAn=         5 IDoV= 1 UseB2=F ITyADJ=14
 ICtDFT=  3500011 ScaDFX=  1.000000  1.000000  1.000000  1.000000
 FoFCou: FMM=F IPFlag=           0 FMFlag=      100000 FMFlg1=           0
         NFxFlg=           0 DoJE=T BraDBF=F KetDBF=T FulRan=T
         wScrn=  0.000000 ICntrl=       500 IOpCl=  0 I1Cent=   200000004 NGrid=           0
         NMat0=    1 NMatS0=      1 NMatT0=    0 NMatD0=    1 NMtDS0=    0 NMtDT0=    0
 Symmetry not used in FoFCou.
 Requested convergence on RMS density matrix=1.00D-08 within 128 cycles.
 Requested convergence on MAX density matrix=1.00D-06.
 Requested convergence on             energy=1.00D-06.
 No special actions if energy rises.
 Integral accuracy reduced to 1.0D-05 until final iterations.
 Initial convergence to 1.0D-05 achieved.  Increase integral accuracy.
 SCF Done:  E(RwB97XD) =  -900.209036613     A.U. after    9 cycles
            NFock=  9  Conv=0.67D-08     -V/T= 2.0036
 DoSCS=F DFT=T ScalE2(SS,OS)=  1.000000  1.000000
 Range of M.O.s used for correlation:     1   506
 NBasis=   506 NAE=    49 NBE=    49 NFC=     0 NFV=     0
 NROrb=    506 NOA=    49 NOB=    49 NVA=   457 NVB=   457

 **** Warning!!: The largest alpha MO coefficient is  0.13670624D+02

 Symmetrizing basis deriv contribution to polar:
 IMax=3 JMax=2 DiffMx= 0.00D+00
   1 Symmetry operations used in ECPInt.
 ECPInt:  NShTT=   18145 NPrTT=   50058 LenC2=   17322 LenP2D=   37126.
 LDataN:  DoStor=T MaxTD1= 7 Len=  274
 Calling FoFJK, ICntrl=      2127 FMM=F ISym2X=0 I1Cent= 0 IOpClX= 0 NMat=1 NMatS=1 NMatT=0.
