 Entering Gaussian System, Link 0=/opt/software/gaussian/g16.c01/g16
 Initial command:
 /opt/software/gaussian/g16.c01/l1.exe "/scratch/arhender/25002862/Gau-250861.inp" -scrdir="/scratch/arhender/25002862/"
 Entering Link 1 = /opt/software/gaussian/g16.c01/l1.exe PID=    250862.
  
 Copyright (c) 1988-2019, Gaussian, Inc.  All Rights Reserved.
  
 This is part of the Gaussian(R) 16 program.  It is based on
 the Gaussian(R) 09 system (copyright 2009, Gaussian, Inc.),
 the Gaussian(R) 03 system (copyright 2003, Gaussian, Inc.),
 the Gaussian(R) 98 system (copyright 1998, Gaussian, Inc.),
 the Gaussian(R) 94 system (copyright 1995, Gaussian, Inc.),
 the Gaussian 92(TM) system (copyright 1992, Gaussian, Inc.),
 the Gaussian 90(TM) system (copyright 1990, Gaussian, Inc.),
 the Gaussian 88(TM) system (copyright 1988, Gaussian, Inc.),
 the Gaussian 86(TM) system (copyright 1986, Carnegie Mellon
 University), and the Gaussian 82(TM) system (copyright 1983,
 Carnegie Mellon University). Gaussian is a federally registered
 trademark of Gaussian, Inc.
  
 This software contains proprietary and confidential information,
 including trade secrets, belonging to Gaussian, Inc.
  
 This software is provided under written license and may be
 used, copied, transmitted, or stored only in accord with that
 written license.
  
 The following legend is applicable only to US Government
 contracts under FAR:
  
                    RESTRICTED RIGHTS LEGEND
  
 Use, reproduction and disclosure by the US Government is
 subject to restrictions as set forth in subparagraphs (a)
 and (c) of the Commercial Computer Software - Restricted
 Rights clause in FAR 52.227-19.
  
 Gaussian, Inc.
 340 Quinnipiac St., Bldg. 40, Wallingford CT 06492
  
  
 ---------------------------------------------------------------
 Warning -- This program may not be used in any manner that
 competes with the business of Gaussian, Inc. or will provide
 assistance to any competitor of Gaussian, Inc.  The licensee
 of this program is prohibited from giving any competitor of
 Gaussian, Inc. access to this program.  By using this program,
 the user acknowledges that Gaussian, Inc. is engaged in the
 business of creating and licensing software in the field of
 computational chemistry and represents and warrants to the
 licensee that it is not a competitor of Gaussian, Inc. and that
 it will not use this program in any manner prohibited above.
 ---------------------------------------------------------------
  

 Cite this work as:
 Gaussian 16, Revision C.01,
 M. J. Frisch, G. W. Trucks, H. B. Schlegel, G. E. Scuseria, 
 M. A. Robb, J. R. Cheeseman, G. Scalmani, V. Barone, 
 G. A. Petersson, H. Nakatsuji, X. Li, M. Caricato, A. V. Marenich, 
 J. Bloino, B. G. Janesko, R. Gomperts, B. Mennucci, H. P. Hratchian, 
 J. V. Ortiz, A. F. Izmaylov, J. L. Sonnenberg, D. Williams-Young, 
 F. Ding, F. Lipparini, F. Egidi, J. Goings, B. Peng, A. Petrone, 
 T. Henderson, D. Ranasinghe, V. G. Zakrzewski, J. Gao, N. Rega, 
 G. Zheng, W. Liang, M. Hada, M. Ehara, K. Toyota, R. Fukuda, 
 J. Hasegawa, M. Ishida, T. Nakajima, Y. Honda, O. Kitao, H. Nakai, 
 T. Vreven, K. Throssell, J. A. Montgomery, Jr., J. E. Peralta, 
 F. Ogliaro, M. J. Bearpark, J. J. Heyd, E. N. Brothers, K. N. Kudin, 
 V. N. Staroverov, T. A. Keith, R. Kobayashi, J. Normand, 
 K. Raghavachari, A. P. Rendell, J. C. Burant, S. S. Iyengar, 
 J. Tomasi, M. Cossi, J. M. Millam, M. Klene, C. Adamo, R. Cammi, 
 J. W. Ochterski, R. L. Martin, K. Morokuma, O. Farkas, 
 J. B. Foresman, and D. J. Fox, Gaussian, Inc., Wallingford CT, 2019.
 
 ******************************************
 Gaussian 16:  ES64L-G16RevC.01  3-Jul-2019
                11-Feb-2024 
 ******************************************
 %chk=IRC_PmonoL1toHbiL1_forward_productopt.chk
 %mem=1600MB
 %nprocs=4
 Will use up to    4 processors via shared memory.
 ---------------------------------------------
 # opt freq wb97xd/def2tzvpp geom=connectivity
 ---------------------------------------------
 1/18=20,19=15,26=3,38=1,57=2/1,3;
 2/9=110,12=2,17=6,18=5,40=1/2;
 3/5=44,7=202,11=2,25=1,30=1,71=1,74=-58/1,2,3;
 4//1;
 5/5=2,38=5/2;
 6/7=2,8=2,9=2,10=2,28=1/1;
 7//1,2,3,16;
 1/18=20,19=15,26=3/3(2);
 2/9=110/2;
 99//99;
 2/9=110/2;
 3/5=44,7=202,11=2,25=1,30=1,71=1,74=-58/1,2,3;
 4/5=5,16=3,69=1/1;
 5/5=2,38=5/2;
 7//1,2,3,16;
 1/18=20,19=15,26=3/3(-5);
 2/9=110/2;
 6/7=2,8=2,9=2,10=2,19=2,28=1/1;
 99/9=1/99;
 ----------------------------------------------
 IRC Forward of possible PL1 collapse to HL1 TS
 ----------------------------------------------
 Symbolic Z-matrix:
 Charge = -2 Multiplicity = 1
 Si                    0.83425   0.08021  -0.03685 
 O                     0.27994  -0.26271   1.54391 
 O                     0.41063  -0.71998  -1.46634 
 O                     1.80702   1.45737  -0.23733 
 O                    -0.61887   1.26243  -0.27539 
 O                    -1.76248  -1.44173   0.21034 
 O                     2.226    -0.98448   0.22347 
 C                    -2.48269  -0.37326  -0.19119 
 H                    -3.53771  -0.34388   0.2267 
 H                    -2.63352  -0.33498  -1.3054 
 C                    -1.88725   1.00479   0.1957 
 H                    -1.92834   1.06822   1.30451 
 H                    -2.59219   1.7774   -0.18688 
 H                     2.16982  -1.1743    1.15282 
 H                    -0.55136  -0.7558    1.36703 
 H                     1.15174   2.14779  -0.35519 
 H                    -0.42535  -1.15078  -1.21885 
 
 Add virtual bond connecting atoms H9         and C8         Dist= 2.15D+00.

 GradGradGradGradGradGradGradGradGradGradGradGradGradGradGradGradGradGrad
 Berny optimization.
 Initialization pass.
                           ----------------------------
                           !    Initial Parameters    !
                           ! (Angstroms and Degrees)  !
 --------------------------                            --------------------------
 ! Name  Definition              Value          Derivative Info.                !
 --------------------------------------------------------------------------------
 ! R1    R(1,2)                  1.7099         estimate D2E/DX2                !
 ! R2    R(1,3)                  1.6921         estimate D2E/DX2                !
 ! R3    R(1,4)                  1.698          estimate D2E/DX2                !
 ! R4    R(1,5)                  1.8884         estimate D2E/DX2                !
 ! R5    R(1,7)                  1.7715         estimate D2E/DX2                !
 ! R6    R(2,15)                 0.9826         estimate D2E/DX2                !
 ! R7    R(3,17)                 0.9725         estimate D2E/DX2                !
 ! R8    R(4,16)                 0.9591         estimate D2E/DX2                !
 ! R9    R(5,11)                 1.3773         estimate D2E/DX2                !
 ! R10   R(6,8)                  1.3496         estimate D2E/DX2                !
 ! R11   R(7,14)                 0.9502         estimate D2E/DX2                !
 ! R12   R(8,9)                  1.1351         estimate D2E/DX2                !
 ! R13   R(8,10)                 1.125          estimate D2E/DX2                !
 ! R14   R(8,11)                 1.5502         estimate D2E/DX2                !
 ! R15   R(11,12)                1.1114         estimate D2E/DX2                !
 ! R16   R(11,13)                1.1137         estimate D2E/DX2                !
 ! A1    A(2,1,3)              127.2298         estimate D2E/DX2                !
 ! A2    A(2,1,4)              117.2286         estimate D2E/DX2                !
 ! A3    A(2,1,5)               89.5917         estimate D2E/DX2                !
 ! A4    A(2,1,7)               89.9025         estimate D2E/DX2                !
 ! A5    A(3,1,4)              115.2923         estimate D2E/DX2                !
 ! A6    A(3,1,5)               89.8108         estimate D2E/DX2                !
 ! A7    A(3,1,7)               92.0983         estimate D2E/DX2                !
 ! A8    A(4,1,5)               85.3062         estimate D2E/DX2                !
 ! A9    A(4,1,7)               93.1366         estimate D2E/DX2                !
 ! A10   A(1,2,15)             102.0338         estimate D2E/DX2                !
 ! A11   A(1,3,17)             102.1051         estimate D2E/DX2                !
 ! A12   A(1,4,16)             101.9428         estimate D2E/DX2                !
 ! A13   A(1,5,11)             123.2511         estimate D2E/DX2                !
 ! A14   A(1,7,14)             102.5533         estimate D2E/DX2                !
 ! A15   A(6,8,9)              114.0124         estimate D2E/DX2                !
 ! A16   A(6,8,10)             113.1491         estimate D2E/DX2                !
 ! A17   A(6,8,11)             115.1204         estimate D2E/DX2                !
 ! A18   A(9,8,10)             103.834          estimate D2E/DX2                !
 ! A19   A(9,8,11)             104.0108         estimate D2E/DX2                !
 ! A20   A(10,8,11)            105.5694         estimate D2E/DX2                !
 ! A21   A(5,11,8)             115.7617         estimate D2E/DX2                !
 ! A22   A(5,11,12)            111.3836         estimate D2E/DX2                !
 ! A23   A(5,11,13)            109.6126         estimate D2E/DX2                !
 ! A24   A(8,11,12)            106.5894         estimate D2E/DX2                !
 ! A25   A(8,11,13)            106.7283         estimate D2E/DX2                !
 ! A26   A(12,11,13)           106.2442         estimate D2E/DX2                !
 ! A27   L(5,1,7,2,-1)         179.4943         estimate D2E/DX2                !
 ! A28   L(5,1,7,2,-2)         182.0137         estimate D2E/DX2                !
 ! D1    D(3,1,2,15)           -20.931          estimate D2E/DX2                !
 ! D2    D(4,1,2,15)           153.0297         estimate D2E/DX2                !
 ! D3    D(5,1,2,15)            68.5211         estimate D2E/DX2                !
 ! D4    D(7,1,2,15)          -113.4926         estimate D2E/DX2                !
 ! D5    D(2,1,3,17)            20.4015         estimate D2E/DX2                !
 ! D6    D(4,1,3,17)          -153.6595         estimate D2E/DX2                !
 ! D7    D(5,1,3,17)           -68.942          estimate D2E/DX2                !
 ! D8    D(7,1,3,17)           111.8743         estimate D2E/DX2                !
 ! D9    D(2,1,4,16)           -86.1643         estimate D2E/DX2                !
 ! D10   D(3,1,4,16)            88.5195         estimate D2E/DX2                !
 ! D11   D(5,1,4,16)             0.9531         estimate D2E/DX2                !
 ! D12   D(7,1,4,16)          -177.6703         estimate D2E/DX2                !
 ! D13   D(2,1,5,11)           -39.1685         estimate D2E/DX2                !
 ! D14   D(3,1,5,11)            88.0643         estimate D2E/DX2                !
 ! D15   D(4,1,5,11)          -156.5349         estimate D2E/DX2                !
 ! D16   D(2,1,7,14)            -9.3717         estimate D2E/DX2                !
 ! D17   D(3,1,7,14)          -136.6263         estimate D2E/DX2                !
 ! D18   D(4,1,7,14)           107.8952         estimate D2E/DX2                !
 ! D19   D(1,5,11,8)           -51.6088         estimate D2E/DX2                !
 ! D20   D(1,5,11,12)           70.3578         estimate D2E/DX2                !
 ! D21   D(1,5,11,13)         -172.3557         estimate D2E/DX2                !
 ! D22   D(6,8,11,5)            58.4979         estimate D2E/DX2                !
 ! D23   D(6,8,11,12)          -65.9879         estimate D2E/DX2                !
 ! D24   D(6,8,11,13)         -179.2113         estimate D2E/DX2                !
 ! D25   D(9,8,11,5)          -176.0362         estimate D2E/DX2                !
 ! D26   D(9,8,11,12)           59.478          estimate D2E/DX2                !
 ! D27   D(9,8,11,13)          -53.7454         estimate D2E/DX2                !
 ! D28   D(10,8,11,5)          -67.0491         estimate D2E/DX2                !
 ! D29   D(10,8,11,12)         168.4651         estimate D2E/DX2                !
 ! D30   D(10,8,11,13)          55.2417         estimate D2E/DX2                !
 --------------------------------------------------------------------------------
 Trust Radius=3.00D-01 FncErr=1.00D-07 GrdErr=1.00D-06 EigMax=2.50D+02 EigMin=1.00D-04
 Number of steps in this run=     84 maximum allowed number of steps=    102.
 GradGradGradGradGradGradGradGradGradGradGradGradGradGradGradGradGradGrad

                          Input orientation:                          
 ---------------------------------------------------------------------
 Center     Atomic      Atomic             Coordinates (Angstroms)
 Number     Number       Type             X           Y           Z
 ---------------------------------------------------------------------
      1         14           0        0.834248    0.080205   -0.036853
      2          8           0        0.279935   -0.262714    1.543913
      3          8           0        0.410631   -0.719981   -1.466341
      4          8           0        1.807020    1.457372   -0.237327
      5          8           0       -0.618871    1.262427   -0.275388
      6          8           0       -1.762481   -1.441733    0.210335
      7          8           0        2.225995   -0.984480    0.223474
      8          6           0       -2.482692   -0.373264   -0.191186
      9          1           0       -3.537713   -0.343881    0.226699
     10          1           0       -2.633520   -0.334977   -1.305395
     11          6           0       -1.887245    1.004792    0.195696
     12          1           0       -1.928342    1.068219    1.304510
     13          1           0       -2.592193    1.777402   -0.186876
     14          1           0        2.169824   -1.174302    1.152817
     15          1           0       -0.551364   -0.755802    1.367033
     16          1           0        1.151744    2.147786   -0.355187
     17          1           0       -0.425353   -1.150779   -1.218853
 ---------------------------------------------------------------------
                    Distance matrix (angstroms):
                    1          2          3          4          5
     1  Si   0.000000
     2  O    1.709876   0.000000
     3  O    1.692095   3.047590   0.000000
     4  O    1.697959   2.909210   2.863781   0.000000
     5  O    1.888413   2.538457   2.531439   2.434009   0.000000
     6  O    3.020000   2.709240   2.838060   4.620233   2.975946
     7  O    1.771520   2.460011   2.494189   2.520024   3.659333
     8  C    3.351350   3.264184   3.180810   4.664224   2.481210
     9  H    4.400381   4.039316   4.312454   5.659152   3.369266
    10  H    3.715776   4.075782   3.072619   4.906290   2.769734
    11  C    2.883655   2.849724   3.319253   3.746990   1.377341
    12  H    3.226039   2.589437   4.043027   4.059757   2.061191
    13  H    3.826680   3.925153   4.109855   4.411127   2.041331
    14  H    2.184689   2.134392   3.187657   2.998305   3.969161
    15  H    2.142364   0.982589   2.992445   3.610275   2.602951
    16  H    2.115900   3.190163   3.163542   0.959140   1.981238
    17  H    2.121094   2.986464   0.972474   3.570621   2.598295
                    6          7          8          9         10
     6  O    0.000000
     7  O    4.014622   0.000000
     8  C    1.349648   4.766263   0.000000
     9  H    2.087342   5.799199   1.135148   0.000000
    10  H    2.069071   5.135580   1.125023   1.779032   0.000000
    11  C    2.449748   4.569105   1.550249   2.131648   2.145969
    12  H    2.743098   4.758227   2.149950   2.397035   3.045955
    13  H    3.347989   5.568780   2.153456   2.359003   2.390594
    14  H    4.052507   0.950193   4.908555   5.841513   5.460713
    15  H    1.809767   3.012266   2.510858   3.223092   3.413845
    16  H    4.658022   3.361540   4.426253   5.342097   4.625498
    17  H    1.978672   3.022848   2.427606   3.525264   2.355637
                   11         12         13         14         15
    11  C    0.000000
    12  H    1.111387   0.000000
    13  H    1.113660   1.779851   0.000000
    14  H    4.703652   4.674064   5.760568   0.000000
    15  H    2.501260   2.286270   3.605099   2.761502   0.000000
    16  H    3.293230   3.661556   3.765976   3.787721   3.781196
    17  H    2.963876   3.681072   3.786082   3.515724   2.618910
                   16         17
    16  H    0.000000
    17  H    3.756818   0.000000
 Stoichiometry    C2H8O6Si(2-)
 Framework group  C1[X(C2H8O6Si)]
 Deg. of freedom    45
 Full point group                 C1      NOp   1
 Largest Abelian subgroup         C1      NOp   1
 Largest concise Abelian subgroup C1      NOp   1
                         Standard orientation:                         
 ---------------------------------------------------------------------
 Center     Atomic      Atomic             Coordinates (Angstroms)
 Number     Number       Type             X           Y           Z
 ---------------------------------------------------------------------
      1         14           0       -0.887327    0.032804    0.040198
      2          8           0       -0.317795   -0.445906   -1.499331
      3          8           0       -0.423429   -0.591478    1.542947
      4          8           0       -1.927204    1.373689    0.101412
      5          8           0        0.505405    1.303771    0.145277
      6          8           0        1.781662   -1.376616   -0.061958
      7          8           0       -2.224620   -1.120668   -0.099200
      8          6           0        2.448164   -0.237752    0.221438
      9          1           0        3.500118   -0.200232   -0.203467
     10          1           0        2.597706   -0.075657    1.324633
     11          6           0        1.784677    1.061163   -0.303804
     12          1           0        1.821771    1.010136   -1.413399
     13          1           0        2.450627    1.903419   -0.008245
     14          1           0       -2.159754   -1.403714   -1.003934
     15          1           0        0.537113   -0.876138   -1.276814
     16          1           0       -1.306970    2.104143    0.142596
     17          1           0        0.432756   -1.004024    1.336889
 ---------------------------------------------------------------------
 Rotational constants (GHZ):           2.2128365           1.1229565           0.9931444
 Standard basis: def2TZVPP (5D, 7F)
 There are   456 symmetry adapted cartesian basis functions of A   symmetry.
 There are   402 symmetry adapted basis functions of A   symmetry.
   402 basis functions,   613 primitive gaussians,   456 cartesian basis functions
    42 alpha electrons       42 beta electrons
       nuclear repulsion energy       648.6545748977 Hartrees.
 NAtoms=   17 NActive=   17 NUniq=   17 SFac= 1.00D+00 NAtFMM=   60 NAOKFM=F Big=F
 Integral buffers will be    131072 words long.
 Raffenetti 2 integral format.
 Two-electron integral symmetry is turned on.
 Nuclear repulsion after empirical dispersion term =      648.6454195722 Hartrees.
 One-electron integrals computed using PRISM.
   1 Symmetry operations used in ECPInt.
 ECPInt:  NShTT=   11325 NPrTT=   31861 LenC2=   10924 LenP2D=   24284.
 LDataN:  DoStor=T MaxTD1= 6 Len=  172
 NBasis=   402 RedAO= T EigKep=  2.81D-04  NBF=   402
 NBsUse=   402 1.00D-06 EigRej= -1.00D+00 NBFU=   402
 ExpMin= 7.01D-02 ExpMax= 4.48D+04 ExpMxC= 1.53D+03 IAcc=3 IRadAn=         5 AccDes= 0.00D+00
 Harris functional with IExCor= 4639 and IRadAn=       5 diagonalized for initial guess.
 HarFok:  IExCor= 4639 AccDes= 0.00D+00 IRadAn=         5 IDoV= 1 UseB2=F ITyADJ=14
 ICtDFT=  3500011 ScaDFX=  1.000000  1.000000  1.000000  1.000000
 FoFCou: FMM=F IPFlag=           0 FMFlag=      100000 FMFlg1=           0
         NFxFlg=           0 DoJE=T BraDBF=F KetDBF=T FulRan=T
         wScrn=  0.000000 ICntrl=       500 IOpCl=  0 I1Cent=   200000004 NGrid=           0
         NMat0=    1 NMatS0=      1 NMatT0=    0 NMatD0=    1 NMtDS0=    0 NMtDT0=    0
 Petite list used in FoFCou.
 Requested convergence on RMS density matrix=1.00D-08 within 128 cycles.
 Requested convergence on MAX density matrix=1.00D-06.
 Requested convergence on             energy=1.00D-06.
 No special actions if energy rises.
 Integral accuracy reduced to 1.0D-05 until final iterations.
 Initial convergence to 1.0D-05 achieved.  Increase integral accuracy.
 SCF Done:  E(RwB97XD) =  -822.066060751     A.U. after   16 cycles
            NFock= 16  Conv=0.72D-08     -V/T= 2.0033

 **********************************************************************

            Population analysis using the SCF Density.

 **********************************************************************

 Orbital symmetries:
       Occupied  (A) (A) (A) (A) (A) (A) (A) (A) (A) (A) (A) (A)
                 (A) (A) (A) (A) (A) (A) (A) (A) (A) (A) (A) (A)
                 (A) (A) (A) (A) (A) (A) (A) (A) (A) (A) (A) (A)
                 (A) (A) (A) (A) (A) (A)
       Virtual   (A) (A) (A) (A) (A) (A) (A) (A) (A) (A) (A) (A)
                 (A) (A) (A) (A) (A) (A) (A) (A) (A) (A) (A) (A)
                 (A) (A) (A) (A) (A) (A) (A) (A) (A) (A) (A) (A)
                 (A) (A) (A) (A) (A) (A) (A) (A) (A) (A) (A) (A)
                 (A) (A) (A) (A) (A) (A) (A) (A) (A) (A) (A) (A)
                 (A) (A) (A) (A) (A) (A) (A) (A) (A) (A) (A) (A)
                 (A) (A) (A) (A) (A) (A) (A) (A) (A) (A) (A) (A)
                 (A) (A) (A) (A) (A) (A) (A) (A) (A) (A) (A) (A)
                 (A) (A) (A) (A) (A) (A) (A) (A) (A) (A) (A) (A)
                 (A) (A) (A) (A) (A) (A) (A) (A) (A) (A) (A) (A)
                 (A) (A) (A) (A) (A) (A) (A) (A) (A) (A) (A) (A)
                 (A) (A) (A) (A) (A) (A) (A) (A) (A) (A) (A) (A)
                 (A) (A) (A) (A) (A) (A) (A) (A) (A) (A) (A) (A)
                 (A) (A) (A) (A) (A) (A) (A) (A) (A) (A) (A) (A)
                 (A) (A) (A) (A) (A) (A) (A) (A) (A) (A) (A) (A)
                 (A) (A) (A) (A) (A) (A) (A) (A) (A) (A) (A) (A)
                 (A) (A) (A) (A) (A) (A) (A) (A) (A) (A) (A) (A)
                 (A) (A) (A) (A) (A) (A) (A) (A) (A) (A) (A) (A)
                 (A) (A) (A) (A) (A) (A) (A) (A) (A) (A) (A) (A)
                 (A) (A) (A) (A) (A) (A) (A) (A) (A) (A) (A) (A)
                 (A) (A) (A) (A) (A) (A) (A) (A) (A) (A) (A) (A)
                 (A) (A) (A) (A) (A) (A) (A) (A) (A) (A) (A) (A)
                 (A) (A) (A) (A) (A) (A) (A) (A) (A) (A) (A) (A)
                 (A) (A) (A) (A) (A) (A) (A) (A) (A) (A) (A) (A)
                 (A) (A) (A) (A) (A) (A) (A) (A) (A) (A) (A) (A)
                 (A) (A) (A) (A) (A) (A) (A) (A) (A) (A) (A) (A)
                 (A) (A) (A) (A) (A) (A) (A) (A) (A) (A) (A) (A)
                 (A) (A) (A) (A) (A) (A) (A) (A) (A) (A) (A) (A)
                 (A) (A) (A) (A) (A) (A) (A) (A) (A) (A) (A) (A)
                 (A) (A) (A) (A) (A) (A) (A) (A) (A) (A) (A) (A)
 The electronic state is 1-A.
 Alpha  occ. eigenvalues --  -65.96773 -18.90615 -18.87955 -18.87601 -18.87232
 Alpha  occ. eigenvalues --  -18.86936 -18.83517 -10.00541 -10.00050  -5.07729
 Alpha  occ. eigenvalues --   -3.42367  -3.42223  -3.42183  -0.78304  -0.74857
 Alpha  occ. eigenvalues --   -0.73709  -0.72634  -0.70708  -0.70156  -0.47417
 Alpha  occ. eigenvalues --   -0.35133  -0.29528  -0.25288  -0.23841  -0.22998
 Alpha  occ. eigenvalues --   -0.20915  -0.19963  -0.18847  -0.15929  -0.14890
 Alpha  occ. eigenvalues --   -0.12010  -0.11390  -0.10277  -0.09716  -0.08439
 Alpha  occ. eigenvalues --   -0.06549  -0.04008  -0.03577  -0.01503  -0.00232
 Alpha  occ. eigenvalues --    0.02509   0.03737
 Alpha virt. eigenvalues --    0.38683   0.41319   0.42460   0.43754   0.44715
 Alpha virt. eigenvalues --    0.46284   0.49069   0.50247   0.52072   0.52915
 Alpha virt. eigenvalues --    0.53292   0.55409   0.56752   0.58629   0.59335
 Alpha virt. eigenvalues --    0.60428   0.64809   0.65694   0.68736   0.69658
 Alpha virt. eigenvalues --    0.70327   0.71672   0.72538   0.73146   0.74028
 Alpha virt. eigenvalues --    0.74770   0.76155   0.76939   0.77472   0.78402
 Alpha virt. eigenvalues --    0.78668   0.80619   0.81994   0.83345   0.84318
 Alpha virt. eigenvalues --    0.85252   0.87047   0.87305   0.88723   0.90510
 Alpha virt. eigenvalues --    0.91721   0.93651   0.94227   0.94912   0.96002
 Alpha virt. eigenvalues --    0.96658   0.98671   0.99678   1.02204   1.03859
 Alpha virt. eigenvalues --    1.04917   1.06775   1.07744   1.08008   1.09440
 Alpha virt. eigenvalues --    1.10210   1.11494   1.13493   1.14996   1.17982
 Alpha virt. eigenvalues --    1.19221   1.19585   1.21352   1.21835   1.22330
 Alpha virt. eigenvalues --    1.24839   1.26038   1.27804   1.30204   1.30666
 Alpha virt. eigenvalues --    1.33190   1.33618   1.35562   1.38039   1.39517
 Alpha virt. eigenvalues --    1.41639   1.43632   1.44985   1.46276   1.46653
 Alpha virt. eigenvalues --    1.48316   1.49747   1.51340   1.52335   1.54405
 Alpha virt. eigenvalues --    1.54998   1.57948   1.58331   1.59631   1.61660
 Alpha virt. eigenvalues --    1.65138   1.67883   1.68950   1.69427   1.70843
 Alpha virt. eigenvalues --    1.72293   1.73869   1.75700   1.77199   1.78484
 Alpha virt. eigenvalues --    1.79725   1.80553   1.82747   1.85174   1.86755
 Alpha virt. eigenvalues --    1.88084   1.92759   1.93319   1.97118   2.00377
 Alpha virt. eigenvalues --    2.03029   2.07695   2.13492   2.15544   2.16452
 Alpha virt. eigenvalues --    2.18849   2.21351   2.23378   2.24919   2.27857
 Alpha virt. eigenvalues --    2.29920   2.31461   2.32919   2.33768   2.34087
 Alpha virt. eigenvalues --    2.36442   2.36595   2.37698   2.39705   2.41100
 Alpha virt. eigenvalues --    2.42421   2.44248   2.45959   2.47063   2.50159
 Alpha virt. eigenvalues --    2.52126   2.53948   2.54591   2.57235   2.59084
 Alpha virt. eigenvalues --    2.61424   2.66295   2.67204   2.70268   2.71329
 Alpha virt. eigenvalues --    2.73303   2.77610   2.79774   2.82242   2.84517
 Alpha virt. eigenvalues --    2.89278   2.92123   2.94523   2.98762   3.02871
 Alpha virt. eigenvalues --    3.03246   3.05859   3.08804   3.10604   3.15273
 Alpha virt. eigenvalues --    3.17457   3.18695   3.21082   3.23526   3.26211
 Alpha virt. eigenvalues --    3.28908   3.30497   3.32261   3.33332   3.36688
 Alpha virt. eigenvalues --    3.38595   3.40386   3.42579   3.43399   3.46794
 Alpha virt. eigenvalues --    3.46959   3.48884   3.49669   3.50526   3.52611
 Alpha virt. eigenvalues --    3.53718   3.56431   3.58668   3.62192   3.63818
 Alpha virt. eigenvalues --    3.64206   3.68284   3.69073   3.71796   3.72309
 Alpha virt. eigenvalues --    3.73640   3.76729   3.78382   3.79983   3.80935
 Alpha virt. eigenvalues --    3.82509   3.83417   3.86728   3.89965   3.90987
 Alpha virt. eigenvalues --    3.93106   3.94847   3.98542   3.98611   4.00070
 Alpha virt. eigenvalues --    4.02263   4.03314   4.04168   4.05541   4.06895
 Alpha virt. eigenvalues --    4.07699   4.11556   4.13777   4.15740   4.17398
 Alpha virt. eigenvalues --    4.20021   4.23031   4.26318   4.31810   4.33260
 Alpha virt. eigenvalues --    4.35734   4.37433   4.37913   4.39067   4.40325
 Alpha virt. eigenvalues --    4.43193   4.44162   4.45279   4.47472   4.48270
 Alpha virt. eigenvalues --    4.51485   4.52108   4.53280   4.55937   4.57225
 Alpha virt. eigenvalues --    4.61213   4.62759   4.64876   4.65751   4.66822
 Alpha virt. eigenvalues --    4.67311   4.70425   4.72499   4.74455   4.75562
 Alpha virt. eigenvalues --    4.77057   4.79687   4.81548   4.85679   4.93122
 Alpha virt. eigenvalues --    4.97998   4.98214   5.03539   5.05314   5.10479
 Alpha virt. eigenvalues --    5.16579   5.19381   5.20010   5.22627   5.28477
 Alpha virt. eigenvalues --    5.29356   5.30261   5.32175   5.33523   5.37241
 Alpha virt. eigenvalues --    5.40532   5.42784   5.43497   5.47098   5.53092
 Alpha virt. eigenvalues --    5.56465   5.60263   5.61162   5.61487   5.66295
 Alpha virt. eigenvalues --    5.68808   5.71680   5.73677   5.78310   5.80819
 Alpha virt. eigenvalues --    5.81213   5.82278   5.83412   5.84211   5.85188
 Alpha virt. eigenvalues --    5.87231   5.88938   5.89864   5.93442   5.95560
 Alpha virt. eigenvalues --    5.97852   5.98725   5.99781   6.01885   6.03645
 Alpha virt. eigenvalues --    6.08487   6.11076   6.14347   6.15031   6.38754
 Alpha virt. eigenvalues --    6.42214   6.51104   6.56090   6.60874   6.66871
 Alpha virt. eigenvalues --    6.68681   6.83911   6.85314   6.87714   6.90412
 Alpha virt. eigenvalues --    6.91242   6.93773   6.95430   6.96735   6.98109
 Alpha virt. eigenvalues --    6.99578   7.00969   7.01863   7.05383   7.05478
 Alpha virt. eigenvalues --    7.06985   7.08198   7.09999   7.10953   7.13229
 Alpha virt. eigenvalues --    7.14843   7.17127   7.19360   7.23258   7.26307
 Alpha virt. eigenvalues --    7.30524   7.33505   7.36263   7.36734   7.41241
 Alpha virt. eigenvalues --    7.44099   7.47530   7.50418   7.52092   7.60371
 Alpha virt. eigenvalues --    7.62186   7.66613   7.68861   7.74642   7.79977
 Alpha virt. eigenvalues --    7.83071   7.85355   7.91898   7.99694   8.05371
 Alpha virt. eigenvalues --    8.11587  12.62619  23.75439  23.82970  44.16273
 Alpha virt. eigenvalues --   44.20546  44.21456  44.36848  44.42621  44.63971
          Condensed to atoms (all electrons):
               1          2          3          4          5          6
     1  Si  11.484249   0.334748   0.364123   0.416290   0.291418   0.033530
     2  O    0.334748   8.137951  -0.010019  -0.024912  -0.062865  -0.062915
     3  O    0.364123  -0.010019   8.025519  -0.033175  -0.052641  -0.043859
     4  O    0.416290  -0.024912  -0.033175   7.987761  -0.075334  -0.000053
     5  O    0.291418  -0.062865  -0.052641  -0.075334   8.265495   0.010904
     6  O    0.033530  -0.062915  -0.043859  -0.000053   0.010904   8.562519
     7  O    0.436560  -0.082945  -0.075669  -0.069673   0.002181  -0.001966
     8  C   -0.017603   0.003674   0.022876  -0.000801  -0.129855   0.406980
     9  H    0.006671  -0.001259  -0.001347   0.000026   0.011979  -0.038520
    10  H    0.001743  -0.002073   0.009898  -0.000032   0.021883  -0.086208
    11  C   -0.058640   0.021526  -0.009898   0.000285   0.355246  -0.209819
    12  H    0.000045   0.013045  -0.000412   0.000554  -0.079453   0.019203
    13  H    0.008239  -0.000664  -0.001130  -0.000119  -0.035884   0.017490
    14  H   -0.058484   0.017106   0.004133   0.003199   0.000170   0.000316
    15  H   -0.047641   0.304399   0.000084  -0.000393   0.011981   0.098025
    16  H   -0.050458   0.001397   0.001895   0.302049   0.028748  -0.000147
    17  H   -0.042080  -0.001611   0.320023   0.000417   0.002542   0.061306
               7          8          9         10         11         12
     1  Si   0.436560  -0.017603   0.006671   0.001743  -0.058640   0.000045
     2  O   -0.082945   0.003674  -0.001259  -0.002073   0.021526   0.013045
     3  O   -0.075669   0.022876  -0.001347   0.009898  -0.009898  -0.000412
     4  O   -0.069673  -0.000801   0.000026  -0.000032   0.000285   0.000554
     5  O    0.002181  -0.129855   0.011979   0.021883   0.355246  -0.079453
     6  O   -0.001966   0.406980  -0.038520  -0.086208  -0.209819   0.019203
     7  O    8.059046   0.000158  -0.000017   0.000069  -0.000769   0.000133
     8  C    0.000158   5.020593   0.122310   0.348859   0.207715  -0.126711
     9  H   -0.000017   0.122310   1.180230  -0.123902  -0.051322  -0.002117
    10  H    0.000069   0.348859  -0.123902   1.103627  -0.200941   0.035080
    11  C   -0.000769   0.207715  -0.051322  -0.200941   5.311586   0.334446
    12  H    0.000133  -0.126711  -0.002117   0.035080   0.334446   0.927795
    13  H    0.000020  -0.019749   0.027386   0.000928   0.186439  -0.079755
    14  H    0.312668  -0.000082  -0.000001   0.000029  -0.000561   0.000052
    15  H    0.002374  -0.003192  -0.002162   0.011721  -0.052855   0.015137
    16  H    0.004068   0.002032  -0.000091  -0.000213   0.003572  -0.000639
    17  H   -0.001146  -0.013225   0.004877  -0.024239   0.016713  -0.001489
              13         14         15         16         17
     1  Si   0.008239  -0.058484  -0.047641  -0.050458  -0.042080
     2  O   -0.000664   0.017106   0.304399   0.001397  -0.001611
     3  O   -0.001130   0.004133   0.000084   0.001895   0.320023
     4  O   -0.000119   0.003199  -0.000393   0.302049   0.000417
     5  O   -0.035884   0.000170   0.011981   0.028748   0.002542
     6  O    0.017490   0.000316   0.098025  -0.000147   0.061306
     7  O    0.000020   0.312668   0.002374   0.004068  -0.001146
     8  C   -0.019749  -0.000082  -0.003192   0.002032  -0.013225
     9  H    0.027386  -0.000001  -0.002162  -0.000091   0.004877
    10  H    0.000928   0.000029   0.011721  -0.000213  -0.024239
    11  C    0.186439  -0.000561  -0.052855   0.003572   0.016713
    12  H   -0.079755   0.000052   0.015137  -0.000639  -0.001489
    13  H    0.970019  -0.000004   0.002315  -0.002052  -0.000298
    14  H   -0.000004   0.604206   0.002006  -0.001021  -0.000894
    15  H    0.002315   0.002006   0.464978  -0.000766  -0.005723
    16  H   -0.002052  -0.001021  -0.000766   0.567506  -0.000300
    17  H   -0.000298  -0.000894  -0.005723  -0.000300   0.480480
 Mulliken charges:
               1
     1  Si   0.897291
     2  O   -0.584584
     3  O   -0.520400
     4  O   -0.506087
     5  O   -0.566513
     6  O   -0.766787
     7  O   -0.585092
     8  C    0.176021
     9  H   -0.132740
    10  H   -0.096231
    11  C    0.147277
    12  H   -0.054915
    13  H   -0.073181
    14  H    0.117163
    15  H    0.199712
    16  H    0.144420
    17  H    0.204646
 Sum of Mulliken charges =  -2.00000
 Mulliken charges with hydrogens summed into heavy atoms:
               1
     1  Si   0.897291
     2  O   -0.384872
     3  O   -0.315754
     4  O   -0.361667
     5  O   -0.566513
     6  O   -0.766787
     7  O   -0.467929
     8  C   -0.052950
    11  C    0.019181
 Electronic spatial extent (au):  <R**2>=           1356.5870
 Charge=             -2.0000 electrons
 Dipole moment (field-independent basis, Debye):
    X=              0.5062    Y=              2.5022    Z=             -1.0989  Tot=              2.7794
 Quadrupole moment (field-independent basis, Debye-Ang):
   XX=           -105.0159   YY=            -81.1937   ZZ=            -77.3269
   XY=              2.8625   XZ=              2.8446   YZ=              1.4597
 Traceless Quadrupole moment (field-independent basis, Debye-Ang):
   XX=            -17.1704   YY=              6.6518   ZZ=             10.5186
   XY=              2.8625   XZ=              2.8446   YZ=              1.4597
 Octapole moment (field-independent basis, Debye-Ang**2):
  XXX=            -25.8440  YYY=              6.6998  ZZZ=             -1.5771  XYY=            -14.9900
  XXY=              9.9565  XXZ=             -5.8063  XZZ=             -5.5169  YZZ=              0.2570
  YYZ=             -2.5029  XYZ=             -4.6855
 Hexadecapole moment (field-independent basis, Debye-Ang**3):
 XXXX=          -1398.5069 YYYY=           -461.3104 ZZZZ=           -334.1443 XXXY=             10.0082
 XXXZ=             11.4713 YYYX=             -1.8823 YYYZ=              8.1504 ZZZX=              3.9833
 ZZZY=              6.5660 XXYY=           -325.5656 XXZZ=           -235.5403 YYZZ=           -123.1363
 XXYZ=              9.7824 YYXZ=              9.8925 ZZXY=             -5.0646
 N-N= 6.486454195722D+02 E-N=-3.274413404565D+03  KE= 8.193805796319D+02
   1 Symmetry operations used in ECPInt.
 ECPInt:  NShTT=   11325 NPrTT=   31861 LenC2=   10924 LenP2D=   24284.
 LDataN:  DoStor=T MaxTD1= 7 Len=  274
 Calling FoFJK, ICntrl=      2127 FMM=F ISym2X=0 I1Cent= 0 IOpClX= 0 NMat=1 NMatS=1 NMatT=0.
 ***** Axes restored to original set *****
 -------------------------------------------------------------------
 Center     Atomic                   Forces (Hartrees/Bohr)
 Number     Number              X              Y              Z
 -------------------------------------------------------------------
      1       14           0.002518294   -0.000274977    0.000146016
      2        8          -0.000053159   -0.004126481   -0.001810050
      3        8          -0.001262820   -0.003618377    0.003141736
      4        8          -0.000883714    0.001225564   -0.000757799
      5        8           0.000325580   -0.000085408   -0.000076259
      6        8          -0.003860751    0.000382278   -0.000484390
      7        8           0.005048060    0.005144617   -0.003836558
      8        6          -0.001338223    0.001560065   -0.000249152
      9        1          -0.000132638    0.000120278   -0.000000081
     10        1          -0.000055476    0.000100567   -0.000041876
     11        6           0.000246359    0.000631283    0.000293952
     12        1           0.000045441   -0.000022885    0.000023800
     13        1           0.000026818    0.000080633    0.000056058
     14        1          -0.000332335   -0.001061456    0.003969491
     15        1          -0.000691482   -0.000308667   -0.000306881
     16        1          -0.000079391   -0.000014067   -0.000057645
     17        1           0.000479438    0.000267032   -0.000010360
 -------------------------------------------------------------------
 Cartesian Forces:  Max     0.005144617 RMS     0.001766246

 GradGradGradGradGradGradGradGradGradGradGradGradGradGradGradGradGradGrad
 Berny optimization.
 FormGI is forming the generalized inverse of G from B-inverse, IUseBI=4.
 Internal  Forces:  Max     0.030380633 RMS     0.004849700
 Search for a local minimum.
 Step number   1 out of a maximum of   84
 All quantities printed in internal units (Hartrees-Bohrs-Radians)
 Mixed Optimization -- RFO/linear search
 Second derivative matrix not updated -- first step.
 ITU=  0
     Eigenvalues ---    0.00230   0.00524   0.01992   0.02070   0.02886
     Eigenvalues ---    0.03043   0.03121   0.04523   0.05098   0.06098
     Eigenvalues ---    0.06713   0.08409   0.08754   0.09696   0.11918
     Eigenvalues ---    0.14231   0.15268   0.15433   0.16000   0.16000
     Eigenvalues ---    0.16000   0.16000   0.16000   0.16000   0.17062
     Eigenvalues ---    0.18571   0.20228   0.22088   0.22530   0.25000
     Eigenvalues ---    0.27630   0.28495   0.30076   0.31060   0.32216
     Eigenvalues ---    0.32454   0.34727   0.36137   0.36859   0.49592
     Eigenvalues ---    0.50885   0.52875   0.55096   0.55659   0.57637
 RFO step:  Lambda=-1.08380829D-02 EMin= 2.30000000D-03
 Linear search not attempted -- first point.
 Iteration  1 RMS(Cart)=  0.21930301 RMS(Int)=  0.01081910
 Iteration  2 RMS(Cart)=  0.02460666 RMS(Int)=  0.00050431
 Iteration  3 RMS(Cart)=  0.00030891 RMS(Int)=  0.00048850
 Iteration  4 RMS(Cart)=  0.00000026 RMS(Int)=  0.00048850
 Variable       Old X    -DE/DX   Delta X   Delta X   Delta X     New X
                                 (Linear)    (Quad)   (Total)
    R1        3.23120  -0.00083   0.00000  -0.00231  -0.00231   3.22889
    R2        3.19760  -0.00086   0.00000  -0.00228  -0.00228   3.19532
    R3        3.20868   0.00053   0.00000   0.00142   0.00142   3.21009
    R4        3.56858   0.00545   0.00000   0.02556   0.02556   3.59414
    R5        3.34769   0.00127   0.00000   0.00430   0.00430   3.35199
    R6        1.85682   0.00080   0.00000   0.00154   0.00154   1.85836
    R7        1.83771  -0.00054   0.00000  -0.00099  -0.00099   1.83672
    R8        1.81251   0.00005   0.00000   0.00009   0.00009   1.81260
    R9        2.60280   0.00399   0.00000   0.00788   0.00788   2.61068
   R10        2.55046  -0.00251   0.00000  -0.00447  -0.00447   2.54600
   R11        1.79560   0.00411   0.00000   0.00700   0.00700   1.80261
   R12        2.14512   0.00013   0.00000   0.00040   0.00040   2.14552
   R13        2.12599   0.00006   0.00000   0.00017   0.00017   2.12616
   R14        2.92955   0.00034   0.00000   0.00117   0.00117   2.93072
   R15        2.10022   0.00002   0.00000   0.00007   0.00007   2.10029
   R16        2.10451   0.00002   0.00000   0.00006   0.00006   2.10457
    A1        2.22058  -0.00560   0.00000  -0.03376  -0.03420   2.18638
    A2        2.04602   0.00329   0.00000   0.02045   0.02056   2.06658
    A3        1.56367   0.00333   0.00000   0.02899   0.02970   1.59337
    A4        1.56910   0.00072   0.00000   0.01152   0.01184   1.58093
    A5        2.01223   0.00237   0.00000   0.01406   0.01436   2.02659
    A6        1.56749   0.00385   0.00000   0.03502   0.03622   1.60372
    A7        1.60742   0.00130   0.00000   0.01744   0.01827   1.62569
    A8        1.48887  -0.00714   0.00000  -0.06227  -0.06224   1.42663
    A9        1.62554  -0.00305   0.00000  -0.04120  -0.04112   1.58442
   A10        1.78083  -0.00031   0.00000  -0.00184  -0.00184   1.77898
   A11        1.78207  -0.00023   0.00000  -0.00136  -0.00136   1.78071
   A12        1.77924  -0.00011   0.00000  -0.00065  -0.00065   1.77858
   A13        2.15114   0.03038   0.00000   0.11647   0.11647   2.26761
   A14        1.78989   0.00013   0.00000   0.00074   0.00074   1.79063
   A15        1.98989  -0.00199   0.00000  -0.01236  -0.01229   1.97760
   A16        1.97482  -0.00111   0.00000   0.00270   0.00254   1.97736
   A17        2.00923   0.00499   0.00000   0.02204   0.02199   2.03122
   A18        1.81225  -0.00005   0.00000  -0.00425  -0.00428   1.80797
   A19        1.81533  -0.00138   0.00000  -0.00988  -0.00985   1.80548
   A20        1.84253  -0.00085   0.00000  -0.00078  -0.00089   1.84165
   A21        2.02042   0.01324   0.00000   0.06054   0.05980   2.08022
   A22        1.94401  -0.00373   0.00000   0.00527   0.00326   1.94727
   A23        1.91310  -0.00443   0.00000  -0.03528  -0.03436   1.87874
   A24        1.86034  -0.00092   0.00000   0.01576   0.01428   1.87462
   A25        1.86276  -0.00608   0.00000  -0.04370  -0.04291   1.81985
   A26        1.85431   0.00106   0.00000  -0.00863  -0.00856   1.84575
   A27        3.13277   0.00406   0.00000   0.04050   0.04154   3.17430
   A28        3.17674   0.00945   0.00000   0.09608   0.09562   3.27236
    D1       -0.36532  -0.00164   0.00000  -0.01273  -0.01248  -0.37779
    D2        2.67087  -0.00068   0.00000  -0.00250  -0.00249   2.66839
    D3        1.19592   0.00581   0.00000   0.05377   0.05341   1.24933
    D4       -1.98082  -0.00364   0.00000  -0.04231  -0.04221  -2.02303
    D5        0.35607   0.00164   0.00000   0.01181   0.01156   0.36763
    D6       -2.68186   0.00064   0.00000   0.00135   0.00137  -2.68050
    D7       -1.20326  -0.00554   0.00000  -0.05161  -0.05088  -1.25414
    D8        1.95258   0.00322   0.00000   0.03767   0.03717   1.98975
    D9       -1.50385  -0.00016   0.00000  -0.00329  -0.00331  -1.50716
   D10        1.54496   0.00017   0.00000   0.00269   0.00274   1.54769
   D11        0.01664  -0.00046   0.00000  -0.00510  -0.00561   0.01103
   D12       -3.10093   0.00037   0.00000   0.00360   0.00408  -3.09685
   D13       -0.68362   0.00287   0.00000   0.00987   0.00909  -0.67453
   D14        1.53701  -0.00281   0.00000  -0.02458  -0.02369   1.51332
   D15       -2.73205  -0.00048   0.00000  -0.01103  -0.01114  -2.74319
   D16       -0.16357  -0.00278   0.00000  -0.01286  -0.01287  -0.17644
   D17       -2.38458   0.00276   0.00000   0.01997   0.01998  -2.36460
   D18        1.88313   0.00048   0.00000   0.00724   0.00725   1.89038
   D19       -0.90074  -0.00690   0.00000  -0.17621  -0.17664  -1.07738
   D20        1.22797  -0.00107   0.00000  -0.10453  -0.10434   1.12363
   D21       -3.00817  -0.00478   0.00000  -0.13400  -0.13376   3.14125
   D22        1.02098   0.00267   0.00000   0.07265   0.07332   1.09430
   D23       -1.15171  -0.00089   0.00000   0.01135   0.01096  -1.14074
   D24       -3.12783   0.00108   0.00000   0.03380   0.03369  -3.09413
   D25       -3.07241   0.00229   0.00000   0.06354   0.06412  -3.00829
   D26        1.03809  -0.00128   0.00000   0.00224   0.00176   1.03985
   D27       -0.93803   0.00069   0.00000   0.02469   0.02449  -0.91354
   D28       -1.17023   0.00139   0.00000   0.05483   0.05542  -1.11481
   D29        2.94027  -0.00217   0.00000  -0.00647  -0.00694   2.93333
   D30        0.96415  -0.00020   0.00000   0.01599   0.01579   0.97994
         Item               Value     Threshold  Converged?
 Maximum Force            0.030381     0.000450     NO 
 RMS     Force            0.004850     0.000300     NO 
 Maximum Displacement     0.887612     0.001800     NO 
 RMS     Displacement     0.236886     0.001200     NO 
 Predicted change in Energy=-6.112889D-03
 GradGradGradGradGradGradGradGradGradGradGradGradGradGradGradGradGradGrad

                          Input orientation:                          
 ---------------------------------------------------------------------
 Center     Atomic      Atomic             Coordinates (Angstroms)
 Number     Number       Type             X           Y           Z
 ---------------------------------------------------------------------
      1         14           0        0.917338    0.028256   -0.006723
      2          8           0        0.453298   -0.353791    1.592716
      3          8           0        0.529889   -0.880229   -1.379184
      4          8           0        1.720613    1.498810   -0.285702
      5          8           0       -0.611875    1.136557   -0.231525
      6          8           0       -2.232185   -1.478887    0.052668
      7          8           0        2.467381   -0.802315    0.225390
      8          6           0       -2.716561   -0.267408   -0.283295
      9          1           0       -3.761320   -0.074497    0.117090
     10          1           0       -2.828621   -0.125351   -1.393765
     11          6           0       -1.908072    0.959672    0.212500
     12          1           0       -1.964582    0.968676    1.322450
     13          1           0       -2.504089    1.836778   -0.127727
     14          1           0        2.475199   -0.969521    1.164487
     15          1           0       -0.322208   -0.940130    1.444801
     16          1           0        0.987201    2.106749   -0.397751
     17          1           0       -0.241782   -1.387079   -1.075358
 ---------------------------------------------------------------------
                    Distance matrix (angstroms):
                    1          2          3          4          5
     1  Si   0.000000
     2  O    1.708654   0.000000
     3  O    1.690891   3.019138   0.000000
     4  O    1.698708   2.926888   2.876345   0.000000
     5  O    1.901936   2.585264   2.586150   2.361072   0.000000
     6  O    3.492063   3.293844   3.168224   4.960423   3.089777
     7  O    1.773797   2.475335   2.516864   2.472661   3.667398
     8  C    3.656382   3.684411   3.480798   4.775777   2.530514
     9  H    4.681424   4.474202   4.615465   5.717441   3.392225
    10  H    3.997460   4.443224   3.442330   4.955929   2.803065
    11  C    2.983041   3.034180   3.444176   3.702192   1.381511
    12  H    3.310069   2.769134   4.115782   4.055596   2.067085
    13  H    3.871893   4.062591   4.260668   4.241141   2.020286
    14  H    2.189571   2.156522   3.203509   2.960592   3.989291
    15  H    2.140366   0.983402   2.950347   3.621627   2.684512
    16  H    2.116109   3.209559   3.177166   0.959186   1.877750
    17  H    2.118659   2.944391   0.971948   3.578116   2.686590
                    6          7          8          9         10
     6  O    0.000000
     7  O    4.751158   0.000000
     8  C    1.347284   5.236233   0.000000
     9  H    2.077190   6.272014   1.135361   0.000000
    10  H    2.068807   5.579209   1.125114   1.776288   0.000000
    11  C    2.465191   4.716921   1.550868   2.124415   2.145873
    12  H    2.770293   4.897167   2.161433   2.401951   3.053077
    13  H    3.331683   5.639593   2.120600   2.300769   2.357568
    14  H    4.863647   0.953898   5.435385   6.386883   5.948763
    15  H    2.424110   3.047582   3.028498   3.786771   3.873426
    16  H    4.839846   3.322934   4.400860   5.250842   4.531535
    17  H    2.289667   3.061611   2.829409   3.941060   2.895699
                   11         12         13         14         15
    11  C    0.000000
    12  H    1.111424   0.000000
    13  H    1.113690   1.774170   0.000000
    14  H    4.882738   4.846980   5.859900   0.000000
    15  H    2.764557   2.521092   3.865833   2.811570   0.000000
    16  H    3.173452   3.601017   3.512107   3.757414   3.793813
    17  H    3.153148   3.777182   4.050838   3.545878   2.560748
                   16         17
    16  H    0.000000
    17  H    3.765154   0.000000
 Stoichiometry    C2H8O6Si(2-)
 Framework group  C1[X(C2H8O6Si)]
 Deg. of freedom    45
 Full point group                 C1      NOp   1
 Largest Abelian subgroup         C1      NOp   1
 Largest concise Abelian subgroup C1      NOp   1
                         Standard orientation:                         
 ---------------------------------------------------------------------
 Center     Atomic      Atomic             Coordinates (Angstroms)
 Number     Number       Type             X           Y           Z
 ---------------------------------------------------------------------
      1         14           0       -0.971541   -0.009025    0.042801
      2          8           0       -0.539519   -0.454320   -1.549232
      3          8           0       -0.491188   -0.818519    1.447469
      4          8           0       -1.843868    1.430668    0.270705
      5          8           0        0.501844    1.188552    0.153743
      6          8           0        2.251449   -1.350223   -0.046813
      7          8           0       -2.481000   -0.931175   -0.089594
      8          6           0        2.680089   -0.098295    0.206404
      9          1           0        3.699344    0.126548   -0.240371
     10          1           0        2.820188    0.110760    1.303012
     11          6           0        1.790661    1.055417   -0.325628
     12          1           0        1.810626    1.005834   -1.435766
     13          1           0        2.348977    1.980024   -0.054168
     14          1           0       -2.510153   -1.150352   -1.017513
     15          1           0        0.271003   -0.990163   -1.397553
     16          1           0       -1.141234    2.081436    0.324042
     17          1           0        0.296571   -1.300343    1.144212
 ---------------------------------------------------------------------
 Rotational constants (GHZ):           2.2685445           0.9726902           0.8790367
 Standard basis: def2TZVPP (5D, 7F)
 There are   456 symmetry adapted cartesian basis functions of A   symmetry.
 There are   402 symmetry adapted basis functions of A   symmetry.
   402 basis functions,   613 primitive gaussians,   456 cartesian basis functions
    42 alpha electrons       42 beta electrons
       nuclear repulsion energy       632.0642058329 Hartrees.
 NAtoms=   17 NActive=   17 NUniq=   17 SFac= 1.00D+00 NAtFMM=   60 NAOKFM=F Big=F
 Integral buffers will be    131072 words long.
 Raffenetti 2 integral format.
 Two-electron integral symmetry is turned on.
 Nuclear repulsion after empirical dispersion term =      632.0550332179 Hartrees.
 One-electron integrals computed using PRISM.
   1 Symmetry operations used in ECPInt.
 ECPInt:  NShTT=   11325 NPrTT=   31861 LenC2=   10853 LenP2D=   23949.
 LDataN:  DoStor=T MaxTD1= 6 Len=  172
 NBasis=   402 RedAO= T EigKep=  3.39D-04  NBF=   402
 NBsUse=   402 1.00D-06 EigRej= -1.00D+00 NBFU=   402
 Initial guess from the checkpoint file:  "IRC_PmonoL1toHbiL1_forward_productopt.chk"
 B after Tr=    -0.000000    0.000000   -0.000000
         Rot=    0.999642   -0.024062   -0.011722   -0.000533 Ang=  -3.07 deg.
 ExpMin= 7.01D-02 ExpMax= 4.48D+04 ExpMxC= 1.53D+03 IAcc=3 IRadAn=         5 AccDes= 0.00D+00
 Harris functional with IExCor= 4639 and IRadAn=       5 diagonalized for initial guess.
 HarFok:  IExCor= 4639 AccDes= 0.00D+00 IRadAn=         5 IDoV= 1 UseB2=F ITyADJ=14
 ICtDFT=  3500011 ScaDFX=  1.000000  1.000000  1.000000  1.000000
 FoFCou: FMM=F IPFlag=           0 FMFlag=      100000 FMFlg1=           0
         NFxFlg=           0 DoJE=T BraDBF=F KetDBF=T FulRan=T
         wScrn=  0.000000 ICntrl=       500 IOpCl=  0 I1Cent=   200000004 NGrid=           0
         NMat0=    1 NMatS0=      1 NMatT0=    0 NMatD0=    1 NMtDS0=    0 NMtDT0=    0
 Petite list used in FoFCou.
 Requested convergence on RMS density matrix=1.00D-08 within 128 cycles.
 Requested convergence on MAX density matrix=1.00D-06.
 Requested convergence on             energy=1.00D-06.
 No special actions if energy rises.
 Integral accuracy reduced to 1.0D-05 until final iterations.
 Initial convergence to 1.0D-05 achieved.  Increase integral accuracy.
 SCF Done:  E(RwB97XD) =  -822.059191710     A.U. after   16 cycles
            NFock= 16  Conv=0.37D-08     -V/T= 2.0034
   1 Symmetry operations used in ECPInt.
 ECPInt:  NShTT=   11325 NPrTT=   31861 LenC2=   10853 LenP2D=   23949.
 LDataN:  DoStor=T MaxTD1= 7 Len=  274
 Calling FoFJK, ICntrl=      2127 FMM=F ISym2X=0 I1Cent= 0 IOpClX= 0 NMat=1 NMatS=1 NMatT=0.
 ***** Axes restored to original set *****
 -------------------------------------------------------------------
 Center     Atomic                   Forces (Hartrees/Bohr)
 Number     Number              X              Y              Z
 -------------------------------------------------------------------
      1       14           0.009147371    0.022035907   -0.010300168
      2        8          -0.016761033   -0.020169072   -0.009390234
      3        8          -0.004805994   -0.007622070    0.015946597
      4        8           0.004272747   -0.000248734   -0.000020678
      5        8          -0.001381974   -0.011916663    0.000577201
      6        8           0.007094642    0.001540908    0.001332148
      7        8          -0.001158793    0.000385628    0.002011664
      8        6           0.009829335   -0.007978557    0.001474264
      9        1          -0.001026162    0.002017982    0.000869820
     10        1           0.000386046    0.001093392   -0.001680176
     11        6          -0.003187992    0.005945575   -0.001086234
     12        1           0.001236530   -0.002797277    0.000066269
     13        1          -0.000584957    0.001850465    0.001730861
     14        1           0.001514525   -0.000959000    0.000059175
     15        1           0.003256421    0.012714806    0.006977182
     16        1          -0.000668698   -0.000239954   -0.000298634
     17        1          -0.007162012    0.004346666   -0.008269056
 -------------------------------------------------------------------
 Cartesian Forces:  Max     0.022035907 RMS     0.007150982

 GradGradGradGradGradGradGradGradGradGradGradGradGradGradGradGradGradGrad
 Berny optimization.
 Using GEDIIS/GDIIS optimizer.
 FormGI is forming the generalized inverse of G from B-inverse, IUseBI=4.
 Internal  Forces:  Max     0.053517376 RMS     0.009867450
 Search for a local minimum.
 Step number   2 out of a maximum of   84
 All quantities printed in internal units (Hartrees-Bohrs-Radians)
 Mixed Optimization -- RFO/linear search
 Update second derivatives using D2CorX and points    2    1
 DE=  6.87D-03 DEPred=-6.11D-03 R=-1.12D+00
 Trust test=-1.12D+00 RLast= 3.58D-01 DXMaxT set to 1.50D-01
 ITU= -1  0
 Use linear search instead of GDIIS.
     Eigenvalues ---    0.00233   0.00525   0.02070   0.02200   0.02888
     Eigenvalues ---    0.03043   0.03117   0.04526   0.04972   0.06137
     Eigenvalues ---    0.06728   0.08245   0.09296   0.09828   0.12309
     Eigenvalues ---    0.13850   0.14552   0.15198   0.15999   0.16000
     Eigenvalues ---    0.16000   0.16000   0.16000   0.16072   0.17461
     Eigenvalues ---    0.18442   0.20364   0.22450   0.23009   0.27562
     Eigenvalues ---    0.28481   0.30069   0.31052   0.32211   0.32454
     Eigenvalues ---    0.34700   0.36125   0.36836   0.47128   0.50370
     Eigenvalues ---    0.52868   0.55025   0.55657   0.57521   0.63835
 RFO step:  Lambda=-3.64878138D-03 EMin= 2.33296520D-03
 Quartic linear search produced a step of -0.76512.
 Iteration  1 RMS(Cart)=  0.20056202 RMS(Int)=  0.01241438
 Iteration  2 RMS(Cart)=  0.02240229 RMS(Int)=  0.00035755
 Iteration  3 RMS(Cart)=  0.00031139 RMS(Int)=  0.00030840
 Iteration  4 RMS(Cart)=  0.00000010 RMS(Int)=  0.00030840
 Variable       Old X    -DE/DX   Delta X   Delta X   Delta X     New X
                                 (Linear)    (Quad)   (Total)
    R1        3.22889   0.00308   0.00177  -0.00003   0.00174   3.23062
    R2        3.19532  -0.00173   0.00174  -0.00326  -0.00152   3.19380
    R3        3.21009   0.00133  -0.00108   0.00221   0.00112   3.21122
    R4        3.59414  -0.01630  -0.01955   0.00322  -0.01634   3.57780
    R5        3.35199   0.00085  -0.00329   0.00465   0.00136   3.35335
    R6        1.85836  -0.01120  -0.00118  -0.00381  -0.00499   1.85337
    R7        1.83672   0.00083   0.00076  -0.00058   0.00019   1.83690
    R8        1.81260   0.00039  -0.00007   0.00025   0.00019   1.81279
    R9        2.61068  -0.01225  -0.00603   0.00161  -0.00442   2.60626
   R10        2.54600   0.00150   0.00342  -0.00365  -0.00023   2.54577
   R11        1.80261   0.00024  -0.00536   0.00685   0.00150   1.80410
   R12        2.14552   0.00159  -0.00031   0.00164   0.00133   2.14685
   R13        2.12616   0.00176  -0.00013   0.00151   0.00138   2.12754
   R14        2.93072  -0.00649  -0.00089  -0.00454  -0.00544   2.92528
   R15        2.10029  -0.00002  -0.00005   0.00005  -0.00000   2.10028
   R16        2.10457   0.00124  -0.00004   0.00097   0.00093   2.10550
    A1        2.18638  -0.01207   0.02617  -0.04697  -0.02064   2.16574
    A2        2.06658   0.00658  -0.01573   0.02663   0.01085   2.07743
    A3        1.59337  -0.01017  -0.02273   0.00054  -0.02299   1.57039
    A4        1.58093   0.00323  -0.00906   0.01095   0.00168   1.58261
    A5        2.02659   0.00501  -0.01098   0.01928   0.00806   2.03465
    A6        1.60372  -0.00767  -0.02771   0.00981  -0.01924   1.58448
    A7        1.62569   0.00444  -0.01398   0.01871   0.00397   1.62966
    A8        1.42663   0.01526   0.04762  -0.01818   0.02948   1.45611
    A9        1.58442  -0.00259   0.03146  -0.01914   0.01221   1.59663
   A10        1.77898   0.00972   0.00141   0.01282   0.01423   1.79322
   A11        1.78071   0.01097   0.00104   0.01508   0.01612   1.79683
   A12        1.77858  -0.00103   0.00050  -0.00207  -0.00157   1.77701
   A13        2.26761  -0.05352  -0.08912   0.05391  -0.03521   2.23241
   A14        1.79063   0.00319  -0.00056   0.00533   0.00477   1.79540
   A15        1.97760   0.00614   0.00940   0.00056   0.00992   1.98752
   A16        1.97736   0.00418  -0.00194  -0.00008  -0.00198   1.97538
   A17        2.03122  -0.01177  -0.01682   0.00633  -0.01049   2.02073
   A18        1.80797   0.00114   0.00327   0.00136   0.00465   1.81262
   A19        1.80548   0.00030   0.00753  -0.00561   0.00191   1.80739
   A20        1.84165   0.00075   0.00068  -0.00362  -0.00290   1.83874
   A21        2.08022  -0.03204  -0.04575   0.01450  -0.03149   2.04874
   A22        1.94727   0.00969  -0.00250  -0.01685  -0.01918   1.92810
   A23        1.87874   0.01018   0.02629   0.00484   0.03079   1.90953
   A24        1.87462   0.00322  -0.01093  -0.00810  -0.01903   1.85558
   A25        1.81985   0.01443   0.03283   0.00119   0.03374   1.85359
   A26        1.84575  -0.00233   0.00655   0.00539   0.01220   1.85795
   A27        3.17430  -0.00694  -0.03178   0.01150  -0.02130   3.15300
   A28        3.27236  -0.01040  -0.07316   0.03726  -0.03540   3.23696
    D1       -0.37779   0.00382   0.00955  -0.02036  -0.01119  -0.38899
    D2        2.66839  -0.00211   0.00190  -0.03287  -0.03101   2.63738
    D3        1.24933  -0.01356  -0.04087  -0.01087  -0.05127   1.19806
    D4       -2.02303  -0.00316   0.03230  -0.04813  -0.01587  -2.03890
    D5        0.36763  -0.00309  -0.00884   0.02399   0.01554   0.38317
    D6       -2.68050   0.00262  -0.00104   0.03578   0.03472  -2.64577
    D7       -1.25414   0.01567   0.03893   0.01960   0.05775  -1.19639
    D8        1.98975   0.00294  -0.02844   0.04646   0.01842   2.00817
    D9       -1.50716   0.00316   0.00254   0.00680   0.00943  -1.49773
   D10        1.54769  -0.00319  -0.00209  -0.00828  -0.01051   1.53719
   D11        0.01103  -0.00130   0.00429  -0.00720  -0.00240   0.00863
   D12       -3.09685   0.00073  -0.00312   0.00406   0.00046  -3.09639
   D13       -0.67453   0.00824  -0.00696   0.08226   0.07556  -0.59897
   D14        1.51332  -0.00482   0.01812   0.03574   0.05350   1.56683
   D15       -2.74319   0.00084   0.00853   0.05443   0.06307  -2.68012
   D16       -0.17644  -0.00599   0.00985  -0.02380  -0.01404  -0.19047
   D17       -2.36460   0.00565  -0.01528   0.02152   0.00633  -2.35828
   D18        1.89038   0.00061  -0.00555   0.00271  -0.00285   1.88752
   D19       -1.07738   0.01340   0.13515   0.10468   0.23979  -0.83760
   D20        1.12363  -0.00115   0.07983   0.08939   0.16948   1.29312
   D21        3.14125   0.00731   0.10235   0.08961   0.19174  -2.95020
   D22        1.09430  -0.00647  -0.05610  -0.14918  -0.20544   0.88886
   D23       -1.14074   0.00349  -0.00839  -0.12967  -0.13806  -1.27880
   D24       -3.09413  -0.00154  -0.02578  -0.13300  -0.15869   3.03036
   D25       -3.00829  -0.00586  -0.04906  -0.14875  -0.19794   3.07696
   D26        1.03985   0.00410  -0.00135  -0.12924  -0.13055   0.90930
   D27       -0.91354  -0.00093  -0.01874  -0.13258  -0.15118  -1.06472
   D28       -1.11481  -0.00423  -0.04240  -0.15061  -0.19314  -1.30795
   D29        2.93333   0.00573   0.00531  -0.13110  -0.12576   2.80757
   D30        0.97994   0.00069  -0.01208  -0.13443  -0.14638   0.83355
         Item               Value     Threshold  Converged?
 Maximum Force            0.053517     0.000450     NO 
 RMS     Force            0.009867     0.000300     NO 
 Maximum Displacement     0.720729     0.001800     NO 
 RMS     Displacement     0.212169     0.001200     NO 
 Predicted change in Energy=-1.632331D-03
 GradGradGradGradGradGradGradGradGradGradGradGradGradGradGradGradGradGrad

                          Input orientation:                          
 ---------------------------------------------------------------------
 Center     Atomic      Atomic             Coordinates (Angstroms)
 Number     Number       Type             X           Y           Z
 ---------------------------------------------------------------------
      1         14           0        0.875607    0.050876   -0.033331
      2          8           0        0.256951   -0.406040    1.493473
      3          8           0        0.520590   -0.751386   -1.477886
      4          8           0        1.775255    1.486708   -0.162367
      5          8           0       -0.600534    1.209677   -0.283806
      6          8           0       -1.850792   -1.420671    0.245171
      7          8           0        2.346471   -0.899064    0.254895
      8          6           0       -2.559406   -0.340723   -0.137488
      9          1           0       -3.574965   -0.255578    0.364537
     10          1           0       -2.800980   -0.336026   -1.237101
     11          6           0       -1.899792    1.031308    0.143072
     12          1           0       -1.974604    1.195316    1.239778
     13          1           0       -2.554904    1.794914   -0.335609
     14          1           0        2.277530   -1.122132    1.180595
     15          1           0       -0.548392   -0.913618    1.257497
     16          1           0        1.084563    2.140821   -0.286093
     17          1           0       -0.312976   -1.208092   -1.274265
 ---------------------------------------------------------------------
                    Distance matrix (angstroms):
                    1          2          3          4          5
     1  Si   0.000000
     2  O    1.709573   0.000000
     3  O    1.690089   3.002956   0.000000
     4  O    1.699303   2.937609   2.883373   0.000000
     5  O    1.893291   2.550401   2.555096   2.394967   0.000000
     6  O    3.110669   2.651473   3.006712   4.665528   2.960016
     7  O    1.774515   2.478557   2.521543   2.488434   3.663581
     8  C    3.458831   3.255175   3.384034   4.704190   2.502464
     9  H    4.478817   3.997588   4.518177   5.651376   3.378545
    10  H    3.887936   4.100228   3.356089   5.041760   2.853057
    11  C    2.948763   2.922514   3.415224   3.715731   1.379171
    12  H    3.324793   2.758358   4.171491   4.014021   2.051727
    13  H    3.860239   4.012015   4.152963   4.344570   2.040772
    14  H    2.194300   2.166430   3.208086   2.976890   3.983096
    15  H    2.150409   0.980763   2.941319   3.630002   2.624255
    16  H    2.115519   3.215323   3.178569   0.959285   1.925250
    17  H    2.130175   2.937427   0.972046   3.585941   2.628556
                    6          7          8          9         10
     6  O    0.000000
     7  O    4.229561   0.000000
     8  C    1.347164   4.953114   0.000000
     9  H    2.084338   5.957307   1.136064   0.000000
    10  H    2.067955   5.388814   1.125845   1.780665   0.000000
    11  C    2.454592   4.665789   1.547990   2.123988   2.141640
    12  H    2.801421   4.901848   2.144358   2.330729   3.027018
    13  H    3.342614   5.624028   2.144811   2.394837   2.326832
    14  H    4.243487   0.954690   5.073844   5.972317   5.679303
    15  H    1.725732   3.063601   2.513637   3.223436   3.410393
    16  H    4.645727   3.335563   4.411196   5.279891   4.704959
    17  H    2.172269   3.083259   2.662900   3.772735   2.636673
                   11         12         13         14         15
    11  C    0.000000
    12  H    1.111422   0.000000
    13  H    1.114183   1.782726   0.000000
    14  H    4.812876   4.843006   5.844694   0.000000
    15  H    2.617433   2.545976   3.728300   2.834647   0.000000
    16  H    3.212721   3.546937   3.656204   3.771101   3.791940
    17  H    3.088971   3.854580   3.863335   3.569937   2.559678
                   16         17
    16  H    0.000000
    17  H    3.760960   0.000000
 Stoichiometry    C2H8O6Si(2-)
 Framework group  C1[X(C2H8O6Si)]
 Deg. of freedom    45
 Full point group                 C1      NOp   1
 Largest Abelian subgroup         C1      NOp   1
 Largest concise Abelian subgroup C1      NOp   1
                         Standard orientation:                         
 ---------------------------------------------------------------------
 Center     Atomic      Atomic             Coordinates (Angstroms)
 Number     Number       Type             X           Y           Z
 ---------------------------------------------------------------------
      1         14           0       -0.917466    0.022566    0.041768
      2          8           0       -0.279200   -0.611088   -1.412101
      3          8           0       -0.534211   -0.564342    1.579642
      4          8           0       -1.871890    1.427169   -0.019840
      5          8           0        0.512596    1.260233    0.129249
      6          8           0        1.863971   -1.367430   -0.046424
      7          8           0       -2.350228   -1.013149   -0.111167
      8          6           0        2.529893   -0.219528    0.185348
      9          1           0        3.542244   -0.163665   -0.327161
     10          1           0        2.769312   -0.058025    1.273522
     11          6           0        1.818449    1.076124   -0.274439
     12          1           0        1.888687    1.094194   -1.383493
     13          1           0        2.442920    1.921619    0.095123
     14          1           0       -2.271246   -1.355638   -0.998802
     15          1           0        0.544685   -1.051148   -1.113008
     16          1           0       -1.207074    2.117965    0.012546
     17          1           0        0.316638   -1.011949    1.436190
 ---------------------------------------------------------------------
 Rotational constants (GHZ):           2.2474732           1.0787631           0.9535329
 Standard basis: def2TZVPP (5D, 7F)
 There are   456 symmetry adapted cartesian basis functions of A   symmetry.
 There are   402 symmetry adapted basis functions of A   symmetry.
   402 basis functions,   613 primitive gaussians,   456 cartesian basis functions
    42 alpha electrons       42 beta electrons
       nuclear repulsion energy       643.8639822332 Hartrees.
 NAtoms=   17 NActive=   17 NUniq=   17 SFac= 1.00D+00 NAtFMM=   60 NAOKFM=F Big=F
 Integral buffers will be    131072 words long.
 Raffenetti 2 integral format.
 Two-electron integral symmetry is turned on.
 Nuclear repulsion after empirical dispersion term =      643.8548802823 Hartrees.
 One-electron integrals computed using PRISM.
   1 Symmetry operations used in ECPInt.
 ECPInt:  NShTT=   11325 NPrTT=   31861 LenC2=   10901 LenP2D=   24168.
 LDataN:  DoStor=T MaxTD1= 6 Len=  172
 NBasis=   402 RedAO= T EigKep=  3.12D-04  NBF=   402
 NBsUse=   402 1.00D-06 EigRej= -1.00D+00 NBFU=   402
 Lowest energy guess from the checkpoint file:  "IRC_PmonoL1toHbiL1_forward_productopt.chk"
 B after Tr=    -0.000000    0.000000   -0.000000
         Rot=    0.999803    0.017597    0.006555    0.006395 Ang=   2.27 deg.
 B after Tr=     0.000000   -0.000000    0.000000
         Rot=    0.998885    0.043692    0.016678    0.006486 Ang=   5.41 deg.
 Requested convergence on RMS density matrix=1.00D-08 within 128 cycles.
 Requested convergence on MAX density matrix=1.00D-06.
 Requested convergence on             energy=1.00D-06.
 No special actions if energy rises.
 Integral accuracy reduced to 1.0D-05 until final iterations.
 Initial convergence to 1.0D-05 achieved.  Increase integral accuracy.
 SCF Done:  E(RwB97XD) =  -822.067121093     A.U. after   15 cycles
            NFock= 15  Conv=0.71D-08     -V/T= 2.0033
   1 Symmetry operations used in ECPInt.
 ECPInt:  NShTT=   11325 NPrTT=   31861 LenC2=   10901 LenP2D=   24168.
 LDataN:  DoStor=T MaxTD1= 7 Len=  274
 Calling FoFJK, ICntrl=      2127 FMM=F ISym2X=0 I1Cent= 0 IOpClX= 0 NMat=1 NMatS=1 NMatT=0.
 ***** Axes restored to original set *****
 -------------------------------------------------------------------
 Center     Atomic                   Forces (Hartrees/Bohr)
 Number     Number              X              Y              Z
 -------------------------------------------------------------------
      1       14           0.001568727    0.004939311    0.010239414
      2        8           0.010533462   -0.001915189   -0.004950937
      3        8          -0.004654624   -0.007482331    0.005319065
      4        8           0.001217531    0.000619942   -0.001999510
      5        8          -0.004252036   -0.001459529   -0.005676139
      6        8          -0.003064617   -0.002670313   -0.002053025
      7        8           0.002246827    0.002540240   -0.000626151
      8        6           0.002203659   -0.001060424   -0.002613575
      9        1          -0.000033559    0.000555498   -0.001162135
     10        1          -0.000005809   -0.001370387   -0.000957526
     11        6           0.005064479    0.001559237    0.005721106
     12        1           0.000080915   -0.000033670    0.000788768
     13        1          -0.000069943    0.000168448    0.001255576
     14        1          -0.000994712   -0.000192889   -0.001029603
     15        1          -0.010198256    0.001394497   -0.000913321
     16        1          -0.000386157   -0.000095760   -0.000028837
     17        1           0.000744112    0.004503319   -0.001313170
 -------------------------------------------------------------------
 Cartesian Forces:  Max     0.010533462 RMS     0.003650432

 GradGradGradGradGradGradGradGradGradGradGradGradGradGradGradGradGradGrad
 Berny optimization.
 Using GEDIIS/GDIIS optimizer.
 FormGI is forming the generalized inverse of G from B-inverse, IUseBI=4.
 Internal  Forces:  Max     0.009853909 RMS     0.003199420
 Search for a local minimum.
 Step number   3 out of a maximum of   84
 All quantities printed in internal units (Hartrees-Bohrs-Radians)
 Mixed Optimization -- RFO/linear search
 Update second derivatives using D2CorX and points    1    3
 DE= -1.06D-03 DEPred=-1.63D-03 R= 6.50D-01
 TightC=F SS=  1.41D+00  RLast= 4.56D-01 DXNew= 2.5227D-01 1.3674D+00
 Trust test= 6.50D-01 RLast= 4.56D-01 DXMaxT set to 2.52D-01
 ITU=  1 -1  0
 Use linear search instead of GDIIS.
     Eigenvalues ---    0.00164   0.00753   0.02064   0.02329   0.02758
     Eigenvalues ---    0.03044   0.03154   0.05045   0.05247   0.06158
     Eigenvalues ---    0.06728   0.08112   0.09593   0.10294   0.11657
     Eigenvalues ---    0.12116   0.14679   0.15215   0.15999   0.16000
     Eigenvalues ---    0.16000   0.16000   0.16023   0.16398   0.17371
     Eigenvalues ---    0.18366   0.20327   0.22548   0.24027   0.28320
     Eigenvalues ---    0.28684   0.30099   0.31038   0.32224   0.32458
     Eigenvalues ---    0.35047   0.36101   0.36803   0.47946   0.52229
     Eigenvalues ---    0.53004   0.55023   0.55655   0.57584   0.73249
 RFO step:  Lambda=-9.51214411D-03 EMin= 1.64395338D-03
 Quartic linear search produced a step of -0.33389.
 Iteration  1 RMS(Cart)=  0.22144526 RMS(Int)=  0.01756362
 Iteration  2 RMS(Cart)=  0.05194446 RMS(Int)=  0.00086051
 Iteration  3 RMS(Cart)=  0.00113828 RMS(Int)=  0.00052888
 Iteration  4 RMS(Cart)=  0.00000086 RMS(Int)=  0.00052888
 Variable       Old X    -DE/DX   Delta X   Delta X   Delta X     New X
                                 (Linear)    (Quad)   (Total)
    R1        3.23062  -0.00522   0.00019  -0.00919  -0.00900   3.22162
    R2        3.19380  -0.00119   0.00127  -0.00892  -0.00766   3.18615
    R3        3.21122   0.00104  -0.00085   0.00646   0.00562   3.21683
    R4        3.57780  -0.00197  -0.00308   0.00212  -0.00096   3.57684
    R5        3.35335  -0.00049  -0.00189   0.00890   0.00701   3.36036
    R6        1.85337   0.00787   0.00115   0.00124   0.00239   1.85577
    R7        1.83690  -0.00303   0.00027  -0.00473  -0.00446   1.83244
    R8        1.81279   0.00022  -0.00009   0.00079   0.00070   1.81348
    R9        2.60626  -0.00326  -0.00115  -0.00067  -0.00183   2.60443
   R10        2.54577  -0.00005   0.00157  -0.00782  -0.00626   2.53951
   R11        1.80410  -0.00088  -0.00284   0.01369   0.01085   1.81495
   R12        2.14685  -0.00044  -0.00058   0.00259   0.00202   2.14887
   R13        2.12754   0.00093  -0.00052   0.00504   0.00452   2.13206
   R14        2.92528   0.00565   0.00143   0.00270   0.00413   2.92940
   R15        2.10028   0.00077  -0.00002   0.00154   0.00152   2.10180
   R16        2.10550  -0.00038  -0.00033   0.00135   0.00102   2.10652
    A1        2.16574  -0.00524   0.01831  -0.11989  -0.10173   2.06401
    A2        2.07743   0.00247  -0.01048   0.06571   0.05511   2.13253
    A3        1.57039  -0.00016  -0.00224   0.00536   0.00332   1.57371
    A4        1.58261   0.00207  -0.00451   0.03529   0.03211   1.61472
    A5        2.03465   0.00264  -0.00748   0.05096   0.04345   2.07809
    A6        1.58448  -0.00302  -0.00567   0.00943   0.00481   1.58929
    A7        1.62966   0.00104  -0.00743   0.04258   0.03736   1.66703
    A8        1.45611   0.00251   0.01094  -0.03697  -0.02559   1.43052
    A9        1.59663  -0.00206   0.00965  -0.05146  -0.04217   1.55445
   A10        1.79322   0.00145  -0.00414   0.03184   0.02771   1.82092
   A11        1.79683  -0.00093  -0.00493   0.02781   0.02288   1.81972
   A12        1.77701  -0.00061   0.00074  -0.00657  -0.00583   1.77118
   A13        2.23241  -0.00490  -0.02713   0.10532   0.07818   2.31059
   A14        1.79540  -0.00128  -0.00184   0.00642   0.00458   1.79998
   A15        1.98752  -0.00214   0.00079  -0.00285  -0.00203   1.98549
   A16        1.97538  -0.00402  -0.00019  -0.00946  -0.00972   1.96566
   A17        2.02073   0.00832  -0.00384   0.03730   0.03343   2.05416
   A18        1.81262  -0.00069  -0.00013  -0.00504  -0.00526   1.80736
   A19        1.80739  -0.00186   0.00265  -0.01810  -0.01546   1.79193
   A20        1.83874  -0.00014   0.00127  -0.00648  -0.00530   1.83345
   A21        2.04874  -0.00243  -0.00945   0.02750   0.01787   2.06661
   A22        1.92810   0.00069   0.00531  -0.00893  -0.00404   1.92406
   A23        1.90953   0.00085   0.00119  -0.01200  -0.01073   1.89880
   A24        1.85558   0.00438   0.00159   0.01774   0.01915   1.87473
   A25        1.85359  -0.00287   0.00306  -0.03022  -0.02701   1.82658
   A26        1.85795  -0.00056  -0.00122   0.00418   0.00315   1.86110
   A27        3.15300   0.00192  -0.00676   0.04066   0.03543   3.18843
   A28        3.23696  -0.00148  -0.02011   0.08138   0.06040   3.29736
    D1       -0.38899  -0.00117   0.00790  -0.07597  -0.06909  -0.45808
    D2        2.63738  -0.00237   0.01118  -0.10643  -0.09540   2.54197
    D3        1.19806  -0.00498  -0.00071  -0.06222  -0.06278   1.13528
    D4       -2.03890  -0.00350   0.01939  -0.14360  -0.12318  -2.16208
    D5        0.38317   0.00007  -0.00905   0.05963   0.05175   0.43492
    D6       -2.64577   0.00123  -0.01205   0.08816   0.07612  -2.56965
    D7       -1.19639   0.00240  -0.00229   0.04911   0.04727  -1.14912
    D8        2.00817   0.00279  -0.01856   0.11989   0.09969   2.10786
    D9       -1.49773   0.00052  -0.00204   0.01732   0.01577  -1.48196
   D10        1.53719  -0.00111   0.00259  -0.02228  -0.02020   1.51699
   D11        0.00863   0.00138   0.00267  -0.00726  -0.00529   0.00334
   D12       -3.09639  -0.00081  -0.00152   0.00282   0.00202  -3.09437
   D13       -0.59897  -0.00375  -0.02826  -0.16172  -0.18988  -0.78885
   D14        1.56683  -0.00902  -0.00995  -0.28145  -0.29151   1.27531
   D15       -2.68012  -0.00610  -0.01734  -0.22969  -0.24703  -2.92715
   D16       -0.19047  -0.00198   0.00898  -0.04607  -0.03634  -0.22681
   D17       -2.35828   0.00305  -0.00878   0.06910   0.05960  -2.29868
   D18        1.88752   0.00051  -0.00147   0.01953   0.01804   1.90556
   D19       -0.83760  -0.00985  -0.02108  -0.11030  -0.13139  -0.96899
   D20        1.29312  -0.00517  -0.02175  -0.07264  -0.09442   1.19870
   D21       -2.95020  -0.00495  -0.01936  -0.07993  -0.09926  -3.04945
   D22        0.88886   0.00192   0.04411  -0.00065   0.04362   0.93248
[...]
 1\1\GINC-CDR1855\Freq\RwB97XD\def2TZVPP\C2H8O6Si1(2-)\ARHENDER\11-Feb-
 2024\0\\#N Geom=AllCheck Guess=TCheck SCRF=Check GenChk RwB97XD/def2TZ
 VPP Freq\\IRC Forward of possible PL1 collapse to HL1 TS\\-2,1\Si,0.91
 9606671,0.102691122,0.0437923623\O,0.2661426855,-0.5239445356,1.495419
 8999\O,0.5400404817,-0.9864062504,-1.1773903042\O,1.7186195697,1.53460
 2514,-0.4516115988\O,-0.5968114468,1.1778888404,-0.2135752882\O,-1.985
 5128788,-1.4387263769,0.0345598585\O,2.5092197534,-0.5009617105,0.4895
 281023\C,-2.5913317567,-0.2746957117,-0.2702609193\H,-3.6513607185,-0.
 18619693,0.1307113871\H,-2.7067581454,-0.1051750435,-1.377643208\C,-1.
 87478255,0.9826768969,0.2656826978\H,-1.8862277564,0.9149292333,1.3725
 505373\H,-2.5034771443,1.8618585297,-0.0013622256\H,2.3043587564,-1.26
 53796663,1.0235353522\H,-0.6052733885,-0.8902199484,1.2419280897\H,0.9
 845499564,2.1095819057,-0.6709497255\H,-0.3813790887,-1.2562328689,-0.
 9838440175\\Version=ES64L-G16RevC.01\State=1-A\HF=-822.0782519\RMSD=1.
 741e-09\RMSF=3.014e-05\ZeroPoint=0.1222924\Thermal=0.132781\ETot=-821.
 9454709\HTot=-821.9445267\GTot=-821.9919096\Dipole=-0.1639609,0.869467
 6,0.2389161\DipoleDeriv=3.0382222,-0.1649013,0.071175,-0.2289338,2.157
 0326,-0.1627605,0.1560917,-0.2338233,1.738621,-1.1821179,-0.0019636,0.
 0124287,-0.0337106,-0.7332021,0.1266305,0.0018602,0.1710482,-1.0134768
 ,-1.1179156,-0.0502223,-0.0421412,-0.066461,-0.905901,-0.2474535,0.013
 0175,-0.2588714,-0.9636312,-1.0222846,-0.2882807,0.1128368,-0.2666044,
 -1.071744,0.1410993,0.1121709,0.1618239,-0.6960381,-1.8906729,0.124002
 1,0.1940605,0.0422004,-0.7990995,0.0661865,0.2058118,0.0573882,-0.6273
 476,-1.2877563,0.1706794,-0.1081337,0.4241124,-1.3412794,0.1380084,-0.
 1500047,0.104808,-0.7223941,-1.3574201,0.2979537,-0.2186981,0.2441239,
 -0.6764924,-0.0114004,-0.1774944,-0.0147629,-0.6822591,0.9790233,-0.28
 22762,0.0012738,-0.7936258,0.796129,-0.2237531,0.0159278,-0.1606932,0.
 6256369,-0.7589722,0.0959576,0.1431114,0.1463865,-0.0975809,-0.0416682
 ,0.2628037,-0.0377259,-0.1190293,-0.0788338,0.0227622,-0.0701268,0.050
 6427,-0.0963597,0.1322483,-0.1913397,0.1064892,-0.5668919,1.1041373,-0
 .2759621,-0.1273158,0.0206674,0.3049345,-0.1217075,-0.2090329,-0.09614
 59,0.4480228,-0.0583556,-0.0170077,0.0282557,-0.0455269,-0.011705,0.02
 21136,0.117465,-0.0457493,-0.3816296,-0.3045637,0.266653,-0.0303056,0.
 2371563,-0.3258335,0.0336532,-0.0916608,0.1189358,-0.0229911,0.3417833
 ,-0.0816069,0.045044,-0.0620415,0.102148,0.0934303,0.0111862,0.0945148
 ,0.1958544,0.5542832,0.0454632,0.175083,0.1160427,0.2513575,0.0407295,
 0.2205608,-0.0183878,0.2958475,0.3968556,0.1343834,-0.0707503,0.151557
 3,0.2161383,0.0055977,-0.088773,0.0072569,0.2294798,0.6445876,0.004366
 2,-0.1157974,0.0640144,0.2314576,0.0090459,-0.2085903,0.0438946,0.2622
 262\Polar=103.5062912,-5.2972108,80.3733666,0.8704592,-2.2837239,76.75
 49477\Quadrupole=-15.8810369,6.3864753,9.4945616,-6.4160179,0.4322368,
 -0.7969969\PG=C01 [X(C2H8O6Si1)]\NImag=0\\0.34276515,0.09202145,0.4354
 4265,-0.01157732,-0.01645345,0.41414283,-0.07023779,-0.01666874,0.0375
 5524,0.46680576,-0.01577142,-0.05719182,0.03891782,0.16067040,0.136068
 67,0.02995120,0.02635123,-0.13452192,0.05225181,-0.02302838,0.22857063
 ,-0.05749627,-0.02665177,-0.02548776,0.00995875,0.00107566,0.00278686,
 0.47423918,-0.02203767,-0.10750403,-0.07811361,0.00081273,0.00745208,-
 0.00138604,0.13908725,0.17914538,-0.01860387,-0.06986607,-0.13238576,0
 .00399895,-0.00936208,-0.02427472,-0.05160311,0.08801192,0.19101693,-0
 .07261415,-0.04013335,0.01226089,0.00373024,-0.00240660,0.00166897,0.0
 0192525,-0.00582951,-0.00018311,0.44882947,-0.05242260,-0.13169276,0.0
 2754083,-0.00423528,0.00109795,0.00217935,-0.01218336,-0.00872310,-0.0
 0060018,-0.17590221,0.37816728,0.01781563,0.03145042,-0.05511575,0.004
 44562,0.00297306,0.00212554,-0.00520332,-0.00622166,0.00515983,0.06967
 814,-0.12448578,0.07858127,-0.02064850,-0.01811494,0.00413803,0.006567
 25,0.01849196,-0.01498442,0.00157046,0.02130164,0.00681006,-0.06289553
 ,-0.01199140,0.01186078,0.42412289,-0.01447080,-0.04238929,0.00724353,
 0.01089818,-0.01414863,0.02150367,0.01565839,-0.01893766,-0.00985408,-
 0.01209742,0.00757612,0.00236329,0.01330746,0.12838671,0.00499105,0.00
 570720,-0.03713701,-0.01081976,0.02392373,-0.01238849,0.00776524,-0.01
 580607,0.00234612,0.01301065,0.00305544,0.00792145,-0.10830293,-0.0365
 9245,0.13130061,0.00290573,0.01732421,-0.00023383,-0.01523856,-0.01102
 804,-0.00881845,-0.02015765,-0.00919652,0.00744825,0.00062138,-0.00306
 512,-0.00001944,0.01428695,-0.00367822,-0.00014526,0.14455312,0.005766
 69,-0.01013737,-0.00103380,-0.00238684,0.00742018,-0.00257401,0.002968
 28,0.00994220,0.00124749,-0.00189924,0.00134626,0.00036671,-0.00724905
 ,0.00735892,0.00010643,-0.13241957,0.33198627,0.00131535,-0.00050227,-
 0.01716849,-0.01655623,-0.00813673,0.00131919,0.01334347,0.00463813,0.
 00442621,0.00018163,0.00029774,0.00149939,-0.00010767,-0.00028959,0.00
 310255,0.03822725,-0.06682475,0.07935937,-0.10238511,0.01028682,-0.007
 20132,-0.04433456,-0.00399517,0.01272687,-0.01705563,-0.00404564,-0.01
 313416,0.00110984,0.00956275,-0.00546891,-0.00286969,0.00295333,-0.000
 85564,-0.00413835,0.00007962,-0.00152603,0.21527996,0.02911481,-0.0534
 4171,0.00706950,0.00305070,0.00949682,0.00273640,-0.00776407,0.0056728
 8,-0.00510572,0.02162462,-0.03301674,0.01978002,0.00426867,0.00264809,
 -0.00066842,-0.00053230,0.00109230,0.00066967,0.05577712,0.42154244,-0
 .02219515,0.00583944,-0.05068676,0.02494180,0.00439185,0.00449233,-0.0
 2350593,-0.00384958,-0.00388630,-0.01058867,0.01929737,-0.00058013,-0.
 00234630,-0.00027630,0.00303722,-0.00042112,0.00052779,0.00334536,-0.0
 3871612,-0.26792268,0.23224120,-0.00433096,-0.01036861,0.00031585,0.00
 495315,0.00275639,0.00104698,0.00550678,0.00214650,-0.00107935,-0.0015
 8647,0.00167998,0.00059858,-0.03551322,-0.02769106,-0.00550317,-0.1182
 0978,0.07045559,-0.01920349,0.00201295,0.00046942,0.00008626,0.4576816
 8,-0.00014846,0.01491586,-0.00123897,-0.00893337,-0.00890365,-0.002438
 29,-0.01007288,-0.00700164,0.00228546,0.00178416,-0.00210790,-0.000055
 99,0.00171394,-0.00440400,0.00206131,0.08886372,-0.24425398,0.04498537
 ,-0.00244557,-0.00083621,-0.00007877,-0.02748461,0.46798213,-0.0024714
 4,-0.00034938,0.00167910,0.00154694,0.00030549,0.00069169,0.00317288,0
 .00276011,-0.00307542,0.00149711,0.00039828,-0.00079547,0.01235551,0.0
 1136256,0.00634198,-0.01873167,0.03769923,-0.09648763,0.00067588,-0.00
 006191,-0.00012685,-0.00128722,-0.01360270,0.48390173,0.00368530,0.000
 80689,0.00097501,-0.00167714,-0.00083630,-0.00158100,-0.00313268,-0.00
 114197,0.00099856,-0.00143200,-0.00070717,0.00031342,-0.00407874,-0.00
 642314,-0.00326882,-0.02475320,0.03394643,-0.00418370,-0.00115643,0.00
 007979,-0.00033753,-0.15998711,-0.02013531,0.05188931,0.20631539,0.000
 59176,-0.00382644,-0.00017878,0.00108567,0.00148180,0.00037354,0.00228
 952,0.00177727,-0.00051174,-0.00095157,0.00036369,0.00033117,-0.005590
 72,-0.00323881,-0.00288418,0.03948697,-0.01401897,-0.00638043,0.000341
 60,0.00024233,0.00007679,-0.00656639,-0.04420047,0.00075249,-0.0062652
 5,0.05744639,-0.00092546,-0.00054389,-0.00038798,0.00042285,0.00013004
 ,0.00041929,0.00040905,0.00005806,0.00031029,0.00005312,0.00020089,0.0
 0002029,-0.00045085,-0.00113580,0.00141233,-0.00588607,-0.00575333,0.0
 1286244,0.00032875,0.00001067,0.00010095,0.05251548,0.00647925,-0.0749
 6075,-0.06315449,-0.00121939,0.07382239,0.00003444,0.00047507,-0.00115
 523,-0.00089568,-0.00062439,0.00039540,0.00010470,-0.00007752,0.000789
 21,0.00005581,-0.00005559,0.00012443,0.00197742,0.00148992,0.00115790,
 -0.00147728,0.01397360,-0.02091127,-0.00016799,0.00001948,0.00021386,-
 0.04924141,-0.00350493,-0.00380681,-0.00107510,-0.00087276,0.02806750,
 0.05008103,-0.00042158,-0.00096159,0.00098576,0.00153987,0.00163744,0.
 00018237,0.00056801,0.00049302,-0.00086848,0.00007055,0.00022584,-0.00
 019710,0.00167243,0.00153912,0.00161968,0.01525189,-0.01784577,0.03579
 454,0.00030624,0.00001873,-0.00016660,0.00039008,-0.04460411,0.0105189
 1,-0.00330047,0.00267245,0.00302542,-0.00721977,0.06173705,0.00160215,
 0.00128582,-0.00197209,-0.00239896,-0.00115469,0.00051854,-0.00162071,
 -0.00098530,0.00185607,-0.00047186,-0.00047322,0.00048212,-0.00146473,
 0.00066800,0.00484626,-0.01697325,0.02777530,-0.00571565,-0.00074625,0
 .00002729,0.00029895,-0.00666828,-0.00113364,-0.20924168,0.00502108,-0
 .00206655,-0.01572060,0.01594578,-0.02214585,0.24854355,-0.03200030,0.
 01657701,-0.00160342,-0.00238632,-0.00804030,0.01010528,0.00129752,-0.
 00974537,-0.00298352,0.00629818,-0.00065220,-0.00066747,-0.23360106,-0
 .00538491,0.05944656,0.00378836,0.02256549,0.00647646,0.00223589,-0.00
 154969,0.00089160,-0.08834930,-0.03382958,-0.02345936,-0.02043228,-0.0
 2185680,-0.01065922,-0.00035650,-0.00280570,0.00332192,0.49530118,0.00
 103088,0.00455378,-0.00538671,0.00090944,-0.00270881,0.00132950,0.0001
 2156,-0.00383115,-0.00117578,-0.00055035,0.00282356,0.00017899,-0.0232
 3673,-0.08416917,0.02131235,-0.00187073,-0.04614474,-0.00482067,0.0001
 4045,-0.00001031,0.00014479,-0.02767547,-0.11623064,-0.03370229,0.0033
 2291,0.00155850,-0.00314846,-0.00240052,-0.00029197,0.00154041,-0.0420
 4345,0.47903264,0.00939323,-0.01439277,0.00469957,0.00450674,0.0043501
 9,-0.00833857,-0.00106247,0.00288043,0.00038528,-0.00742556,-0.0006623
 3,0.00451561,0.05740700,0.01569383,-0.09611203,0.00376596,0.00825150,0
 .00840823,-0.00006895,0.00086138,-0.00141219,-0.02152501,-0.03201721,-
 0.09407894,0.01538067,0.01098179,0.00170702,-0.01817728,-0.02671851,-0
 .02222094,0.00639799,-0.03155664,0.52302520,0.00280220,-0.00401997,0.0
 0414668,0.00058538,0.00009354,-0.00172593,-0.00027551,0.00142709,-0.00
 023787,-0.00141673,-0.00004348,-0.00072263,-0.01790073,-0.00474415,0.0
 4069225,0.00023168,0.00092012,0.00177241,0.00012483,0.00021883,-0.0004
 2450,-0.00039905,-0.00012541,-0.01551986,0.00039239,0.00087266,0.00020
 564,-0.00055887,-0.00346786,-0.00161033,-0.04477095,0.00421560,-0.0154
 2103,0.06084649,0.00137594,-0.00047873,-0.00025406,0.00066959,-0.00010
 631,-0.00024987,-0.00006908,0.00034014,0.00032956,-0.00033797,-0.00011
 058,-0.00002838,-0.00494840,0.00386622,0.00522002,0.00055596,0.0032443
 2,0.00240093,-0.00021281,0.00006023,0.00000752,-0.00417447,0.00024852,
 -0.02819481,0.00087116,0.00087408,0.00090654,-0.00241784,-0.00369231,-
 0.00391292,0.00156909,-0.05130434,0.01485596,0.00233161,0.05075403,-0.
 00509511,0.00620544,-0.00396092,-0.00268037,-0.00013723,0.00399380,0.0
 0058946,-0.00164781,0.00031945,0.00227454,0.00021385,0.00013588,0.0259
 9988,0.00310988,-0.01500878,0.00177751,-0.00013865,0.00441917,0.000047
 94,-0.00038383,0.00068227,-0.00267261,0.00460918,-0.01848431,-0.001899
 99,-0.00037509,0.00091508,-0.00254323,-0.00299667,-0.00065647,-0.01497
 895,0.00812263,-0.25414572,0.00262844,-0.01630860,0.29119485,0.0077164
 2,-0.00511841,0.00174826,-0.00006406,0.00156358,-0.00161557,-0.0006139
 6,0.00256780,0.00135526,-0.00292879,-0.00134361,0.00072012,-0.04774725
 ,0.02286912,0.00181966,0.00027402,-0.00059208,-0.00127909,-0.00085439,
 0.00033726,-0.00023058,0.00534599,-0.01077225,0.00199945,0.00146748,0.
 00077777,0.00038691,0.00023836,0.00076832,0.00073831,-0.08825061,0.082
 90034,-0.03064902,0.00027850,0.00367724,-0.00326379,0.12522343,-0.0035
 4512,0.00104892,-0.00033189,0.00046293,0.00000525,0.00033602,0.0008095
 1,-0.00021240,-0.00047481,0.00108784,0.00028525,-0.00011456,0.00602362
 ,0.01086903,-0.00530189,-0.00457034,-0.00840882,-0.00479692,0.00059476
 ,-0.00008822,0.00010246,0.02262039,-0.02021487,0.01494486,-0.00259800,
 0.00095766,0.00100636,-0.00004544,0.00146270,-0.00195964,0.07830584,-0
 .18078431,0.04487279,0.00047886,-0.00239392,0.00150355,-0.09724900,0.1
 9769784,0.00013683,0.00129091,-0.00148797,-0.00140638,0.00025891,0.001
 36461,-0.00005772,-0.00033938,0.00012065,0.00018301,0.00007935,-0.0000
 0866,0.01208086,-0.01138882,0.00627967,-0.00123760,-0.00138764,0.00117
 417,-0.00037043,-0.00004912,0.00019516,0.00562557,-0.01140819,0.002581
 38,0.00045642,0.00087790,-0.00003742,0.00065028,0.00057018,0.00031876,
 -0.03086070,0.04664497,-0.06656678,-0.01467142,0.02560554,-0.00786064,
 0.02861654,-0.04975180,0.06436621,0.00211311,0.02163612,-0.01695921,0.
 00044519,-0.00245239,0.00131871,-0.00130777,-0.00122564,0.00175957,-0.
 00268000,0.00453711,-0.00177308,0.00007978,-0.00122296,0.00104318,0.00
 111195,-0.00017016,0.00086154,-0.05151970,-0.10200445,0.07015863,-0.00
 057253,0.00074099,-0.00020578,0.00028004,-0.00011852,-0.00007869,0.000
 08718,-0.00011346,0.00025262,-0.00031085,0.00001504,-0.00028631,-0.000
 15400,0.00006754,0.00012300,0.00014754,-0.00013980,0.00014454,0.053045
 90,-0.00270143,-0.01170282,0.01128781,-0.00676924,-0.00069845,0.000232
 34,-0.00025730,-0.00053334,-0.00118220,0.00373559,-0.00303402,0.001531
 35,0.00036467,0.00063320,-0.00076396,-0.00058746,-0.00021701,-0.000637
 60,-0.07333848,-0.35069876,0.23976047,0.00028121,-0.00029511,0.0000885
 4,-0.00006697,0.00004166,0.00001913,-0.00004708,0.00004702,-0.00013456
 ,-0.00000073,0.00000281,0.00031877,0.00011986,-0.00002638,-0.00016180,
 -0.00003807,0.00003698,-0.00008044,0.08018691,0.36572918,0.00058083,0.
 01197712,-0.00136962,0.00291920,-0.00132932,-0.00382842,0.00129734,-0.
 00211297,0.00092673,-0.00151583,0.00083743,0.00051211,-0.00014172,-0.0
 0025675,-0.00059868,0.00018290,-0.00029634,-0.00045022,0.05115801,0.24
 265555,-0.17829298,-0.00011691,0.00017921,0.00003470,0.00008176,-0.000
 06030,-0.00003189,-0.00001852,0.00000959,-0.00003863,0.00003988,-0.000
 03655,0.00010708,0.00003105,-0.00000530,-0.00005537,0.00000896,-0.0000
 2162,-0.00001361,-0.05457139,-0.25230301,0.18223003,-0.01256616,-0.013
 51355,0.01824326,-0.35078131,-0.14133551,-0.08796721,-0.00328419,-0.00
 092999,-0.00595008,-0.00021310,0.00126256,-0.00175529,-0.00801769,0.00
 420066,-0.00277570,0.00599230,-0.00091990,0.01398921,0.00091499,-0.000
 34505,-0.00040407,-0.00771088,0.01141069,-0.00405230,0.00156583,-0.001
 01756,-0.00053511,0.00111068,-0.00228700,0.00256538,0.00412808,0.00188
 604,-0.00362071,-0.00044289,0.00092282,0.00056592,-0.00036613,-0.00082
 351,0.00042605,-0.00122918,-0.00020173,0.00028930,0.36448389,-0.014033
 03,-0.00314904,0.00561368,-0.14002677,-0.08002151,-0.02693246,-0.00103
 184,-0.00257544,-0.00134908,0.00060863,-0.00002713,0.00019676,-0.00053
 329,0.00261518,-0.00230422,0.00428913,-0.01082539,0.00357286,0.0032434
 8,0.00066651,-0.00203754,0.00023299,0.00689827,0.00199975,0.00109380,-
 0.00106733,-0.00029118,0.00074978,-0.00184094,0.00107611,0.00384359,-0
 .00240001,0.00376042,0.00132308,-0.00138039,-0.00138227,-0.00044527,0.
 00003494,-0.00102154,-0.00097396,0.00145656,0.00048807,0.14072937,0.09
 020093,0.02196681,0.00986351,0.00804206,-0.10198874,-0.03369338,-0.060
 40799,-0.00338811,-0.00151925,-0.00003277,-0.00062205,0.00047013,-0.00
 142573,-0.00216434,-0.00073261,-0.00207584,0.01057733,-0.00039293,0.00
 280366,0.00707199,-0.00154621,-0.00354450,-0.00533348,0.00806901,-0.00
 270333,0.00204644,-0.00130237,-0.00048629,0.00020402,-0.00095985,0.000
 93953,-0.00182084,0.00198709,0.00207430,0.00056006,-0.00026705,-0.0012
 7943,-0.00000236,-0.00063273,-0.00036979,-0.00057901,0.00082353,-0.000
 14105,0.07116907,0.02004253,0.06340571,0.01680427,-0.00553087,0.001014
 78,-0.00246347,0.00106028,-0.00103235,-0.00313373,-0.00015678,0.000472
 05,-0.31714167,0.24162340,-0.09199017,-0.00739091,0.00035491,-0.000602
 32,-0.00062003,0.00105943,0.00001350,0.00142066,-0.00311627,0.00111303
 ,0.00068234,-0.00092409,-0.00051305,0.00051004,0.00030485,-0.00003457,
 -0.00002526,0.00001812,0.00013476,-0.00689061,0.00195592,0.00170882,0.
 00098019,0.00023273,-0.00111946,0.00081192,-0.00071170,0.00016520,0.00
 074406,-0.00050395,0.00038485,0.00040165,-0.00057622,0.00045096,0.3146
 3168,0.01703900,-0.02374697,0.01118359,-0.00076962,0.00063622,-0.00058
 484,-0.00090355,0.00120478,-0.00046371,0.21108273,-0.21096190,0.073389
 77,0.00589458,-0.00243767,-0.00151908,-0.00003961,0.00036138,-0.000114
 18,-0.00041812,-0.00444145,0.00305899,0.00042422,-0.00032983,-0.000275
 56,0.00042230,0.00022658,-0.00002994,-0.00002769,-0.00001622,0.0000984
 2,-0.00108036,0.00110546,0.00041173,0.00067995,0.00011110,-0.00079168,
 0.00070536,-0.00030167,0.00004838,0.00139178,-0.00082476,0.00051569,0.
 00007867,-0.00012830,0.00017583,-0.23433597,0.23981003,-0.00672032,0.0
 1052947,0.00151165,0.00035131,-0.00057580,-0.00024926,0.00039581,-0.00
 028537,-0.00091782,-0.08024934,0.07315604,-0.04238988,-0.00282020,-0.0
 0136666,-0.00103860,0.00014412,-0.00029067,-0.00018190,-0.00032657,0.0
 0314093,-0.00059553,-0.00056558,0.00022195,0.00059691,-0.00032291,-0.0
 0023039,-0.00003735,-0.00001871,0.00005758,-0.00027306,0.00090664,-0.0
 0087599,-0.00216338,0.00020196,0.00005262,0.00004371,-0.00034614,0.000
 17965,0.00005182,-0.00061877,0.00108828,0.00071327,0.00007002,0.000161
 47,-0.00004217,0.09023995,-0.08503332,0.04478318,-0.00654738,-0.019007
 35,-0.01617990,-0.00496684,0.00077831,0.00547284,-0.38814525,-0.112956
 42,0.07014313,0.00033828,0.00393620,0.00204359,-0.00794145,0.00398072,
 0.00234712,0.01082936,-0.00609840,-0.01241335,0.00138272,0.00035114,0.
 00176478,-0.01028216,0.01386298,-0.00308960,0.00350821,-0.00251123,-0.
 00066484,0.00010847,-0.00096968,0.00237237,0.00429957,0.00127907,-0.00
 032406,-0.00032292,-0.00011312,0.00024682,-0.00067845,-0.00070084,0.00
 011894,-0.00028071,-0.00017579,-0.00060972,0.00601411,0.00150652,0.001
 85224,0.00067886,-0.00014368,-0.00032126,0.39200559,-0.02138843,-0.009
 73864,-0.00685127,-0.00030966,-0.00151721,0.00196947,-0.10364433,-0.05
 670899,0.00893952,0.00011412,-0.00221180,-0.00145806,-0.00137445,0.004
 23265,0.00283412,0.00121604,-0.01089978,0.00014391,0.00116962,0.001093
 06,0.00112401,0.00250383,0.00333764,-0.00464356,0.00093129,-0.00129038
 ,0.00028563,0.00058569,-0.00058044,0.00149502,0.00412806,-0.00120131,-
 0.00189130,-0.00028033,-0.00000566,0.00055911,-0.00060810,0.00000565,0
 .00005081,-0.00015413,0.00008325,-0.00024050,0.00088301,0.00154309,-0.
 00038524,-0.00075379,-0.00026675,0.00007021,0.11698157,0.07412562,-0.0
 2016441,-0.00839272,0.00611905,0.00290998,0.00216654,0.00051375,0.0821
 6902,0.01391839,-0.04229474,0.00024835,-0.00150520,-0.00063787,0.00213
 106,-0.00005171,-0.00222876,-0.00965663,0.00271766,-0.00271584,-0.0035
 9508,-0.00121350,-0.00526821,0.00376636,-0.00691700,0.00412689,-0.0024
 1423,0.00181556,0.00009220,-0.00091732,0.00128905,-0.00196467,-0.00055
 286,-0.00055762,0.00011625,0.00009508,-0.00015769,-0.00025257,-0.00000
 693,0.00044016,-0.00010757,-0.00058957,0.00011337,0.00029655,-0.000257
 74,-0.00159335,-0.00475636,-0.00040597,-0.00007007,0.00018842,-0.05275
 912,-0.00200187,0.04877348\\-0.00007585,0.00003198,0.00012024,0.000028
 76,0.00001962,-0.00002556,-0.00001396,-0.00006824,-0.00006529,0.000022
 84,0.00001765,-0.00001581,0.00005839,0.00001757,-0.00003822,-0.0000226
 9,0.00002756,-0.00000519,0.00000897,-0.00000276,0.00000300,0.00002317,
 -0.00004074,0.00002468,-0.00001401,0.00001040,0.00000172,-0.00000612,-
 0.00000301,-0.00000312,-0.00002697,-0.00001145,0.00003268,0.00000141,-
 0.00000340,-0.00001323,0.00000894,0.00000682,-0.00000214,0.00000246,0.
 00000627,-0.00001065,-0.00001880,-0.00000300,0.00000410,0.00001219,-0.
 00001129,-0.00000802,0.00001126,0.00000602,0.00000082\\\@
 The archive entry for this job was punched.


 HOW IS IT THAT THE SKY FEEDS THE STARS?

                           -- LUCRETIUS
 Job cpu time:       0 days  2 hours 29 minutes 52.5 seconds.
 Elapsed time:       0 days  0 hours 37 minutes 45.1 seconds.
 File lengths (MBytes):  RWF=    241 Int=      0 D2E=      0 Chk=     14 Scr=      1
 Normal termination of Gaussian 16 at Sun Feb 11 16:55:21 2024.
