 Entering Gaussian System, Link 0=/opt/software/gaussian/g16.c01/g16
 Initial command:
 /opt/software/gaussian/g16.c01/l1.exe "/scratch/arhender/27730898/Gau-17435.inp" -scrdir="/scratch/arhender/27730898/"
 Entering Link 1 = /opt/software/gaussian/g16.c01/l1.exe PID=     17450.
  
 Copyright (c) 1988-2019, Gaussian, Inc.  All Rights Reserved.
  
 This is part of the Gaussian(R) 16 program.  It is based on
 the Gaussian(R) 09 system (copyright 2009, Gaussian, Inc.),
 the Gaussian(R) 03 system (copyright 2003, Gaussian, Inc.),
 the Gaussian(R) 98 system (copyright 1998, Gaussian, Inc.),
 the Gaussian(R) 94 system (copyright 1995, Gaussian, Inc.),
 the Gaussian 92(TM) system (copyright 1992, Gaussian, Inc.),
 the Gaussian 90(TM) system (copyright 1990, Gaussian, Inc.),
 the Gaussian 88(TM) system (copyright 1988, Gaussian, Inc.),
 the Gaussian 86(TM) system (copyright 1986, Carnegie Mellon
 University), and the Gaussian 82(TM) system (copyright 1983,
 Carnegie Mellon University). Gaussian is a federally registered
 trademark of Gaussian, Inc.
  
 This software contains proprietary and confidential information,
 including trade secrets, belonging to Gaussian, Inc.
  
 This software is provided under written license and may be
 used, copied, transmitted, or stored only in accord with that
 written license.
  
 The following legend is applicable only to US Government
 contracts under FAR:
  
                    RESTRICTED RIGHTS LEGEND
  
 Use, reproduction and disclosure by the US Government is
 subject to restrictions as set forth in subparagraphs (a)
 and (c) of the Commercial Computer Software - Restricted
 Rights clause in FAR 52.227-19.
  
 Gaussian, Inc.
 340 Quinnipiac St., Bldg. 40, Wallingford CT 06492
  
  
 ---------------------------------------------------------------
 Warning -- This program may not be used in any manner that
 competes with the business of Gaussian, Inc. or will provide
 assistance to any competitor of Gaussian, Inc.  The licensee
 of this program is prohibited from giving any competitor of
 Gaussian, Inc. access to this program.  By using this program,
 the user acknowledges that Gaussian, Inc. is engaged in the
 business of creating and licensing software in the field of
 computational chemistry and represents and warrants to the
 licensee that it is not a competitor of Gaussian, Inc. and that
 it will not use this program in any manner prohibited above.
 ---------------------------------------------------------------
  

 Cite this work as:
 Gaussian 16, Revision C.01,
 M. J. Frisch, G. W. Trucks, H. B. Schlegel, G. E. Scuseria, 
 M. A. Robb, J. R. Cheeseman, G. Scalmani, V. Barone, 
 G. A. Petersson, H. Nakatsuji, X. Li, M. Caricato, A. V. Marenich, 
 J. Bloino, B. G. Janesko, R. Gomperts, B. Mennucci, H. P. Hratchian, 
 J. V. Ortiz, A. F. Izmaylov, J. L. Sonnenberg, D. Williams-Young, 
 F. Ding, F. Lipparini, F. Egidi, J. Goings, B. Peng, A. Petrone, 
 T. Henderson, D. Ranasinghe, V. G. Zakrzewski, J. Gao, N. Rega, 
 G. Zheng, W. Liang, M. Hada, M. Ehara, K. Toyota, R. Fukuda, 
 J. Hasegawa, M. Ishida, T. Nakajima, Y. Honda, O. Kitao, H. Nakai, 
 T. Vreven, K. Throssell, J. A. Montgomery, Jr., J. E. Peralta, 
 F. Ogliaro, M. J. Bearpark, J. J. Heyd, E. N. Brothers, K. N. Kudin, 
 V. N. Staroverov, T. A. Keith, R. Kobayashi, J. Normand, 
 K. Raghavachari, A. P. Rendell, J. C. Burant, S. S. Iyengar, 
 J. Tomasi, M. Cossi, J. M. Millam, M. Klene, C. Adamo, R. Cammi, 
 J. W. Ochterski, R. L. Martin, K. Morokuma, O. Farkas, 
 J. B. Foresman, and D. J. Fox, Gaussian, Inc., Wallingford CT, 2019.
 
 ******************************************
 Gaussian 16:  ES64L-G16RevC.01  3-Jul-2019
                25-Mar-2024 
 ******************************************
 %chk=QL_MonoToBi_DeprotonatedLigandAttacking_IRC_reverse_productOpt.chk
 %mem=1600MB
 %nprocs=4
 Will use up to    4 processors via shared memory.
 ---------------------------------------------
 # opt freq wb97xd/def2tzvpp geom=connectivity
 ---------------------------------------------
 1/18=20,19=15,26=3,38=1,57=2/1,3;
 2/9=110,12=2,17=6,18=5,40=1/2;
 3/5=44,7=202,11=2,25=1,30=1,71=1,74=-58/1,2,3;
 4//1;
 5/5=2,38=5/2;
 6/7=2,8=2,9=2,10=2,28=1/1;
 7//1,2,3,16;
 1/18=20,19=15,26=3/3(2);
 2/9=110/2;
 99//99;
 2/9=110/2;
 3/5=44,7=202,11=2,25=1,30=1,71=1,74=-58/1,2,3;
 4/5=5,16=3,69=1/1;
 5/5=2,38=5/2;
 7//1,2,3,16;
 1/18=20,19=15,26=3/3(-5);
 2/9=110/2;
 6/7=2,8=2,9=2,10=2,19=2,28=1/1;
 99/9=1/99;
 ---------------
 title card here
 ---------------
 Symbolic Z-matrix:
 Charge = -1 Multiplicity = 1
 Si                    0.51815   0.12924   0.02126 
 O                     0.95438   0.09106   1.64279 
 H                     1.8597   -0.20374   1.6626 
 O                     0.77431   1.53354  -0.89802 
 H                    -0.01374   2.06298  -0.76095 
 O                     2.0452   -0.5173   -0.52444 
 H                     2.39053   0.0675   -1.19309 
 O                    -0.32779  -1.25133  -0.49549 
 C                    -1.66373  -1.30892  -0.09817 
 H                    -1.74517  -1.72199   0.91904 
 H                    -2.22832  -1.95934  -0.77838 
 C                    -2.17111   0.12707  -0.09863 
 H                    -2.40953   0.42465  -1.13969 
 H                    -3.09871   0.22503   0.48666 
 O                    -1.1436    0.87517   0.43583 
 

 GradGradGradGradGradGradGradGradGradGradGradGradGradGradGradGradGradGrad
 Berny optimization.
 Initialization pass.
                           ----------------------------
                           !    Initial Parameters    !
                           ! (Angstroms and Degrees)  !
 --------------------------                            --------------------------
 ! Name  Definition              Value          Derivative Info.                !
 --------------------------------------------------------------------------------
 ! R1    R(1,2)                  1.6796         estimate D2E/DX2                !
 ! R2    R(1,4)                  1.6979         estimate D2E/DX2                !
 ! R3    R(1,6)                  1.7458         estimate D2E/DX2                !
 ! R4    R(1,8)                  1.6996         estimate D2E/DX2                !
 ! R5    R(1,15)                 1.8681         estimate D2E/DX2                !
 ! R6    R(2,3)                  0.9523         estimate D2E/DX2                !
 ! R7    R(4,5)                  0.9592         estimate D2E/DX2                !
 ! R8    R(6,7)                  0.9531         estimate D2E/DX2                !
 ! R9    R(8,9)                  1.395          estimate D2E/DX2                !
 ! R10   R(9,10)                 1.1009         estimate D2E/DX2                !
 ! R11   R(9,11)                 1.0975         estimate D2E/DX2                !
 ! R12   R(9,12)                 1.523          estimate D2E/DX2                !
 ! R13   R(12,13)                1.1087         estimate D2E/DX2                !
 ! R14   R(12,14)                1.1012         estimate D2E/DX2                !
 ! R15   R(12,15)                1.3788         estimate D2E/DX2                !
 ! A1    A(2,1,4)              120.1541         estimate D2E/DX2                !
 ! A2    A(2,1,6)               93.7943         estimate D2E/DX2                !
 ! A3    A(2,1,8)              113.8491         estimate D2E/DX2                !
 ! A4    A(2,1,15)              91.4822         estimate D2E/DX2                !
 ! A5    A(4,1,6)               90.292          estimate D2E/DX2                !
 ! A6    A(4,1,8)              125.614          estimate D2E/DX2                !
 ! A7    A(4,1,15)              85.6472         estimate D2E/DX2                !
 ! A8    A(6,1,8)               92.2638         estimate D2E/DX2                !
 ! A9    A(8,1,15)              87.0806         estimate D2E/DX2                !
 ! A10   A(1,2,3)              105.904          estimate D2E/DX2                !
 ! A11   A(1,4,5)              104.785          estimate D2E/DX2                !
 ! A12   A(1,6,7)              107.9995         estimate D2E/DX2                !
 ! A13   A(1,8,9)              115.0627         estimate D2E/DX2                !
 ! A14   A(8,9,10)             110.4574         estimate D2E/DX2                !
 ! A15   A(8,9,11)             109.914          estimate D2E/DX2                !
 ! A16   A(8,9,12)             106.2626         estimate D2E/DX2                !
 ! A17   A(10,9,11)            108.1946         estimate D2E/DX2                !
 ! A18   A(10,9,12)            109.2329         estimate D2E/DX2                !
 ! A19   A(11,9,12)            112.7814         estimate D2E/DX2                !
 ! A20   A(9,12,13)            108.9657         estimate D2E/DX2                !
 ! A21   A(9,12,14)            111.3679         estimate D2E/DX2                !
 ! A22   A(9,12,15)            105.2597         estimate D2E/DX2                !
 ! A23   A(13,12,14)           107.1011         estimate D2E/DX2                !
 ! A24   A(13,12,15)           112.2471         estimate D2E/DX2                !
 ! A25   A(14,12,15)           111.9289         estimate D2E/DX2                !
 ! A26   A(1,15,12)            111.1149         estimate D2E/DX2                !
 ! A27   L(6,1,15,2,-1)        185.2766         estimate D2E/DX2                !
 ! A28   L(6,1,15,2,-2)        178.3736         estimate D2E/DX2                !
 ! D1    D(4,1,2,3)            -89.0502         estimate D2E/DX2                !
 ! D2    D(6,1,2,3)              3.4965         estimate D2E/DX2                !
 ! D3    D(8,1,2,3)             97.66           estimate D2E/DX2                !
 ! D4    D(15,1,2,3)          -174.877          estimate D2E/DX2                !
 ! D5    D(2,1,4,5)            -87.2423         estimate D2E/DX2                !
 ! D6    D(6,1,4,5)            178.1982         estimate D2E/DX2                !
 ! D7    D(8,1,4,5)             85.2037         estimate D2E/DX2                !
 ! D8    D(15,1,4,5)             1.943          estimate D2E/DX2                !
 ! D9    D(2,1,6,7)           -127.4244         estimate D2E/DX2                !
 ! D10   D(4,1,6,7)             -7.1743         estimate D2E/DX2                !
 ! D11   D(8,1,6,7)            118.4865         estimate D2E/DX2                !
 ! D12   D(2,1,8,9)             76.1408         estimate D2E/DX2                !
 ! D13   D(4,1,8,9)            -96.7199         estimate D2E/DX2                !
 ! D14   D(6,1,8,9)            171.2979         estimate D2E/DX2                !
 ! D15   D(15,1,8,9)           -14.19           estimate D2E/DX2                !
 ! D16   D(2,1,15,12)         -125.8466         estimate D2E/DX2                !
 ! D17   D(4,1,15,12)          114.0223         estimate D2E/DX2                !
 ! D18   D(8,1,15,12)          -12.0387         estimate D2E/DX2                !
 ! D19   D(1,8,9,10)           -84.0905         estimate D2E/DX2                !
 ! D20   D(1,8,9,11)           156.5952         estimate D2E/DX2                !
 ! D21   D(1,8,9,12)            34.2725         estimate D2E/DX2                !
 ! D22   D(8,9,12,13)           79.6188         estimate D2E/DX2                !
 ! D23   D(8,9,12,14)         -162.4543         estimate D2E/DX2                !
 ! D24   D(8,9,12,15)          -40.9598         estimate D2E/DX2                !
 ! D25   D(10,9,12,13)        -161.2131         estimate D2E/DX2                !
 ! D26   D(10,9,12,14)         -43.2862         estimate D2E/DX2                !
 ! D27   D(10,9,12,15)          78.2083         estimate D2E/DX2                !
 ! D28   D(11,9,12,13)         -40.868          estimate D2E/DX2                !
 ! D29   D(11,9,12,14)          77.059          estimate D2E/DX2                !
 ! D30   D(11,9,12,15)        -161.4465         estimate D2E/DX2                !
 ! D31   D(9,12,15,1)           31.4703         estimate D2E/DX2                !
 ! D32   D(13,12,15,1)         -86.926          estimate D2E/DX2                !
 ! D33   D(14,12,15,1)         152.5987         estimate D2E/DX2                !
 --------------------------------------------------------------------------------
 Trust Radius=3.00D-01 FncErr=1.00D-07 GrdErr=1.00D-06 EigMax=2.50D+02 EigMin=1.00D-04
 Number of steps in this run=     86 maximum allowed number of steps=    100.
 GradGradGradGradGradGradGradGradGradGradGradGradGradGradGradGradGradGrad

                          Input orientation:                          
 ---------------------------------------------------------------------
 Center     Atomic      Atomic             Coordinates (Angstroms)
 Number     Number       Type             X           Y           Z
 ---------------------------------------------------------------------
      1         14           0        0.518147    0.129244    0.021261
      2          8           0        0.954378    0.091058    1.642785
      3          1           0        1.859696   -0.203735    1.662596
      4          8           0        0.774310    1.533543   -0.898022
      5          1           0       -0.013737    2.062982   -0.760952
      6          8           0        2.045195   -0.517296   -0.524444
      7          1           0        2.390533    0.067503   -1.193094
      8          8           0       -0.327790   -1.251326   -0.495485
      9          6           0       -1.663728   -1.308918   -0.098171
     10          1           0       -1.745173   -1.721987    0.919041
     11          1           0       -2.228317   -1.959340   -0.778381
     12          6           0       -2.171109    0.127066   -0.098632
     13          1           0       -2.409526    0.424649   -1.139689
     14          1           0       -3.098714    0.225031    0.486657
     15          8           0       -1.143598    0.875171    0.435826
 ---------------------------------------------------------------------
                    Distance matrix (angstroms):
                    1          2          3          4          5
     1  Si   0.000000
     2  O    1.679612   0.000000
     3  H    2.145835   0.952311   0.000000
     4  O    1.697868   2.927266   3.279171   0.000000
     5  H    2.152696   3.256330   3.810688   0.959225   0.000000
     6  O    1.745762   2.501371   2.217177   2.441444   3.309527
     7  H    2.232554   3.178884   2.917246   2.201935   3.154235
     8  O    1.699591   2.831633   3.246514   3.021946   3.339721
     9  C    2.615942   3.441706   4.090996   3.829279   3.812015
    10  H    3.058706   3.331443   3.981588   4.499776   4.488456
    11  H    3.541846   4.493965   5.074679   4.607637   4.591704
    12  C    2.691928   3.578058   4.411206   3.360461   2.973330
    13  H    3.163280   4.378275   5.145282   3.380068   2.927009
    14  H    3.647938   4.216887   5.113952   4.316232   3.801536
    15  O    1.868065   2.544226   3.418885   2.427133   2.029719
                    6          7          8          9         10
     6  O    0.000000
     7  H    0.953069   0.000000
     8  O    2.484089   3.100846   0.000000
     9  C    3.816344   4.419324   1.394957   0.000000
    10  H    4.231054   4.976691   2.057032   1.100899   0.000000
    11  H    4.517397   5.061013   2.047759   1.097495   1.780732
    12  C    4.286460   4.691479   2.335654   1.522986   2.153155
    13  H    4.594597   4.813624   2.749094   2.155511   3.047586
    14  H    5.294636   5.742666   3.289719   2.180415   2.410375
    15  O    3.609638   3.974392   2.460665   2.307798   2.709358
                   11         12         13         14         15
    11  H    0.000000
    12  C    2.195090   0.000000
    13  H    2.418012   1.108692   0.000000
    14  H    2.670092   1.101186   1.777591   0.000000
    15  O    3.268848   1.378798   2.070698   2.061006   0.000000
 Stoichiometry    C2H7O5Si(1-)
 Framework group  C1[X(C2H7O5Si)]
 Deg. of freedom    39
 Full point group                 C1      NOp   1
 Largest Abelian subgroup         C1      NOp   1
 Largest concise Abelian subgroup C1      NOp   1
                         Standard orientation:                         
 ---------------------------------------------------------------------
 Center     Atomic      Atomic             Coordinates (Angstroms)
 Number     Number       Type             X           Y           Z
 ---------------------------------------------------------------------
      1         14           0        0.569007    0.030685    0.031954
      2          8           0        0.982620   -0.203694    1.642881
      3          1           0        1.818513   -0.659873    1.633976
      4          8           0        1.082723    1.427015   -0.786039
      5          1           0        0.404298    2.080458   -0.604756
      6          8           0        1.954549   -0.843338   -0.571406
      7          1           0        2.404552   -0.284905   -1.199093
      8          8           0       -0.512856   -1.130730   -0.575745
      9          6           0       -1.838742   -0.971340   -0.172601
     10          1           0       -1.999636   -1.434875    0.812908
     11          1           0       -2.509452   -1.456580   -0.893146
     12          6           0       -2.074507    0.529477   -0.065608
     13          1           0       -2.249091    0.940057   -1.080568
     14          1           0       -2.971436    0.753064    0.532839
     15          8           0       -0.930080    1.036277    0.512776
 ---------------------------------------------------------------------
 Rotational constants (GHZ):           2.7594072           1.5616845           1.4202591
 Standard basis: def2TZVPP (5D, 7F)
 There are   405 symmetry adapted cartesian basis functions of A   symmetry.
 There are   357 symmetry adapted basis functions of A   symmetry.
   357 basis functions,   545 primitive gaussians,   405 cartesian basis functions
    37 alpha electrons       37 beta electrons
       nuclear repulsion energy       543.7858515047 Hartrees.
 NAtoms=   15 NActive=   15 NUniq=   15 SFac= 1.00D+00 NAtFMM=   60 NAOKFM=F Big=F
 Integral buffers will be    131072 words long.
 Raffenetti 2 integral format.
 Two-electron integral symmetry is turned on.
 Nuclear repulsion after empirical dispersion term =      543.7794210893 Hartrees.
 One-electron integrals computed using PRISM.
   1 Symmetry operations used in ECPInt.
 ECPInt:  NShTT=    8911 NPrTT=   25186 LenC2=    8690 LenP2D=   19640.
 LDataN:  DoStor=T MaxTD1= 6 Len=  172
 NBasis=   357 RedAO= T EigKep=  3.39D-04  NBF=   357
 NBsUse=   357 1.00D-06 EigRej= -1.00D+00 NBFU=   357
 ExpMin= 7.01D-02 ExpMax= 4.48D+04 ExpMxC= 1.53D+03 IAcc=3 IRadAn=         5 AccDes= 0.00D+00
 Harris functional with IExCor= 4639 and IRadAn=       5 diagonalized for initial guess.
 HarFok:  IExCor= 4639 AccDes= 0.00D+00 IRadAn=         5 IDoV= 1 UseB2=F ITyADJ=14
 ICtDFT=  3500011 ScaDFX=  1.000000  1.000000  1.000000  1.000000
 FoFCou: FMM=F IPFlag=           0 FMFlag=      100000 FMFlg1=           0
         NFxFlg=           0 DoJE=T BraDBF=F KetDBF=T FulRan=T
         wScrn=  0.000000 ICntrl=       500 IOpCl=  0 I1Cent=   200000004 NGrid=           0
         NMat0=    1 NMatS0=      1 NMatT0=    0 NMatD0=    1 NMtDS0=    0 NMtDT0=    0
 Petite list used in FoFCou.
 Requested convergence on RMS density matrix=1.00D-08 within 128 cycles.
 Requested convergence on MAX density matrix=1.00D-06.
 Requested convergence on             energy=1.00D-06.
 No special actions if energy rises.
 Integral accuracy reduced to 1.0D-05 until final iterations.
 Initial convergence to 1.0D-05 achieved.  Increase integral accuracy.
 SCF Done:  E(RwB97XD) =  -746.355105862     A.U. after   14 cycles
            NFock= 14  Conv=0.36D-08     -V/T= 2.0033

 **********************************************************************

            Population analysis using the SCF Density.

 **********************************************************************

 Orbital symmetries:
       Occupied  (A) (A) (A) (A) (A) (A) (A) (A) (A) (A) (A) (A)
                 (A) (A) (A) (A) (A) (A) (A) (A) (A) (A) (A) (A)
                 (A) (A) (A) (A) (A) (A) (A) (A) (A) (A) (A) (A)
                 (A)
       Virtual   (A) (A) (A) (A) (A) (A) (A) (A) (A) (A) (A) (A)
                 (A) (A) (A) (A) (A) (A) (A) (A) (A) (A) (A) (A)
                 (A) (A) (A) (A) (A) (A) (A) (A) (A) (A) (A) (A)
                 (A) (A) (A) (A) (A) (A) (A) (A) (A) (A) (A) (A)
                 (A) (A) (A) (A) (A) (A) (A) (A) (A) (A) (A) (A)
                 (A) (A) (A) (A) (A) (A) (A) (A) (A) (A) (A) (A)
                 (A) (A) (A) (A) (A) (A) (A) (A) (A) (A) (A) (A)
                 (A) (A) (A) (A) (A) (A) (A) (A) (A) (A) (A) (A)
                 (A) (A) (A) (A) (A) (A) (A) (A) (A) (A) (A) (A)
                 (A) (A) (A) (A) (A) (A) (A) (A) (A) (A) (A) (A)
                 (A) (A) (A) (A) (A) (A) (A) (A) (A) (A) (A) (A)
                 (A) (A) (A) (A) (A) (A) (A) (A) (A) (A) (A) (A)
                 (A) (A) (A) (A) (A) (A) (A) (A) (A) (A) (A) (A)
                 (A) (A) (A) (A) (A) (A) (A) (A) (A) (A) (A) (A)
                 (A) (A) (A) (A) (A) (A) (A) (A) (A) (A) (A) (A)
                 (A) (A) (A) (A) (A) (A) (A) (A) (A) (A) (A) (A)
                 (A) (A) (A) (A) (A) (A) (A) (A) (A) (A) (A) (A)
                 (A) (A) (A) (A) (A) (A) (A) (A) (A) (A) (A) (A)
                 (A) (A) (A) (A) (A) (A) (A) (A) (A) (A) (A) (A)
                 (A) (A) (A) (A) (A) (A) (A) (A) (A) (A) (A) (A)
                 (A) (A) (A) (A) (A) (A) (A) (A) (A) (A) (A) (A)
                 (A) (A) (A) (A) (A) (A) (A) (A) (A) (A) (A) (A)
                 (A) (A) (A) (A) (A) (A) (A) (A) (A) (A) (A) (A)
                 (A) (A) (A) (A) (A) (A) (A) (A) (A) (A) (A) (A)
                 (A) (A) (A) (A) (A) (A) (A) (A) (A) (A) (A) (A)
                 (A) (A) (A) (A) (A) (A) (A) (A) (A) (A) (A) (A)
                 (A) (A) (A) (A) (A) (A) (A) (A)
 The electronic state is 1-A.
 Alpha  occ. eigenvalues --  -66.11609 -19.05563 -19.04837 -19.04733 -19.02870
 Alpha  occ. eigenvalues --  -19.02794 -10.16493 -10.16116  -5.22684  -3.57282
 Alpha  occ. eigenvalues --   -3.57210  -3.57142  -0.95805  -0.91625  -0.90124
 Alpha  occ. eigenvalues --   -0.88797  -0.86606  -0.65052  -0.53059  -0.45690
 Alpha  occ. eigenvalues --   -0.41537  -0.40411  -0.40091  -0.39342  -0.35627
 Alpha  occ. eigenvalues --   -0.32911  -0.32204  -0.27312  -0.27041  -0.24736
 Alpha  occ. eigenvalues --   -0.23580  -0.22029  -0.21683  -0.19715  -0.19004
 Alpha  occ. eigenvalues --   -0.18245  -0.15517
 Alpha virt. eigenvalues --    0.26064   0.27110   0.28650   0.30713   0.31815
 Alpha virt. eigenvalues --    0.32198   0.34132   0.34932   0.37538   0.38940
 Alpha virt. eigenvalues --    0.39829   0.41896   0.43637   0.44928   0.45630
 Alpha virt. eigenvalues --    0.49360   0.51373   0.52201   0.53026   0.55298
 Alpha virt. eigenvalues --    0.56555   0.56831   0.58375   0.59756   0.61216
 Alpha virt. eigenvalues --    0.61553   0.62628   0.64746   0.64906   0.66308
 Alpha virt. eigenvalues --    0.66581   0.69275   0.70307   0.70626   0.72001
 Alpha virt. eigenvalues --    0.73189   0.73785   0.76767   0.78007   0.78950
 Alpha virt. eigenvalues --    0.79131   0.79977   0.82465   0.84051   0.86128
 Alpha virt. eigenvalues --    0.87351   0.88917   0.91309   0.92736   0.96520
 Alpha virt. eigenvalues --    0.97939   0.98068   0.99044   0.99946   1.01382
 Alpha virt. eigenvalues --    1.02848   1.03961   1.04943   1.06071   1.06945
 Alpha virt. eigenvalues --    1.08930   1.10959   1.12729   1.16587   1.18479
 Alpha virt. eigenvalues --    1.20262   1.22873   1.25402   1.26021   1.27289
 Alpha virt. eigenvalues --    1.27635   1.30386   1.31511   1.33791   1.35837
 Alpha virt. eigenvalues --    1.36815   1.37671   1.38431   1.40857   1.41303
 Alpha virt. eigenvalues --    1.43083   1.45966   1.47359   1.49310   1.50840
 Alpha virt. eigenvalues --    1.52392   1.54367   1.55326   1.57949   1.60488
 Alpha virt. eigenvalues --    1.61473   1.64468   1.65410   1.68575   1.70423
 Alpha virt. eigenvalues --    1.72543   1.74857   1.77392   1.79642   1.81378
 Alpha virt. eigenvalues --    1.85862   1.87278   1.95086   1.96585   2.02744
 Alpha virt. eigenvalues --    2.04228   2.04738   2.05742   2.07081   2.09802
 Alpha virt. eigenvalues --    2.10357   2.12795   2.15232   2.17711   2.18292
 Alpha virt. eigenvalues --    2.22724   2.23631   2.26229   2.28393   2.29485
 Alpha virt. eigenvalues --    2.30459   2.31539   2.33571   2.35668   2.37313
 Alpha virt. eigenvalues --    2.40907   2.47720   2.49213   2.50874   2.52720
 Alpha virt. eigenvalues --    2.53754   2.57241   2.60595   2.62970   2.66548
 Alpha virt. eigenvalues --    2.69646   2.75723   2.82139   2.84641   2.85910
 Alpha virt. eigenvalues --    2.86868   2.88232   2.89651   2.99388   2.99486
 Alpha virt. eigenvalues --    3.02720   3.04225   3.05790   3.08241   3.09347
 Alpha virt. eigenvalues --    3.12555   3.15406   3.18656   3.22828   3.23325
 Alpha virt. eigenvalues --    3.25240   3.27018   3.27966   3.32549   3.33344
 Alpha virt. eigenvalues --    3.35904   3.37498   3.38714   3.39262   3.43264
 Alpha virt. eigenvalues --    3.44633   3.46518   3.52387   3.52634   3.54945
 Alpha virt. eigenvalues --    3.55863   3.57214   3.60267   3.61291   3.61399
 Alpha virt. eigenvalues --    3.62905   3.65367   3.66782   3.67437   3.73318
 Alpha virt. eigenvalues --    3.76038   3.78732   3.81073   3.82162   3.83127
 Alpha virt. eigenvalues --    3.84664   3.87132   3.88423   3.91827   3.94465
 Alpha virt. eigenvalues --    3.96586   3.98800   3.99622   4.00270   4.01648
 Alpha virt. eigenvalues --    4.06861   4.08533   4.15061   4.17074   4.19344
 Alpha virt. eigenvalues --    4.21520   4.22901   4.24587   4.26573   4.28548
 Alpha virt. eigenvalues --    4.31633   4.33102   4.34020   4.36121   4.37553
 Alpha virt. eigenvalues --    4.40086   4.40550   4.42883   4.45184   4.47363
 Alpha virt. eigenvalues --    4.50408   4.52986   4.54658   4.58401   4.61035
 Alpha virt. eigenvalues --    4.63411   4.68235   4.73908   4.81391   4.82612
 Alpha virt. eigenvalues --    4.86754   4.89918   4.92894   4.96502   4.99482
 Alpha virt. eigenvalues --    5.02544   5.04923   5.05605   5.11802   5.14259
 Alpha virt. eigenvalues --    5.16018   5.20520   5.24782   5.25675   5.27519
 Alpha virt. eigenvalues --    5.32158   5.33205   5.37454   5.39340   5.44961
 Alpha virt. eigenvalues --    5.47397   5.50509   5.53647   5.56967   5.60185
 Alpha virt. eigenvalues --    5.61047   5.64569   5.66142   5.68329   5.69554
 Alpha virt. eigenvalues --    5.72227   5.73314   5.73777   5.75719   5.80532
 Alpha virt. eigenvalues --    5.83946   5.84298   5.86142   5.87437   5.87966
 Alpha virt. eigenvalues --    5.92949   5.96109   5.98168   6.20872   6.27952
 Alpha virt. eigenvalues --    6.31985   6.36568   6.37959   6.44329   6.53887
 Alpha virt. eigenvalues --    6.69061   6.72438   6.76713   6.77986   6.80797
 Alpha virt. eigenvalues --    6.83680   6.85352   6.86900   6.89409   6.90588
 Alpha virt. eigenvalues --    6.91104   6.92421   6.92807   6.93788   6.95471
 Alpha virt. eigenvalues --    6.97533   6.98988   7.02823   7.09092   7.10532
 Alpha virt. eigenvalues --    7.12219   7.15921   7.26851   7.27769   7.35269
 Alpha virt. eigenvalues --    7.37944   7.41256   7.45684   7.55143   7.56587
 Alpha virt. eigenvalues --    7.57999   7.63896   7.65272   7.71297   7.83310
 Alpha virt. eigenvalues --    7.88174   7.96816  12.59021  23.53446  23.67710
 Alpha virt. eigenvalues --   44.02168  44.07912  44.16000  44.41059  44.48253
          Condensed to atoms (all electrons):
               1          2          3          4          5          6
     1  Si  11.456044   0.429428  -0.041541   0.387655  -0.040253   0.436129
     2  O    0.429428   7.827601   0.322230  -0.021689  -0.000217  -0.066378
     3  H   -0.041541   0.322230   0.554907  -0.000917  -0.000532   0.011329
     4  O    0.387655  -0.021689  -0.000917   7.970612   0.315598  -0.071834
     5  H   -0.040253  -0.000217  -0.000532   0.315598   0.528605   0.005936
     6  O    0.436129  -0.066378   0.011329  -0.071834   0.005936   7.992008
     7  H   -0.041485   0.003776  -0.000673   0.006481  -0.000647   0.321355
     8  O    0.370066  -0.023782   0.000034  -0.015041  -0.000655  -0.050760
     9  C   -0.075881  -0.008482   0.000164  -0.008858   0.003529   0.000954
    10  H    0.001747   0.003849   0.000522  -0.000218  -0.000337   0.000011
    11  H    0.001734  -0.000283   0.000031   0.000116  -0.000165  -0.000063
    12  C   -0.048563   0.002384  -0.000262   0.012907  -0.000423  -0.002911
    13  H    0.018679  -0.000435   0.000096   0.003990  -0.005722  -0.000041
    14  H   -0.003462   0.000350   0.000047  -0.000822   0.000251   0.000017
    15  O    0.313337  -0.033417   0.004228  -0.081224   0.032487   0.002807
               7          8          9         10         11         12
     1  Si  -0.041485   0.370066  -0.075881   0.001747   0.001734  -0.048563
     2  O    0.003776  -0.023782  -0.008482   0.003849  -0.000283   0.002384
     3  H   -0.000673   0.000034   0.000164   0.000522   0.000031  -0.000262
     4  O    0.006481  -0.015041  -0.008858  -0.000218   0.000116   0.012907
     5  H   -0.000647  -0.000655   0.003529  -0.000337  -0.000165  -0.000423
     6  O    0.321355  -0.050760   0.000954   0.000011  -0.000063  -0.002911
     7  H    0.558350   0.002230  -0.000206  -0.000025   0.000028  -0.000356
     8  O    0.002230   7.990752   0.342208  -0.055710  -0.045173  -0.082898
     9  C   -0.000206   0.342208   4.774066   0.401466   0.359350   0.313165
    10  H   -0.000025  -0.055710   0.401466   0.753063  -0.071524  -0.064853
    11  H    0.000028  -0.045173   0.359350  -0.071524   0.755468  -0.017133
    12  C   -0.000356  -0.082898   0.313165  -0.064853  -0.017133   4.717929
    13  H    0.000019   0.007215  -0.079244   0.019299  -0.011239   0.384262
    14  H   -0.000011   0.004793  -0.014616  -0.015434   0.008999   0.357769
    15  O   -0.000096  -0.035481  -0.093019   0.008860   0.008732   0.350996
              13         14         15
     1  Si   0.018679  -0.003462   0.313337
     2  O   -0.000435   0.000350  -0.033417
     3  H    0.000096   0.000047   0.004228
     4  O    0.003990  -0.000822  -0.081224
     5  H   -0.005722   0.000251   0.032487
     6  O   -0.000041   0.000017   0.002807
     7  H    0.000019  -0.000011  -0.000096
     8  O    0.007215   0.004793  -0.035481
     9  C   -0.079244  -0.014616  -0.093019
    10  H    0.019299  -0.015434   0.008860
    11  H   -0.011239   0.008999   0.008732
    12  C    0.384262   0.357769   0.350996
    13  H    0.832430  -0.091236  -0.070212
    14  H   -0.091236   0.794665  -0.042284
    15  O   -0.070212  -0.042284   8.203661
 Mulliken charges:
               1
     1  Si   0.836365
     2  O   -0.434933
     3  H    0.150337
     4  O   -0.496758
     5  H    0.162546
     6  O   -0.578558
     7  H    0.151260
     8  O   -0.407796
     9  C    0.085405
    10  H    0.019284
    11  H    0.011122
    12  C    0.077986
    13  H   -0.007859
    14  H    0.000973
    15  O   -0.569375
 Sum of Mulliken charges =  -1.00000
 Mulliken charges with hydrogens summed into heavy atoms:
               1
     1  Si   0.836365
     2  O   -0.284596
     4  O   -0.334212
     6  O   -0.427297
     8  O   -0.407796
     9  C    0.115812
    12  C    0.071101
    15  O   -0.569375
 Electronic spatial extent (au):  <R**2>=           1001.9241
 Charge=             -1.0000 electrons
 Dipole moment (field-independent basis, Debye):
    X=             -1.8358    Y=              0.2738    Z=             -0.7384  Tot=              1.9976
 Quadrupole moment (field-independent basis, Debye-Ang):
   XX=            -61.9807   YY=            -63.9564   ZZ=            -62.9840
   XY=              1.4110   XZ=              1.9356   YZ=             -3.3837
 Traceless Quadrupole moment (field-independent basis, Debye-Ang):
   XX=              0.9930   YY=             -0.9827   ZZ=             -0.0103
   XY=              1.4110   XZ=              1.9356   YZ=             -3.3837
 Octapole moment (field-independent basis, Debye-Ang**2):
  XXX=             14.1423  YYY=              8.3085  ZZZ=             -8.5677  XYY=             -1.2092
  XXY=             -1.2786  XXZ=              3.5469  XZZ=              5.7803  YZZ=             -2.8416
  YYZ=              4.7846  XYZ=              0.2917
 Hexadecapole moment (field-independent basis, Debye-Ang**3):
 XXXX=           -743.8599 YYYY=           -323.4345 ZZZZ=           -262.3775 XXXY=              6.6002
 XXXZ=             -1.0620 YYYX=             -1.4672 YYYZ=             -9.3113 ZZZX=             -7.0819
 ZZZY=             -1.5467 XXYY=           -200.2961 XXZZ=           -149.3715 YYZZ=           -100.2281
 XXYZ=             -4.7669 YYXZ=             11.9041 ZZXY=             -6.3173
 N-N= 5.437794210893D+02 E-N=-2.869564571744D+03  KE= 7.438659307815D+02
   1 Symmetry operations used in ECPInt.
 ECPInt:  NShTT=    8911 NPrTT=   25186 LenC2=    8690 LenP2D=   19640.
 LDataN:  DoStor=T MaxTD1= 7 Len=  274
 Calling FoFJK, ICntrl=      2127 FMM=F ISym2X=0 I1Cent= 0 IOpClX= 0 NMat=1 NMatS=1 NMatT=0.
 ***** Axes restored to original set *****
 -------------------------------------------------------------------
 Center     Atomic                   Forces (Hartrees/Bohr)
 Number     Number              X              Y              Z
 -------------------------------------------------------------------
      1       14          -0.005004454    0.002493882    0.000523637
      2        8          -0.004485880    0.003353767    0.000783408
      3        1           0.003278103   -0.001190148   -0.000200961
      4        8           0.000742854    0.002249530   -0.001910653
      5        1           0.002481893   -0.001358865   -0.000487142
      6        8          -0.003444255    0.000277404    0.001277825
      7        1           0.000064148    0.000269172    0.000107811
      8        8          -0.000310969   -0.001361539   -0.001182828
      9        6          -0.000283008   -0.001275408   -0.001744192
     10        1          -0.000077938   -0.000251209   -0.000246701
     11        1          -0.000020404    0.000170067   -0.000208750
     12        6           0.001679640   -0.000495176    0.002191117
     13        1          -0.000075348    0.000136464    0.000137293
     14        1           0.000177205    0.000023538    0.000298100
     15        8           0.005278414   -0.003041479    0.000662037
 -------------------------------------------------------------------
 Cartesian Forces:  Max     0.005278414 RMS     0.001890187

 GradGradGradGradGradGradGradGradGradGradGradGradGradGradGradGradGradGrad
 Berny optimization.
 FormGI is forming the generalized inverse of G from B-inverse, IUseBI=4.
 Internal  Forces:  Max     0.005969448 RMS     0.001477375
 Search for a local minimum.
 Step number   1 out of a maximum of   86
 All quantities printed in internal units (Hartrees-Bohrs-Radians)
 Mixed Optimization -- RFO/linear search
 Second derivative matrix not updated -- first step.
 ITU=  0
     Eigenvalues ---    0.01054   0.02032   0.02411   0.03045   0.03286
     Eigenvalues ---    0.04860   0.04975   0.06045   0.06437   0.07437
     Eigenvalues ---    0.08585   0.10023   0.11004   0.11089   0.11259
     Eigenvalues ---    0.11539   0.13171   0.15547   0.16000   0.16000
     Eigenvalues ---    0.16000   0.17204   0.19071   0.21056   0.22058
     Eigenvalues ---    0.28652   0.30901   0.32739   0.33551   0.33583
     Eigenvalues ---    0.33961   0.34596   0.36148   0.38460   0.44320
     Eigenvalues ---    0.47455   0.55641   0.56991   0.57161
 RFO step:  Lambda=-1.26007677D-03 EMin= 1.05365102D-02
 Linear search not attempted -- first point.
 Iteration  1 RMS(Cart)=  0.03491865 RMS(Int)=  0.00043378
 Iteration  2 RMS(Cart)=  0.00058676 RMS(Int)=  0.00011470
 Iteration  3 RMS(Cart)=  0.00000011 RMS(Int)=  0.00011470
 Variable       Old X    -DE/DX   Delta X   Delta X   Delta X     New X
                                 (Linear)    (Quad)   (Total)
    R1        3.17401   0.00021   0.00000   0.00053   0.00053   3.17454
    R2        3.20851   0.00252   0.00000   0.00695   0.00695   3.21546
    R3        3.29901  -0.00359   0.00000  -0.01158  -0.01158   3.28743
    R4        3.21176   0.00223   0.00000   0.00529   0.00525   3.21701
    R5        3.53013  -0.00597   0.00000  -0.03077  -0.03081   3.49933
    R6        1.79961   0.00348   0.00000   0.00607   0.00607   1.80567
    R7        1.81267  -0.00286   0.00000  -0.00513  -0.00513   1.80755
    R8        1.80104   0.00011   0.00000   0.00019   0.00019   1.80123
    R9        2.63609  -0.00114   0.00000  -0.00183  -0.00182   2.63426
   R10        2.08040  -0.00013   0.00000  -0.00038  -0.00038   2.08002
   R11        2.07396   0.00004   0.00000   0.00012   0.00012   2.07408
   R12        2.87803  -0.00050   0.00000   0.00155   0.00162   2.87965
   R13        2.09512  -0.00007   0.00000  -0.00022  -0.00022   2.09490
   R14        2.08094   0.00001   0.00000   0.00003   0.00003   2.08097
   R15        2.60555  -0.00027   0.00000  -0.00066  -0.00066   2.60489
    A1        2.09708  -0.00096   0.00000  -0.00465  -0.00458   2.09250
    A2        1.63702   0.00112   0.00000  -0.00421  -0.00419   1.63283
    A3        1.98704   0.00133   0.00000   0.01244   0.01247   1.99952
    A4        1.59667  -0.00313   0.00000  -0.02858  -0.02861   1.56805
    A5        1.57589  -0.00104   0.00000  -0.00215  -0.00223   1.57366
    A6        2.19238  -0.00021   0.00000  -0.00572  -0.00599   2.18639
    A7        1.49483   0.00316   0.00000   0.03355   0.03376   1.52859
    A8        1.61031  -0.00128   0.00000  -0.01064  -0.01047   1.59984
    A9        1.51984   0.00085   0.00000   0.00729   0.00738   1.52722
   A10        1.84837  -0.00049   0.00000  -0.00306  -0.00306   1.84531
   A11        1.82884   0.00046   0.00000   0.00284   0.00284   1.83168
   A12        1.88495  -0.00021   0.00000  -0.00131  -0.00131   1.88363
   A13        2.00822  -0.00037   0.00000   0.00425   0.00393   2.01215
   A14        1.92785  -0.00021   0.00000  -0.00368  -0.00357   1.92428
   A15        1.91836   0.00076   0.00000   0.00331   0.00337   1.92173
   A16        1.85463  -0.00094   0.00000   0.00040   0.00013   1.85476
   A17        1.88835  -0.00011   0.00000  -0.00045  -0.00048   1.88788
   A18        1.90647  -0.00052   0.00000  -0.00222  -0.00215   1.90433
   A19        1.96841   0.00100   0.00000   0.00248   0.00252   1.97093
   A20        1.90181  -0.00035   0.00000  -0.00491  -0.00490   1.89691
   A21        1.94374  -0.00028   0.00000   0.00007   0.00014   1.94388
   A22        1.83713   0.00162   0.00000   0.01511   0.01490   1.85203
   A23        1.86927   0.00019   0.00000  -0.00170  -0.00173   1.86754
   A24        1.95908  -0.00103   0.00000  -0.00721  -0.00711   1.95197
   A25        1.95353  -0.00017   0.00000  -0.00148  -0.00150   1.95203
   A26        1.93932   0.00002   0.00000   0.00409   0.00379   1.94311
   A27        3.23369  -0.00201   0.00000  -0.03279  -0.03280   3.20089
   A28        3.11321   0.00121   0.00000   0.01690   0.01714   3.13035
    D1       -1.55422   0.00093   0.00000   0.01012   0.01019  -1.54403
    D2        0.06103   0.00029   0.00000   0.00474   0.00477   0.06579
    D3        1.70449  -0.00048   0.00000  -0.00760  -0.00749   1.69700
    D4       -3.05218  -0.00092   0.00000  -0.01216  -0.01238  -3.06456
    D5       -1.52267   0.00021   0.00000  -0.00236  -0.00230  -1.52497
    D6        3.11015  -0.00044   0.00000   0.00400   0.00405   3.11420
    D7        1.48709   0.00189   0.00000   0.01888   0.01872   1.50580
    D8        0.03391  -0.00151   0.00000  -0.01558  -0.01553   0.01838
    D9       -2.22398   0.00091   0.00000   0.01115   0.01116  -2.21281
   D10       -0.12521  -0.00008   0.00000   0.00612   0.00622  -0.11899
   D11        2.06798  -0.00039   0.00000  -0.00008  -0.00019   2.06779
   D12        1.32891  -0.00215   0.00000  -0.01300  -0.01288   1.31603
   D13       -1.68808  -0.00360   0.00000  -0.03204  -0.03187  -1.71995
   D14        2.98971  -0.00139   0.00000  -0.02138  -0.02133   2.96839
   D15       -0.24766   0.00096   0.00000   0.01566   0.01584  -0.23182
   D16       -2.19644  -0.00146   0.00000  -0.00447  -0.00452  -2.20096
   D17        1.99006  -0.00067   0.00000  -0.00141  -0.00099   1.98907
   D18       -0.21012   0.00002   0.00000   0.00930   0.00924  -0.20088
   D19       -1.46766  -0.00096   0.00000  -0.03394  -0.03391  -1.50156
   D20        2.73310  -0.00117   0.00000  -0.03318  -0.03321   2.69989
   D21        0.59817  -0.00224   0.00000  -0.03832  -0.03829   0.55988
   D22        1.38961   0.00096   0.00000   0.03781   0.03774   1.42735
   D23       -2.83536   0.00080   0.00000   0.03270   0.03266  -2.80271
   D24       -0.71488   0.00145   0.00000   0.04040   0.04036  -0.67453
   D25       -2.81370  -0.00009   0.00000   0.03251   0.03246  -2.78124
   D26       -0.75549  -0.00025   0.00000   0.02740   0.02737  -0.72811
   D27        1.36499   0.00040   0.00000   0.03510   0.03507   1.40007
   D28       -0.71328   0.00006   0.00000   0.03201   0.03201  -0.68127
   D29        1.34493  -0.00010   0.00000   0.02690   0.02692   1.37186
   D30       -2.81777   0.00055   0.00000   0.03460   0.03462  -2.78315
   D31        0.54926  -0.00037   0.00000  -0.02620  -0.02633   0.52293
   D32       -1.51715  -0.00039   0.00000  -0.02570  -0.02572  -1.54287
   D33        2.66335   0.00021   0.00000  -0.01735  -0.01745   2.64590
         Item               Value     Threshold  Converged?
 Maximum Force            0.005969     0.000450     NO 
 RMS     Force            0.001477     0.000300     NO 
 Maximum Displacement     0.110264     0.001800     NO 
 RMS     Displacement     0.034928     0.001200     NO 
 Predicted change in Energy=-6.441730D-04
 GradGradGradGradGradGradGradGradGradGradGradGradGradGradGradGradGradGrad

                          Input orientation:                          
 ---------------------------------------------------------------------
 Center     Atomic      Atomic             Coordinates (Angstroms)
 Number     Number       Type             X           Y           Z
 ---------------------------------------------------------------------
      1         14           0        0.510906    0.138727    0.013118
      2          8           0        0.932550    0.129126    1.639207
      3          1           0        1.839661   -0.169594    1.669824
      4          8           0        0.797541    1.526317   -0.929058
      5          1           0        0.018285    2.068704   -0.812898
      6          8           0        2.034235   -0.528595   -0.497243
      7          1           0        2.396436    0.045352   -1.166520
      8          8           0       -0.327753   -1.247783   -0.508708
      9          6           0       -1.664603   -1.316675   -0.119737
     10          1           0       -1.747258   -1.764374    0.882394
     11          1           0       -2.230087   -1.942640   -0.821896
     12          6           0       -2.168552    0.120467   -0.067208
     13          1           0       -2.437288    0.440341   -1.094048
     14          1           0       -3.080061    0.204047    0.545006
     15          8           0       -1.133444    0.870226    0.449065
 ---------------------------------------------------------------------
                    Distance matrix (angstroms):
                    1          2          3          4          5
     1  Si   0.000000
     2  O    1.679893   0.000000
     3  H    2.146003   0.955521   0.000000
     4  O    1.701547   2.926833   3.273579   0.000000
     5  H    2.156337   3.257401   3.806744   0.956512   0.000000
     6  O    1.739632   2.492133   2.205203   2.436912   3.302976
     7  H    2.226092   3.165767   2.898456   2.192284   3.142388
     8  O    1.702369   2.845660   3.256712   3.023014   3.348337
     9  C    2.620817   3.453900   4.098559   3.847045   3.843614
    10  H    3.078431   3.367414   4.003668   4.537181   4.547928
    11  H    3.541522   4.511265   5.090698   4.605614   4.598493
    12  C    2.680723   3.539598   4.378034   3.393657   3.022240
    13  H    3.163642   4.350097   5.128674   3.416238   2.959806
    14  H    3.630732   4.159800   5.060483   4.353971   3.862720
    15  O    1.851763   2.496797   3.377991   2.461378   2.086955
                    6          7          8          9         10
     6  O    0.000000
     7  H    0.953171   0.000000
     8  O    2.469079   3.086441   0.000000
     9  C    3.800656   4.409411   1.393991   0.000000
    10  H    4.210730   4.964208   2.053540   1.100697   0.000000
    11  H    4.504372   5.047335   2.049339   1.097557   1.780311
    12  C    4.274299   4.696088   2.335717   1.523844   2.152175
    13  H    4.614058   4.850376   2.764511   2.152540   3.040269
    14  H    5.270586   5.739907   3.285320   2.181284   2.401016
    15  O    3.589762   3.968700   2.460170   2.321251   2.739647
                   11         12         13         14         15
    11  H    0.000000
    12  C    2.197669   0.000000
    13  H    2.407404   1.108575   0.000000
    14  H    2.683121   1.101200   1.776371   0.000000
    15  O    3.275696   1.378451   2.065432   2.059690   0.000000
 Stoichiometry    C2H7O5Si(1-)
 Framework group  C1[X(C2H7O5Si)]
 Deg. of freedom    39
 Full point group                 C1      NOp   1
 Largest Abelian subgroup         C1      NOp   1
 Largest concise Abelian subgroup C1      NOp   1
                         Standard orientation:                         
 ---------------------------------------------------------------------
 Center     Atomic      Atomic             Coordinates (Angstroms)
 Number     Number       Type             X           Y           Z
 ---------------------------------------------------------------------
      1         14           0        0.564624    0.033494    0.026913
      2          8           0        0.960193   -0.115716    1.652737
      3          1           0        1.791526   -0.586262    1.674924
      4          8           0        1.125014    1.371235   -0.862847
      5          1           0        0.465026    2.050521   -0.729046
      6          8           0        1.934048   -0.899169   -0.503309
      7          1           0        2.407589   -0.383370   -1.150027
      8          8           0       -0.522484   -1.143749   -0.547854
      9          6           0       -1.850994   -0.964739   -0.165454
     10          1           0       -2.029090   -1.423036    0.819320
     11          1           0       -2.520438   -1.443285   -0.891725
     12          6           0       -2.066279    0.540242   -0.061597
     13          1           0       -2.257464    0.942549   -1.076751
     14          1           0       -2.950152    0.777955    0.550697
     15          8           0       -0.910281    1.055274    0.484788
 ---------------------------------------------------------------------
 Rotational constants (GHZ):           2.7576097           1.5629979           1.4255147
 Standard basis: def2TZVPP (5D, 7F)
 There are   405 symmetry adapted cartesian basis functions of A   symmetry.
 There are   357 symmetry adapted basis functions of A   symmetry.
   357 basis functions,   545 primitive gaussians,   405 cartesian basis functions
    37 alpha electrons       37 beta electrons
       nuclear repulsion energy       544.1559319900 Hartrees.
 NAtoms=   15 NActive=   15 NUniq=   15 SFac= 1.00D+00 NAtFMM=   60 NAOKFM=F Big=F
 Integral buffers will be    131072 words long.
 Raffenetti 2 integral format.
 Two-electron integral symmetry is turned on.
 Nuclear repulsion after empirical dispersion term =      544.1495049694 Hartrees.
 One-electron integrals computed using PRISM.
   1 Symmetry operations used in ECPInt.
 ECPInt:  NShTT=    8911 NPrTT=   25186 LenC2=    8690 LenP2D=   19646.
 LDataN:  DoStor=T MaxTD1= 6 Len=  172
 NBasis=   357 RedAO= T EigKep=  3.40D-04  NBF=   357
 NBsUse=   357 1.00D-06 EigRej= -1.00D+00 NBFU=   357
 Initial guess from the checkpoint file:  "QL_MonoToBi_DeprotonatedLigandAttacking_IRC_reverse_productOpt.chk"
 B after Tr=    -0.000000    0.000000   -0.000000
         Rot=    0.999748    0.021487    0.002410    0.006028 Ang=   2.57 deg.
 ExpMin= 7.01D-02 ExpMax= 4.48D+04 ExpMxC= 1.53D+03 IAcc=3 IRadAn=         5 AccDes= 0.00D+00
 Harris functional with IExCor= 4639 and IRadAn=       5 diagonalized for initial guess.
 HarFok:  IExCor= 4639 AccDes= 0.00D+00 IRadAn=         5 IDoV= 1 UseB2=F ITyADJ=14
 ICtDFT=  3500011 ScaDFX=  1.000000  1.000000  1.000000  1.000000
 FoFCou: FMM=F IPFlag=           0 FMFlag=      100000 FMFlg1=           0
         NFxFlg=           0 DoJE=T BraDBF=F KetDBF=T FulRan=T
         wScrn=  0.000000 ICntrl=       500 IOpCl=  0 I1Cent=   200000004 NGrid=           0
         NMat0=    1 NMatS0=      1 NMatT0=    0 NMatD0=    1 NMtDS0=    0 NMtDT0=    0
 Petite list used in FoFCou.
 Requested convergence on RMS density matrix=1.00D-08 within 128 cycles.
 Requested convergence on MAX density matrix=1.00D-06.
 Requested convergence on             energy=1.00D-06.
 No special actions if energy rises.
 Integral accuracy reduced to 1.0D-05 until final iterations.
 Initial convergence to 1.0D-05 achieved.  Increase integral accuracy.
 SCF Done:  E(RwB97XD) =  -746.355882379     A.U. after   12 cycles
            NFock= 12  Conv=0.57D-08     -V/T= 2.0033
   1 Symmetry operations used in ECPInt.
 ECPInt:  NShTT=    8911 NPrTT=   25186 LenC2=    8690 LenP2D=   19646.
 LDataN:  DoStor=T MaxTD1= 7 Len=  274
 Calling FoFJK, ICntrl=      2127 FMM=F ISym2X=0 I1Cent= 0 IOpClX= 0 NMat=1 NMatS=1 NMatT=0.
 ***** Axes restored to original set *****
 -------------------------------------------------------------------
 Center     Atomic                   Forces (Hartrees/Bohr)
 Number     Number              X              Y              Z
 -------------------------------------------------------------------
      1       14          -0.005100859    0.001018917    0.003770909
      2        8           0.000972085    0.001484687    0.001850945
      3        1           0.000227898   -0.000187908    0.000033507
      4        8          -0.001301907   -0.000393956   -0.000606692
      5        1           0.000390844    0.000662356   -0.000182124
      6        8          -0.000466420    0.000192558   -0.000434808
      7        1           0.000398172   -0.000067817    0.000082811
      8        8          -0.000783787   -0.000739006   -0.001998315
      9        6           0.001440536   -0.000271859    0.000804641
     10        1          -0.000133123   -0.000815509   -0.000083050
     11        1          -0.000194753    0.000675954   -0.000147523
     12        6          -0.000515371    0.001301056   -0.000844415
     13        1          -0.000637955    0.000197179   -0.000021461
     14        1           0.000367525   -0.000075069    0.000270677
     15        8           0.005337114   -0.002981583   -0.002495102
 -------------------------------------------------------------------
 Cartesian Forces:  Max     0.005337114 RMS     0.001545497

 GradGradGradGradGradGradGradGradGradGradGradGradGradGradGradGradGradGrad
 Berny optimization.
 Using GEDIIS/GDIIS optimizer.
 FormGI is forming the generalized inverse of G from B-inverse, IUseBI=4.
 Internal  Forces:  Max     0.005788157 RMS     0.000924094
 Search for a local minimum.
 Step number   2 out of a maximum of   86
 All quantities printed in internal units (Hartrees-Bohrs-Radians)
 Mixed Optimization -- En-DIIS/RFO-DIIS
 Update second derivatives using D2CorX and points    1    2
 DE= -7.77D-04 DEPred=-6.44D-04 R= 1.21D+00
 TightC=F SS=  1.41D+00  RLast= 1.55D-01 DXNew= 5.0454D-01 4.6406D-01
 Trust test= 1.21D+00 RLast= 1.55D-01 DXMaxT set to 4.64D-01
 ITU=  1  0
 Use linear search instead of GDIIS.
     Eigenvalues ---    0.00888   0.02012   0.02402   0.03039   0.03284
     Eigenvalues ---    0.04814   0.04945   0.06047   0.06349   0.06642
     Eigenvalues ---    0.08411   0.10329   0.11073   0.11140   0.11267
     Eigenvalues ---    0.11452   0.12579   0.15489   0.15869   0.16000
     Eigenvalues ---    0.16019   0.17377   0.19215   0.20902   0.23604
     Eigenvalues ---    0.28797   0.31627   0.32762   0.33554   0.33613
     Eigenvalues ---    0.33971   0.34333   0.36159   0.39218   0.44322
     Eigenvalues ---    0.47506   0.55941   0.56990   0.57506
 RFO step:  Lambda=-5.40765638D-04 EMin= 8.87667561D-03
 Quartic linear search produced a step of  0.29779.
 Iteration  1 RMS(Cart)=  0.02728332 RMS(Int)=  0.00033305
 Iteration  2 RMS(Cart)=  0.00039663 RMS(Int)=  0.00010161
 Iteration  3 RMS(Cart)=  0.00000006 RMS(Int)=  0.00010161
 Variable       Old X    -DE/DX   Delta X   Delta X   Delta X     New X
                                 (Linear)    (Quad)   (Total)
    R1        3.17454   0.00212   0.00016   0.00715   0.00731   3.18185
    R2        3.21546   0.00050   0.00207   0.00269   0.00476   3.22022
    R3        3.28743  -0.00001  -0.00345  -0.00153  -0.00498   3.28245
    R4        3.21701   0.00138   0.00156   0.00487   0.00639   3.22341
    R5        3.49933  -0.00579  -0.00917  -0.03940  -0.04864   3.45069
    R6        1.80567   0.00028   0.00181   0.00141   0.00322   1.80889
    R7        1.80755   0.00004  -0.00153  -0.00057  -0.00210   1.80545
    R8        1.80123   0.00006   0.00006   0.00016   0.00022   1.80145
    R9        2.63426  -0.00065  -0.00054  -0.00214  -0.00265   2.63162
   R10        2.08002   0.00027  -0.00011   0.00097   0.00085   2.08087
   R11        2.07408  -0.00019   0.00003  -0.00070  -0.00067   2.07341
   R12        2.87965   0.00047   0.00048   0.00359   0.00414   2.88379
   R13        2.09490   0.00023  -0.00007   0.00087   0.00080   2.09571
   R14        2.08097  -0.00016   0.00001  -0.00060  -0.00060   2.08037
   R15        2.60489  -0.00039  -0.00020  -0.00083  -0.00102   2.60388
    A1        2.09250  -0.00039  -0.00136  -0.00365  -0.00499   2.08752
    A2        1.63283   0.00005  -0.00125   0.00133   0.00012   1.63295
    A3        1.99952   0.00196   0.00371   0.02063   0.02439   2.02390
    A4        1.56805   0.00053  -0.00852  -0.00043  -0.00900   1.55905
    A5        1.57366   0.00017  -0.00066  -0.00169  -0.00246   1.57120
    A6        2.18639  -0.00155  -0.00178  -0.01658  -0.01854   2.16785
    A7        1.52859  -0.00083   0.01005  -0.00068   0.00962   1.53821
    A8        1.59984  -0.00038  -0.00312  -0.00372  -0.00673   1.59310
    A9        1.52722   0.00043   0.00220   0.00434   0.00660   1.53382
   A10        1.84531   0.00003  -0.00091  -0.00019  -0.00110   1.84421
   A11        1.83168   0.00130   0.00085   0.01080   0.01165   1.84333
   A12        1.88363   0.00062  -0.00039   0.00483   0.00444   1.88807
   A13        2.01215  -0.00099   0.00117  -0.00252  -0.00157   2.01058
   A14        1.92428  -0.00024  -0.00106   0.00116   0.00021   1.92448
   A15        1.92173   0.00059   0.00100   0.00093   0.00194   1.92367
   A16        1.85476  -0.00036   0.00004  -0.00029  -0.00050   1.85426
   A17        1.88788  -0.00012  -0.00014  -0.00135  -0.00150   1.88638
   A18        1.90433   0.00089  -0.00064   0.00899   0.00840   1.91273
   A19        1.97093  -0.00076   0.00075  -0.00918  -0.00837   1.96256
   A20        1.89691   0.00028  -0.00146   0.00403   0.00253   1.89945
   A21        1.94388   0.00014   0.00004  -0.00234  -0.00218   1.94170
   A22        1.85203  -0.00056   0.00444   0.00051   0.00476   1.85679
   A23        1.86754  -0.00015  -0.00052  -0.00119  -0.00172   1.86581
   A24        1.95197   0.00012  -0.00212   0.00339   0.00137   1.95334
   A25        1.95203   0.00018  -0.00045  -0.00415  -0.00461   1.94742
   A26        1.94311   0.00145   0.00113   0.01120   0.01207   1.95518
   A27        3.20089   0.00058  -0.00977   0.00090  -0.00888   3.19200
   A28        3.13035  -0.00045   0.00511  -0.00241   0.00291   3.13326
    D1       -1.54403  -0.00025   0.00303  -0.00102   0.00212  -1.54192
    D2        0.06579  -0.00006   0.00142  -0.00252  -0.00108   0.06471
    D3        1.69700  -0.00028  -0.00223  -0.00416  -0.00630   1.69070
    D4       -3.06456   0.00039  -0.00369  -0.00010  -0.00399  -3.06854
    D5       -1.52497   0.00007  -0.00069   0.00479   0.00418  -1.52079
    D6        3.11420  -0.00007   0.00121   0.00440   0.00567   3.11986
    D7        1.50580   0.00032   0.00557   0.01065   0.01602   1.52182
    D8        0.01838   0.00023  -0.00463   0.00412  -0.00042   0.01796
    D9       -2.21281   0.00089   0.00332   0.01501   0.01836  -2.19446
   D10       -0.11899   0.00051   0.00185   0.01128   0.01318  -0.10582
   D11        2.06779  -0.00104  -0.00006  -0.00546  -0.00558   2.06221
   D12        1.31603  -0.00008  -0.00384   0.00136  -0.00235   1.31368
   D13       -1.71995  -0.00020  -0.00949  -0.00300  -0.01226  -1.73220
   D14        2.96839  -0.00007  -0.00635   0.00247  -0.00385   2.96453
   D15       -0.23182  -0.00076   0.00472   0.00096   0.00579  -0.22603
   D16       -2.20096  -0.00138  -0.00135  -0.01130  -0.01263  -2.21359
   D17        1.98907  -0.00098  -0.00030  -0.00769  -0.00777   1.98130
   D18       -0.20088   0.00055   0.00275   0.00927   0.01204  -0.18883
   D19       -1.50156  -0.00037  -0.01010  -0.02386  -0.03395  -1.53551
   D20        2.69989  -0.00045  -0.00989  -0.02350  -0.03345   2.66645
   D21        0.55988   0.00035  -0.01140  -0.01272  -0.02412   0.53577
   D22        1.42735   0.00023   0.01124   0.02703   0.03818   1.46553
   D23       -2.80271   0.00031   0.00972   0.02670   0.03635  -2.76635
   D24       -0.67453   0.00025   0.01202   0.02059   0.03249  -0.64204
   D25       -2.78124   0.00021   0.00967   0.03295   0.04258  -2.73866
   D26       -0.72811   0.00029   0.00815   0.03262   0.04076  -0.68735
   D27        1.40007   0.00023   0.01044   0.02650   0.03690   1.43696
   D28       -0.68127   0.00019   0.00953   0.03151   0.04103  -0.64024
   D29        1.37186   0.00026   0.00802   0.03117   0.03921   1.41106
   D30       -2.78315   0.00021   0.01031   0.02506   0.03534  -2.74781
   D31        0.52293  -0.00035  -0.00784  -0.01636  -0.02438   0.49855
   D32       -1.54287  -0.00042  -0.00766  -0.02339  -0.03112  -1.57399
   D33        2.64590  -0.00044  -0.00520  -0.02134  -0.02668   2.61922
         Item               Value     Threshold  Converged?
 Maximum Force            0.005788     0.000450     NO 
 RMS     Force            0.000924     0.000300     NO 
 Maximum Displacement     0.081659     0.001800     NO 
 RMS     Displacement     0.027343     0.001200     NO 
 Predicted change in Energy=-3.189577D-04
 GradGradGradGradGradGradGradGradGradGradGradGradGradGradGradGradGradGrad

                          Input orientation:                          
 ---------------------------------------------------------------------
 Center     Atomic      Atomic             Coordinates (Angstroms)
 Number     Number       Type             X           Y           Z
 ---------------------------------------------------------------------
      1         14           0        0.505282    0.138194    0.017793
      2          8           0        0.929140    0.163793    1.647130
      3          1           0        1.838096   -0.134252    1.682463
      4          8           0        0.796824    1.510423   -0.949588
      5          1           0        0.025841    2.065402   -0.847711
      6          8           0        2.026991   -0.536178   -0.478974
      7          1           0        2.398824    0.030582   -1.149255
      8          8           0       -0.328006   -1.251440   -0.515256
      9          6           0       -1.666244   -1.322016   -0.136511
     10          1           0       -1.758694   -1.803606    0.849416
     11          1           0       -2.234542   -1.918232   -0.861368
     12          6           0       -2.162107    0.118664   -0.050778
     13          1           0       -2.460714    0.455358   -1.064363
     14          1           0       -3.055228    0.195901    0.588219
     15          8           0       -1.114897    0.861051    0.450078
 ---------------------------------------------------------------------
                    Distance matrix (angstroms):
                    1          2          3          4          5
     1  Si   0.000000
     2  O    1.683761   0.000000
     3  H    2.149825   0.957225   0.000000
     4  O    1.704065   2.928117   3.273668   0.000000
     5  H    2.166354   3.264398   3.811106   0.955403   0.000000
     6  O    1.736996   2.493101   2.206589   2.433796   3.302845
     7  H    2.226900   3.161880   2.891403   2.190022   3.140456
     8  O    1.705752   2.873885   3.281779   3.013599   3.352190
     9  C    2.621363   3.482100   4.123087   3.840639   3.852734
    10  H    3.096413   3.425122   4.051865   4.555204   4.586288
    11  H    3.536729   4.542718   5.122504   4.577406   4.580269
    12  C    2.668341   3.527143   4.366889   3.391184   3.035129
    13  H    3.173135   4.350669   5.135413   3.426061   2.970209
    14  H    3.606376   4.122805   5.025037   4.350992   3.879422
    15  O    1.826026   2.469249   3.351055   2.456711   2.106181
                    6          7          8          9         10
     6  O    0.000000
     7  H    0.953285   0.000000
     8  O    2.461489   3.079145   0.000000
     9  C    3.791412   4.402266   1.392591   0.000000
    10  H    4.207423   4.964261   2.052824   1.101149   0.000000
    11  H    4.496328   5.034763   2.049216   1.097204   1.779425
    12  C    4.261538   4.692174   2.335990   1.526037   2.160605
    13  H    4.633068   4.878806   2.786238   2.156652   3.042746
    14  H    5.244406   5.726502   3.278749   2.181418   2.397344
    15  O    3.561859   3.948895   2.452281   2.326768   2.770261
                   11         12         13         14         15
    11  H    0.000000
    12  C    2.193456   0.000000
    13  H    2.392967   1.109001   0.000000
    14  H    2.691540   1.100885   1.775328   0.000000
    15  O    3.270766   1.377912   2.066238   2.055819   0.000000
 Stoichiometry    C2H7O5Si(1-)
 Framework group  C1[X(C2H7O5Si)]
 Deg. of freedom    39
 Full point group                 C1      NOp   1
 Largest Abelian subgroup         C1      NOp   1
 Largest concise Abelian subgroup C1      NOp   1
                         Standard orientation:                         
 ---------------------------------------------------------------------
 Center     Atomic      Atomic             Coordinates (Angstroms)
 Number     Number       Type             X           Y           Z
 ---------------------------------------------------------------------
      1         14           0        0.559446    0.032121    0.027361
      2          8           0        0.970342   -0.035372    1.658821
      3          1           0        1.800809   -0.509885    1.696791
      4          8           0        1.125961    1.322410   -0.930789
      5          1           0        0.481405    2.020313   -0.829431
      6          8           0        1.917800   -0.931542   -0.465974
      7          1           0        2.399662   -0.447818   -1.131236
      8          8           0       -0.532559   -1.159591   -0.517560
      9          6           0       -1.859930   -0.961985   -0.145611
     10          1           0       -2.052843   -1.419785    0.837106
     11          1           0       -2.532057   -1.428700   -0.876554
     12          6           0       -2.057192    0.548476   -0.054042
     13          1           0       -2.276288    0.942915   -1.067105
     14          1           0       -2.920364    0.800380    0.581117
     15          8           0       -0.885273    1.063338    0.456023
 ---------------------------------------------------------------------
 Rotational constants (GHZ):           2.7539074           1.5653544           1.4333990
 Standard basis: def2TZVPP (5D, 7F)
 There are   405 symmetry adapted cartesian basis functions of A   symmetry.
 There are   357 symmetry adapted basis functions of A   symmetry.
   357 basis functions,   545 primitive gaussians,   405 cartesian basis functions
    37 alpha electrons       37 beta electrons
       nuclear repulsion energy       544.6951755558 Hartrees.
 NAtoms=   15 NActive=   15 NUniq=   15 SFac= 1.00D+00 NAtFMM=   60 NAOKFM=F Big=F
 Integral buffers will be    131072 words long.
 Raffenetti 2 integral format.
 Two-electron integral symmetry is turned on.
 Nuclear repulsion after empirical dispersion term =      544.6887489426 Hartrees.
 One-electron integrals computed using PRISM.
   1 Symmetry operations used in ECPInt.
 ECPInt:  NShTT=    8911 NPrTT=   25186 LenC2=    8689 LenP2D=   19651.
 LDataN:  DoStor=T MaxTD1= 6 Len=  172
 NBasis=   357 RedAO= T EigKep=  3.42D-04  NBF=   357
 NBsUse=   357 1.00D-06 EigRej= -1.00D+00 NBFU=   357
 Initial guess from the checkpoint file:  "QL_MonoToBi_DeprotonatedLigandAttacking_IRC_reverse_productOpt.chk"
 B after Tr=    -0.000000    0.000000    0.000000
         Rot=    0.999822    0.018492   -0.002034    0.002996 Ang=   2.16 deg.
 ExpMin= 7.01D-02 ExpMax= 4.48D+04 ExpMxC= 1.53D+03 IAcc=3 IRadAn=         5 AccDes= 0.00D+00
 Harris functional with IExCor= 4639 and IRadAn=       5 diagonalized for initial guess.
 HarFok:  IExCor= 4639 AccDes= 0.00D+00 IRadAn=         5 IDoV= 1 UseB2=F ITyADJ=14
 ICtDFT=  3500011 ScaDFX=  1.000000  1.000000  1.000000  1.000000
 FoFCou: FMM=F IPFlag=           0 FMFlag=      100000 FMFlg1=           0
         NFxFlg=           0 DoJE=T BraDBF=F KetDBF=T FulRan=T
         wScrn=  0.000000 ICntrl=       500 IOpCl=  0 I1Cent=   200000004 NGrid=           0
         NMat0=    1 NMatS0=      1 NMatT0=    0 NMatD0=    1 NMtDS0=    0 NMtDT0=    0
 Petite list used in FoFCou.
 Requested convergence on RMS density matrix=1.00D-08 within 128 cycles.
 Requested convergence on MAX density matrix=1.00D-06.
 Requested convergence on             energy=1.00D-06.
 No special actions if energy rises.
 Integral accuracy reduced to 1.0D-05 until final iterations.
 Initial convergence to 1.0D-05 achieved.  Increase integral accuracy.
 SCF Done:  E(RwB97XD) =  -746.356299402     A.U. after   12 cycles
            NFock= 12  Conv=0.61D-08     -V/T= 2.0033
   1 Symmetry operations used in ECPInt.
 ECPInt:  NShTT=    8911 NPrTT=   25186 LenC2=    8689 LenP2D=   19651.
 LDataN:  DoStor=T MaxTD1= 7 Len=  274
 Calling FoFJK, ICntrl=      2127 FMM=F ISym2X=0 I1Cent= 0 IOpClX= 0 NMat=1 NMatS=1 NMatT=0.
 ***** Axes restored to original set *****
 -------------------------------------------------------------------
 Center     Atomic                   Forces (Hartrees/Bohr)
 Number     Number              X              Y              Z
 -------------------------------------------------------------------
      1       14          -0.003139864    0.001666705    0.002985828
      2        8           0.003285446   -0.000407097    0.000582494
      3        1          -0.001326915    0.000345035    0.000038025
      4        8          -0.000215232   -0.000522626   -0.000942119
      5        1          -0.000083665    0.000662830    0.000139454
      6        8           0.001223894   -0.000334623   -0.000264875
      7        1           0.000022337   -0.000076237    0.000248987
      8        8          -0.000250344   -0.000639606   -0.001028916
      9        6           0.001381414    0.000312352    0.000716256
     10        1          -0.000279350   -0.000264379   -0.000154079
     11        1          -0.000228511    0.000166536   -0.000162632
     12        6          -0.001746932    0.001192091   -0.000537069
     13        1          -0.000080392    0.000082916    0.000273864
     14        1           0.000052860   -0.000078441    0.000081562
     15        8           0.001385254   -0.002105456   -0.001976782
 -------------------------------------------------------------------
 Cartesian Forces:  Max     0.003285446 RMS     0.001131426

 GradGradGradGradGradGradGradGradGradGradGradGradGradGradGradGradGradGrad
 Berny optimization.
 Using GEDIIS/GDIIS optimizer.
 FormGI is forming the generalized inverse of G from B-inverse, IUseBI=4.
 Internal  Forces:  Max     0.001587300 RMS     0.000574765
 Search for a local minimum.
 Step number   3 out of a maximum of   86
 All quantities printed in internal units (Hartrees-Bohrs-Radians)
 Mixed Optimization -- En-DIIS/RFO-DIIS
 Swapping is turned off.
 Update second derivatives using D2CorX and points    1    2    3
 DE= -4.17D-04 DEPred=-3.19D-04 R= 1.31D+00
 TightC=F SS=  1.41D+00  RLast= 1.55D-01 DXNew= 7.8045D-01 4.6597D-01
 Trust test= 1.31D+00 RLast= 1.55D-01 DXMaxT set to 4.66D-01
 ITU=  1  1  0
     Eigenvalues ---    0.00740   0.01967   0.02387   0.03000   0.03281
     Eigenvalues ---    0.04774   0.04943   0.05570   0.06162   0.06427
     Eigenvalues ---    0.08552   0.10357   0.11021   0.11163   0.11248
     Eigenvalues ---    0.11334   0.12839   0.15515   0.15922   0.16004
     Eigenvalues ---    0.16075   0.18460   0.19715   0.20672   0.23850
     Eigenvalues ---    0.28851   0.32716   0.32857   0.33554   0.33609
     Eigenvalues ---    0.33975   0.34201   0.36137   0.39003   0.44476
     Eigenvalues ---    0.47538   0.55973   0.56997   0.59180
 En-DIIS/RFO-DIIS/Sim-DIIS IScMMF=       -3 using points:     3    2
 RFO step:  Lambda=-2.26544801D-04.
 DidBck=F Rises=F RFO-DIIS coefs:    1.69891   -0.69891
 Iteration  1 RMS(Cart)=  0.01887084 RMS(Int)=  0.00017870
 Iteration  2 RMS(Cart)=  0.00020833 RMS(Int)=  0.00008639
 Iteration  3 RMS(Cart)=  0.00000002 RMS(Int)=  0.00008639
 Variable       Old X    -DE/DX   Delta X   Delta X   Delta X     New X
                                 (Linear)    (Quad)   (Total)
    R1        3.18185   0.00109   0.00511   0.00030   0.00541   3.18726
    R2        3.22022   0.00052   0.00333   0.00150   0.00483   3.22504
    R3        3.28245   0.00125  -0.00348   0.00469   0.00121   3.28365
    R4        3.22341   0.00086   0.00447   0.00106   0.00550   3.22890
    R5        3.45069  -0.00136  -0.03399   0.00709  -0.02694   3.42375
    R6        1.80889  -0.00136   0.00225  -0.00311  -0.00086   1.80804
    R7        1.80545   0.00047  -0.00146   0.00075  -0.00071   1.80474
    R8        1.80145  -0.00020   0.00015  -0.00053  -0.00038   1.80107
    R9        2.63162   0.00012  -0.00185   0.00101  -0.00081   2.63081
   R10        2.08087   0.00000   0.00060  -0.00053   0.00007   2.08094
   R11        2.07341   0.00014  -0.00047   0.00090   0.00044   2.07385
   R12        2.88379   0.00039   0.00290   0.00044   0.00338   2.88717
   R13        2.09571  -0.00021   0.00056  -0.00132  -0.00076   2.09495
   R14        2.08037   0.00000  -0.00042   0.00031  -0.00010   2.08027
   R15        2.60388  -0.00018  -0.00071   0.00011  -0.00058   2.60330
    A1        2.08752   0.00007  -0.00349   0.00171  -0.00184   2.08568
    A2        1.63295  -0.00112   0.00008  -0.00942  -0.00927   1.62368
    A3        2.02390   0.00095   0.01704   0.00111   0.01816   2.04207
    A4        1.55905   0.00159  -0.00629   0.01189   0.00554   1.56459
    A5        1.57120   0.00014  -0.00172  -0.00106  -0.00289   1.56830
    A6        2.16785  -0.00096  -0.01296  -0.00182  -0.01491   2.15293
    A7        1.53821  -0.00032   0.00672   0.00351   0.01044   1.54865
    A8        1.59310   0.00022  -0.00470  -0.00046  -0.00506   1.58804
    A9        1.53382  -0.00052   0.00461  -0.00450   0.00014   1.53396
   A10        1.84421   0.00013  -0.00077   0.00080   0.00004   1.84425
   A11        1.84333   0.00058   0.00814  -0.00011   0.00803   1.85135
   A12        1.88807   0.00007   0.00310  -0.00198   0.00112   1.88919
   A13        2.01058  -0.00029  -0.00110   0.00156   0.00030   2.01088
   A14        1.92448  -0.00013   0.00015   0.00199   0.00223   1.92671
   A15        1.92367   0.00012   0.00136  -0.00085   0.00050   1.92417
   A16        1.85426   0.00035  -0.00035   0.00389   0.00334   1.85761
   A17        1.88638  -0.00003  -0.00105  -0.00158  -0.00263   1.88375
   A18        1.91273   0.00033   0.00587  -0.00231   0.00357   1.91630
   A19        1.96256  -0.00063  -0.00585  -0.00102  -0.00680   1.95576
   A20        1.89945   0.00036   0.00177   0.00131   0.00305   1.90250
   A21        1.94170   0.00029  -0.00152   0.00145   0.00003   1.94173
   A22        1.85679  -0.00116   0.00333  -0.00588  -0.00271   1.85408
   A23        1.86581  -0.00015  -0.00120   0.00129   0.00008   1.86589
   A24        1.95334   0.00016   0.00096  -0.00126  -0.00020   1.95313
   A25        1.94742   0.00052  -0.00322   0.00311  -0.00012   1.94730
   A26        1.95518   0.00156   0.00843   0.00553   0.01379   1.96898
   A27        3.19200   0.00047  -0.00621   0.00247  -0.00373   3.18828
   A28        3.13326   0.00006   0.00203   0.00428   0.00646   3.13972
    D1       -1.54192   0.00038   0.00148   0.00633   0.00792  -1.53400
    D2        0.06471  -0.00009  -0.00075  -0.00013  -0.00083   0.06388
    D3        1.69070  -0.00031  -0.00441  -0.00517  -0.00964   1.68106
    D4       -3.06854  -0.00014  -0.00279  -0.00441  -0.00729  -3.07584
    D5       -1.52079  -0.00076   0.00292  -0.00553  -0.00252  -1.52331
    D6        3.11986   0.00044   0.00396   0.00584   0.00985   3.12972
    D7        1.52182   0.00010   0.01119   0.00715   0.01809   1.53991
    D8        0.01796   0.00088  -0.00029   0.01006   0.00987   0.02782
    D9       -2.19446   0.00037   0.01283   0.00154   0.01440  -2.18006
   D10       -0.10582   0.00041   0.00921   0.00284   0.01207  -0.09374
   D11        2.06221  -0.00054  -0.00390   0.00098  -0.00297   2.05924
   D12        1.31368   0.00099  -0.00164   0.01317   0.01165   1.32533
   D13       -1.73220   0.00019  -0.00857   0.00087  -0.00751  -1.73971
   D14        2.96453  -0.00010  -0.00269   0.00252  -0.00022   2.96431
   D15       -0.22603  -0.00048   0.00405   0.00219   0.00631  -0.21972
   D16       -2.21359  -0.00065  -0.00882  -0.00300  -0.01174  -2.22533
   D17        1.98130  -0.00066  -0.00543  -0.00408  -0.00943   1.97187
   D18       -0.18883   0.00024   0.00842  -0.00230   0.00618  -0.18265
   D19       -1.53551   0.00002  -0.02372  -0.00107  -0.02483  -1.56034
   D20        2.66645   0.00006  -0.02338   0.00017  -0.02329   2.64315
   D21        0.53577   0.00055  -0.01685  -0.00051  -0.01741   0.51836
   D22        1.46553  -0.00010   0.02668  -0.00250   0.02409   1.48962
   D23       -2.76635   0.00011   0.02541   0.00075   0.02609  -2.74027
   D24       -0.64204   0.00018   0.02271   0.00165   0.02422  -0.61781
   D25       -2.73866   0.00011   0.02976   0.00085   0.03058  -2.70808
   D26       -0.68735   0.00033   0.02849   0.00409   0.03257  -0.65478
   D27        1.43696   0.00039   0.02579   0.00499   0.03071   1.46767
   D28       -0.64024  -0.00010   0.02868  -0.00340   0.02527  -0.61497
   D29        1.41106   0.00011   0.02740  -0.00015   0.02727   1.43833
   D30       -2.74781   0.00017   0.02470   0.00075   0.02541  -2.72240
   D31        0.49855  -0.00026  -0.01704   0.00025  -0.01691   0.48164
   D32       -1.57399  -0.00006  -0.02175   0.00301  -0.01882  -1.59281
   D33        2.61922  -0.00034  -0.01864   0.00008  -0.01869   2.60053
         Item               Value     Threshold  Converged?
 Maximum Force            0.001587     0.000450     NO 
 RMS     Force            0.000575     0.000300     NO 
 Maximum Displacement     0.052931     0.001800     NO 
 RMS     Displacement     0.018914     0.001200     NO 
 Predicted change in Energy=-1.147544D-04
 GradGradGradGradGradGradGradGradGradGradGradGradGradGradGradGradGradGrad

                          Input orientation:                          
 ---------------------------------------------------------------------
 Center     Atomic      Atomic             Coordinates (Angstroms)
 Number     Number       Type             X           Y           Z
 ---------------------------------------------------------------------
      1         14           0        0.501298    0.140125    0.024570
      2          8           0        0.940688    0.186920    1.652283
      3          1           0        1.849241   -0.111375    1.683338
      4          8           0        0.797506    1.498457   -0.965250
      5          1           0        0.034788    2.065480   -0.871307
      6          8           0        2.023966   -0.541082   -0.462059
      7          1           0        2.401710    0.021179   -1.132536
      8          8           0       -0.328043   -1.252786   -0.515353
      9          6           0       -1.668890   -1.324446   -0.147779
     10          1           0       -1.773450   -1.828140    0.825859
     11          1           0       -2.235663   -1.901647   -0.889378
     12          6           0       -2.165346    0.116509   -0.040858
     13          1           0       -2.480609    0.465171   -1.044867
     14          1           0       -3.047307    0.187137    0.614112
     15          8           0       -1.109323    0.852144    0.450521
 ---------------------------------------------------------------------
                    Distance matrix (angstroms):
                    1          2          3          4          5
     1  Si   0.000000
     2  O    1.686625   0.000000
     3  H    2.152142   0.956772   0.000000
     4  O    1.706619   2.931230   3.273029   0.000000
     5  H    2.174217   3.273858   3.815382   0.955028   0.000000
     6  O    1.737634   2.484738   2.194973   2.432514   3.304312
     7  H    2.228140   3.149171   2.872619   2.187191   3.138427
     8  O    1.708661   2.895009   3.298125   3.006427   3.356968
     9  C    2.623812   3.512029   4.147503   3.836685   3.862333
    10  H    3.112974   3.479940   4.099565   4.569915   4.616315
    11  H    3.534839   4.572894   5.148823   4.557036   4.570927
    12  C    2.667551   3.538238   4.375121   3.397465   3.054296
    13  H    3.184512   4.365468   5.150059   3.438030   2.986358
    14  H    3.597550   4.120910   5.020810   4.358500   3.903069
    15  O    1.811768   2.467650   3.346835   2.461325   2.128004
                    6          7          8          9         10
     6  O    0.000000
     7  H    0.953083   0.000000
     8  O    2.457908   3.074972   0.000000
     9  C    3.788090   4.398891   1.392163   0.000000
    10  H    4.211368   4.968626   2.054041   1.101186   0.000000
    11  H    4.492013   5.026093   2.049373   1.097434   1.777944
    12  C    4.261475   4.696684   2.340042   1.527826   2.164819
[...]


 ----------------------------------------------------------------------

 Electric dipole moment (input orientation):
 (Debye = 10**-18 statcoulomb cm , SI units = C m)
                  (au)            (Debye)         (10**-30 SI)
   Tot        0.930041D+00      0.236393D+01      0.788521D+01
   x         -0.845582D+00     -0.214925D+01     -0.716914D+01
   y          0.246619D-02      0.626842D-02      0.209092D-01
   z         -0.387248D+00     -0.984286D+00     -0.328322D+01

 Dipole polarizability, Alpha (input orientation).
 (esu units = cm**3 , SI units = C**2 m**2 J**-1)
 Alpha(0;0):
               (au)            (10**-24 esu)      (10**-40 SI)
   iso        0.679732D+02      0.100726D+02      0.112073D+02
   aniso      0.145473D+02      0.215568D+01      0.239852D+01
   xx         0.768375D+02      0.113861D+02      0.126688D+02
   yx         0.285630D+01      0.423260D+00      0.470941D+00
   yy         0.642884D+02      0.952656D+01      0.105997D+02
   zx         0.817029D+00      0.121071D+00      0.134710D+00
   zy        -0.149162D+01     -0.221035D+00     -0.245935D+00
   zz         0.627937D+02      0.930506D+01      0.103533D+02

 ----------------------------------------------------------------------

 Dipole orientation:
    14          0.29819042         -0.26068479         -0.90916388
     8         -2.10146774         -0.41826879         -2.99510689
     1         -1.39560846          0.09344428         -4.57715188
     8          2.27372472         -2.77713634         -0.51441036
     1          1.48828704         -3.84750570          0.70916553
     8          2.34569626          0.99543022         -3.16538355
     1          3.88340826          0.05898274         -3.12075487
     8          0.57272719          2.38844086          0.91931259
     6         -1.03932265          2.50657274          2.99355201
     1         -2.80047914          3.49388419          2.48947154
     1         -0.14204050          3.55667477          4.54162253
     6         -1.62893406         -0.22321353          3.73209733
     1         -0.11570388         -0.93438977          4.99335067
     1         -3.41306080         -0.34926117          4.79263691
     8         -1.74860115         -1.56332615          1.50223770

 Electric dipole moment (dipole orientation):
 (Debye = 10**-18 statcoulomb cm , SI units = C m)
                  (au)            (Debye)         (10**-30 SI)
   Tot        0.930041D+00      0.236393D+01      0.788521D+01
   x          0.000000D+00      0.000000D+00      0.000000D+00
   y          0.000000D+00      0.000000D+00      0.000000D+00
   z          0.930041D+00      0.236393D+01      0.788521D+01

 Dipole polarizability, Alpha (dipole orientation).
 (esu units = cm**3 , SI units = C**2 m**2 J**-1)
 Alpha(0;0):
               (au)            (10**-24 esu)      (10**-40 SI)
   iso        0.679732D+02      0.100726D+02      0.112073D+02
   aniso      0.145473D+02      0.215568D+01      0.239852D+01
   xx         0.646186D+02      0.957549D+01      0.106542D+02
   yx        -0.255760D+01     -0.378997D+00     -0.421691D+00
   yy         0.642902D+02      0.952683D+01      0.106000D+02
   zx        -0.477943D+01     -0.708239D+00     -0.788022D+00
   zy         0.199615D+01      0.295798D+00      0.329120D+00
   zz         0.750107D+02      0.111154D+02      0.123676D+02

 ----------------------------------------------------------------------
 Unable to Open any file for archive entry.
 1\1\GINC-CDR1866\Freq\RwB97XD\def2TZVPP\C2H7O5Si1(1-)\ARHENDER\26-Mar-
 2024\0\\#N Geom=AllCheck Guess=TCheck SCRF=Check GenChk RwB97XD/def2TZ
 VPP Freq\\title card here\\-1,1\Si,0.5033564671,0.1369406045,0.0572227
 41\O,0.978349928,0.2152415482,1.6715824492\H,1.8945740587,-0.057128160
 9,1.6798439181\O,0.7509879415,1.4709161725,-0.9766973036\H,-0.00980005
 98,2.0383379023,-0.8669038214\O,2.0388884982,-0.529085232,-0.432509601
 9\H,2.3570796498,-0.0320933237,-1.180855376\O,-0.3182577906,-1.2620963
 213,-0.4814618535\C,-1.6715246546,-1.3231501421,-0.1630681187\H,-1.817
 9432064,-1.8479039483,0.7939446632\H,-2.2195735188,-1.8758569483,-0.93
 73412668\C,-2.154310912,0.1218886276,-0.0382919937\H,-2.4270613867,0.5
 013578577,-1.043243037\H,-3.057560371,0.1884709665,0.5865902651\O,-1.1
 066376435,0.8278053973,0.512484336\\Version=ES64L-G16RevC.01\State=1-A
 \HF=-746.3564987\RMSD=2.131e-09\RMSF=1.105e-05\ZeroPoint=0.1104956\The
 rmal=0.1193947\ETot=-746.237104\HTot=-746.2361599\GTot=-746.2795249\Di
 pole=-0.845582,0.0024662,-0.3872479\DipoleDeriv=2.9997378,0.0769904,-0
 .0441914,0.0252718,2.0124058,-0.0927322,0.0426419,-0.095043,1.9643218,
 -0.7585329,-0.0619707,-0.1822868,-0.0522617,-0.6511342,-0.008531,-0.28
 09915,-0.0395076,-1.218917,0.1238662,0.0397175,-0.0033443,0.0359841,0.
 2510033,0.0089127,0.0040189,0.006529,0.3514928,-0.8131344,-0.1506289,0
 .0547095,-0.1316812,-1.050355,0.2674245,0.0944261,0.3365374,-0.8424807
 ,0.2008255,0.1316049,-0.0217477,0.141351,0.2693942,-0.0352249,-0.04489
 15,-0.0675308,0.2772523,-1.2630077,0.1657581,0.1560741,0.2270184,-0.70
 60501,-0.1512817,0.1135694,-0.1209109,-0.7169331,0.30126,-0.0384567,0.
 0125942,-0.0758329,0.2382231,0.0841663,0.0276097,0.0707138,0.1440934,-
 1.3730179,-0.2653666,0.0615005,-0.2638721,-0.9269581,-0.1035416,0.0241
 989,-0.112363,-0.5716899,0.7984047,0.2879287,-0.0073914,0.0459294,0.30
 11094,-0.0052641,-0.1076336,-0.0373969,0.440084,-0.0635862,-0.0331767,
 0.032804,-0.0485425,-0.0945,0.1101301,0.1174302,0.1846458,-0.2036334,-
 0.1315486,-0.1136277,-0.0983565,-0.1141368,-0.0876438,-0.08189,-0.1529
 594,-0.1561337,-0.1203852,0.8186767,0.0947755,0.1024236,0.3089198,0.34
 88368,0.0410432,0.235254,0.0416663,0.5241428,-0.0838148,0.0148907,-0.0
 796818,0.0473742,-0.0681027,0.0963532,-0.2010083,0.0967376,-0.3055829,
 -0.3080414,0.0022288,0.1172496,0.0011011,0.006627,0.0103058,0.1952116,
 -0.0190425,-0.0734126,-1.4480868,-0.1506671,-0.1003556,-0.1466225,-0.8
 428557,-0.1398704,-0.0668765,-0.0889015,-0.6483523\Polar=76.8374704,2.
 8563023,64.2883999,0.8170289,-1.4916198,62.7936892\Quadrupole=0.304156
 6,-0.3871611,0.0830045,1.1860426,1.5357201,-2.1947479\PG=C01 [X(C2H7O5
 Si1)]\NImag=0\\0.40956451,0.03783645,0.40747104,0.03812270,-0.03180937
 ,0.45000754,-0.05867454,-0.00326423,-0.05698294,0.58132426,0.00018900,
 -0.04349737,-0.00211321,-0.15686236,0.08319679,-0.02812407,-0.01146685
 ,-0.19185364,0.05424503,0.01648351,0.27244084,-0.01195831,0.00427007,-
 0.00438402,-0.49731769,0.14148108,-0.02505166,0.51509830,0.00047781,0.
 00421347,-0.00042890,0.14618794,-0.05522354,0.00522634,-0.14744461,0.0
 5413622,-0.03285359,0.00813906,-0.00544708,0.00948074,-0.00497740,-0.0
 2934750,0.02216801,-0.00303174,0.03556888,-0.05386398,-0.00432173,0.00
 833795,0.00570821,0.00213181,-0.00322503,0.00031200,-0.00035778,0.0019
 0055,0.42662424,-0.02009509,-0.12810514,0.07029554,0.00051162,0.002506
 57,0.00470931,-0.00030644,-0.00085742,-0.00108899,-0.24420091,0.366473
 51,0.01799228,0.05832165,-0.09384080,-0.00197936,0.01029068,-0.0082079
 0,0.00108980,0.00011716,-0.00116154,-0.08769781,-0.06598165,0.12803265
 ,0.00486817,0.00130941,-0.00018863,-0.00072597,-0.00108411,0.00049495,
 -0.00019568,0.00011029,0.00000614,-0.34858743,0.25891796,0.04384507,0.
 35175690,0.02178455,-0.01765417,0.00112284,-0.00133145,0.00034584,-0.0
 0039626,-0.00002283,-0.00004533,-0.00036756,0.23383842,-0.20701351,-0.
 02014171,-0.25797562,0.22639116,-0.01372965,0.01394413,0.00320540,0.00
 112446,-0.00033900,-0.00093891,0.00002202,-0.00010643,0.00038644,0.060
 50907,-0.03609848,-0.02586912,-0.04625465,0.02198396,0.02537758,-0.104
 04819,0.03853890,0.01150303,-0.00091014,0.00649082,0.01765795,-0.00465
 917,-0.00026912,0.00195827,-0.01260481,0.02269740,-0.00176829,0.001636
 19,0.00347812,-0.00145846,0.24128503,0.01812456,-0.05817401,0.00086736
 ,0.00578326,0.01050079,-0.00752560,0.00077601,-0.00381084,-0.00023731,
 0.02993973,-0.02607071,0.00450294,0.00056627,-0.00378690,0.00448282,0.
 03464769,0.23372617,0.02947377,-0.01223348,-0.06037784,0.02117766,-0.0
 1234401,-0.03303192,0.00595099,-0.00204742,0.00264064,-0.00700905,0.00
 977764,0.00661873,0.00062277,0.00247796,0.00075175,-0.19100680,-0.2200
 3188,0.41267641,-0.00878380,-0.01223810,0.02219318,-0.00033595,0.00143
 314,0.00138273,-0.00027943,0.00059679,0.00040165,0.00201087,-0.0021080
 2,-0.00120384,0.00018014,-0.00099874,-0.00046895,-0.08199771,-0.075815
 23,0.13748720,0.09283104,0.00601851,0.00689815,-0.00681881,0.00194089,
 -0.00217269,-0.00466744,0.00058344,0.00003907,0.00060520,0.00070059,-0
 .00318488,0.00061164,-0.00032930,-0.00065006,0.00005645,-0.09635078,-0
 .15696340,0.23610536,0.08857746,0.15695619,0.00394847,0.00643728,-0.00
 718206,0.00142271,-0.00287777,-0.00284942,0.00154302,0.00082663,0.0007
 0225,-0.00381581,0.00326230,-0.00082896,-0.00086789,0.00071576,-0.0006
 5382,0.15719935,0.21901014,-0.34175327,-0.15719326,-0.22634019,0.35252
 886,-0.06921510,-0.04484035,-0.01838537,0.00037158,-0.00747955,-0.0080
 2779,0.00087616,-0.00006426,0.00196450,0.00419323,-0.00678161,-0.00022
 233,-0.00142153,-0.00133176,0.00065412,-0.03704863,-0.01567197,0.00080
 053,-0.00342005,-0.00010607,-0.00163085,0.44246339,-0.04062559,-0.1211
 1743,-0.03318594,-0.00242128,0.00120007,-0.00365505,0.00002692,-0.0007
 8775,-0.00001314,-0.00450673,-0.00724663,-0.00031936,-0.00046168,0.000
 72715,-0.00058653,-0.00762149,0.00175177,-0.00009583,0.00001735,-0.000
 38707,-0.00071223,0.07092465,0.23990384,-0.01433833,-0.03020045,-0.050
 83147,-0.00742206,-0.00887970,-0.00356985,0.00080619,-0.00079316,-0.00
 112672,0.00174548,0.00437048,0.00455817,0.00074737,0.00007427,-0.00097
 285,0.00548026,0.00141041,0.00653004,-0.00075890,-0.00021390,-0.000260
 96,-0.05235007,0.06106593,0.11451146,-0.02692407,-0.03651188,-0.010158
 25,0.00152093,0.00386446,0.00367497,-0.00051475,0.00010610,-0.00042544
 ,-0.00050588,0.00450405,0.00115650,0.00070868,0.00022277,-0.00066301,0
 .00361167,0.00018327,0.00094573,-0.00075877,-0.00035342,-0.00041978,-0
 .24016677,-0.02367131,0.03328215,0.49923833,-0.01889095,-0.00622411,0.
 00094022,0.00092128,-0.00025532,0.00073950,0.00009526,0.00002773,0.000
 16530,0.00099960,0.00001057,-0.00037461,-0.00026578,-0.00057100,-0.000
 06491,-0.00239475,0.00035148,-0.00036304,-0.00018134,0.00030023,-0.000
 09080,-0.00036005,-0.08010733,-0.00085698,0.06635884,0.51765749,-0.002
 18262,0.00468792,0.00346475,-0.00008596,-0.00112345,-0.00256578,0.0001
 9198,0.00010719,0.00032035,0.00007156,-0.00032469,0.00011572,-0.000119
 01,0.00007239,-0.00028526,-0.00228706,-0.00119703,0.00255306,-0.000876
 92,-0.00025345,-0.00008785,0.04345901,-0.00053163,-0.08595431,0.037561
 03,0.00163794,0.57865591,0.00105930,0.00473797,0.00613148,0.00023913,0
 .00009209,-0.00091245,-0.00001784,-0.00000118,0.00018261,-0.00018904,-
 0.00118505,-0.00026529,-0.00016258,-0.00002635,0.00003647,-0.00142447,
 -0.00022384,-0.00093541,0.00019945,0.00010332,-0.00002237,-0.02500202,
 -0.02228196,0.03485943,-0.04569616,-0.00922914,0.01022848,0.06570469,0
 .00066191,0.00106122,0.00216938,0.00004245,0.00013956,-0.00061626,-0.0
 0003522,0.00004414,0.00006278,-0.00026968,-0.00033919,-0.00024725,0.00
 009037,0.00009232,0.00011637,-0.00047024,-0.00007907,-0.00021744,0.000
 06053,-0.00002047,-0.00001975,-0.00789481,0.00335075,0.00195801,-0.008
 90818,-0.10486983,0.09116808,0.01285648,0.10940026,-0.00237472,-0.0045
 9946,-0.00312670,0.00037111,0.00042220,0.00111514,-0.00004156,0.000024
 38,-0.00013369,0.00022233,0.00068225,0.00008517,0.00001077,-0.00008042
 ,0.00001523,0.00109097,0.00017782,0.00029391,-0.00009901,-0.00002153,0
 .00000681,0.01830436,0.00548054,-0.00089016,0.01166328,0.09465945,-0.2
 2876359,-0.02663962,-0.10734585,0.24805943,-0.00065296,0.00712487,0.00
 091919,-0.00039677,-0.00095876,-0.00110038,0.00011680,-0.00001312,0.00
 013100,0.00020155,-0.00080560,0.00014785,-0.00009819,-0.00006410,0.000
 06990,-0.00196572,-0.00059263,0.00072327,-0.00029993,-0.00002030,-0.00
 013080,-0.03685529,-0.02365095,-0.01932334,-0.09262111,-0.05166075,-0.
 07726077,0.00343164,0.00103965,-0.00061301,0.11936542,0.00223951,-0.00
 039366,-0.00058837,-0.00065473,0.00001550,-0.00061190,-0.00002124,-0.0
 0002794,-0.00003604,-0.00051537,-0.00025592,0.00061338,0.00013844,0.00
 018685,-0.00035517,-0.00045586,0.00011411,0.00012343,0.00002493,-0.000
 02966,-0.00005629,-0.00342839,0.00190804,0.00106396,-0.05324663,-0.110
 98157,-0.08540651,0.00672750,0.00814462,0.01120257,0.06571859,0.117746
 45,0.00247469,0.00103718,-0.00024042,-0.00032437,-0.00003352,0.0000212
 6,0.00000490,-0.00001981,-0.00001359,-0.00036043,-0.00020884,0.0003027
 6,0.00008496,0.00017886,-0.00015696,-0.00019177,0.00009574,0.00001054,
 0.00009922,-0.00000728,-0.00001317,0.00334685,0.00556324,0.01328104,-0
 .08157293,-0.08964292,-0.18305635,-0.01194642,-0.01443011,-0.02129884,
 0.08974064,0.09586861,0.19036446,-0.04197580,0.00929303,0.00182772,0.0
 0188457,-0.00103107,0.00118040,0.00048592,0.00046876,-0.00023527,0.006
 09829,0.00155781,-0.00345477,-0.00204875,-0.00282553,0.00313463,0.0011
 4537,-0.00201980,-0.00070173,-0.00044564,0.00030090,0.00017757,-0.0450
 0903,0.02234536,0.00307074,-0.07234974,0.02585571,-0.00221801,-0.00045
 565,0.00125520,-0.00110825,0.00777400,-0.01684369,-0.00195819,0.581831
 45,-0.01273955,0.01553626,0.00712872,0.00530480,-0.00272661,0.00202806
 ,0.00106537,-0.00000485,0.00100318,0.00376655,0.00093125,-0.00176651,-
 0.00188798,-0.00202631,0.00045679,-0.00031213,-0.00178145,-0.00062001,
 -0.00038302,0.00020283,0.00006638,0.01108223,-0.01381595,-0.01237029,0
 .04487892,-0.16404152,0.00658960,0.00623533,-0.01469317,-0.00212886,0.
 00288993,-0.00889660,0.00366722,-0.01447830,0.45031715,-0.01093545,0.0
 0801935,0.00736714,0.00087182,-0.00065630,0.00096116,-0.00029568,0.000
 40777,0.00010560,0.00614902,0.00221797,-0.00892612,0.00083406,-0.00150
 524,0.00305913,0.00072096,-0.00078693,-0.00065304,-0.00011307,0.000274
 59,0.00013191,0.01396662,-0.01794845,-0.00207902,0.00250655,0.00759818
 ,-0.07846742,-0.01095567,0.02997392,0.00034367,0.00632998,-0.02212017,
 -0.00256135,-0.03129775,-0.02337740,0.54275840,0.00353654,-0.00171225,
 -0.00485604,-0.00176474,0.00044490,-0.00029873,-0.00033761,0.00003714,
 -0.00027011,0.00004529,-0.00030152,0.00148801,-0.00001026,-0.00010011,
 -0.00088101,-0.00012536,0.00004317,0.00040406,-0.00003455,0.00001648,-
 0.00000191,0.00155401,0.00008200,0.00111463,-0.00066152,0.00449745,-0.
 00935369,0.00000315,0.00157765,-0.00030210,0.00072254,-0.00034660,0.00
 039806,-0.05826590,0.01916079,-0.02948711,0.06936194,0.00104989,-0.001
 14631,-0.00143913,-0.00064532,0.00035289,-0.00014816,-0.00019610,0.000
 02327,-0.00012461,0.00033362,0.00006790,-0.00020646,-0.00000639,-0.000
 13728,0.00007948,0.00017476,0.00005907,0.00005763,0.00000510,0.0000271
 5,0.00002967,0.00019834,0.00265747,-0.00168887,0.00287655,-0.01559748,
 0.03117599,0.00300048,-0.00599598,-0.00028662,-0.00064103,0.00088148,-
 0.00025055,0.01746686,-0.08116497,0.07110465,-0.01400089,0.08703396,0.
 00607090,-0.00249436,-0.00428753,-0.00171045,0.00041912,-0.00037126,-0
 .00018730,0.00001010,-0.00019459,-0.00157933,-0.00104947,0.00245081,-0
 .00022993,0.00069234,-0.00120842,-0.00045619,0.00020300,0.00046155,0.0
 0001057,-0.00006301,-0.00004023,-0.00132034,0.00092445,0.00154356,0.00
 225596,-0.00107819,-0.00026387,0.00018602,-0.00007065,0.00181286,0.000
 33033,0.00119616,0.00148274,-0.02958091,0.07654578,-0.22001038,0.05174
 315,-0.07631473,0.24968975,0.00539161,-0.00458639,-0.00079527,-0.00123
 431,0.00042241,-0.00113834,-0.00002996,0.00002663,-0.00014024,-0.00233
 606,-0.00131436,0.00236154,0.00003875,0.00072544,-0.00059261,-0.000650
 51,0.00035150,0.00011459,0.00014229,-0.00010226,-0.00005191,-0.0001587
 9,0.00278750,0.00021389,-0.00671492,-0.00060537,0.00767691,0.00049541,
 0.00029459,-0.00107554,-0.00060283,0.00136587,0.00017361,-0.18684341,0
 .01945666,0.11041918,0.00566388,0.00046425,-0.00078677,0.22480846,0.00
 149479,-0.00531975,-0.00159001,-0.00042544,0.00047012,-0.00005788,-0.0
 0002930,-0.00000771,-0.00015355,-0.00097159,0.00007373,0.00093796,0.00
 011850,0.00032755,-0.00014868,0.00032782,0.00052208,0.00007914,0.00009
 012,-0.00005259,0.00001434,0.00570572,-0.00454782,-0.00011071,0.023503
 25,0.00352244,-0.01726238,-0.00011216,0.00137537,0.00062011,-0.0010602
 5,-0.00086042,-0.00038831,0.01860938,-0.05215671,-0.01076578,-0.008824
 58,0.00236842,0.00996635,-0.01295239,0.05299667,-0.00147366,-0.0013164
 6,-0.00093106,-0.00005311,0.00018123,0.00005732,-0.00000847,0.00000388
 ,-0.00011732,-0.00020800,-0.00014223,0.00091588,-0.00030917,-0.0000935
 2,-0.00024440,0.00027354,0.00002627,0.00003581,-0.00004674,0.00000542,
 0.00000220,0.00035504,-0.00076454,0.00180898,0.00032247,0.00409514,-0.
 00220933,-0.00032148,-0.00036770,0.00129003,-0.00005923,-0.00023053,0.
 00005914,0.11516350,-0.01297467,-0.13922998,0.02243277,-0.00247713,-0.
 01937951,-0.12029127,0.01252416,0.14331889,-0.04832338,0.00436423,0.00
 671525,-0.02968857,0.01086615,-0.01075758,-0.00157874,0.00013860,-0.00
 426883,-0.02710648,-0.01109022,0.02851065,-0.00593844,0.00462719,-0.00
 150235,-0.00224354,0.00390799,0.00195239,0.00099205,-0.00097945,-0.000
 15656,0.00883884,0.02905721,0.01287258,-0.01816590,-0.01514002,-0.0048
 0493,0.00181500,-0.00030070,0.00059100,0.00188084,-0.00070232,0.000031
 19,-0.19182564,-0.08403962,-0.05871348,-0.01968740,-0.01008011,-0.0247
 4570,-0.03796961,-0.02547387,-0.01577618,0.36900099,0.00247422,-0.0535
 4818,-0.00455032,0.00491257,0.00514740,-0.00004131,-0.00024240,0.00228
 148,0.00005481,-0.01656653,0.00300985,0.01364215,0.00075963,0.00381369
 ,-0.00342080,0.00151885,0.00364091,-0.00066806,0.00091902,-0.00096280,
 -0.00026546,0.00004788,-0.02348911,-0.01482899,-0.02380680,-0.03922177
 ,-0.02933998,-0.00069352,0.00238946,0.00119342,0.00269445,-0.00755128,
 -0.00142950,-0.05995462,-0.12567935,-0.04243616,-0.00057363,0.01057041
 ,-0.00888688,-0.00633407,0.00128863,0.00153066,0.09484495,0.21831068,0
 .00792930,-0.00646612,-0.04592623,-0.02013527,0.00554762,-0.00185953,-
 0.00180825,-0.00029599,-0.00218215,0.02495950,0.00957885,-0.00424546,0
 .00132319,-0.00473367,-0.00246581,0.00128422,-0.00099776,0.00324362,-0
 .00081386,0.00072696,0.00029771,-0.00091429,-0.01522145,0.00345209,-0.
 00012924,-0.01736429,-0.00345603,0.00037422,-0.00213353,0.00119072,0.0
 0009538,-0.00066312,0.00181875,-0.05399968,-0.04424800,-0.10279971,-0.
 03212997,-0.01951116,-0.01168547,0.00391223,0.00633523,0.01462335,0.07
 005253,0.08944643,0.14999413\\-0.00000317,0.00000738,0.00000549,-0.000
 00252,-0.00001712,-0.00002057,0.00001071,0.00001636,-0.00001211,0.0000
 1452,0.00001957,0.00001892,-0.00001387,-0.00000015,0.00000030,0.000012
 76,-0.00002300,-0.00001558,-0.00000810,0.00000272,-0.00000259,-0.00001
 879,-0.00000729,0.00001295,0.00002418,-0.00000307,-0.00001415,0.000000
 46,-0.00000337,0.00000021,-0.00000079,0.00000022,-0.00000088,-0.000004
 54,0.00001130,0.00000474,-0.00000197,0.00000403,0.00001198,0.00000256,
 -0.00000657,0.00000930,-0.00001146,-0.00000101,0.00000202\\\@
 The archive entry for this job was punched.


 BUT 'GLORY' DOESN'T MEAN 'A NICE KNOCK DOWN ARGUMENT', ALICE OBJECTED.
 WHEN I USE A WORD, HUMPTY DUMPTY SAID, IN A RATHER SCORNFUL TONE,
 IT MEANS JUST WHAT I CHOOSE IT TO MEAN....
 NEITHER MORE NOR LESS....
 THE QUESTION IS, SAID ALICE,
 WHETHER YOU CAN MAKE WORDS MEAN SO MANY DIFFERENT THINGS...
 THE QUESTION IS, SAID HUMPTY DUMPTY,
 WHICH IS TO BE MASTER....
 THAT IS ALL.....

 ALICE THROUGH THE LOOKING GLASS
 Job cpu time:       0 days  1 hours 48 minutes  6.1 seconds.
 Elapsed time:       0 days  0 hours 28 minutes 25.1 seconds.
 File lengths (MBytes):  RWF=    176 Int=      0 D2E=      0 Chk=     11 Scr=      1
 Normal termination of Gaussian 16 at Tue Mar 26 01:37:34 2024.
