 Entering Gaussian System, Link 0=/opt/software/gaussian/g16.c01/g16
 Initial command:
 /opt/software/gaussian/g16.c01/l1.exe "/scratch/arhender/23963127/Gau-165001.inp" -scrdir="/scratch/arhender/23963127/"
 Entering Link 1 = /opt/software/gaussian/g16.c01/l1.exe PID=    165002.
  
 Copyright (c) 1988-2019, Gaussian, Inc.  All Rights Reserved.
  
 This is part of the Gaussian(R) 16 program.  It is based on
 the Gaussian(R) 09 system (copyright 2009, Gaussian, Inc.),
 the Gaussian(R) 03 system (copyright 2003, Gaussian, Inc.),
 the Gaussian(R) 98 system (copyright 1998, Gaussian, Inc.),
 the Gaussian(R) 94 system (copyright 1995, Gaussian, Inc.),
 the Gaussian 92(TM) system (copyright 1992, Gaussian, Inc.),
 the Gaussian 90(TM) system (copyright 1990, Gaussian, Inc.),
 the Gaussian 88(TM) system (copyright 1988, Gaussian, Inc.),
 the Gaussian 86(TM) system (copyright 1986, Carnegie Mellon
 University), and the Gaussian 82(TM) system (copyright 1983,
 Carnegie Mellon University). Gaussian is a federally registered
 trademark of Gaussian, Inc.
  
 This software contains proprietary and confidential information,
 including trade secrets, belonging to Gaussian, Inc.
  
 This software is provided under written license and may be
 used, copied, transmitted, or stored only in accord with that
 written license.
  
 The following legend is applicable only to US Government
 contracts under FAR:
  
                    RESTRICTED RIGHTS LEGEND
  
 Use, reproduction and disclosure by the US Government is
 subject to restrictions as set forth in subparagraphs (a)
 and (c) of the Commercial Computer Software - Restricted
 Rights clause in FAR 52.227-19.
  
 Gaussian, Inc.
 340 Quinnipiac St., Bldg. 40, Wallingford CT 06492
  
  
 ---------------------------------------------------------------
 Warning -- This program may not be used in any manner that
 competes with the business of Gaussian, Inc. or will provide
 assistance to any competitor of Gaussian, Inc.  The licensee
 of this program is prohibited from giving any competitor of
 Gaussian, Inc. access to this program.  By using this program,
 the user acknowledges that Gaussian, Inc. is engaged in the
 business of creating and licensing software in the field of
 computational chemistry and represents and warrants to the
 licensee that it is not a competitor of Gaussian, Inc. and that
 it will not use this program in any manner prohibited above.
 ---------------------------------------------------------------
  

 Cite this work as:
 Gaussian 16, Revision C.01,
 M. J. Frisch, G. W. Trucks, H. B. Schlegel, G. E. Scuseria, 
 M. A. Robb, J. R. Cheeseman, G. Scalmani, V. Barone, 
 G. A. Petersson, H. Nakatsuji, X. Li, M. Caricato, A. V. Marenich, 
 J. Bloino, B. G. Janesko, R. Gomperts, B. Mennucci, H. P. Hratchian, 
 J. V. Ortiz, A. F. Izmaylov, J. L. Sonnenberg, D. Williams-Young, 
 F. Ding, F. Lipparini, F. Egidi, J. Goings, B. Peng, A. Petrone, 
 T. Henderson, D. Ranasinghe, V. G. Zakrzewski, J. Gao, N. Rega, 
 G. Zheng, W. Liang, M. Hada, M. Ehara, K. Toyota, R. Fukuda, 
 J. Hasegawa, M. Ishida, T. Nakajima, Y. Honda, O. Kitao, H. Nakai, 
 T. Vreven, K. Throssell, J. A. Montgomery, Jr., J. E. Peralta, 
 F. Ogliaro, M. J. Bearpark, J. J. Heyd, E. N. Brothers, K. N. Kudin, 
 V. N. Staroverov, T. A. Keith, R. Kobayashi, J. Normand, 
 K. Raghavachari, A. P. Rendell, J. C. Burant, S. S. Iyengar, 
 J. Tomasi, M. Cossi, J. M. Millam, M. Klene, C. Adamo, R. Cammi, 
 J. W. Ochterski, R. L. Martin, K. Morokuma, O. Farkas, 
 J. B. Foresman, and D. J. Fox, Gaussian, Inc., Wallingford CT, 2019.
 
 ******************************************
 Gaussian 16:  ES64L-G16RevC.01  3-Jul-2019
                30-Jan-2024 
 ******************************************
 %chk=ProductOpt_IRC_fromfrozenboth21.chk
 %mem=1600MB
 %nprocs=4
 Will use up to    4 processors via shared memory.
 ----------------------------------------------------
 # opt=calcfc freq wb97xd/def2tzvpp geom=connectivity
 ----------------------------------------------------
 1/10=4,18=20,19=15,26=3,38=1,57=2/1,3;
 2/9=110,12=2,17=6,18=5,40=1/2;
 3/5=44,7=202,11=2,25=1,30=1,71=2,74=-58,140=1/1,2,3;
 4//1;
 5/5=2,38=5/2;
 8/6=4,10=90,11=11/1;
 11/6=1,8=1,9=11,15=111,16=1/1,2,10;
 10/6=1,13=1/2;
 6/7=2,8=2,9=2,10=2,28=1/1;
 7/10=1,25=1/1,2,3,16;
 1/10=4,18=20,19=15,26=3/3(2);
 2/9=110/2;
 99//99;
 2/9=110/2;
 3/5=44,7=202,11=2,25=1,30=1,71=1,74=-58/1,2,3;
 4/5=5,16=3,69=1/1;
 5/5=2,38=5/2;
 7//1,2,3,16;
 1/18=20,19=15,26=3/3(-5);
 2/9=110/2;
 6/7=2,8=2,9=2,10=2,19=2,28=1/1;
 99/9=1/99;
 -------------------------------------------------------------------
 TS Opt product from SN1 like product derived from imag frequency TS
 -------------------------------------------------------------------
 Symbolic Z-matrix:
 Charge =  0 Multiplicity = 1
 Si                    0.79092  -0.08151  -0.05761 
 O                     1.75691  -0.89943  -1.10579 
 H                     1.6319   -1.84565  -1.14956 
 O                     2.6196    0.98395   0.60343 
 H                     3.29959   0.78603  -0.04338 
 O                     0.30101   1.35406  -0.38777 
 H                     2.11944   1.74738   0.2639 
 O                     0.6796   -0.81272   1.40809 
 H                     1.31471  -0.51231   2.05372 
 C                    -1.98763  -1.08417   0.2293 
 H                    -1.69184  -1.66899   1.09443 
 H                    -2.75712  -1.6089   -0.3359 
 C                    -2.42613   0.33278   0.59288 
 H                    -1.79799   0.71434   1.40188 
 H                    -3.45736   0.29741   0.94988 
 O                    -0.82556  -1.01945  -0.64154 
 H                    -1.10535  -0.44124  -1.36903 
 O                    -2.35353   1.16276  -0.53374 
 H                    -1.42366   1.4903   -0.55851 
 
 Add virtual bond connecting atoms H19        and O6         Dist= 3.29D+00.
 Add virtual bond connecting atoms H7         and O6         Dist= 3.73D+00.

 GradGradGradGradGradGradGradGradGradGradGradGradGradGradGradGradGradGrad
 Berny optimization.
 Initialization pass.
                           ----------------------------
                           !    Initial Parameters    !
                           ! (Angstroms and Degrees)  !
 --------------------------                            --------------------------
 ! Name  Definition              Value          Derivative Info.                !
 --------------------------------------------------------------------------------
 ! R1    R(1,2)                  1.6434         calculate D2E/DX2 analytically  !
 ! R2    R(1,6)                  1.5524         calculate D2E/DX2 analytically  !
 ! R3    R(1,8)                  1.6417         calculate D2E/DX2 analytically  !
 ! R4    R(2,3)                  0.9555         calculate D2E/DX2 analytically  !
 ! R5    R(4,5)                  0.9591         calculate D2E/DX2 analytically  !
 ! R6    R(4,7)                  0.9738         calculate D2E/DX2 analytically  !
 ! R7    R(6,7)                  1.9713         calculate D2E/DX2 analytically  !
 ! R8    R(6,19)                 1.7384         calculate D2E/DX2 analytically  !
 ! R9    R(8,9)                  0.9542         calculate D2E/DX2 analytically  !
 ! R10   R(10,11)                1.0853         calculate D2E/DX2 analytically  !
 ! R11   R(10,12)                1.0895         calculate D2E/DX2 analytically  !
 ! R12   R(10,13)                1.5272         calculate D2E/DX2 analytically  !
 ! R13   R(10,16)                1.4536         calculate D2E/DX2 analytically  !
 ! R14   R(13,14)                1.093          calculate D2E/DX2 analytically  !
 ! R15   R(13,15)                1.0919         calculate D2E/DX2 analytically  !
 ! R16   R(13,18)                1.4012         calculate D2E/DX2 analytically  !
 ! R17   R(16,17)                0.9705         calculate D2E/DX2 analytically  !
 ! R18   R(18,19)                0.9862         calculate D2E/DX2 analytically  !
 ! A1    A(2,1,6)              120.6701         calculate D2E/DX2 analytically  !
 ! A2    A(2,1,8)              112.8058         calculate D2E/DX2 analytically  !
 ! A3    A(6,1,8)              125.4748         calculate D2E/DX2 analytically  !
 ! A4    A(1,2,3)              116.4357         calculate D2E/DX2 analytically  !
 ! A5    A(5,4,7)              106.9051         calculate D2E/DX2 analytically  !
 ! A6    A(1,6,7)               79.8105         calculate D2E/DX2 analytically  !
 ! A7    A(1,6,19)             113.9817         calculate D2E/DX2 analytically  !
 ! A8    A(7,6,19)             158.7436         calculate D2E/DX2 analytically  !
 ! A9    A(4,7,6)              115.6344         calculate D2E/DX2 analytically  !
 ! A10   A(1,8,9)              114.7543         calculate D2E/DX2 analytically  !
 ! A11   A(11,10,12)           110.2734         calculate D2E/DX2 analytically  !
 ! A12   A(11,10,13)           112.8573         calculate D2E/DX2 analytically  !
 ! A13   A(11,10,16)           106.4779         calculate D2E/DX2 analytically  !
 ! A14   A(12,10,13)           111.5675         calculate D2E/DX2 analytically  !
 ! A15   A(12,10,16)           105.9792         calculate D2E/DX2 analytically  !
 ! A16   A(13,10,16)           109.3214         calculate D2E/DX2 analytically  !
 ! A17   A(10,13,14)           109.5789         calculate D2E/DX2 analytically  !
 ! A18   A(10,13,15)           108.601          calculate D2E/DX2 analytically  !
 ! A19   A(10,13,18)           110.0773         calculate D2E/DX2 analytically  !
 ! A20   A(14,13,15)           108.1852         calculate D2E/DX2 analytically  !
 ! A21   A(14,13,18)           111.0119         calculate D2E/DX2 analytically  !
 ! A22   A(15,13,18)           109.3303         calculate D2E/DX2 analytically  !
 ! A23   A(10,16,17)           104.1898         calculate D2E/DX2 analytically  !
 ! A24   A(13,18,19)           105.4131         calculate D2E/DX2 analytically  !
 ! A25   A(6,19,18)            155.0846         calculate D2E/DX2 analytically  !
 ! D1    D(6,1,2,3)           -145.8931         calculate D2E/DX2 analytically  !
 ! D2    D(8,1,2,3)             45.201          calculate D2E/DX2 analytically  !
 ! D3    D(2,1,6,7)            -80.3554         calculate D2E/DX2 analytically  !
 ! D4    D(2,1,6,19)           116.624          calculate D2E/DX2 analytically  !
 ! D5    D(8,1,6,7)             87.0642         calculate D2E/DX2 analytically  !
 ! D6    D(8,1,6,19)           -75.9563         calculate D2E/DX2 analytically  !
 ! D7    D(2,1,8,9)             92.3765         calculate D2E/DX2 analytically  !
 ! D8    D(6,1,8,9)            -75.8976         calculate D2E/DX2 analytically  !
 ! D9    D(5,4,7,6)            107.8271         calculate D2E/DX2 analytically  !
 ! D10   D(1,6,7,4)             -4.431          calculate D2E/DX2 analytically  !
 ! D11   D(19,6,7,4)           128.18           calculate D2E/DX2 analytically  !
 ! D12   D(1,6,19,18)            4.8523         calculate D2E/DX2 analytically  !
 ! D13   D(7,6,19,18)         -122.7            calculate D2E/DX2 analytically  !
 ! D14   D(11,10,13,14)         37.5111         calculate D2E/DX2 analytically  !
 ! D15   D(11,10,13,15)        -80.4714         calculate D2E/DX2 analytically  !
 ! D16   D(11,10,13,18)        159.8677         calculate D2E/DX2 analytically  !
 ! D17   D(12,10,13,14)        162.3283         calculate D2E/DX2 analytically  !
 ! D18   D(12,10,13,15)         44.3458         calculate D2E/DX2 analytically  !
 ! D19   D(12,10,13,18)        -75.3152         calculate D2E/DX2 analytically  !
 ! D20   D(16,10,13,14)        -80.7823         calculate D2E/DX2 analytically  !
 ! D21   D(16,10,13,15)        161.2352         calculate D2E/DX2 analytically  !
 ! D22   D(16,10,13,18)         41.5743         calculate D2E/DX2 analytically  !
 ! D23   D(11,10,16,17)       -176.17           calculate D2E/DX2 analytically  !
 ! D24   D(12,10,16,17)         66.4065         calculate D2E/DX2 analytically  !
 ! D25   D(13,10,16,17)        -53.9643         calculate D2E/DX2 analytically  !
 ! D26   D(10,13,18,19)        -86.2137         calculate D2E/DX2 analytically  !
 ! D27   D(14,13,18,19)         35.2925         calculate D2E/DX2 analytically  !
 ! D28   D(15,13,18,19)        154.5695         calculate D2E/DX2 analytically  !
 ! D29   D(13,18,19,6)          39.133          calculate D2E/DX2 analytically  !
 --------------------------------------------------------------------------------
 Trust Radius=3.00D-01 FncErr=1.00D-07 GrdErr=1.00D-06 EigMax=2.50D+02 EigMin=1.00D-04
 Number of steps in this run=     82 maximum allowed number of steps=    114.
 GradGradGradGradGradGradGradGradGradGradGradGradGradGradGradGradGradGrad

                          Input orientation:                          
 ---------------------------------------------------------------------
 Center     Atomic      Atomic             Coordinates (Angstroms)
 Number     Number       Type             X           Y           Z
 ---------------------------------------------------------------------
      1         14           0        0.790920   -0.081514   -0.057610
      2          8           0        1.756912   -0.899426   -1.105794
      3          1           0        1.631899   -1.845652   -1.149561
      4          8           0        2.619597    0.983950    0.603425
      5          1           0        3.299588    0.786034   -0.043379
      6          8           0        0.301014    1.354058   -0.387767
      7          1           0        2.119435    1.747382    0.263895
      8          8           0        0.679604   -0.812717    1.408087
      9          1           0        1.314710   -0.512308    2.053716
     10          6           0       -1.987634   -1.084165    0.229303
     11          1           0       -1.691835   -1.668985    1.094431
     12          1           0       -2.757121   -1.608898   -0.335897
     13          6           0       -2.426129    0.332782    0.592878
     14          1           0       -1.797987    0.714343    1.401881
     15          1           0       -3.457364    0.297412    0.949876
     16          8           0       -0.825559   -1.019453   -0.641541
     17          1           0       -1.105348   -0.441244   -1.369034
     18          8           0       -2.353528    1.162761   -0.533740
     19          1           0       -1.423658    1.490301   -0.558507
 ---------------------------------------------------------------------
                    Distance matrix (angstroms):
                    1          2          3          4          5
     1  Si   0.000000
     2  O    1.643414   0.000000
     3  H    2.238702   0.955451   0.000000
     4  O    2.217260   2.685658   3.472053   0.000000
     5  H    2.654479   2.519792   3.306145   0.959121   0.000000
     6  O    1.552378   2.777299   3.548201   2.548582   3.071270
     7  H    2.283239   3.002176   3.891715   0.973792   1.552858
     8  O    1.641742   2.736368   2.918113   2.763886   3.395155
     9  H    2.217575   3.213706   3.484164   2.458630   3.165950
    10  C    2.967826   3.979728   3.947423   5.063955   5.614866
    11  H    3.164069   4.162579   4.014215   5.086020   5.677679
    12  H    3.872847   4.633852   4.470078   6.042705   6.519585
    13  C    3.308199   4.679920   4.924354   5.087581   5.778762
    14  H    3.076677   4.640042   4.982725   4.497251   5.298980
    15  H    4.382526   5.731219   5.907703   6.125424   6.847022
    16  O    1.957986   2.626613   2.641929   4.175244   4.542512
    17  H    2.333468   2.910629   3.084323   4.449381   4.760991
    18  O    3.415036   4.634175   5.031244   5.104615   5.686835
    19  H    2.761495   4.015762   4.562275   4.237262   4.803166
                    6          7          8          9         10
     6  O    0.000000
     7  H    1.971300   0.000000
     8  O    2.839601   3.152205   0.000000
     9  H    3.236007   2.992865   0.954171   0.000000
    10  C    3.400532   4.988674   2.928715   3.815885   0.000000
    11  H    3.912435   5.185280   2.540728   3.361167   1.085338
    12  H    4.258402   5.950224   3.935284   4.846913   1.089452
    13  C    3.072780   4.771947   3.409151   4.103913   1.527155
    14  H    2.831586   4.208132   2.910397   3.408584   2.155351
    15  H    4.126887   5.802902   4.307766   4.964554   2.141982
    16  O    2.639531   4.141036   2.551319   3.478844   1.453608
    17  H    2.482710   4.225608   3.322115   4.192487   1.935577
    18  O    2.665426   4.580983   4.107687   4.791321   2.400998
    19  H    1.738450   3.646360   3.687153   4.281683   2.750743
                   11         12         13         14         15
    11  H    0.000000
    12  H    1.784456   0.000000
    13  C    2.190391   2.177682   0.000000
    14  H    2.405420   3.055693   1.092995   0.000000
    15  H    2.646641   2.403658   1.091854   1.769653   0.000000
    16  O    2.045953   2.042497   2.431903   2.850831   3.345615
    17  H    2.814245   2.271374   2.488509   3.081087   3.384514
    18  O    3.332801   2.807868   1.401215   2.063088   2.041666
    19  H    3.575641   3.381230   1.915851   2.141344   2.798958
                   16         17         18         19
    16  O    0.000000
    17  H    0.970491   0.000000
    18  O    2.666152   2.197385   0.000000
    19  H    2.581372   2.118759   0.986182   0.000000
 Stoichiometry    C2H10O6Si
 Framework group  C1[X(C2H10O6Si)]
 Deg. of freedom    51
 Full point group                 C1      NOp   1
 Largest Abelian subgroup         C1      NOp   1
 Largest concise Abelian subgroup C1      NOp   1
                         Standard orientation:                         
 ---------------------------------------------------------------------
 Center     Atomic      Atomic             Coordinates (Angstroms)
 Number     Number       Type             X           Y           Z
 ---------------------------------------------------------------------
      1         14           0        0.809463   -0.099144   -0.081525
      2          8           0        1.737013   -0.965445   -1.125548
      3          1           0        1.585436   -1.908547   -1.147222
      4          8           0        2.676286    0.928823    0.530434
      5          1           0        3.340938    0.698532   -0.121577
      6          8           0        0.354318    1.342206   -0.435407
      7          1           0        2.192300    1.698528    0.181748
      8          8           0        0.699825   -0.795955    1.400956
      9          1           0        1.352427   -0.499767    2.030897
     10          6           0       -1.991018   -1.018008    0.266307
     11          1           0       -1.698611   -1.592471    1.139490
     12          1           0       -2.782903   -1.532960   -0.276508
     13          6           0       -2.385018    0.417906    0.605596
     14          1           0       -1.734730    0.798830    1.397215
     15          1           0       -3.411437    0.418703    0.977896
     16          8           0       -0.840624   -1.003931   -0.622158
     17          1           0       -1.115173   -0.433622   -1.357837
     18          8           0       -2.306345    1.221646   -0.539487
     19          1           0       -1.368302    1.522651   -0.584493
 ---------------------------------------------------------------------
 Rotational constants (GHZ):           2.2419229           0.9363104           0.8561096
 Standard basis: def2TZVPP (5D, 7F)
 There are   486 symmetry adapted cartesian basis functions of A   symmetry.
 There are   430 symmetry adapted basis functions of A   symmetry.
   430 basis functions,   647 primitive gaussians,   486 cartesian basis functions
    42 alpha electrons       42 beta electrons
       nuclear repulsion energy       664.6780039603 Hartrees.
 NAtoms=   19 NActive=   19 NUniq=   19 SFac= 1.00D+00 NAtFMM=   60 NAOKFM=F Big=F
 Integral buffers will be    131072 words long.
 Raffenetti 2 integral format.
 Two-electron integral symmetry is turned on.
 Nuclear repulsion after empirical dispersion term =      664.6677011372 Hartrees.
 One-electron integrals computed using PRISM.
   1 Symmetry operations used in ECPInt.
 ECPInt:  NShTT=   13203 NPrTT=   36019 LenC2=   12639 LenP2D=   27147.
 LDataN:  DoStor=T MaxTD1= 6 Len=  172
 NBasis=   430 RedAO= T EigKep=  2.08D-04  NBF=   430
 NBsUse=   430 1.00D-06 EigRej= -1.00D+00 NBFU=   430
 ExpMin= 7.01D-02 ExpMax= 4.48D+04 ExpMxC= 1.53D+03 IAcc=3 IRadAn=         5 AccDes= 0.00D+00
 Harris functional with IExCor= 4639 and IRadAn=       5 diagonalized for initial guess.
 HarFok:  IExCor= 4639 AccDes= 0.00D+00 IRadAn=         5 IDoV= 1 UseB2=F ITyADJ=14
 ICtDFT=  3500011 ScaDFX=  1.000000  1.000000  1.000000  1.000000
 FoFCou: FMM=F IPFlag=           0 FMFlag=      100000 FMFlg1=           0
         NFxFlg=           0 DoJE=T BraDBF=F KetDBF=T FulRan=T
         wScrn=  0.000000 ICntrl=       500 IOpCl=  0 I1Cent=   200000004 NGrid=           0
         NMat0=    1 NMatS0=      1 NMatT0=    0 NMatD0=    1 NMtDS0=    0 NMtDT0=    0
 Petite list used in FoFCou.
 Requested convergence on RMS density matrix=1.00D-08 within 128 cycles.
 Requested convergence on MAX density matrix=1.00D-06.
 Requested convergence on             energy=1.00D-06.
 No special actions if energy rises.
 Integral accuracy reduced to 1.0D-05 until final iterations.
 Initial convergence to 1.0D-05 achieved.  Increase integral accuracy.
 SCF Done:  E(RwB97XD) =  -823.310423257     A.U. after   13 cycles
            NFock= 13  Conv=0.98D-08     -V/T= 2.0034
 DoSCS=F DFT=T ScalE2(SS,OS)=  1.000000  1.000000
 Range of M.O.s used for correlation:     1   430
 NBasis=   430 NAE=    42 NBE=    42 NFC=     0 NFV=     0
 NROrb=    430 NOA=    42 NOB=    42 NVA=   388 NVB=   388

 **** Warning!!: The largest alpha MO coefficient is  0.12076233D+02

   1 Symmetry operations used in ECPInt.
 ECPInt:  NShTT=   13203 NPrTT=   36019 LenC2=   12639 LenP2D=   27147.
 LDataN:  DoStor=T MaxTD1= 7 Len=  274
 Symmetrizing basis deriv contribution to polar:
 IMax=3 JMax=2 DiffMx= 0.00D+00
 G2DrvN: will do    20 centers at a time, making    1 passes.
 Calling FoFCou, ICntrl=  3107 FMM=F I1Cent=   0 AccDes= 0.00D+00.
 End of G2Drv F.D. properties file   721 does not exist.
 End of G2Drv F.D. properties file   722 does not exist.
 End of G2Drv F.D. properties file   788 does not exist.
          IDoAtm=1111111111111111111
          Differentiating once with respect to nuclear coordinates.
 CalDSu exits because no D1Ps are significant.
          There are    60 degrees of freedom in the 1st order CPHF.  IDoFFX=6 NUNeed=     0.
     54 vectors produced by pass  0 Test12= 2.72D-14 1.67D-09 XBig12= 8.93D-02 5.18D-02.
 AX will form    54 AO Fock derivatives at one time.
     54 vectors produced by pass  1 Test12= 2.72D-14 1.67D-09 XBig12= 2.91D-02 3.23D-02.
     54 vectors produced by pass  2 Test12= 2.72D-14 1.67D-09 XBig12= 1.29D-03 5.02D-03.
     54 vectors produced by pass  3 Test12= 2.72D-14 1.67D-09 XBig12= 1.58D-05 6.07D-04.
     54 vectors produced by pass  4 Test12= 2.72D-14 1.67D-09 XBig12= 1.37D-07 4.37D-05.
     54 vectors produced by pass  5 Test12= 2.72D-14 1.67D-09 XBig12= 1.07D-09 3.29D-06.
     54 vectors produced by pass  6 Test12= 2.72D-14 1.67D-09 XBig12= 7.63D-12 2.71D-07.
     18 vectors produced by pass  7 Test12= 2.72D-14 1.67D-09 XBig12= 4.58D-14 2.06D-08.
      1 vectors produced by pass  8 Test12= 2.72D-14 1.67D-09 XBig12= 3.30D-16 2.02D-09.
 InvSVY:  IOpt=1 It=  1 EMax= 2.22D-16
 Solved reduced A of dimension   397 with    60 vectors.
 End of Minotr F.D. properties file   721 does not exist.
 End of Minotr F.D. properties file   722 does not exist.
 End of Minotr F.D. properties file   788 does not exist.

 **********************************************************************

            Population analysis using the SCF Density.

 **********************************************************************

 Orbital symmetries:
       Occupied  (A) (A) (A) (A) (A) (A) (A) (A) (A) (A) (A) (A)
                 (A) (A) (A) (A) (A) (A) (A) (A) (A) (A) (A) (A)
                 (A) (A) (A) (A) (A) (A) (A) (A) (A) (A) (A) (A)
                 (A) (A) (A) (A) (A) (A)
       Virtual   (A) (A) (A) (A) (A) (A) (A) (A) (A) (A) (A) (A)
                 (A) (A) (A) (A) (A) (A) (A) (A) (A) (A) (A) (A)
                 (A) (A) (A) (A) (A) (A) (A) (A) (A) (A) (A) (A)
                 (A) (A) (A) (A) (A) (A) (A) (A) (A) (A) (A) (A)
                 (A) (A) (A) (A) (A) (A) (A) (A) (A) (A) (A) (A)
                 (A) (A) (A) (A) (A) (A) (A) (A) (A) (A) (A) (A)
                 (A) (A) (A) (A) (A) (A) (A) (A) (A) (A) (A) (A)
                 (A) (A) (A) (A) (A) (A) (A) (A) (A) (A) (A) (A)
                 (A) (A) (A) (A) (A) (A) (A) (A) (A) (A) (A) (A)
                 (A) (A) (A) (A) (A) (A) (A) (A) (A) (A) (A) (A)
                 (A) (A) (A) (A) (A) (A) (A) (A) (A) (A) (A) (A)
                 (A) (A) (A) (A) (A) (A) (A) (A) (A) (A) (A) (A)
                 (A) (A) (A) (A) (A) (A) (A) (A) (A) (A) (A) (A)
                 (A) (A) (A) (A) (A) (A) (A) (A) (A) (A) (A) (A)
                 (A) (A) (A) (A) (A) (A) (A) (A) (A) (A) (A) (A)
                 (A) (A) (A) (A) (A) (A) (A) (A) (A) (A) (A) (A)
                 (A) (A) (A) (A) (A) (A) (A) (A) (A) (A) (A) (A)
                 (A) (A) (A) (A) (A) (A) (A) (A) (A) (A) (A) (A)
                 (A) (A) (A) (A) (A) (A) (A) (A) (A) (A) (A) (A)
                 (A) (A) (A) (A) (A) (A) (A) (A) (A) (A) (A) (A)
                 (A) (A) (A) (A) (A) (A) (A) (A) (A) (A) (A) (A)
                 (A) (A) (A) (A) (A) (A) (A) (A) (A) (A) (A) (A)
                 (A) (A) (A) (A) (A) (A) (A) (A) (A) (A) (A) (A)
                 (A) (A) (A) (A) (A) (A) (A) (A) (A) (A) (A) (A)
                 (A) (A) (A) (A) (A) (A) (A) (A) (A) (A) (A) (A)
                 (A) (A) (A) (A) (A) (A) (A) (A) (A) (A) (A) (A)
                 (A) (A) (A) (A) (A) (A) (A) (A) (A) (A) (A) (A)
                 (A) (A) (A) (A) (A) (A) (A) (A) (A) (A) (A) (A)
                 (A) (A) (A) (A) (A) (A) (A) (A) (A) (A) (A) (A)
                 (A) (A) (A) (A) (A) (A) (A) (A) (A) (A) (A) (A)
                 (A) (A) (A) (A) (A) (A) (A) (A) (A) (A) (A) (A)
                 (A) (A) (A) (A) (A) (A) (A) (A) (A) (A) (A) (A)
                 (A) (A) (A) (A)
 The electronic state is 1-A.
 Alpha  occ. eigenvalues --  -66.30047 -19.32909 -19.28800 -19.25065 -19.24931
 Alpha  occ. eigenvalues --  -19.22937 -19.15993 -10.35512 -10.32985  -5.41672
 Alpha  occ. eigenvalues --   -3.76539  -3.76098  -3.75813  -1.20267  -1.15760
 Alpha  occ. eigenvalues --   -1.11656  -1.10969  -1.09990  -0.98628  -0.85621
 Alpha  occ. eigenvalues --   -0.73500  -0.68057  -0.66105  -0.63713  -0.61254
 Alpha  occ. eigenvalues --   -0.60360  -0.58990  -0.55544  -0.54183  -0.50664
 Alpha  occ. eigenvalues --   -0.50087  -0.48888  -0.47040  -0.46138  -0.44637
 Alpha  occ. eigenvalues --   -0.43959  -0.41445  -0.41183  -0.39734  -0.36323
 Alpha  occ. eigenvalues --   -0.34790  -0.33804
 Alpha virt. eigenvalues --    0.08010   0.11746   0.12974   0.13733   0.14368
 Alpha virt. eigenvalues --    0.16383   0.17758   0.18330   0.19206   0.20346
 Alpha virt. eigenvalues --    0.22275   0.22914   0.24730   0.24980   0.27177
 Alpha virt. eigenvalues --    0.27704   0.28637   0.30647   0.31733   0.32131
 Alpha virt. eigenvalues --    0.33467   0.34949   0.35765   0.38093   0.40741
 Alpha virt. eigenvalues --    0.41288   0.41988   0.43262   0.43461   0.44241
 Alpha virt. eigenvalues --    0.45728   0.45833   0.46372   0.47356   0.48234
 Alpha virt. eigenvalues --    0.50166   0.51436   0.52987   0.53677   0.54503
 Alpha virt. eigenvalues --    0.55057   0.56043   0.57014   0.58585   0.59865
 Alpha virt. eigenvalues --    0.60025   0.60633   0.62054   0.62847   0.63282
 Alpha virt. eigenvalues --    0.65194   0.67178   0.67532   0.68417   0.69720
 Alpha virt. eigenvalues --    0.70979   0.73230   0.74549   0.75330   0.77066
 Alpha virt. eigenvalues --    0.79121   0.79820   0.81524   0.84044   0.86284
 Alpha virt. eigenvalues --    0.86715   0.88518   0.88987   0.92280   0.93133
 Alpha virt. eigenvalues --    0.93592   0.94075   0.95946   0.96858   0.98523
 Alpha virt. eigenvalues --    1.01941   1.03208   1.04182   1.04888   1.06881
 Alpha virt. eigenvalues --    1.07487   1.09114   1.09947   1.11898   1.12985
 Alpha virt. eigenvalues --    1.14520   1.14913   1.16605   1.18277   1.18916
 Alpha virt. eigenvalues --    1.21812   1.22612   1.23986   1.25868   1.27442
 Alpha virt. eigenvalues --    1.28974   1.30633   1.31317   1.33618   1.34119
 Alpha virt. eigenvalues --    1.35558   1.35957   1.37808   1.38675   1.40368
 Alpha virt. eigenvalues --    1.42126   1.42930   1.44109   1.46520   1.47187
 Alpha virt. eigenvalues --    1.48731   1.50771   1.52394   1.53951   1.57756
 Alpha virt. eigenvalues --    1.58572   1.59703   1.61582   1.63704   1.66513
 Alpha virt. eigenvalues --    1.67584   1.68460   1.76311   1.77563   1.80894
 Alpha virt. eigenvalues --    1.82595   1.84186   1.84778   1.86123   1.88675
 Alpha virt. eigenvalues --    1.92408   1.92748   1.96454   1.97753   1.98923
 Alpha virt. eigenvalues --    1.99600   2.01738   2.03602   2.05000   2.05900
 Alpha virt. eigenvalues --    2.07023   2.09831   2.10068   2.12555   2.14352
 Alpha virt. eigenvalues --    2.16564   2.17586   2.21584   2.22363   2.24691
 Alpha virt. eigenvalues --    2.26144   2.29272   2.30456   2.33366   2.38581
 Alpha virt. eigenvalues --    2.39961   2.41912   2.42633   2.46118   2.50114
 Alpha virt. eigenvalues --    2.51534   2.57163   2.58949   2.60943   2.62122
 Alpha virt. eigenvalues --    2.66157   2.67085   2.72720   2.73767   2.77162
 Alpha virt. eigenvalues --    2.77516   2.78922   2.83322   2.84448   2.87161
 Alpha virt. eigenvalues --    2.89991   2.93172   2.95127   2.97728   2.98955
 Alpha virt. eigenvalues --    3.01441   3.02502   3.05531   3.08576   3.09436
 Alpha virt. eigenvalues --    3.10507   3.11484   3.12504   3.15173   3.17342
 Alpha virt. eigenvalues --    3.18600   3.20785   3.22220   3.23432   3.24656
 Alpha virt. eigenvalues --    3.26877   3.28778   3.30112   3.32905   3.34282
 Alpha virt. eigenvalues --    3.35371   3.37152   3.38916   3.39208   3.40478
 Alpha virt. eigenvalues --    3.41342   3.43123   3.44000   3.46112   3.47430
 Alpha virt. eigenvalues --    3.48401   3.49471   3.49977   3.50739   3.53450
 Alpha virt. eigenvalues --    3.57086   3.59679   3.60343   3.62363   3.63345
 Alpha virt. eigenvalues --    3.64005   3.64871   3.69548   3.71088   3.72400
 Alpha virt. eigenvalues --    3.74098   3.74826   3.76074   3.79395   3.81773
 Alpha virt. eigenvalues --    3.83000   3.85671   3.86452   3.89133   3.91194
 Alpha virt. eigenvalues --    3.93622   3.94143   3.95637   4.00367   4.00872
 Alpha virt. eigenvalues --    4.02046   4.02963   4.05383   4.07051   4.08063
 Alpha virt. eigenvalues --    4.10751   4.11050   4.11862   4.13448   4.15278
 Alpha virt. eigenvalues --    4.16474   4.18208   4.19464   4.20290   4.21669
 Alpha virt. eigenvalues --    4.23236   4.23861   4.24515   4.26656   4.30222
 Alpha virt. eigenvalues --    4.31211   4.33233   4.35266   4.36122   4.37046
 Alpha virt. eigenvalues --    4.40056   4.43408   4.43569   4.47789   4.49033
 Alpha virt. eigenvalues --    4.54681   4.60517   4.64174   4.68616   4.71346
 Alpha virt. eigenvalues --    4.72408   4.73511   4.74873   4.75794   4.80427
 Alpha virt. eigenvalues --    4.84507   4.87135   4.90037   4.90595   4.92556
 Alpha virt. eigenvalues --    4.97883   4.98641   5.02793   5.05026   5.06959
 Alpha virt. eigenvalues --    5.08363   5.09299   5.12455   5.14081   5.16262
 Alpha virt. eigenvalues --    5.20295   5.24678   5.26532   5.35557   5.37663
 Alpha virt. eigenvalues --    5.38097   5.38889   5.39345   5.41777   5.43080
 Alpha virt. eigenvalues --    5.44851   5.45933   5.47489   5.50100   5.54795
 Alpha virt. eigenvalues --    5.56517   5.58768   5.60547   5.62540   5.65128
 Alpha virt. eigenvalues --    5.66564   5.66983   5.72094   5.72936   5.77400
 Alpha virt. eigenvalues --    5.80743   5.82400   5.87070   5.90094   5.94791
 Alpha virt. eigenvalues --    6.05712   6.15178   6.16622   6.20077   6.46147
 Alpha virt. eigenvalues --    6.49954   6.51209   6.52776   6.54027   6.55884
 Alpha virt. eigenvalues --    6.59889   6.60533   6.61146   6.64942   6.65784
 Alpha virt. eigenvalues --    6.68785   6.68954   6.71352   6.71832   6.73260
 Alpha virt. eigenvalues --    6.73688   6.75871   6.77953   6.80462   6.80714
 Alpha virt. eigenvalues --    6.82198   6.84221   6.85784   6.87297   6.88717
 Alpha virt. eigenvalues --    6.91494   6.93382   6.98905   7.01995   7.03966
 Alpha virt. eigenvalues --    7.09005   7.12637   7.15556   7.17819   7.20829
 Alpha virt. eigenvalues --    7.23190   7.32630   7.34842   7.39178   7.44744
 Alpha virt. eigenvalues --    7.45607   7.49728   7.53469   7.55685   7.66258
 Alpha virt. eigenvalues --    7.67559   7.68614   7.80424   7.83738  12.87477
 Alpha virt. eigenvalues --   23.40506  23.48525  43.82594  43.90482  43.93770
 Alpha virt. eigenvalues --   44.07386  44.16268  44.24637
          Condensed to atoms (all electrons):
               1          2          3          4          5          6
     1  Si  11.485669   0.437732  -0.017202   0.125558  -0.005207   0.605448
     2  O    0.437732   7.740070   0.330259  -0.030647   0.005285  -0.019984
     3  H   -0.017202   0.330259   0.500593   0.001504  -0.000284   0.000694
     4  O    0.125558  -0.030647   0.001504   7.663563   0.321555  -0.059083
     5  H   -0.005207   0.005285  -0.000284   0.321555   0.485417   0.002192
     6  O    0.605448  -0.019984   0.000694  -0.059083   0.002192   8.158457
     7  H   -0.007349   0.000630   0.000004   0.306134  -0.013634   0.037571
     8  O    0.410806  -0.028687  -0.001723  -0.019520   0.000760  -0.024864
     9  H   -0.018739   0.000195   0.000001   0.002615  -0.000394  -0.000540
    10  C   -0.010343   0.001855   0.000021   0.000084  -0.000005  -0.005298
    11  H   -0.009827   0.000208  -0.000013   0.000023  -0.000004   0.000065
    12  H    0.002104  -0.000144  -0.000033   0.000002  -0.000000  -0.000151
    13  C    0.005279  -0.000700   0.000000  -0.000085   0.000005   0.008042
    14  H   -0.005468  -0.000047  -0.000008   0.000132  -0.000008   0.000180
    15  H    0.000778   0.000000  -0.000000  -0.000002   0.000000   0.000103
    16  O    0.221335  -0.024564   0.001730   0.000110   0.000040  -0.027672
    17  H   -0.017794   0.000885  -0.000010   0.000104  -0.000043   0.005782
    18  O   -0.006950  -0.000005   0.000031  -0.000040   0.000005  -0.041554
    19  H   -0.003372   0.000057  -0.000036   0.000159  -0.000035   0.068734
               7          8          9         10         11         12
     1  Si  -0.007349   0.410806  -0.018739  -0.010343  -0.009827   0.002104
     2  O    0.000630  -0.028687   0.000195   0.001855   0.000208  -0.000144
     3  H    0.000004  -0.001723   0.000001   0.000021  -0.000013  -0.000033
     4  O    0.306134  -0.019520   0.002615   0.000084   0.000023   0.000002
     5  H   -0.013634   0.000760  -0.000394  -0.000005  -0.000004  -0.000000
     6  O    0.037571  -0.024864  -0.000540  -0.005298   0.000065  -0.000151
     7  H    0.439199   0.000610  -0.000266   0.000014  -0.000002   0.000001
     8  O    0.000610   7.726078   0.347271   0.007424   0.007376   0.000721
     9  H   -0.000266   0.347271   0.486748  -0.001274  -0.000136   0.000004
    10  C    0.000014   0.007424  -0.001274   4.955552   0.408755   0.412170
    11  H   -0.000002   0.007376  -0.000136   0.408755   0.538878  -0.018471
    12  H    0.000001   0.000721   0.000004   0.412170  -0.018471   0.554249
    13  C   -0.000032  -0.018086   0.000890   0.261270  -0.020063  -0.029497
    14  H    0.000026   0.007147  -0.000169  -0.059106  -0.001996   0.007555
    15  H    0.000002  -0.000113  -0.000003  -0.042584   0.004484  -0.009454
    16  O    0.000293  -0.023895   0.001629   0.190788  -0.022805  -0.029633
    17  H   -0.000160   0.001203  -0.000064  -0.035480   0.008245  -0.004356
    18  O    0.000102   0.000342   0.000021  -0.071274   0.004776   0.003984
    19  H    0.000083   0.000118  -0.000054   0.003646  -0.000683  -0.000642
              13         14         15         16         17         18
     1  Si   0.005279  -0.005468   0.000778   0.221335  -0.017794  -0.006950
     2  O   -0.000700  -0.000047   0.000000  -0.024564   0.000885  -0.000005
     3  H    0.000000  -0.000008  -0.000000   0.001730  -0.000010   0.000031
     4  O   -0.000085   0.000132  -0.000002   0.000110   0.000104  -0.000040
     5  H    0.000005  -0.000008   0.000000   0.000040  -0.000043   0.000005
     6  O    0.008042   0.000180   0.000103  -0.027672   0.005782  -0.041554
     7  H   -0.000032   0.000026   0.000002   0.000293  -0.000160   0.000102
     8  O   -0.018086   0.007147  -0.000113  -0.023895   0.001203   0.000342
     9  H    0.000890  -0.000169  -0.000003   0.001629  -0.000064   0.000021
    10  C    0.261270  -0.059106  -0.042584   0.190788  -0.035480  -0.071274
    11  H   -0.020063  -0.001996   0.004484  -0.022805   0.008245   0.004776
    12  H   -0.029497   0.007555  -0.009454  -0.029633  -0.004356   0.003984
    13  C    4.689475   0.439485   0.424831  -0.033906  -0.009253   0.267572
    14  H    0.439485   0.603316  -0.029568   0.000110   0.002928  -0.040808
    15  H    0.424831  -0.029568   0.594056   0.003593   0.000709  -0.027949
    16  O   -0.033906   0.000110   0.003593   7.646791   0.315191  -0.008961
    17  H   -0.009253   0.002928   0.000709   0.315191   0.492215   0.042175
    18  O    0.267572  -0.040808  -0.027949  -0.008961   0.042175   7.976695
    19  H   -0.034354  -0.011570   0.004425   0.000745  -0.002377   0.332166
              19
     1  Si  -0.003372
     2  O    0.000057
     3  H   -0.000036
     4  O    0.000159
     5  H   -0.000035
     6  O    0.068734
     7  H    0.000083
     8  O    0.000118
     9  H   -0.000054
    10  C    0.003646
    11  H   -0.000683
    12  H   -0.000642
    13  C   -0.034354
    14  H   -0.011570
    15  H    0.004425
    16  O    0.000745
    17  H   -0.002377
    18  O    0.332166
    19  H    0.401844
 Mulliken charges:
               1
     1  Si   0.807543
     2  O   -0.412398
     3  H    0.184469
     4  O   -0.312165
     5  H    0.204356
     6  O   -0.708122
     7  H    0.236776
     8  O   -0.392971
     9  H    0.182265
    10  C   -0.016217
    11  H    0.101188
    12  H    0.111589
    13  C    0.049127
    14  H    0.087867
    15  H    0.076690
    16  O   -0.210919
    17  H    0.200103
    18  O   -0.430327
    19  H    0.241146
 Sum of Mulliken charges =  -0.00000
 Mulliken charges with hydrogens summed into heavy atoms:
               1
     1  Si   0.807543
     2  O   -0.227929
     4  O    0.128966
     6  O   -0.708122
     8  O   -0.210705
    10  C    0.196560
    13  C    0.213685
    16  O   -0.010816
    18  O   -0.189181
 APT charges:
               1
     1  Si   0.458524
     2  O   -0.625656
     3  H    0.555594
     4  O   -0.606016
     5  H    0.581476
     6  O   -0.694179
     7  H    0.222413
     8  O   -0.751985
     9  H    0.617225
    10  C   -0.671408
    11  H    0.299449
    12  H    0.586444
    13  C   -0.658343
    14  H    0.145069
    15  H    0.656474
    16  O   -0.346594
    17  H    0.395758
    18  O   -0.284393
    19  H    0.120149
 Sum of APT charges =  -0.00000
 APT charges with hydrogens summed into heavy atoms:
               1
     1  Si   0.458524
     2  O   -0.070061
     4  O    0.197873
     6  O   -0.694179
     8  O   -0.134759
    10  C    0.214484
    13  C    0.143200
    16  O    0.049164
    18  O   -0.164245
 Electronic spatial extent (au):  <R**2>=           1473.7284
 Charge=             -0.0000 electrons
 Dipole moment (field-independent basis, Debye):
    X=              1.1034    Y=             -3.4104    Z=              1.1823  Tot=              3.7745
 Quadrupole moment (field-independent basis, Debye-Ang):
   XX=            -52.2432   YY=            -61.2555   ZZ=            -58.9665
   XY=              6.3013   XZ=             -1.9590   YZ=              3.4230
 Traceless Quadrupole moment (field-independent basis, Debye-Ang):
   XX=              5.2452   YY=             -3.7671   ZZ=             -1.4781
   XY=              6.3013   XZ=             -1.9590   YZ=              3.4230
 Octapole moment (field-independent basis, Debye-Ang**2):
  XXX=             38.1233  YYY=            -12.4798  ZZZ=              4.7681  XYY=             15.6178
  XXY=             -9.5713  XXZ=              5.4293  XZZ=              1.9409  YZZ=             -3.2913
  YYZ=             -3.1714  XYZ=             -5.5314
 Hexadecapole moment (field-independent basis, Debye-Ang**3):
 XXXX=          -1022.5358 YYYY=           -358.5581 ZZZZ=           -238.9041 XXXY=             61.7354
 XXXZ=            -44.4598 YYYX=              2.0483 YYYZ=             18.3475 ZZZX=             30.9354
 ZZZY=              2.7654 XXYY=           -243.6001 XXZZ=           -234.3293 YYZZ=           -105.9414
 XXYZ=             -1.3754 YYXZ=            -12.4301 ZZXY=             -2.7122
 N-N= 6.646677011372D+02 E-N=-3.278714491378D+03  KE= 8.205041817004D+02
  Exact polarizability:       0.000       0.000       0.000       0.000       0.000       0.000
 Approx polarizability:      79.219       0.452      75.241      -0.735      -1.722      73.803
   1 Symmetry operations used in ECPInt.
 ECPInt:  NShTT=   13203 NPrTT=   36019 LenC2=   12639 LenP2D=   27147.
 LDataN:  DoStor=T MaxTD1= 8 Len=  415
 Calling FoFJK, ICntrl=    100127 FMM=F ISym2X=0 I1Cent= 0 IOpClX= 0 NMat=1 NMatS=1 NMatT=0.
 ***** Axes restored to original set *****
 -------------------------------------------------------------------
 Center     Atomic                   Forces (Hartrees/Bohr)
 Number     Number              X              Y              Z
 -------------------------------------------------------------------
      1       14          -0.001049226   -0.000599476   -0.000582619
      2        8          -0.000718177   -0.001135775   -0.000785179
      3        1           0.000431512    0.001426485    0.000348907
      4        8           0.001002673    0.000929035    0.000994119
      5        1           0.000050360    0.000041502   -0.000003411
      6        8           0.000301635   -0.000033910   -0.000135121
      7        1           0.000245923   -0.000315465    0.000213519
      8        8           0.000251678   -0.000108942   -0.000278195
      9        1           0.000033123    0.000036339   -0.000022520
     10        6          -0.000173872    0.000040611    0.000209502
     11        1          -0.000024651    0.000008196    0.000015978
     12        1          -0.000007348   -0.000004126    0.000027549
     13        6          -0.000107113    0.000113479   -0.000026885
     14        1           0.000026584    0.000029599   -0.000023890
     15        1          -0.000016807    0.000017490   -0.000002482
     16        8          -0.000166130   -0.000245375    0.000321846
     17        1          -0.000013897   -0.000070007   -0.000007992
     18        8          -0.000078661   -0.000141557   -0.000254813
     19        1           0.000012395    0.000011897   -0.000008313
 -------------------------------------------------------------------
 Cartesian Forces:  Max     0.001426485 RMS     0.000424898
 FormGI is forming the generalized inverse of G from B-inverse, IUseBI=4.

 GradGradGradGradGradGradGradGradGradGradGradGradGradGradGradGradGradGrad
 Berny optimization.
 Internal  Forces:  Max     0.003293005 RMS     0.000972582
 Search for a local minimum.
 Step number   1 out of a maximum of   82
 All quantities printed in internal units (Hartrees-Bohrs-Radians)
 Mixed Optimization -- En-DIIS/RFO-DIIS
 Second derivative matrix not updated -- analytic derivatives used.
 ITU=  0
     Eigenvalues ---   -0.00115   0.00124   0.00203   0.00337   0.00354
     Eigenvalues ---    0.00442   0.00804   0.00992   0.01531   0.01781
     Eigenvalues ---    0.02252   0.02782   0.04434   0.04863   0.04947
     Eigenvalues ---    0.05822   0.07630   0.08072   0.08179   0.09221
     Eigenvalues ---    0.09726   0.10323   0.12414   0.12632   0.14558
     Eigenvalues ---    0.14890   0.15470   0.17757   0.18020   0.23494
     Eigenvalues ---    0.24257   0.25169   0.28589   0.32394   0.32601
     Eigenvalues ---    0.33502   0.33750   0.35243   0.35744   0.36656
     Eigenvalues ---    0.39713   0.44622   0.49427   0.49871   0.55229
     Eigenvalues ---    0.56175   0.56443   0.57745   0.79731   2.30059
     Eigenvalues ---    3.66009
 RFO step:  Lambda=-2.33072499D-03 EMin=-1.14708403D-03
 Linear search not attempted -- first point.
 Maximum step size (   0.300) exceeded in Quadratic search.
    -- Step size scaled by   0.957
 Iteration  1 RMS(Cart)=  0.13279861 RMS(Int)=  0.06665121
 Iteration  2 RMS(Cart)=  0.04644813 RMS(Int)=  0.03249226
 Iteration  3 RMS(Cart)=  0.03647839 RMS(Int)=  0.00367406
 Iteration  4 RMS(Cart)=  0.00319878 RMS(Int)=  0.00157003
 Iteration  5 RMS(Cart)=  0.00002116 RMS(Int)=  0.00156997
 Iteration  6 RMS(Cart)=  0.00000000 RMS(Int)=  0.00156997
 Variable       Old X    -DE/DX   Delta X   Delta X   Delta X     New X
                                 (Linear)    (Quad)   (Total)
    R1        3.10560  -0.00003   0.00000  -0.02665  -0.02665   3.07895
    R2        2.93357  -0.00026   0.00000  -0.01537  -0.01537   2.91820
    R3        3.10244  -0.00026   0.00000  -0.01136  -0.01136   3.09108
    R4        1.80554  -0.00149   0.00000  -0.00038  -0.00038   1.80516
    R5        1.81248   0.00003   0.00000  -0.00507  -0.00507   1.80741
    R6        1.84020   0.00012   0.00000  -0.00224  -0.00224   1.83796
    R7        3.72522   0.00172   0.00000  -0.08126  -0.08126   3.64396
    R8        3.28519   0.00050   0.00000   0.03371   0.03371   3.31890
    R9        1.80312   0.00002   0.00000   0.00384   0.00384   1.80696
   R10        2.05099   0.00000   0.00000  -0.00041  -0.00041   2.05058
   R11        2.05877  -0.00001   0.00000  -0.00155  -0.00155   2.05722
   R12        2.88591   0.00001   0.00000   0.00024   0.00024   2.88615
   R13        2.74692  -0.00035   0.00000   0.01205   0.01205   2.75897
   R14        2.06546   0.00001   0.00000  -0.00012  -0.00012   2.06534
   R15        2.06330   0.00001   0.00000  -0.00026  -0.00026   2.06304
   R16        2.64791   0.00052   0.00000   0.00020   0.00020   2.64811
   R17        1.83396  -0.00003   0.00000   0.00045   0.00045   1.83441
   R18        1.86361   0.00062   0.00000  -0.00335  -0.00335   1.86026
    A1        2.10609  -0.00120   0.00000  -0.06484  -0.07056   2.03553
    A2        1.96883   0.00019   0.00000   0.00301  -0.00376   1.96507
    A3        2.18995   0.00101   0.00000   0.02429   0.01722   2.20717
    A4        2.03219  -0.00004   0.00000   0.00363   0.00363   2.03581
    A5        1.86585  -0.00004   0.00000  -0.03227  -0.03227   1.83357
    A6        1.39296   0.00235   0.00000   0.09329   0.09447   1.48742
    A7        1.98936  -0.00039   0.00000  -0.03028  -0.02866   1.96069
    A8        2.77060  -0.00196   0.00000  -0.07411  -0.07491   2.69569
    A9        2.01820   0.00298   0.00000   0.22043   0.22043   2.23863
   A10        2.00284  -0.00010   0.00000  -0.03626  -0.03626   1.96658
   A11        1.92463   0.00005   0.00000   0.00139   0.00135   1.92598
   A12        1.96973  -0.00019   0.00000   0.00507   0.00506   1.97479
   A13        1.85839  -0.00024   0.00000  -0.00375  -0.00376   1.85463
   A14        1.94722  -0.00008   0.00000   0.00469   0.00468   1.95190
   A15        1.84969  -0.00014   0.00000  -0.00916  -0.00916   1.84053
   A16        1.90802   0.00061   0.00000   0.00039   0.00040   1.90842
   A17        1.91251  -0.00026   0.00000   0.00235   0.00235   1.91486
   A18        1.89544  -0.00071   0.00000  -0.00202  -0.00202   1.89342
   A19        1.92121   0.00205   0.00000  -0.00162  -0.00162   1.91959
   A20        1.88819   0.00019   0.00000   0.00040   0.00040   1.88859
   A21        1.93752  -0.00065   0.00000  -0.00247  -0.00246   1.93506
   A22        1.90817  -0.00066   0.00000   0.00340   0.00340   1.91158
   A23        1.81845  -0.00001   0.00000   0.00338   0.00338   1.82184
   A24        1.83981   0.00185   0.00000  -0.00914  -0.00914   1.83066
   A25        2.70674   0.00249   0.00000  -0.03378  -0.03378   2.67295
    D1       -2.54631  -0.00024   0.00000  -0.68310  -0.68011   3.05676
    D2        0.78891  -0.00036   0.00000  -0.49066  -0.49364   0.29526
    D3       -1.40247  -0.00077   0.00000  -0.01380  -0.01380  -1.41626
    D4        2.03547   0.00006   0.00000   0.02681   0.02462   2.06009
    D5        1.51956  -0.00078   0.00000  -0.23639  -0.23421   1.28535
    D6       -1.32569   0.00005   0.00000  -0.19579  -0.19579  -1.52148
    D7        1.61227  -0.00009   0.00000  -0.07315  -0.07572   1.53655
    D8       -1.32466   0.00009   0.00000   0.14212   0.14470  -1.17997
    D9        1.88194   0.00010   0.00000  -0.09719  -0.09719   1.78475
   D10       -0.07733  -0.00170   0.00000   0.01914   0.02050  -0.05684
   D11        2.23716   0.00063   0.00000   0.06706   0.06570   2.30286
   D12        0.08469   0.00290   0.00000   0.11259   0.11276   0.19744
   D13       -2.14152   0.00044   0.00000   0.05954   0.05938  -2.08214
   D14        0.65469  -0.00015   0.00000  -0.01761  -0.01762   0.63707
   D15       -1.40449   0.00018   0.00000  -0.01826  -0.01827  -1.42276
   D16        2.79022   0.00020   0.00000  -0.02021  -0.02022   2.77000
   D17        2.83316  -0.00029   0.00000  -0.00813  -0.00811   2.82505
   D18        0.77398   0.00004   0.00000  -0.00877  -0.00876   0.76522
   D19       -1.31450   0.00006   0.00000  -0.01072  -0.01071  -1.32521
   D20       -1.40992  -0.00014   0.00000  -0.01635  -0.01635  -1.42627
   D21        2.81409   0.00019   0.00000  -0.01699  -0.01699   2.79709
   D22        0.72561   0.00021   0.00000  -0.01894  -0.01894   0.70666
   D23       -3.07475  -0.00007   0.00000  -0.04221  -0.04219  -3.11694
   D24        1.15901   0.00005   0.00000  -0.03760  -0.03761   1.12140
   D25       -0.94185  -0.00010   0.00000  -0.03813  -0.03814  -0.97999
   D26       -1.50471  -0.00058   0.00000  -0.03632  -0.03632  -1.54103
   D27        0.61597   0.00004   0.00000  -0.03609  -0.03609   0.57988
   D28        2.69775  -0.00055   0.00000  -0.03495  -0.03495   2.66280
   D29        0.68300   0.00329   0.00000   0.00556   0.00556   0.68856
         Item               Value     Threshold  Converged?
 Maximum Force            0.003293     0.000450     NO 
 RMS     Force            0.000973     0.000300     NO 
 Maximum Displacement     0.660786     0.001800     NO 
 RMS     Displacement     0.163403     0.001200     NO 
 Predicted change in Energy=-2.219225D-03
 GradGradGradGradGradGradGradGradGradGradGradGradGradGradGradGradGradGrad

                          Input orientation:                          
 ---------------------------------------------------------------------
 Center     Atomic      Atomic             Coordinates (Angstroms)
 Number     Number       Type             X           Y           Z
 ---------------------------------------------------------------------
      1         14           0        0.701296   -0.203117   -0.152868
      2          8           0        1.682176   -0.892098   -1.256423
      3          1           0        1.981572   -1.779575   -1.068685
      4          8           0        2.684043    1.073228    0.749419
      5          1           0        3.354975    0.981371    0.074003
      6          8           0        0.310990    1.270726   -0.398110
      7          1           0        2.028928    1.685748    0.373117
      8          8           0        0.743518   -0.970165    1.291246
      9          1           0        1.432933   -0.638468    1.864835
     10          6           0       -2.054629   -1.053213    0.291236
     11          1           0       -1.745594   -1.601300    1.175309
     12          1           0       -2.852427   -1.585067   -0.224292
     13          6           0       -2.436126    0.395960    0.586119
     14          1           0       -1.780912    0.799000    1.362490
     15          1           0       -3.461173    0.414563    0.961316
     16          8           0       -0.916791   -1.077271   -0.623254
     17          1           0       -1.213473   -0.562503   -1.390919
     18          8           0       -2.352036    1.161106   -0.584857
     19          1           0       -1.419752    1.475735   -0.615022
 ---------------------------------------------------------------------
                    Distance matrix (angstroms):
                    1          2          3          4          5
     1  Si   0.000000
     2  O    1.629311   0.000000
     3  H    2.227789   0.955249   0.000000
     4  O    2.524770   2.981551   3.455062   0.000000
     5  H    2.914875   2.842213   3.288586   0.956439   0.000000
     6  O    1.544245   2.700862   3.541871   2.643333   3.093939
     7  H    2.367927   3.069353   3.753598   0.972604   1.531019
     8  O    1.635730   2.716209   2.785174   2.869611   3.479925
     9  H    2.189966   3.141449   3.195100   2.395690   3.086293
    10  C    2.918050   4.047829   4.320637   5.214087   5.783645
    11  H    3.115485   4.262148   4.354200   5.191933   5.822274
    12  H    3.813638   4.701928   4.911047   6.218291   6.723647
    13  C    3.278477   4.691958   5.194938   5.167348   5.843101
    14  H    3.076021   4.659560   5.168747   4.515184   5.298188
    15  H    4.353054   5.751501   6.209558   6.184045   6.896990
    16  O    1.898319   2.681385   3.015319   4.413036   4.792928
    17  H    2.308305   2.917449   3.434154   4.737858   5.039867
    18  O    3.372025   4.576190   5.259453   5.210577   5.747728
    19  H    2.744262   3.954742   4.729890   4.343368   4.849450
                    6          7          8          9         10
     6  O    0.000000
     7  H    1.928301   0.000000
     8  O    2.839471   3.090164   0.000000
     9  H    3.166180   2.825316   0.956201   0.000000
    10  C    3.387041   4.917728   2.972633   3.848547   0.000000
    11  H    3.867004   5.069045   2.570497   3.391980   1.085120
    12  H    4.265323   5.906163   3.950416   4.860536   1.088632
    13  C    3.046403   4.652486   3.531804   4.204138   1.527285
    14  H    2.774580   4.034856   3.083467   3.556328   2.157127
    15  H    4.100032   5.665959   4.439116   5.086992   2.140500
    16  O    2.659178   4.159843   2.536416   3.450266   1.459982
    17  H    2.582709   4.321993   3.345148   4.196328   1.943705
    18  O    2.671816   4.515065   4.200540   4.854425   2.399833
    19  H    1.756288   3.593594   3.781008   4.330976   2.760426
                   11         12         13         14         15
    11  H    0.000000
    12  H    1.784440   0.000000
    13  C    2.193861   2.180491   0.000000
    14  H    2.407846   3.057743   1.092931   0.000000
    15  H    2.655693   2.403073   1.091714   1.769748   0.000000
    16  O    2.048500   2.040518   2.437493   2.865358   3.348180
    17  H    2.819181   2.256730   2.514401   3.123610   3.397031
    18  O    3.331192   2.814580   1.401322   2.061422   2.044055
    19  H    3.574857   3.402020   1.908316   2.121075   2.788965
                   16         17         18         19
    16  O    0.000000
    17  H    0.970730   0.000000
    18  O    2.659273   2.217406   0.000000
    19  H    2.602091   2.190658   0.984406   0.000000
 Stoichiometry    C2H10O6Si
 Framework group  C1[X(C2H10O6Si)]
 Deg. of freedom    51
 Full point group                 C1      NOp   1
 Largest Abelian subgroup         C1      NOp   1
 Largest concise Abelian subgroup C1      NOp   1
                         Standard orientation:                         
 ---------------------------------------------------------------------
 Center     Atomic      Atomic             Coordinates (Angstroms)
 Number     Number       Type             X           Y           Z
 ---------------------------------------------------------------------
      1         14           0        0.735502   -0.199778   -0.143001
      2          8           0        1.670555   -1.006185   -1.206033
      3          1           0        1.949252   -1.883769   -0.951723
      4          8           0        2.773859    1.086606    0.608517
      5          1           0        3.425948    0.919504   -0.070917
      6          8           0        0.381057    1.259911   -0.501290
      7          1           0        2.127551    1.685413    0.196600
      8          8           0        0.789998   -0.846391    1.358509
      9          1           0        1.501690   -0.489404    1.888013
     10          6           0       -2.032029   -0.927719    0.427869
     11          1           0       -1.717872   -1.410240    1.347632
     12          1           0       -2.856287   -1.476081   -0.024920
     13          6           0       -2.365714    0.551549    0.609585
     14          1           0       -1.681450    0.997302    1.335935
     15          1           0       -3.380767    0.631573    1.003415
     16          8           0       -0.917043   -1.060897   -0.505199
     17          1           0       -1.217064   -0.602363   -1.306479
     18          8           0       -2.287639    1.214952   -0.622285
     19          1           0       -1.347858    1.498028   -0.698015
 ---------------------------------------------------------------------
 Rotational constants (GHZ):           2.1423961           0.9156205           0.8356198
 Standard basis: def2TZVPP (5D, 7F)
 There are   486 symmetry adapted cartesian basis functions of A   symmetry.
 There are   430 symmetry adapted basis functions of A   symmetry.
   430 basis functions,   647 primitive gaussians,   486 cartesian basis functions
    42 alpha electrons       42 beta electrons
       nuclear repulsion energy       659.1651513410 Hartrees.
 NAtoms=   19 NActive=   19 NUniq=   19 SFac= 1.00D+00 NAtFMM=   60 NAOKFM=F Big=F
 Integral buffers will be    131072 words long.
 Raffenetti 2 integral format.
 Two-electron integral symmetry is turned on.
 Nuclear repulsion after empirical dispersion term =      659.1547957559 Hartrees.
 One-electron integrals computed using PRISM.
   1 Symmetry operations used in ECPInt.
 ECPInt:  NShTT=   13203 NPrTT=   36019 LenC2=   12609 LenP2D=   27075.
 LDataN:  DoStor=T MaxTD1= 6 Len=  172
 NBasis=   430 RedAO= T EigKep=  2.10D-04  NBF=   430
 NBsUse=   430 1.00D-06 EigRej= -1.00D+00 NBFU=   430
 Initial guess from the checkpoint file:  "ProductOpt_IRC_fromfrozenboth21.chk"
 B after Tr=    -0.000000    0.000000    0.000000
         Rot=    0.999701    0.022481   -0.008003    0.005272 Ang=   2.80 deg.
 ExpMin= 7.01D-02 ExpMax= 4.48D+04 ExpMxC= 1.53D+03 IAcc=3 IRadAn=         5 AccDes= 0.00D+00
 Harris functional with IExCor= 4639 and IRadAn=       5 diagonalized for initial guess.
 HarFok:  IExCor= 4639 AccDes= 0.00D+00 IRadAn=         5 IDoV= 1 UseB2=F ITyADJ=14
 ICtDFT=  3500011 ScaDFX=  1.000000  1.000000  1.000000  1.000000
 FoFCou: FMM=F IPFlag=           0 FMFlag=      100000 FMFlg1=           0
         NFxFlg=           0 DoJE=T BraDBF=F KetDBF=T FulRan=T
         wScrn=  0.000000 ICntrl=       500 IOpCl=  0 I1Cent=   200000004 NGrid=           0
         NMat0=    1 NMatS0=      1 NMatT0=    0 NMatD0=    1 NMtDS0=    0 NMtDT0=    0
 Petite list used in FoFCou.
 Requested convergence on RMS density matrix=1.00D-08 within 128 cycles.
 Requested convergence on MAX density matrix=1.00D-06.
 Requested convergence on             energy=1.00D-06.
 No special actions if energy rises.
 Integral accuracy reduced to 1.0D-05 until final iterations.
 Initial convergence to 1.0D-05 achieved.  Increase integral accuracy.
 SCF Done:  E(RwB97XD) =  -823.312535030     A.U. after   12 cycles
            NFock= 12  Conv=0.83D-08     -V/T= 2.0034
   1 Symmetry operations used in ECPInt.
 ECPInt:  NShTT=   13203 NPrTT=   36019 LenC2=   12609 LenP2D=   27075.
 LDataN:  DoStor=T MaxTD1= 7 Len=  274
 Calling FoFJK, ICntrl=      2127 FMM=F ISym2X=0 I1Cent= 0 IOpClX= 0 NMat=1 NMatS=1 NMatT=0.
 ***** Axes restored to original set *****
 -------------------------------------------------------------------
 Center     Atomic                   Forces (Hartrees/Bohr)
 Number     Number              X              Y              Z
 -------------------------------------------------------------------
      1       14          -0.002507642    0.000500754   -0.000373418
      2        8           0.000574940   -0.003821431   -0.001082798
      3        1          -0.000256212    0.000313372   -0.000297251
      4        8           0.002613027    0.001347718    0.001768824
      5        1           0.001154976   -0.000115541   -0.000294923
      6        8          -0.001684181    0.002083556    0.000881340
      7        1          -0.001251383   -0.000733358    0.000370679
      8        8           0.001131263    0.000064954    0.000102094
      9        1           0.000179475    0.000591890    0.000819033
     10        6           0.000133106    0.000040847    0.000352423
     11        1           0.000148917   -0.000106310    0.000026637
     12        1           0.000000207   -0.000041215    0.000021113
     13        6           0.000000877    0.000168373    0.000016527
     14        1          -0.000108750   -0.000154844   -0.000043443
     15        1          -0.000064282   -0.000044334   -0.000027899
     16        8           0.000379371    0.000071613   -0.002014014
     17        1          -0.000478563    0.000044507    0.000110262
     18        8          -0.000255790   -0.000173522    0.000477579
     19        1           0.000290643   -0.000037030   -0.000812765
 -------------------------------------------------------------------
 Cartesian Forces:  Max     0.003821431 RMS     0.000978356

 GradGradGradGradGradGradGradGradGradGradGradGradGradGradGradGradGradGrad
 Berny optimization.
 Using GEDIIS/GDIIS optimizer.
 FormGI is forming the generalized inverse of G from B-inverse, IUseBI=4.
 Internal  Forces:  Max     0.008597638 RMS     0.002085297
 Search for a local minimum.
 Step number   2 out of a maximum of   82
 All quantities printed in internal units (Hartrees-Bohrs-Radians)
 Mixed Optimization -- RFO/linear search
 Update second derivatives using D2CorX and points    1    2
 DE= -2.11D-03 DEPred=-2.22D-03 R= 9.52D-01
 TightC=F SS=  1.41D+00  RLast= 9.75D-01 DXNew= 5.0454D-01 2.9242D+00
 Trust test= 9.52D-01 RLast= 9.75D-01 DXMaxT set to 5.05D-01
 ITU=  1  0
 Use linear search instead of GDIIS.
     Eigenvalues ---    0.00050   0.00128   0.00205   0.00338   0.00363
     Eigenvalues ---    0.00472   0.00837   0.00997   0.01747   0.01788
     Eigenvalues ---    0.02294   0.02883   0.04449   0.04862   0.04964
     Eigenvalues ---    0.05823   0.07696   0.08105   0.08231   0.09533
     Eigenvalues ---    0.09959   0.10479   0.12479   0.14077   0.14664
     Eigenvalues ---    0.14964   0.16408   0.17894   0.18140   0.24368
     Eigenvalues ---    0.24929   0.26095   0.28944   0.32578   0.32918
     Eigenvalues ---    0.33503   0.33838   0.35249   0.35748   0.38402
     Eigenvalues ---    0.40152   0.44794   0.49776   0.51216   0.55358
     Eigenvalues ---    0.56740   0.56787   0.58020   0.81145   2.64630
     Eigenvalues ---    3.73985
 RFO step:  Lambda=-9.66680513D-04 EMin= 5.03655973D-04
 Quartic linear search produced a step of  0.15426.
 Iteration  1 RMS(Cart)=  0.09061858 RMS(Int)=  0.01313534
 Iteration  2 RMS(Cart)=  0.02036924 RMS(Int)=  0.00115191
 Iteration  3 RMS(Cart)=  0.00049379 RMS(Int)=  0.00102811
 Iteration  4 RMS(Cart)=  0.00000030 RMS(Int)=  0.00102811
 Variable       Old X    -DE/DX   Delta X   Delta X   Delta X     New X
                                 (Linear)    (Quad)   (Total)
    R1        3.07895   0.00261  -0.00411  -0.01149  -0.01560   3.06335
    R2        2.91820   0.00189  -0.00237  -0.00513  -0.00751   2.91070
    R3        3.09108   0.00054  -0.00175  -0.00619  -0.00794   3.08314
    R4        1.80516  -0.00043  -0.00006  -0.00070  -0.00076   1.80440
    R5        1.80741   0.00103  -0.00078  -0.00198  -0.00276   1.80465
    R6        1.83796   0.00233  -0.00035   0.00029  -0.00005   1.83790
    R7        3.64396   0.00308  -0.01253  -0.03591  -0.04845   3.59551
    R8        3.31890   0.00016   0.00520   0.02748   0.03268   3.35158
    R9        1.80696   0.00083   0.00059   0.00308   0.00368   1.81063
   R10        2.05058   0.00012  -0.00006  -0.00040  -0.00046   2.05012
   R11        2.05722   0.00001  -0.00024  -0.00082  -0.00106   2.05615
   R12        2.88615   0.00033   0.00004   0.00228   0.00231   2.88846
   R13        2.75897   0.00111   0.00186   0.00682   0.00867   2.76764
   R14        2.06534  -0.00015  -0.00002  -0.00111  -0.00113   2.06421
   R15        2.06304   0.00005  -0.00004  -0.00067  -0.00071   2.06233
   R16        2.64811  -0.00128   0.00003   0.00179   0.00183   2.64994
   R17        1.83441   0.00008   0.00007   0.00340   0.00346   1.83788
   R18        1.86026   0.00026  -0.00052  -0.00126  -0.00178   1.85848
    A1        2.03553   0.00503  -0.01088  -0.00815  -0.02366   2.01187
    A2        1.96507  -0.00144  -0.00058  -0.01426  -0.01990   1.94517
    A3        2.20717  -0.00344   0.00266  -0.02273  -0.02482   2.18235
    A4        2.03581   0.00021   0.00056   0.00139   0.00195   2.03776
    A5        1.83357   0.00088  -0.00498  -0.00883  -0.01380   1.81977
    A6        1.48742   0.00307   0.01457   0.05197   0.06707   1.55449
    A7        1.96069  -0.00336  -0.00442  -0.02403  -0.02774   1.93296
    A8        2.69569  -0.00074  -0.01156  -0.02741  -0.03928   2.65641
    A9        2.23863   0.00646   0.03400   0.13779   0.17180   2.41042
   A10        1.96658   0.00026  -0.00559  -0.01795  -0.02354   1.94304
   A11        1.92598  -0.00009   0.00021   0.00196   0.00213   1.92811
   A12        1.97479   0.00035   0.00078   0.00523   0.00599   1.98078
   A13        1.85463   0.00082  -0.00058   0.00125   0.00069   1.85532
   A14        1.95190   0.00002   0.00072   0.00341   0.00408   1.95598
   A15        1.84053  -0.00049  -0.00141  -0.00455  -0.00596   1.83457
   A16        1.90842  -0.00064   0.00006  -0.00836  -0.00829   1.90013
   A17        1.91486   0.00142   0.00036   0.00144   0.00179   1.91665
   A18        1.89342   0.00059  -0.00031   0.00186   0.00154   1.89497
   A19        1.91959  -0.00436  -0.00025  -0.00483  -0.00508   1.91451
   A20        1.88859  -0.00037   0.00006   0.00211   0.00217   1.89076
   A21        1.93506   0.00077  -0.00038  -0.00092  -0.00130   1.93376
   A22        1.91158   0.00203   0.00052   0.00052   0.00105   1.91263
   A23        1.82184  -0.00088   0.00052  -0.01008  -0.00955   1.81228
   A24        1.83066  -0.00361  -0.00141   0.00206   0.00065   1.83131
   A25        2.67295  -0.00212  -0.00521  -0.02168  -0.02689   2.64607
    D1        3.05676  -0.00009  -0.10491  -0.21913  -0.32320   2.73355
    D2        0.29526   0.00046  -0.07615  -0.10595  -0.18294   0.11232
    D3       -1.41626  -0.00245  -0.00213   0.00452   0.00211  -1.41415
    D4        2.06009  -0.00138   0.00380   0.01331   0.01582   2.07591
    D5        1.28535  -0.00218  -0.03613  -0.12374  -0.15858   1.12677
    D6       -1.52148  -0.00110  -0.03020  -0.11494  -0.14487  -1.66635
    D7        1.53655   0.00133  -0.01168   0.01048  -0.00109   1.53546
    D8       -1.17997  -0.00034   0.02232   0.13297   0.15517  -1.02480
    D9        1.78475   0.00065  -0.01499  -0.03505  -0.05004   1.73471
   D10       -0.05684   0.00141   0.00316   0.01061   0.01440  -0.04244
   D11        2.30286  -0.00147   0.01013   0.03264   0.04215   2.34500
   D12        0.19744  -0.00475   0.01739   0.05328   0.07072   0.26816
   D13       -2.08214  -0.00267   0.00916   0.02094   0.03005  -2.05208
   D14        0.63707   0.00021  -0.00272  -0.02766  -0.03040   0.60668
   D15       -1.42276  -0.00050  -0.00282  -0.03211  -0.03494  -1.45770
   D16        2.77000  -0.00074  -0.00312  -0.03102  -0.03415   2.73585
   D17        2.82505   0.00038  -0.00125  -0.01811  -0.01934   2.80570
   D18        0.76522  -0.00033  -0.00135  -0.02256  -0.02389   0.74133
   D19       -1.32521  -0.00057  -0.00165  -0.02146  -0.02310  -1.34831
   D20       -1.42627  -0.00061  -0.00252  -0.02688  -0.02940  -1.45566
   D21        2.79709  -0.00132  -0.00262  -0.03133  -0.03395   2.76314
   D22        0.70666  -0.00156  -0.00292  -0.03023  -0.03315   0.67351
   D23       -3.11694  -0.00022  -0.00651   0.02352   0.01700  -3.09994
   D24        1.12140  -0.00027  -0.00580   0.02284   0.01706   1.13846
   D25       -0.97999   0.00033  -0.00588   0.02580   0.01990  -0.96009
   D26       -1.54103  -0.00085  -0.00560  -0.01974  -0.02534  -1.56638
   D27        0.57988  -0.00148  -0.00557  -0.02177  -0.02733   0.55255
   D28        2.66280  -0.00016  -0.00539  -0.01940  -0.02479   2.63801
   D29        0.68856  -0.00860   0.00086   0.01075   0.01161   0.70018
         Item               Value     Threshold  Converged?
 Maximum Force            0.008598     0.000450     NO 
 RMS     Force            0.002085     0.000300     NO 
 Maximum Displacement     0.266734     0.001800     NO 
 RMS     Displacement     0.093988     0.001200     NO 
 Predicted change in Energy=-9.528097D-04
 GradGradGradGradGradGradGradGradGradGradGradGradGradGradGradGradGradGrad

                          Input orientation:                          
 ---------------------------------------------------------------------
 Center     Atomic      Atomic             Coordinates (Angstroms)
 Number     Number       Type             X           Y           Z
 ---------------------------------------------------------------------
      1         14           0        0.647180   -0.291876   -0.216346
      2          8           0        1.643136   -0.930175   -1.324708
      3          1           0        2.122721   -1.715611   -1.070115
      4          8           0        2.731333    1.149004    0.852837
      5          1           0        3.400271    1.115915    0.172094
      6          8           0        0.333156    1.204967   -0.398816
      7          1           0        1.990213    1.622653    0.437742
      8          8           0        0.789213   -1.050776    1.220935
      9          1           0        1.478655   -0.656236    1.756707
     10          6           0       -2.090697   -1.042509    0.328085
     11          1           0       -1.758371   -1.567051    1.217675
     12          1           0       -2.908824   -1.579795   -0.147193
     13          6           0       -2.436719    0.424918    0.579615
     14          1           0       -1.767876    0.838382    1.337827
     15          1           0       -3.459373    0.481261    0.956476
     16          8           0       -0.982869   -1.110874   -0.627433
     17          1           0       -1.302306   -0.599940   -1.390838
     18          8           0       -2.337012    1.146084   -0.618880
     19          1           0       -1.404315    1.456322   -0.651003
 ---------------------------------------------------------------------
                    Distance matrix (angstroms):
                    1          2          3          4          5
     1  Si   0.000000
     2  O    1.621055   0.000000
     3  H    2.221073   0.954845   0.000000
     4  O    2.750087   3.201384   3.503452   0.000000
     5  H    3.116452   3.084546   3.345558   0.954979   0.000000
     6  O    1.540274   2.670609   3.490410   2.705738   3.121067
     7  H    2.428372   3.121478   3.665406   0.972577   1.521714
     8  O    1.631527   2.687755   2.732976   2.957424   3.551371
     9  H    2.171877   3.097937   3.086749   2.375936   3.056816
    10  C    2.890644   4.084832   4.490091   5.322599   5.902021
    11  H    3.077200   4.294132   4.507652   5.259990   5.907887
    12  H    3.782682   4.746460   5.117292   6.344901   6.868295
    13  C    3.264625   4.701908   5.300185   5.225678   5.891859
    14  H    3.086330   4.674600   5.240020   4.535921   5.305252
    15  H    4.340164   5.764681   6.331910   6.227476   6.933452
    16  O    1.869976   2.723003   3.194740   4.592771   4.980939
    17  H    2.296699   2.964634   3.616406   4.935901   5.244153
    18  O    3.336939   4.544296   5.318095   5.277696   5.791629
    19  H    2.730156   3.928893   4.762016   4.411299   4.886451
                    6          7          8          9         10
     6  O    0.000000
     7  H    1.902663   0.000000
     8  O    2.814241   3.033647   0.000000
     9  H    3.069612   2.682293   0.958146   0.000000
    10  C    3.384464   4.875340   3.015150   3.863993   0.000000
    11  H    3.830354   4.983412   2.599372   3.405653   1.084876
    12  H    4.281197   5.882039   3.978331   4.871115   1.088070
    13  C    3.039410   4.588292   3.604941   4.229018   1.528509
    14  H    2.750391   3.943155   3.181397   3.598514   2.159061
    15  H    4.091924   5.591945   4.524109   5.130145   2.142434
    16  O    2.673445   4.176840   2.561318   3.456866   1.464572
    17  H    2.629930   4.373134   3.376250   4.200470   1.942196
    18  O    2.679869   4.479782   4.240802   4.842632   2.397364
    19  H    1.773579   3.568732   3.821159   4.309464   2.770179
                   11         12         13         14         15
    11  H    0.000000
    12  H    1.785096   0.000000
    13  C    2.198913   2.184034   0.000000
    14  H    2.408451   3.058533   1.092332   0.000000
    15  H    2.675297   2.401903   1.091339   1.770346   0.000000
    16  O    2.052784   2.039564   2.435015   2.877166   3.343162
    17  H    2.819155   2.255587   2.493975   3.119477   3.366276
    18  O    3.326990   2.824867   1.402288   2.060897   2.045343
    19  H    3.571848   3.425694   1.908945   2.114112   2.785318
                   16         17         18         19
    16  O    0.000000
    17  H    0.972564   0.000000
    18  O    2.632040   2.171437   0.000000
    19  H    2.601666   2.187687   0.983466   0.000000
 Stoichiometry    C2H10O6Si
 Framework group  C1[X(C2H10O6Si)]
 Deg. of freedom    51
 Full point group                 C1      NOp   1
 Largest Abelian subgroup         C1      NOp   1
 Largest concise Abelian subgroup C1      NOp   1
                         Standard orientation:                         
 ---------------------------------------------------------------------
 Center     Atomic      Atomic             Coordinates (Angstroms)
 Number     Number       Type             X           Y           Z
 ---------------------------------------------------------------------
      1         14           0        0.682839   -0.286329   -0.170778
      2          8           0        1.617276   -1.133189   -1.189344
      3          1           0        2.077220   -1.886541   -0.825142
      4          8           0        2.851810    1.221651    0.593776
      5          1           0        3.495572    1.053250   -0.091202
      6          8           0        0.415842    1.173548   -0.582984
      7          1           0        2.114165    1.652378    0.128738
      8          8           0        0.846882   -0.810895    1.365386
      9          1           0        1.567688   -0.363937    1.811157
     10          6           0       -2.059694   -0.829274    0.563760
     11          1           0       -1.715976   -1.217885    1.516542
     12          1           0       -2.912010   -1.402168    0.204250
     13          6           0       -2.344899    0.672236    0.585351
     14          1           0       -1.636418    1.174237    1.248103
     15          1           0       -3.351486    0.829278    0.976682
     16          8           0       -0.988182   -1.094080   -0.398898
     17          1           0       -1.315206   -0.699246   -1.225361
     18          8           0       -2.260688    1.187993   -0.715923
     19          1           0       -1.319252    1.451239   -0.823647
 ---------------------------------------------------------------------
 Rotational constants (GHZ):           2.0680584           0.9022126           0.8196796
 Standard basis: def2TZVPP (5D, 7F)
 There are   486 symmetry adapted cartesian basis functions of A   symmetry.
 There are   430 symmetry adapted basis functions of A   symmetry.
   430 basis functions,   647 primitive gaussians,   486 cartesian basis functions
    42 alpha electrons       42 beta electrons
       nuclear repulsion energy       655.6536476524 Hartrees.
 NAtoms=   19 NActive=   19 NUniq=   19 SFac= 1.00D+00 NAtFMM=   60 NAOKFM=F Big=F
 Integral buffers will be    131072 words long.
 Raffenetti 2 integral format.
 Two-electron integral symmetry is turned on.
 Nuclear repulsion after empirical dispersion term =      655.6433157109 Hartrees.
 One-electron integrals computed using PRISM.
   1 Symmetry operations used in ECPInt.
 ECPInt:  NShTT=   13203 NPrTT=   36019 LenC2=   12578 LenP2D=   26986.
 LDataN:  DoStor=T MaxTD1= 6 Len=  172
 NBasis=   430 RedAO= T EigKep=  2.15D-04  NBF=   430
 NBsUse=   430 1.00D-06 EigRej= -1.00D+00 NBFU=   430
 Initial guess from the checkpoint file:  "ProductOpt_IRC_fromfrozenboth21.chk"
 B after Tr=     0.000000   -0.000000   -0.000000
         Rot=    0.999282    0.036739   -0.005716    0.007218 Ang=   4.34 deg.
 ExpMin= 7.01D-02 ExpMax= 4.48D+04 ExpMxC= 1.53D+03 IAcc=3 IRadAn=         5 AccDes= 0.00D+00
 Harris functional with IExCor= 4639 and IRadAn=       5 diagonalized for initial guess.
 HarFok:  IExCor= 4639 AccDes= 0.00D+00 IRadAn=         5 IDoV= 1 UseB2=F ITyADJ=14
 ICtDFT=  3500011 ScaDFX=  1.000000  1.000000  1.000000  1.000000
 FoFCou: FMM=F IPFlag=           0 FMFlag=      100000 FMFlg1=           0
         NFxFlg=           0 DoJE=T BraDBF=F KetDBF=T FulRan=T
         wScrn=  0.000000 ICntrl=       500 IOpCl=  0 I1Cent=   200000004 NGrid=           0
         NMat0=    1 NMatS0=      1 NMatT0=    0 NMatD0=    1 NMtDS0=    0 NMtDT0=    0
 Petite list used in FoFCou.
 Requested convergence on RMS density matrix=1.00D-08 within 128 cycles.
 Requested convergence on MAX density matrix=1.00D-06.
 Requested convergence on             energy=1.00D-06.
 No special actions if energy rises.
 Integral accuracy reduced to 1.0D-05 until final iterations.
 Initial convergence to 1.0D-05 achieved.  Increase integral accuracy.
 SCF Done:  E(RwB97XD) =  -823.312960300     A.U. after   12 cycles
[...]
 071,0.00024329,0.00005563,-0.00002652,-0.00003504,-0.32300549,-0.25457
 574,-0.09239450,0.33103131,-0.00048257,-0.00083621,0.00048573,0.000048
 27,0.00018404,-0.00003259,-0.00004337,-0.00001021,0.00000601,-0.263524
 01,-0.21736198,-0.06229320,0.26277331,0.21673487,-0.00063282,0.0003813
 8,-0.00100238,0.00009924,0.00003490,0.00023286,0.00000492,-0.00010606,
 -0.00004029,-0.05341527,-0.02869138,-0.05581172,0.08807082,0.05883284,
 0.06166353,-0.05139991,0.02816039,-0.00649797,0.00581106,0.00882983,0.
 00184873,0.00170716,0.00034852,0.00055971,0.00247092,-0.00324730,-0.01
 092235,0.00044157,0.00064735,0.00010942,0.06305913,0.03523182,-0.45188
 223,0.06106199,0.00492138,-0.01773516,-0.00200549,-0.00110816,0.000709
 21,-0.00173210,-0.00592879,0.00432931,-0.01671889,0.00028068,0.0007076
 1,-0.00071255,-0.02953075,0.49770743,-0.00719800,0.06628955,-0.0618807
 4,0.00460799,-0.01655121,0.00577769,-0.00019356,-0.00137627,-0.0016757
 1,-0.00949713,-0.00724069,-0.01908358,0.00060579,0.00093359,-0.0031125
 5,0.00499828,-0.06885749,0.07037501,0.00457810,-0.00756841,0.00350154,
 -0.00097254,0.00204656,-0.00008869,0.00011715,0.00020904,0.00020635,-0
 .04937586,-0.01780052,-0.05493715,-0.00885024,0.00245705,-0.03472919,-
 0.00676331,0.00655350,0.00495947,0.06429954,-0.00312244,-0.01191470,-0
 .00610435,-0.00016459,0.00121056,0.00079644,0.00005769,-0.00014274,-0.
 00015666,-0.00535125,-0.03785019,0.06227308,-0.00818933,0.00063776,-0.
 02907742,0.00436368,-0.00337025,0.00784323,0.01103203,0.05043444,0.001
 69559,-0.02283076,0.00986817,-0.00143935,0.00470454,-0.00012331,0.0000
 2285,0.00012681,0.00039582,-0.09394135,0.02617643,-0.41353055,0.003518
 49,0.00322240,-0.00196895,0.00684734,0.01682483,0.00455324,0.08372614,
 -0.03994566,0.40654832,-0.06415119,0.03122358,-0.07104066,0.00753961,0
 .00081883,-0.00063572,-0.00147042,-0.00025558,-0.00033903,0.00497412,-
 0.00515997,0.00083357,0.00006628,0.00090099,0.00007929,0.00999723,0.00
 414631,-0.00454019,-0.00254902,-0.00031330,-0.00268343,0.09504641,0.02
 563748,-0.08612876,0.06014589,-0.00173827,0.00752017,-0.01654249,-0.00
 072219,0.00244420,0.00325165,-0.00298788,-0.01282728,-0.00579294,0.002
 42545,-0.00166622,0.00077596,0.01045687,-0.00808447,0.02050327,-0.0003
 9863,0.00210142,0.00064498,0.04385553,0.36625455,-0.06647544,0.0774025
 6,-0.23166113,-0.00495126,-0.00194016,-0.02469585,-0.00158811,0.003994
 85,0.00082991,0.00023714,-0.01131997,0.00404140,0.00125926,-0.00101879
 ,0.00083304,-0.00742939,0.01335966,-0.00060387,-0.00291731,-0.00167239
 ,-0.00810593,0.16040243,0.14275965,0.47005100,-0.00083559,-0.00420741,
 -0.01091986,0.00111092,0.00049069,0.00280526,0.00004479,-0.00051082,-0
 .00047535,-0.00749084,0.00297277,-0.00203368,0.00045518,-0.00272646,0.
 00044491,-0.00124006,-0.00159441,0.00174264,0.00189825,0.00158046,0.00
 107485,-0.03503732,-0.06982474,-0.06786152,0.04467243,-0.00167131,0.01
 432148,0.00049392,0.00067269,-0.00026047,0.00575023,0.00016716,-0.0007
 9445,-0.00068275,0.00019646,0.00669665,-0.00059636,-0.00247176,0.00148
 290,-0.00144829,-0.00074417,-0.00668349,-0.00258874,0.00373924,-0.0027
 0164,0.00740851,-0.07671325,-0.27428089,-0.22250107,0.07315540,0.26244
 783,-0.01220396,-0.01222639,-0.03012875,-0.00052217,0.00083269,-0.0013
 8280,0.00011535,0.00010429,-0.00018293,-0.00069584,0.00057624,-0.00699
 738,-0.00037908,-0.00007461,-0.00074618,0.00279733,-0.00419636,0.00316
 488,0.00044423,0.00558779,0.00331558,-0.06771684,-0.20310070,-0.204916
 19,0.07721387,0.21189615,0.23659695,-0.01998619,-0.00022033,0.01162356
 ,0.00025088,0.00016608,-0.00019366,-0.00049257,0.00010465,0.00035788,-
 0.00066420,0.00094309,0.00087755,-0.00005411,-0.00000026,-0.00002872,0
 .00232582,0.00352423,-0.00081345,0.00016302,-0.00080454,-0.00134325,0.
 00184829,-0.00010000,0.00321987,0.00001729,-0.00082346,-0.00083275,0.5
 8634883,0.00357941,0.00338256,0.00408625,-0.00058696,0.00094490,0.0002
 9140,-0.00022947,-0.00011861,0.00006122,0.00042804,-0.00019797,-0.0002
 0058,0.00003545,-0.00000190,-0.00006049,0.00003657,-0.00290339,-0.0018
 6390,-0.00030779,0.00005396,0.00047938,-0.00107329,-0.00068114,-0.0003
 7960,-0.00009148,0.00060188,0.00005698,0.04018530,0.49067358,0.0307973
 3,0.00927092,0.00527884,-0.00628906,0.00098165,0.00258207,0.00044623,-
 0.00053841,0.00014917,0.00022474,-0.00037838,-0.00140175,0.00003949,0.
 00007528,-0.00001053,-0.00285886,-0.00756678,-0.00125777,0.00024459,0.
 00061197,0.00186893,-0.00188560,-0.00021961,-0.00713650,-0.00144024,0.
 00055260,0.00108841,0.10832431,-0.06789707,0.53100829,0.00175361,-0.00
 071495,0.00285513,-0.00017612,-0.00010532,-0.00050777,0.00000834,0.000
 07588,0.00008258,0.00003929,0.00028623,0.00003152,-0.00000647,0.000007
 65,-0.00006236,-0.00049569,0.00003946,-0.00048295,0.00003462,-0.000068
 24,0.00010165,-0.00066015,0.00053263,-0.00092438,-0.00046876,-0.000388
 83,-0.00002099,-0.12767695,0.06132238,-0.11924094,0.12932095,-0.000585
 11,-0.00016582,0.00148905,-0.00002886,-0.00009857,-0.00016597,0.000030
 25,0.00006557,0.00000874,0.00014522,0.00015327,-0.00010796,-0.00000136
 ,0.00001599,-0.00006427,-0.00048092,0.00044458,-0.00038435,0.00005362,
 -0.00002998,0.00021618,0.00095445,-0.00046542,-0.00089034,-0.00065976,
 -0.00004379,0.00022044,0.05823306,-0.10017594,0.09176059,-0.06258761,0
 .10253064,-0.00213631,0.00055644,-0.00224653,0.00025655,-0.00008452,0.
 00026316,0.00002273,0.00001156,-0.00007567,0.00002415,-0.00009276,-0.0
 0002590,0.00000399,-0.00000972,0.00000804,0.00045978,0.00029839,0.0004
 0088,0.00000730,0.00003651,-0.00010095,-0.00126930,-0.00040260,0.00084
 423,0.00013292,0.00017034,0.00026285,-0.10227285,0.08316322,-0.2085471
 3,0.11193533,-0.09275776,0.23456500,0.00349832,0.00105628,0.00024434,-
 0.00069827,0.00041726,0.00051632,-0.00004831,-0.00016143,0.00001031,0.
 00000586,-0.00015121,-0.00017516,0.00001366,0.00000697,0.00002336,-0.0
 0031178,-0.00092529,-0.00012124,0.00001820,0.00012024,0.00020685,-0.00
 058833,-0.00002795,-0.00003131,0.00015686,0.00018923,0.00008024,-0.262
 47147,-0.10658432,-0.03612902,-0.01059002,-0.00740282,-0.00188809,0.28
 565357,-0.00080582,-0.00088130,-0.00033426,0.00033735,-0.00010992,-0.0
 0024326,0.00002783,0.00006079,-0.00000681,-0.00031968,0.00014138,0.000
 05894,-0.00002296,0.00002077,0.00002504,0.00007226,0.00068346,0.000271
 56,0.00019236,-0.00009801,-0.00024280,0.00043793,0.00023552,-0.0001174
 1,-0.00006302,-0.00027423,-0.00003865,-0.11098216,-0.10672055,-0.01276
 527,0.01208286,0.00706636,0.00120373,0.11355354,0.11101451,-0.00440701
 ,-0.00153384,-0.00301164,0.00122677,-0.00039142,-0.00038269,0.00006406
 ,0.00010346,-0.00010581,-0.00013773,-0.00001798,0.00017847,-0.00000004
 ,-0.00000522,0.00003660,0.00048430,0.00130500,0.00064410,0.00002636,-0
 .00006538,-0.00035777,-0.00049245,0.00005859,0.00153706,0.00040148,-0.
 00000017,-0.00008438,-0.04723942,-0.01390541,-0.05578695,-0.02094160,-
 0.01213590,0.00064688,0.02811209,0.02121648,0.06443430,0.00064721,0.00
 379956,0.00271584,-0.00073182,-0.00038669,-0.00000791,0.00008191,-0.00
 003100,0.00003150,0.00083622,-0.00054619,-0.00034557,0.00003372,0.0001
 8734,0.00000589,-0.00149263,0.00072661,-0.00127845,-0.00076582,0.00020
 619,0.00066170,0.00008024,-0.00075176,-0.00089112,-0.00041104,0.000539
 22,0.00022998,-0.08494276,-0.01211144,-0.00399779,0.00073006,0.0134444
 6,0.00024781,0.00500456,-0.02951147,-0.00181251,0.64699528,0.00532174,
 0.00597559,-0.00275972,-0.00065371,-0.00080309,0.00045973,0.00007330,-
 0.00011873,-0.00012117,0.00042971,-0.00024621,0.00036929,0.00007331,0.
 00010161,-0.00005107,0.00378687,-0.00414505,-0.00052273,-0.00072539,-0
 .00002759,-0.00032648,-0.00157522,-0.00156447,0.00100707,0.00013201,0.
 00085989,-0.00000072,-0.00296228,-0.17503041,-0.02831392,-0.00282242,-
 0.00491884,0.00055623,0.00316155,-0.01398899,-0.00174053,0.03143968,0.
 45911065,-0.00160775,-0.00561178,0.00304349,0.00068798,0.00104197,-0.0
 0038043,-0.00003417,0.00007172,0.00010074,0.00158907,0.00004248,-0.000
 89288,0.00030838,-0.00003223,-0.00006614,-0.00697001,0.00419216,-0.003
 56718,-0.00065647,0.00024150,0.00237828,0.00038911,0.00030641,-0.00176
 263,-0.00060314,0.00054772,0.00057259,-0.00974123,-0.00844834,-0.07056
 210,-0.00084354,0.02390157,0.00628415,-0.00055762,-0.00940728,-0.00075
 688,-0.02229143,0.04295533,0.54861497,0.00033663,0.00051017,0.00043150
 ,-0.00002193,-0.00013555,-0.00011131,-0.00000094,0.00002557,0.00001001
 ,-0.00070278,0.00003699,0.00019990,0.00004876,-0.00036207,-0.00033662,
 -0.00083254,-0.00067461,0.00083343,-0.00115302,0.00000942,0.00112885,-
 0.00016141,-0.00033059,-0.00017153,-0.00002435,0.00049175,0.00005375,0
 .00469316,0.00286062,0.00305645,0.00070956,-0.00069525,0.00010552,0.00
 118956,0.00147758,0.00039843,-0.22159067,-0.08143201,-0.09876952,0.231
 75713,-0.00034308,-0.00123582,-0.00154474,0.00017294,0.00016807,0.0001
 3511,-0.00002122,-0.00002585,-0.00003500,-0.00013264,-0.00080635,-0.00
 032194,-0.00021359,-0.00013591,0.00010335,-0.00033717,-0.00007116,0.00
 055894,-0.00016095,0.00069019,0.00035019,-0.00038114,0.00033679,0.0004
 9542,0.00064034,0.00003252,0.00000111,-0.02926460,-0.01681088,-0.01234
 198,0.00007141,0.00109655,-0.00003536,0.00117906,-0.00564582,-0.000691
 26,-0.08147087,-0.09314654,-0.05150971,0.08657723,0.10188201,0.0003222
 9,-0.00167996,-0.00094777,-0.00001710,0.00030223,0.00014659,0.00000973
 ,0.00000394,-0.00000603,-0.00063491,-0.00014768,-0.00051180,-0.0001214
 6,0.00002164,-0.00013755,0.00012930,0.00047723,0.00104673,0.00152470,0
 .00019170,0.00017708,-0.00020913,0.00032335,-0.00008020,0.00014642,-0.
 00002048,0.00018415,-0.00150745,-0.00115276,0.00027734,0.00039126,0.00
 035446,0.00070343,0.00002973,0.00033382,0.00084996,-0.09051497,-0.0481
 9499,-0.10740790,0.10739875,0.04636323,0.12700946,0.00040147,-0.001367
 95,-0.00049817,-0.00000734,0.00026743,0.00009979,0.00001453,-0.0000193
 6,-0.00001529,-0.00042646,-0.00025193,-0.00043239,-0.00010196,0.000078
 04,0.00011218,-0.00055096,0.00026041,0.00072443,0.00048080,0.00017083,
 0.00009236,-0.00018482,0.00031406,-0.00007194,0.00017345,-0.00010793,0
 .00011219,-0.00246725,-0.00139301,0.00044270,0.00015378,0.00054229,0.0
 0031529,0.00117974,0.00022452,-0.00018959,-0.24309728,0.05218644,0.109
 17960,-0.01885489,0.00704706,0.01222449,0.25295453,-0.00232339,-0.0017
 7735,-0.00007732,0.00050998,0.00015608,-0.00017467,-0.00004787,0.00006
 057,0.00000918,-0.00025667,-0.00004037,-0.00008015,-0.00006537,0.00003
 969,0.00003596,-0.00046009,0.00097598,0.00022783,0.00024377,-0.0000009
 1,-0.00010112,0.00027044,0.00028818,0.00026052,0.00005872,-0.00018651,
 -0.00005490,0.02643057,-0.00513800,-0.01523223,-0.00015159,-0.00079969
 ,0.00097321,-0.00045872,0.00125931,-0.00078917,0.05302943,-0.06529862,
 -0.03403321,-0.01088299,0.00455259,0.00655918,-0.05478951,0.07102779,0
 .00003102,0.00031731,-0.00043783,0.00001486,-0.00009556,-0.00001784,-0
 .00001785,0.00001216,-0.00000039,-0.00021462,-0.00006179,0.00002365,-0
 .00006457,0.00001278,0.00002670,0.00103855,-0.00057669,0.00092859,0.00
 017246,-0.00000494,-0.00027250,-0.00007218,-0.00000873,0.00023516,0.00
 009658,-0.00007789,-0.00004257,0.00503287,-0.00448005,-0.00055785,0.00
 023733,-0.00102338,-0.00070271,-0.00019207,0.00018772,0.00060884,0.099
 63937,-0.02914686,-0.10591528,-0.01177888,0.00393871,0.00982847,-0.120
 04803,0.02867103,0.12818194,-0.03022524,-0.01367788,0.00173405,-0.0153
 8953,0.00373182,0.00922808,-0.00066581,-0.00198668,0.00070968,0.000698
 68,-0.00176333,-0.00282065,0.00010997,0.00018903,0.00015689,-0.0088616
 2,-0.01811379,-0.00035482,-0.00002267,0.00146372,0.00390601,-0.0121606
 7,-0.00317069,-0.01273604,-0.00258597,0.00330501,0.00192156,-0.1117402
 4,0.01407717,0.01294901,0.00884478,-0.00334153,-0.00953385,-0.02118635
 ,0.01237913,0.04324603,-0.00895815,0.00799700,0.01221869,-0.00005002,0
 .00149818,0.00033822,0.00183097,0.00352110,-0.00033354,0.34322199,-0.0
 0569305,-0.03677082,0.00082564,0.00721829,0.00422294,-0.00379944,-0.00
 079321,0.00036107,0.00032117,-0.00063318,0.00058270,-0.00166630,0.0000
 7989,0.00008785,0.00008949,-0.01923085,-0.01023822,0.00259153,0.000648
 13,0.00034651,0.00258129,0.00426891,0.00591487,0.00315816,0.00091118,-
 0.00156695,0.00013428,0.01354826,-0.07031154,0.00016350,-0.00848119,0.
 00440589,0.01109122,-0.00403900,0.00583025,0.00914639,0.02744353,-0.01
 418549,-0.02711685,-0.00057683,0.00129156,0.00002938,-0.00046981,-0.00
 708086,-0.00049519,-0.12834554,0.26676711,-0.01036208,-0.00148650,-0.0
 3944722,0.01805842,-0.00369772,-0.00235106,0.00103555,0.00121931,-0.00
 154668,-0.00010236,-0.00031208,0.00173875,-0.00000541,-0.00006117,0.00
 004271,0.00428977,0.00667753,0.00879746,-0.00033811,-0.00045639,-0.002
 69470,-0.01221038,-0.00276206,-0.00251573,-0.00134975,0.00145958,-0.00
 001291,0.04264709,-0.02402273,-0.13755303,0.02257810,-0.01135610,-0.03
 010431,0.00943969,-0.00187237,-0.01084784,0.01650705,-0.00424300,-0.02
 276363,-0.00048718,-0.00039078,0.00078249,-0.00138561,-0.00441582,0.00
 120330,0.05592201,-0.13633281,0.47978562,-0.01742910,0.00896724,-0.016
 12002,0.00110943,-0.00179945,0.00116838,0.00038969,0.00031405,-0.00013
 894,0.00011384,0.00013264,0.00102782,-0.00001559,-0.00006254,-0.000002
 45,0.00300852,0.00390361,0.00306910,-0.00023614,-0.00048476,-0.0014850
 7,-0.00209409,-0.00156740,-0.00044285,-0.00056472,0.00045081,-0.000100
 06,0.01332849,-0.00859848,0.01611047,-0.00244054,0.00145196,0.00344385
 ,-0.00080876,-0.00084649,0.00108265,-0.00010357,-0.00055844,0.00397644
 ,-0.00002947,0.00005229,-0.00071233,-0.00010083,0.00048390,-0.00016852
 ,-0.13993920,0.10934227,-0.14038163,0.14644480,0.00333315,0.01143721,-
 0.00303280,-0.00170249,-0.00138332,-0.00020171,0.00028636,-0.00017193,
 0.00000811,0.00044287,-0.00041220,0.00037742,-0.00003654,-0.00000089,-
 0.00002252,0.00342512,-0.00383353,0.00139045,-0.00042327,0.00001469,-0
 .00048040,-0.00293118,-0.00138484,-0.00157693,-0.00019091,0.00087607,0
 .00003863,-0.00646863,0.00889221,-0.00150700,0.00087121,-0.00167520,-0
 .00244971,0.00025621,-0.00034122,0.00008215,0.00071665,0.00187255,-0.0
 0936052,0.00013597,-0.00056265,0.00126228,-0.00035260,-0.00051675,0.00
 117568,0.11327647,-0.14162617,0.17338030,-0.10460671,0.12694321,-0.010
 38303,-0.00161098,0.00544494,0.00039675,-0.00035306,-0.00244501,-0.000
 26997,0.00006888,0.00022025,0.00015043,0.00017622,0.00014476,-0.000019
 23,-0.00002164,-0.00005403,0.00214817,0.00218490,-0.00190442,-0.000113
 14,-0.00007334,-0.00009255,0.00170547,0.00039775,0.00103769,0.00008280
 ,-0.00022415,-0.00018845,-0.00838612,0.01489079,-0.03753814,0.00411870
 ,-0.00113174,-0.00327030,-0.00021124,0.00057029,0.00115680,-0.00198012
 ,-0.00097584,-0.00130750,0.00009205,0.00019225,-0.00036745,-0.00010393
 ,0.00109160,-0.00020259,-0.12053936,0.14990971,-0.25115107,0.13443944,
 -0.16697062,0.29025084,-0.00590334,-0.01448671,0.00285523,0.00028438,0
 .00312413,0.00083137,0.00013313,-0.00005704,0.00006579,-0.00023255,-0.
 00058813,-0.00192802,0.00001779,0.00012066,0.00012051,-0.02582753,0.01
 460449,-0.00014648,0.00059681,0.00109855,0.00267595,0.00059123,0.00267
 228,-0.00233439,0.00010066,-0.00016611,0.00084258,0.00009339,0.0091358
 8,0.00423165,0.00103506,-0.00027501,-0.00013032,0.00022144,0.00169481,
 -0.00028287,-0.09782879,-0.01212730,0.00883425,0.00409345,0.01368034,-
 0.02462904,0.00735617,-0.01627441,0.02982799,0.00569336,0.00473117,-0.
 00550568,-0.00420520,-0.00132418,-0.00093562,0.50913175,-0.00826629,-0
 .00621724,0.00179621,0.00123479,0.00079162,-0.00071694,-0.00021171,0.0
 0021311,0.00019093,-0.00026308,0.00102995,0.00016199,0.00015469,-0.000
 12602,0.00000426,0.00082791,0.00789952,-0.00014115,0.00054135,-0.00066
 896,-0.00005774,0.00198937,0.00164566,-0.00000191,-0.00015320,-0.00088
 696,-0.00016692,0.01115784,-0.02575305,0.03855221,-0.00032813,-0.00708
 255,-0.00185539,-0.00034031,0.00162058,-0.00034762,0.00811373,-0.08901
 587,0.06502942,0.00213721,0.00687842,-0.00468402,-0.00343829,0.0025507
 3,0.00245326,0.00818457,-0.00863988,0.01024189,-0.00413752,0.00761589,
 0.00299339,0.05557423,0.14141569,0.00015940,0.00642853,-0.00455775,0.0
 0011863,-0.00119980,0.00033868,-0.00005225,0.00002131,-0.00015184,-0.0
 0136841,0.00015617,0.00157765,-0.00017739,0.00000561,0.00016618,0.0095
 2735,-0.00527229,0.00565786,0.00013749,-0.00078624,-0.00284242,-0.0006
 2660,-0.00113623,0.00318800,0.00066381,-0.00042604,-0.00088736,0.00057
 965,0.01917375,-0.02161213,0.00056940,0.00216237,0.00118919,0.00061301
 ,0.00135947,0.00146519,-0.03628179,0.05763617,-0.22006480,-0.00276625,
 0.01558945,-0.03264504,0.00034862,0.01398678,-0.02736077,0.00254445,-0
 .01028257,0.00857659,-0.00315075,0.00899714,-0.00105610,-0.08521171,-0
 .13892179,0.35875913,0.00836718,0.02244627,-0.00441410,-0.00055892,-0.
 00474991,-0.00094202,-0.00007053,-0.00002747,-0.00017772,-0.00000845,0
 .00071909,0.00308900,-0.00008198,-0.00021538,-0.00002002,0.00895462,-0
 .01631670,0.00308515,-0.00149787,-0.00160437,-0.00476617,-0.00108597,-
 0.00427420,0.00370787,0.00002881,0.00017985,-0.00133940,0.00142658,-0.
 00068456,-0.00502545,-0.00011533,0.00120292,0.00027551,-0.00023848,0.0
 0007143,0.00046105,0.00551333,-0.00174482,0.00489136,0.00059376,0.0014
 0639,-0.00416848,0.00124635,0.00116271,-0.00320077,-0.00861428,0.00007
 101,0.00165048,0.00357244,-0.00470749,-0.00019207,-0.39535120,-0.07277
 715,0.11437337,0.37791995,0.00586840,-0.00662206,0.00117820,-0.0004389
 4,0.00065047,0.00040049,0.00007144,-0.00014372,-0.00007210,0.00027493,
 -0.00095276,-0.00091958,-0.00011345,0.00012624,-0.00004912,-0.00692411
 ,-0.00451015,-0.00108343,-0.00033168,0.00131545,0.00124942,-0.00046340
 ,0.00034211,-0.00101932,0.00008064,0.00036016,0.00041064,-0.00266683,-
 0.00070571,0.00479195,0.00035858,-0.00032306,-0.00037302,0.00015073,0.
 00012712,-0.00028817,-0.01483698,-0.00543040,0.00718964,0.00082739,0.0
 0151228,-0.00034256,0.00109932,-0.00007187,-0.00079757,0.00077624,0.00
 060917,-0.00156908,-0.00243698,-0.00574314,-0.00111439,-0.06113766,-0.
 03327067,0.03250823,0.07984237,0.05273052,-0.00155067,-0.00216651,0.00
 201693,0.00008460,0.00014640,-0.00022978,-0.00005984,-0.00008592,-0.00
 000232,0.00069926,-0.00047356,-0.00063781,-0.00001014,-0.00004671,-0.0
 0005936,-0.00055944,0.00125694,-0.00826062,-0.00117058,0.00076055,0.00
 098423,0.00031164,0.00079785,-0.00111949,-0.00012201,0.00028688,0.0003
 8450,-0.00030388,0.00020796,-0.00028917,0.00012350,-0.00009563,-0.0000
 9431,0.00002982,-0.00019893,-0.00022427,0.03936254,0.01341322,-0.02554
 689,0.00071265,-0.00085698,0.00109803,-0.00090671,0.00314330,-0.005526
 33,0.00144358,-0.00034861,0.00006129,-0.00161554,-0.00110995,0.0013223
 2,0.07081880,0.02546990,-0.06974028,-0.10728758,-0.04010020,0.10586332
 \\-0.00000736,0.00001729,0.00000615,-0.00000577,-0.00000489,-0.0000029
 2,0.00000611,0.00000102,-0.00000604,-0.00000242,-0.00001182,-0.0000080
 4,-0.00000074,0.00000366,0.00000228,-0.00000708,-0.00000451,0.00000880
 ,0.00000368,0.00000837,0.00000763,-0.00000221,-0.00000043,-0.00001225,
 -0.00000020,-0.00000186,0.00000365,0.00000132,-0.00000308,-0.00000108,
 0.00000068,-0.00000276,-0.00000115,0.00000038,-0.00000162,-0.00000120,
 0.00000146,-0.00000209,0.00000354,-0.00000360,-0.00000285,0.00000277,-
 0.00000002,-0.00000296,0.00000174,0.00001003,0.00000238,-0.00000544,0.
 00000290,0.00000328,-0.00000009,0.00000771,0.00000811,-0.00000422,-0.0
 0000485,-0.00000523,0.00000587\\\@
 The archive entry for this job was punched.


 CONFIDENCE IS WHAT YOU FEEL BEFORE YOU FULLY
 COMPREHEND THE SITUATION.
 Job cpu time:       0 days  3 hours  5 minutes 47.3 seconds.
 Elapsed time:       0 days  0 hours 46 minutes 38.1 seconds.
 File lengths (MBytes):  RWF=    293 Int=      0 D2E=      0 Chk=     16 Scr=      1
 Normal termination of Gaussian 16 at Tue Jan 30 21:12:58 2024.
