 Entering Gaussian System, Link 0=/opt/software/gaussian/g16.c01/g16
 Initial command:
 /opt/software/gaussian/g16.c01/l1.exe "/scratch/arhender/27713422/Gau-501.inp" -scrdir="/scratch/arhender/27713422/"
 Entering Link 1 = /opt/software/gaussian/g16.c01/l1.exe PID=       502.
  
 Copyright (c) 1988-2019, Gaussian, Inc.  All Rights Reserved.
  
 This is part of the Gaussian(R) 16 program.  It is based on
 the Gaussian(R) 09 system (copyright 2009, Gaussian, Inc.),
 the Gaussian(R) 03 system (copyright 2003, Gaussian, Inc.),
 the Gaussian(R) 98 system (copyright 1998, Gaussian, Inc.),
 the Gaussian(R) 94 system (copyright 1995, Gaussian, Inc.),
 the Gaussian 92(TM) system (copyright 1992, Gaussian, Inc.),
 the Gaussian 90(TM) system (copyright 1990, Gaussian, Inc.),
 the Gaussian 88(TM) system (copyright 1988, Gaussian, Inc.),
 the Gaussian 86(TM) system (copyright 1986, Carnegie Mellon
 University), and the Gaussian 82(TM) system (copyright 1983,
 Carnegie Mellon University). Gaussian is a federally registered
 trademark of Gaussian, Inc.
  
 This software contains proprietary and confidential information,
 including trade secrets, belonging to Gaussian, Inc.
  
 This software is provided under written license and may be
 used, copied, transmitted, or stored only in accord with that
 written license.
  
 The following legend is applicable only to US Government
 contracts under FAR:
  
                    RESTRICTED RIGHTS LEGEND
  
 Use, reproduction and disclosure by the US Government is
 subject to restrictions as set forth in subparagraphs (a)
 and (c) of the Commercial Computer Software - Restricted
 Rights clause in FAR 52.227-19.
  
 Gaussian, Inc.
 340 Quinnipiac St., Bldg. 40, Wallingford CT 06492
  
  
 ---------------------------------------------------------------
 Warning -- This program may not be used in any manner that
 competes with the business of Gaussian, Inc. or will provide
 assistance to any competitor of Gaussian, Inc.  The licensee
 of this program is prohibited from giving any competitor of
 Gaussian, Inc. access to this program.  By using this program,
 the user acknowledges that Gaussian, Inc. is engaged in the
 business of creating and licensing software in the field of
 computational chemistry and represents and warrants to the
 licensee that it is not a competitor of Gaussian, Inc. and that
 it will not use this program in any manner prohibited above.
 ---------------------------------------------------------------
  

 Cite this work as:
 Gaussian 16, Revision C.01,
 M. J. Frisch, G. W. Trucks, H. B. Schlegel, G. E. Scuseria, 
 M. A. Robb, J. R. Cheeseman, G. Scalmani, V. Barone, 
 G. A. Petersson, H. Nakatsuji, X. Li, M. Caricato, A. V. Marenich, 
 J. Bloino, B. G. Janesko, R. Gomperts, B. Mennucci, H. P. Hratchian, 
 J. V. Ortiz, A. F. Izmaylov, J. L. Sonnenberg, D. Williams-Young, 
 F. Ding, F. Lipparini, F. Egidi, J. Goings, B. Peng, A. Petrone, 
 T. Henderson, D. Ranasinghe, V. G. Zakrzewski, J. Gao, N. Rega, 
 G. Zheng, W. Liang, M. Hada, M. Ehara, K. Toyota, R. Fukuda, 
 J. Hasegawa, M. Ishida, T. Nakajima, Y. Honda, O. Kitao, H. Nakai, 
 T. Vreven, K. Throssell, J. A. Montgomery, Jr., J. E. Peralta, 
 F. Ogliaro, M. J. Bearpark, J. J. Heyd, E. N. Brothers, K. N. Kudin, 
 V. N. Staroverov, T. A. Keith, R. Kobayashi, J. Normand, 
 K. Raghavachari, A. P. Rendell, J. C. Burant, S. S. Iyengar, 
 J. Tomasi, M. Cossi, J. M. Millam, M. Klene, C. Adamo, R. Cammi, 
 J. W. Ochterski, R. L. Martin, K. Morokuma, O. Farkas, 
 J. B. Foresman, and D. J. Fox, Gaussian, Inc., Wallingford CT, 2019.
 
 ******************************************
 Gaussian 16:  ES64L-G16RevC.01  3-Jul-2019
                25-Mar-2024 
 ******************************************
 %chk=IRC_attackingOHDeprotonated_SiOH4Attack_forward_ProductOpt.chk
 %mem=1600MB
 %nprocs=4
 Will use up to    4 processors via shared memory.
 ---------------------------------------------
 # opt freq wb97xd/def2tzvpp geom=connectivity
 ---------------------------------------------
 1/18=20,19=15,26=3,38=1,57=2/1,3;
 2/9=110,12=2,17=6,18=5,40=1/2;
 3/5=44,7=202,11=2,25=1,30=1,71=1,74=-58/1,2,3;
 4//1;
 5/5=2,38=5/2;
 6/7=2,8=2,9=2,10=2,28=1/1;
 7//1,2,3,16;
 1/18=20,19=15,26=3/3(2);
 2/9=110/2;
 99//99;
 2/9=110/2;
 3/5=44,7=202,11=2,25=1,30=1,71=1,74=-58/1,2,3;
 4/5=5,16=3,69=1/1;
 5/5=2,38=5/2;
 7//1,2,3,16;
 1/18=20,19=15,26=3/3(-5);
 2/9=110/2;
 6/7=2,8=2,9=2,10=2,19=2,28=1/1;
 99/9=1/99;
 --------------------------------------------------------
 forward IRC for Si Attack with attacking OH deprotonated
 --------------------------------------------------------
 Symbolic Z-matrix:
 Charge = -1 Multiplicity = 1
 C                     1.69429   0.81665   0.61522 
 H                     0.91573   1.53203   0.95796 
 H                     2.51319   0.90364   1.35563 
 C                     1.07095  -0.60033   0.76622 
 H                     1.23907  -1.13863  -0.16415 
 H                     1.53741  -1.17057   1.5694 
 O                     2.11345   1.06534  -0.66658 
 H                     3.05998  -0.04445  -0.5884 
 O                     3.57731  -0.86891  -0.27433 
 H                     3.6142   -1.4517   -1.01926 
 Si                   -1.41277  -0.04677  -0.03472 
 O                    -2.40236   0.99782   0.7625 
 H                    -1.95357   1.40875   1.5045 
 O                    -0.67159   0.55385  -1.35057 
 H                     0.28904   0.78939  -1.27547 
 O                    -0.33092  -0.57259   1.05667 
 O                    -2.45748  -1.20635  -0.56136 
 H                    -2.16909  -1.61006  -1.37631 
 
 Add virtual bond connecting atoms O9         and H8         Dist= 1.93D+00.
 Add virtual bond connecting atoms H8         and O7         Dist= 2.76D+00.

 GradGradGradGradGradGradGradGradGradGradGradGradGradGradGradGradGradGrad
 Berny optimization.
 Initialization pass.
                           ----------------------------
                           !    Initial Parameters    !
                           ! (Angstroms and Degrees)  !
 --------------------------                            --------------------------
 ! Name  Definition              Value          Derivative Info.                !
 --------------------------------------------------------------------------------
 ! R1    R(1,2)                  1.1115         estimate D2E/DX2                !
 ! R2    R(1,3)                  1.1074         estimate D2E/DX2                !
 ! R3    R(1,4)                  1.5554         estimate D2E/DX2                !
 ! R4    R(1,7)                  1.3713         estimate D2E/DX2                !
 ! R5    R(4,5)                  1.0879         estimate D2E/DX2                !
 ! R6    R(4,6)                  1.0899         estimate D2E/DX2                !
 ! R7    R(4,16)                 1.4319         estimate D2E/DX2                !
 ! R8    R(7,8)                  1.4607         estimate D2E/DX2                !
 ! R9    R(8,9)                  1.0227         estimate D2E/DX2                !
 ! R10   R(9,10)                 0.9465         estimate D2E/DX2                !
 ! R11   R(11,12)                1.645          estimate D2E/DX2                !
 ! R12   R(11,14)                1.6253         estimate D2E/DX2                !
 ! R13   R(11,16)                1.6242         estimate D2E/DX2                !
 ! R14   R(11,17)                1.6472         estimate D2E/DX2                !
 ! R15   R(12,13)                0.9596         estimate D2E/DX2                !
 ! R16   R(14,15)                0.9919         estimate D2E/DX2                !
 ! R17   R(17,18)                0.9541         estimate D2E/DX2                !
 ! A1    A(2,1,3)              105.144          estimate D2E/DX2                !
 ! A2    A(2,1,4)              106.0038         estimate D2E/DX2                !
 ! A3    A(2,1,7)              112.6818         estimate D2E/DX2                !
 ! A4    A(3,1,4)              107.6388         estimate D2E/DX2                !
 ! A5    A(3,1,7)              112.6228         estimate D2E/DX2                !
 ! A6    A(4,1,7)              112.238          estimate D2E/DX2                !
 ! A7    A(1,4,5)              107.8073         estimate D2E/DX2                !
 ! A8    A(1,4,6)              112.1277         estimate D2E/DX2                !
 ! A9    A(1,4,16)             113.2288         estimate D2E/DX2                !
 ! A10   A(5,4,6)              107.7689         estimate D2E/DX2                !
 ! A11   A(5,4,16)             109.5325         estimate D2E/DX2                !
 ! A12   A(6,4,16)             106.24           estimate D2E/DX2                !
 ! A13   A(1,7,8)               90.5874         estimate D2E/DX2                !
 ! A14   A(7,8,9)              163.072          estimate D2E/DX2                !
 ! A15   A(8,9,10)             105.9247         estimate D2E/DX2                !
 ! A16   A(12,11,14)           115.5968         estimate D2E/DX2                !
 ! A17   A(12,11,16)           106.2973         estimate D2E/DX2                !
 ! A18   A(12,11,17)           102.7343         estimate D2E/DX2                !
 ! A19   A(14,11,16)           111.0943         estimate D2E/DX2                !
 ! A20   A(14,11,17)           106.8899         estimate D2E/DX2                !
 ! A21   A(16,11,17)           114.1656         estimate D2E/DX2                !
 ! A22   A(11,12,13)           111.4273         estimate D2E/DX2                !
 ! A23   A(11,14,15)           117.9112         estimate D2E/DX2                !
 ! A24   A(4,16,11)            121.4715         estimate D2E/DX2                !
 ! A25   A(11,17,18)           112.2869         estimate D2E/DX2                !
 ! D1    D(2,1,4,5)            131.4728         estimate D2E/DX2                !
 ! D2    D(2,1,4,6)           -110.0617         estimate D2E/DX2                !
 ! D3    D(2,1,4,16)            10.1402         estimate D2E/DX2                !
 ! D4    D(3,1,4,5)           -116.4173         estimate D2E/DX2                !
 ! D5    D(3,1,4,6)              2.0482         estimate D2E/DX2                !
 ! D6    D(3,1,4,16)           122.2502         estimate D2E/DX2                !
 ! D7    D(7,1,4,5)              8.0601         estimate D2E/DX2                !
 ! D8    D(7,1,4,6)            126.5256         estimate D2E/DX2                !
 ! D9    D(7,1,4,16)          -113.2724         estimate D2E/DX2                !
 ! D10   D(2,1,7,8)            178.9087         estimate D2E/DX2                !
 ! D11   D(3,1,7,8)             60.1638         estimate D2E/DX2                !
 ! D12   D(4,1,7,8)            -61.5071         estimate D2E/DX2                !
 ! D13   D(1,4,16,11)           67.5632         estimate D2E/DX2                !
 ! D14   D(5,4,16,11)          -52.7931         estimate D2E/DX2                !
 ! D15   D(6,4,16,11)         -168.9356         estimate D2E/DX2                !
 ! D16   D(1,7,8,9)              7.8439         estimate D2E/DX2                !
 ! D17   D(7,8,9,10)           132.3009         estimate D2E/DX2                !
 ! D18   D(14,11,12,13)        -96.6114         estimate D2E/DX2                !
 ! D19   D(16,11,12,13)         27.157          estimate D2E/DX2                !
 ! D20   D(17,11,12,13)        147.3782         estimate D2E/DX2                !
 ! D21   D(12,11,14,15)        104.0057         estimate D2E/DX2                !
 ! D22   D(16,11,14,15)        -17.2129         estimate D2E/DX2                !
 ! D23   D(17,11,14,15)       -142.3604         estimate D2E/DX2                !
 ! D24   D(12,11,16,4)        -132.4993         estimate D2E/DX2                !
 ! D25   D(14,11,16,4)          -5.97           estimate D2E/DX2                !
 ! D26   D(17,11,16,4)         114.9872         estimate D2E/DX2                !
 ! D27   D(12,11,17,18)        149.9074         estimate D2E/DX2                !
 ! D28   D(14,11,17,18)         27.7996         estimate D2E/DX2                !
 ! D29   D(16,11,17,18)        -95.4642         estimate D2E/DX2                !
 --------------------------------------------------------------------------------
 Trust Radius=3.00D-01 FncErr=1.00D-07 GrdErr=1.00D-06 EigMax=2.50D+02 EigMin=1.00D-04
 Number of steps in this run=     81 maximum allowed number of steps=    108.
 GradGradGradGradGradGradGradGradGradGradGradGradGradGradGradGradGradGrad

                          Input orientation:                          
 ---------------------------------------------------------------------
 Center     Atomic      Atomic             Coordinates (Angstroms)
 Number     Number       Type             X           Y           Z
 ---------------------------------------------------------------------
      1          6           0        1.694286    0.816649    0.615223
      2          1           0        0.915733    1.532027    0.957964
      3          1           0        2.513188    0.903643    1.355625
      4          6           0        1.070947   -0.600327    0.766217
      5          1           0        1.239073   -1.138633   -0.164147
      6          1           0        1.537413   -1.170571    1.569402
      7          8           0        2.113447    1.065344   -0.666583
      8          1           0        3.059975   -0.044446   -0.588403
      9          8           0        3.577308   -0.868905   -0.274328
     10          1           0        3.614198   -1.451701   -1.019258
     11         14           0       -1.412773   -0.046773   -0.034724
     12          8           0       -2.402359    0.997820    0.762498
     13          1           0       -1.953569    1.408747    1.504496
     14          8           0       -0.671589    0.553846   -1.350566
     15          1           0        0.289040    0.789385   -1.275471
     16          8           0       -0.330920   -0.572593    1.056672
     17          8           0       -2.457484   -1.206350   -0.561356
     18          1           0       -2.169095   -1.610059   -1.376305
 ---------------------------------------------------------------------
                    Distance matrix (angstroms):
                    1          2          3          4          5
     1  C    0.000000
     2  H    1.111477   0.000000
     3  H    1.107413   1.762062   0.000000
     4  C    1.555369   2.146577   2.165499   0.000000
     5  H    2.153547   2.914808   2.846747   1.087942   0.000000
     6  H    2.210002   2.839785   2.302217   1.089897   1.759323
     7  O    1.371339   2.071585   2.067671   2.431909   2.423734
     8  H    2.013779   3.078034   2.230940   2.469865   2.166315
     9  O    2.679210   3.790383   2.632684   2.727034   2.356318
    10  H    3.391608   4.482606   3.521355   3.221938   2.543707
    11  Si   3.289642   2.983283   4.271947   2.667732   2.870748
    12  O    4.103293   3.366499   4.952098   3.823342   4.322399
    13  H    3.801083   2.923489   4.497689   3.705284   4.412083
    14  O    3.087192   2.967447   4.193880   2.974780   2.814730
    15  H    2.355883   2.435671   3.447108   2.590592   2.419681
    16  O    2.495261   2.448124   3.218322   1.431909   2.067771
    17  O    4.765927   4.602786   5.730137   3.818316   3.718453
    18  H    4.978033   4.983742   5.975443   4.013456   3.647901
                    6          7          8          9         10
     6  H    0.000000
     7  O    3.214150   0.000000
     8  H    2.870971   1.460706   0.000000
     9  O    2.766137   2.457249   1.022746   0.000000
    10  H    3.330650   2.951635   1.572630   0.946537   0.000000
    11  Si   3.541149   3.751037   4.506888   5.063025   5.311645
    12  O    4.568897   4.737018   5.722617   6.349495   6.736005
    13  H    4.340973   4.623000   5.623844   6.240394   6.749187
    14  O    4.047162   2.913055   3.855310   4.608214   4.743412
    15  H    3.673304   1.943028   2.974125   3.816401   4.018058
    16  O    2.027594   3.409894   3.805704   4.139276   4.543817
    17  O    4.527760   5.105397   5.638538   6.051030   6.093865
    18  H    4.754844   5.099182   5.514989   5.897865   5.796468
                   11         12         13         14         15
    11  Si   0.000000
    12  O    1.644998   0.000000
    13  H    2.186366   0.959601   0.000000
    14  O    1.625281   2.767258   3.244335   0.000000
    15  H    2.266005   3.382365   3.625068   0.991930   0.000000
    16  O    1.624204   2.616027   2.599855   2.679499   2.770961
    17  O    1.647234   2.571769   3.370520   2.628795   3.469339
    18  H    2.194476   3.380817   4.178356   2.631667   3.436557
                   16         17         18
    16  O    0.000000
    17  O    2.746259   0.000000
    18  H    3.220963   0.954092   0.000000
 Stoichiometry    C2H9O6Si(1-)
 Framework group  C1[X(C2H9O6Si)]
 Deg. of freedom    48
 Full point group                 C1      NOp   1
 Largest Abelian subgroup         C1      NOp   1
 Largest concise Abelian subgroup C1      NOp   1
                         Standard orientation:                         
 ---------------------------------------------------------------------
 Center     Atomic      Atomic             Coordinates (Angstroms)
 Number     Number       Type             X           Y           Z
 ---------------------------------------------------------------------
      1          6           0        1.619912   -1.016640   -0.280003
      2          1           0        0.828123   -1.795898   -0.314758
      3          1           0        2.422442   -1.389738   -0.945666
      4          6           0        1.006086    0.248347   -0.944983
      5          1           0        1.198262    1.095204   -0.289606
      6          1           0        1.460759    0.465740   -1.911361
      7          8           0        2.063428   -0.769857    0.993953
      8          1           0        3.017874    0.213041    0.487391
      9          8           0        3.535814    0.849594   -0.122976
     10          1           0        3.593323    1.669762    0.346012
     11         14           0       -1.465226    0.077869    0.045143
     12          8           0       -2.480348   -1.174358   -0.282690
     13          1           0       -2.050725   -1.842063   -0.821604
     14          8           0       -0.702164    0.006490    1.478383
     15          1           0        0.254581   -0.255325    1.482511
     16          8           0       -0.401708    0.135500   -1.181090
     17          8           0       -2.488495    1.367019    0.111435
     18          1           0       -2.179673    2.043766    0.708873
 ---------------------------------------------------------------------
 Rotational constants (GHZ):           2.5427680           0.7075319           0.6961420
 Standard basis: def2TZVPP (5D, 7F)
 There are   471 symmetry adapted cartesian basis functions of A   symmetry.
 There are   416 symmetry adapted basis functions of A   symmetry.
   416 basis functions,   630 primitive gaussians,   471 cartesian basis functions
    42 alpha electrons       42 beta electrons
       nuclear repulsion energy       624.6467316391 Hartrees.
 NAtoms=   18 NActive=   18 NUniq=   18 SFac= 1.00D+00 NAtFMM=   60 NAOKFM=F Big=F
 Integral buffers will be    131072 words long.
 Raffenetti 2 integral format.
 Two-electron integral symmetry is turned on.
 Nuclear repulsion after empirical dispersion term =      624.6371936057 Hartrees.
 One-electron integrals computed using PRISM.
   1 Symmetry operations used in ECPInt.
 ECPInt:  NShTT=   12246 NPrTT=   33908 LenC2=   11557 LenP2D=   25048.
 LDataN:  DoStor=T MaxTD1= 6 Len=  172
 NBasis=   416 RedAO= T EigKep=  2.02D-04  NBF=   416
 NBsUse=   416 1.00D-06 EigRej= -1.00D+00 NBFU=   416
 ExpMin= 7.01D-02 ExpMax= 4.48D+04 ExpMxC= 1.53D+03 IAcc=3 IRadAn=         5 AccDes= 0.00D+00
 Harris functional with IExCor= 4639 and IRadAn=       5 diagonalized for initial guess.
 HarFok:  IExCor= 4639 AccDes= 0.00D+00 IRadAn=         5 IDoV= 1 UseB2=F ITyADJ=14
 ICtDFT=  3500011 ScaDFX=  1.000000  1.000000  1.000000  1.000000
 FoFCou: FMM=F IPFlag=           0 FMFlag=      100000 FMFlg1=           0
         NFxFlg=           0 DoJE=T BraDBF=F KetDBF=T FulRan=T
         wScrn=  0.000000 ICntrl=       500 IOpCl=  0 I1Cent=   200000004 NGrid=           0
         NMat0=    1 NMatS0=      1 NMatT0=    0 NMatD0=    1 NMtDS0=    0 NMtDT0=    0
 Petite list used in FoFCou.
 Requested convergence on RMS density matrix=1.00D-08 within 128 cycles.
 Requested convergence on MAX density matrix=1.00D-06.
 Requested convergence on             energy=1.00D-06.
 No special actions if energy rises.
 Integral accuracy reduced to 1.0D-05 until final iterations.
 Initial convergence to 1.0D-05 achieved.  Increase integral accuracy.
 SCF Done:  E(RwB97XD) =  -822.786831801     A.U. after   14 cycles
            NFock= 14  Conv=0.60D-08     -V/T= 2.0033

 **********************************************************************

            Population analysis using the SCF Density.

 **********************************************************************

 Orbital symmetries:
       Occupied  (A) (A) (A) (A) (A) (A) (A) (A) (A) (A) (A) (A)
                 (A) (A) (A) (A) (A) (A) (A) (A) (A) (A) (A) (A)
                 (A) (A) (A) (A) (A) (A) (A) (A) (A) (A) (A) (A)
                 (A) (A) (A) (A) (A) (A)
       Virtual   (A) (A) (A) (A) (A) (A) (A) (A) (A) (A) (A) (A)
                 (A) (A) (A) (A) (A) (A) (A) (A) (A) (A) (A) (A)
                 (A) (A) (A) (A) (A) (A) (A) (A) (A) (A) (A) (A)
                 (A) (A) (A) (A) (A) (A) (A) (A) (A) (A) (A) (A)
                 (A) (A) (A) (A) (A) (A) (A) (A) (A) (A) (A) (A)
                 (A) (A) (A) (A) (A) (A) (A) (A) (A) (A) (A) (A)
                 (A) (A) (A) (A) (A) (A) (A) (A) (A) (A) (A) (A)
                 (A) (A) (A) (A) (A) (A) (A) (A) (A) (A) (A) (A)
                 (A) (A) (A) (A) (A) (A) (A) (A) (A) (A) (A) (A)
                 (A) (A) (A) (A) (A) (A) (A) (A) (A) (A) (A) (A)
                 (A) (A) (A) (A) (A) (A) (A) (A) (A) (A) (A) (A)
                 (A) (A) (A) (A) (A) (A) (A) (A) (A) (A) (A) (A)
                 (A) (A) (A) (A) (A) (A) (A) (A) (A) (A) (A) (A)
                 (A) (A) (A) (A) (A) (A) (A) (A) (A) (A) (A) (A)
                 (A) (A) (A) (A) (A) (A) (A) (A) (A) (A) (A) (A)
                 (A) (A) (A) (A) (A) (A) (A) (A) (A) (A) (A) (A)
                 (A) (A) (A) (A) (A) (A) (A) (A) (A) (A) (A) (A)
                 (A) (A) (A) (A) (A) (A) (A) (A) (A) (A) (A) (A)
                 (A) (A) (A) (A) (A) (A) (A) (A) (A) (A) (A) (A)
                 (A) (A) (A) (A) (A) (A) (A) (A) (A) (A) (A) (A)
                 (A) (A) (A) (A) (A) (A) (A) (A) (A) (A) (A) (A)
                 (A) (A) (A) (A) (A) (A) (A) (A) (A) (A) (A) (A)
                 (A) (A) (A) (A) (A) (A) (A) (A) (A) (A) (A) (A)
                 (A) (A) (A) (A) (A) (A) (A) (A) (A) (A) (A) (A)
                 (A) (A) (A) (A) (A) (A) (A) (A) (A) (A) (A) (A)
                 (A) (A) (A) (A) (A) (A) (A) (A) (A) (A) (A) (A)
                 (A) (A) (A) (A) (A) (A) (A) (A) (A) (A) (A) (A)
                 (A) (A) (A) (A) (A) (A) (A) (A) (A) (A) (A) (A)
                 (A) (A) (A) (A) (A) (A) (A) (A) (A) (A) (A) (A)
                 (A) (A) (A) (A) (A) (A) (A) (A) (A) (A) (A) (A)
                 (A) (A) (A) (A) (A) (A) (A) (A) (A) (A) (A) (A)
                 (A) (A)
 The electronic state is 1-A.
 Alpha  occ. eigenvalues --  -66.16388 -19.12067 -19.11801 -19.09933 -19.09319
 Alpha  occ. eigenvalues --  -19.03804 -18.99044 -10.16793 -10.14693  -5.28154
 Alpha  occ. eigenvalues --   -3.62687  -3.62629  -3.62609  -1.00015  -0.96895
 Alpha  occ. eigenvalues --   -0.96147  -0.93788  -0.91133  -0.85742  -0.64736
 Alpha  occ. eigenvalues --   -0.54205  -0.52123  -0.46439  -0.45078  -0.43751
 Alpha  occ. eigenvalues --   -0.42987  -0.39659  -0.36902  -0.34048  -0.33418
 Alpha  occ. eigenvalues --   -0.31524  -0.31107  -0.30170  -0.29722  -0.29252
 Alpha  occ. eigenvalues --   -0.28033  -0.26062  -0.24427  -0.23293  -0.20262
 Alpha  occ. eigenvalues --   -0.13320  -0.12744
 Alpha virt. eigenvalues --    0.21753   0.24186   0.26341   0.28879   0.29905
 Alpha virt. eigenvalues --    0.31109   0.31692   0.33688   0.34563   0.36571
 Alpha virt. eigenvalues --    0.37183   0.38874   0.40660   0.42065   0.42678
 Alpha virt. eigenvalues --    0.44922   0.45205   0.46181   0.47697   0.48356
 Alpha virt. eigenvalues --    0.51348   0.52829   0.55846   0.56312   0.56769
 Alpha virt. eigenvalues --    0.58258   0.59385   0.59807   0.60687   0.62124
 Alpha virt. eigenvalues --    0.63314   0.63502   0.65110   0.65242   0.66239
 Alpha virt. eigenvalues --    0.68076   0.68556   0.69325   0.69360   0.71049
 Alpha virt. eigenvalues --    0.71615   0.72535   0.72985   0.73953   0.75302
 Alpha virt. eigenvalues --    0.76773   0.77294   0.79822   0.81259   0.82272
 Alpha virt. eigenvalues --    0.83101   0.83840   0.84414   0.86573   0.87327
 Alpha virt. eigenvalues --    0.88704   0.90569   0.92602   0.93742   0.94373
 Alpha virt. eigenvalues --    0.97267   0.97885   0.98958   1.00983   1.02860
 Alpha virt. eigenvalues --    1.04852   1.05747   1.07442   1.08466   1.10429
 Alpha virt. eigenvalues --    1.11167   1.12221   1.14243   1.14482   1.15923
 Alpha virt. eigenvalues --    1.17764   1.18714   1.20350   1.21834   1.22710
 Alpha virt. eigenvalues --    1.27626   1.27972   1.28967   1.30185   1.31035
 Alpha virt. eigenvalues --    1.33317   1.34707   1.35133   1.37185   1.37964
 Alpha virt. eigenvalues --    1.39941   1.43588   1.43894   1.45182   1.45923
 Alpha virt. eigenvalues --    1.47520   1.50200   1.51913   1.53427   1.56183
 Alpha virt. eigenvalues --    1.57674   1.59649   1.60305   1.61106   1.63416
 Alpha virt. eigenvalues --    1.64028   1.67110   1.67377   1.70604   1.73633
 Alpha virt. eigenvalues --    1.74521   1.76589   1.79267   1.80722   1.84857
 Alpha virt. eigenvalues --    1.86246   1.88168   1.92817   1.93829   1.95038
 Alpha virt. eigenvalues --    1.97070   2.00683   2.02550   2.04503   2.05247
 Alpha virt. eigenvalues --    2.05950   2.07642   2.10078   2.12189   2.12958
 Alpha virt. eigenvalues --    2.15330   2.17540   2.19388   2.20594   2.21640
 Alpha virt. eigenvalues --    2.23339   2.25981   2.26895   2.28533   2.30321
 Alpha virt. eigenvalues --    2.31405   2.35232   2.37404   2.38694   2.41073
 Alpha virt. eigenvalues --    2.41568   2.43430   2.45773   2.47127   2.47918
 Alpha virt. eigenvalues --    2.51423   2.53855   2.59045   2.64999   2.70263
 Alpha virt. eigenvalues --    2.72148   2.72760   2.76280   2.79962   2.83480
 Alpha virt. eigenvalues --    2.85252   2.89567   2.90174   2.93326   2.93820
 Alpha virt. eigenvalues --    2.95702   2.97229   3.01237   3.04584   3.07676
 Alpha virt. eigenvalues --    3.08451   3.08994   3.11580   3.13547   3.14134
 Alpha virt. eigenvalues --    3.16621   3.17357   3.19296   3.23033   3.25712
 Alpha virt. eigenvalues --    3.27584   3.27872   3.29645   3.31460   3.33944
 Alpha virt. eigenvalues --    3.37447   3.39060   3.40907   3.44605   3.45379
 Alpha virt. eigenvalues --    3.45980   3.48392   3.49255   3.50864   3.53558
 Alpha virt. eigenvalues --    3.53999   3.55001   3.55535   3.56587   3.57085
 Alpha virt. eigenvalues --    3.59727   3.60460   3.62754   3.65354   3.65796
 Alpha virt. eigenvalues --    3.69503   3.70656   3.74705   3.74966   3.76949
 Alpha virt. eigenvalues --    3.77145   3.79023   3.81383   3.82885   3.86254
 Alpha virt. eigenvalues --    3.87276   3.89348   3.91155   3.92424   3.94026
 Alpha virt. eigenvalues --    3.95248   3.97890   3.99352   4.01284   4.02929
 Alpha virt. eigenvalues --    4.05014   4.08233   4.10136   4.12589   4.14481
 Alpha virt. eigenvalues --    4.15960   4.17724   4.19778   4.21919   4.24295
 Alpha virt. eigenvalues --    4.24507   4.26989   4.28223   4.29125   4.30820
 Alpha virt. eigenvalues --    4.31900   4.35089   4.36142   4.37510   4.39127
 Alpha virt. eigenvalues --    4.39968   4.41907   4.43543   4.45491   4.49720
 Alpha virt. eigenvalues --    4.50199   4.53131   4.53931   4.55664   4.59935
 Alpha virt. eigenvalues --    4.63247   4.64400   4.66687   4.68810   4.71450
 Alpha virt. eigenvalues --    4.83477   4.85233   4.88157   4.90847   4.95697
 Alpha virt. eigenvalues --    4.96878   4.97963   5.00297   5.05193   5.08738
 Alpha virt. eigenvalues --    5.10318   5.11950   5.12388   5.14897   5.15371
 Alpha virt. eigenvalues --    5.17990   5.19887   5.20476   5.23558   5.26584
 Alpha virt. eigenvalues --    5.31430   5.33755   5.38269   5.38619   5.39346
 Alpha virt. eigenvalues --    5.42836   5.44841   5.47379   5.52424   5.54661
 Alpha virt. eigenvalues --    5.55990   5.57341   5.60907   5.62362   5.63302
 Alpha virt. eigenvalues --    5.63627   5.68744   5.69428   5.73113   5.78149
 Alpha virt. eigenvalues --    5.79112   5.84170   5.86357   5.88601   5.90133
 Alpha virt. eigenvalues --    5.92192   5.95030   5.95934   6.00387   6.07794
 Alpha virt. eigenvalues --    6.08233   6.18802   6.26978   6.33990   6.39850
 Alpha virt. eigenvalues --    6.41775   6.52101   6.54314   6.61605   6.65352
 Alpha virt. eigenvalues --    6.66530   6.72003   6.75365   6.76039   6.76819
 Alpha virt. eigenvalues --    6.77397   6.79159   6.80137   6.81711   6.82059
 Alpha virt. eigenvalues --    6.84207   6.84446   6.84757   6.89462   6.90006
 Alpha virt. eigenvalues --    6.92699   6.93134   6.95865   6.96054   6.97023
 Alpha virt. eigenvalues --    6.98445   7.04030   7.04614   7.09874   7.10907
 Alpha virt. eigenvalues --    7.17591   7.22740   7.25340   7.26141   7.29439
 Alpha virt. eigenvalues --    7.38825   7.41912   7.43058   7.47616   7.48868
 Alpha virt. eigenvalues --    7.52010   7.56464   7.57756   7.65779   7.71156
 Alpha virt. eigenvalues --    7.73415   7.92598   7.93679   7.96743   8.05424
 Alpha virt. eigenvalues --   12.39887  23.52125  23.68103  43.94575  43.97785
 Alpha virt. eigenvalues --   44.09840  44.11456  44.33242  44.53476
          Condensed to atoms (all electrons):
               1          2          3          4          5          6
     1  C    4.864909   0.343613   0.368762   0.248867  -0.079788  -0.025956
     2  H    0.343613   0.818576  -0.075442  -0.070411   0.005185   0.016116
     3  H    0.368762  -0.075442   0.783937  -0.048679   0.010001  -0.008008
     4  C    0.248867  -0.070411  -0.048679   5.145432   0.381984   0.309423
     5  H   -0.079788   0.005185   0.010001   0.381984   0.680357  -0.023042
     6  H   -0.025956   0.016116  -0.008008   0.309423  -0.023042   0.695179
     7  O    0.278307  -0.039236  -0.048265  -0.123039   0.013930   0.017325
     8  H   -0.053394   0.010084  -0.012672   0.008205  -0.002435   0.001681
     9  O    0.037987  -0.002856   0.006924  -0.054796   0.036923   0.001256
    10  H   -0.003682   0.000092  -0.000151  -0.006268   0.005177   0.001142
    11  Si   0.008626   0.013169  -0.002738  -0.044869  -0.018456   0.003521
    12  O   -0.002318   0.001080   0.000005   0.000451  -0.000281  -0.000047
    13  H   -0.001561   0.003441   0.000000   0.000301   0.000045   0.000163
    14  O    0.007143  -0.001238  -0.000710  -0.000277   0.000771   0.000583
    15  H   -0.018366  -0.010271   0.007279  -0.012508   0.010607   0.000402
    16  O   -0.050323  -0.004459   0.006397   0.203228  -0.042534  -0.034645
    17  O    0.000369  -0.000349   0.000009  -0.004725   0.001499  -0.000258
    18  H   -0.000079  -0.000012   0.000000  -0.000159   0.000375   0.000001
               7          8          9         10         11         12
     1  C    0.278307  -0.053394   0.037987  -0.003682   0.008626  -0.002318
     2  H   -0.039236   0.010084  -0.002856   0.000092   0.013169   0.001080
     3  H   -0.048265  -0.012672   0.006924  -0.000151  -0.002738   0.000005
     4  C   -0.123039   0.008205  -0.054796  -0.006268  -0.044869   0.000451
     5  H    0.013930  -0.002435   0.036923   0.005177  -0.018456  -0.000281
     6  H    0.017325   0.001681   0.001256   0.001142   0.003521  -0.000047
     7  O    8.509544   0.149539  -0.121660   0.012092  -0.008862   0.000060
     8  H    0.149539   0.407428   0.276936  -0.026993   0.000202   0.000002
     9  O   -0.121660   0.276936   8.023722   0.308313  -0.000490  -0.000000
    10  H    0.012092  -0.026993   0.308313   0.590654  -0.000142   0.000000
    11  Si  -0.008862   0.000202  -0.000490  -0.000142  11.518300   0.457304
    12  O    0.000060   0.000002  -0.000000   0.000000   0.457304   7.721103
    13  H   -0.000007   0.000013  -0.000003   0.000000  -0.028518   0.332389
    14  O   -0.033428   0.000380  -0.000139   0.000005   0.462354  -0.026617
    15  H    0.102134  -0.001182   0.001064   0.000022  -0.035759   0.000207
    16  O    0.006849  -0.001090   0.001850  -0.000062   0.439317  -0.036832
    17  O    0.000009  -0.000007   0.000002  -0.000000   0.463642  -0.023758
    18  H    0.000013   0.000001   0.000001   0.000000  -0.027268   0.002162
              13         14         15         16         17         18
     1  C   -0.001561   0.007143  -0.018366  -0.050323   0.000369  -0.000079
     2  H    0.003441  -0.001238  -0.010271  -0.004459  -0.000349  -0.000012
     3  H    0.000000  -0.000710   0.007279   0.006397   0.000009   0.000000
     4  C    0.000301  -0.000277  -0.012508   0.203228  -0.004725  -0.000159
     5  H    0.000045   0.000771   0.010607  -0.042534   0.001499   0.000375
     6  H    0.000163   0.000583   0.000402  -0.034645  -0.000258   0.000001
     7  O   -0.000007  -0.033428   0.102134   0.006849   0.000009   0.000013
     8  H    0.000013   0.000380  -0.001182  -0.001090  -0.000007   0.000001
     9  O   -0.000003  -0.000139   0.001064   0.001850   0.000002   0.000001
    10  H    0.000000   0.000005   0.000022  -0.000062  -0.000000   0.000000
    11  Si  -0.028518   0.462354  -0.035759   0.439317   0.463642  -0.027268
    12  O    0.332389  -0.026617   0.000207  -0.036832  -0.023758   0.002162
    13  H    0.519721  -0.000661  -0.000082   0.001768   0.001940  -0.000198
    14  O   -0.000661   7.813722   0.309100  -0.024631  -0.035648   0.000496
    15  H   -0.000082   0.309100   0.418349   0.000585   0.000843  -0.000133
    16  O    0.001768  -0.024631   0.000585   7.956548  -0.026207  -0.000672
    17  O    0.001940  -0.035648   0.000843  -0.026207   7.713050   0.329485
    18  H   -0.000198   0.000496  -0.000133  -0.000672   0.329485   0.533121
 Mulliken charges:
               1
     1  C    0.076886
     2  H   -0.007082
     3  H    0.013351
     4  C    0.067841
     5  H    0.019681
     6  H    0.045163
     7  O   -0.715305
     8  H    0.243303
     9  O   -0.515034
    10  H    0.119801
    11  Si   0.800664
    12  O   -0.424910
    13  H    0.171247
    14  O   -0.471203
    15  H    0.227710
    16  O   -0.395084
    17  O   -0.419894
    18  H    0.162865
 Sum of Mulliken charges =  -1.00000
 Mulliken charges with hydrogens summed into heavy atoms:
               1
     1  C    0.083155
     4  C    0.132686
     7  O   -0.715305
     9  O   -0.151930
    11  Si   0.800664
    12  O   -0.253662
    14  O   -0.243493
    16  O   -0.395084
    17  O   -0.257030
 Electronic spatial extent (au):  <R**2>=           1757.3990
 Charge=             -1.0000 electrons
 Dipole moment (field-independent basis, Debye):
    X=             -4.2818    Y=              1.7018    Z=             -1.2818  Tot=              4.7825
 Quadrupole moment (field-independent basis, Debye-Ang):
   XX=           -104.6513   YY=            -59.8473   ZZ=            -70.5709
   XY=              3.6839   XZ=             -1.4964   YZ=              7.9894
 Traceless Quadrupole moment (field-independent basis, Debye-Ang):
   XX=            -26.2948   YY=             18.5092   ZZ=              7.7856
   XY=              3.6839   XZ=             -1.4964   YZ=              7.9894
 Octapole moment (field-independent basis, Debye-Ang**2):
  XXX=            -61.1890  YYY=             14.7919  ZZZ=             -3.5763  XYY=             -6.8831
  XXY=              7.4248  XXZ=              6.3960  XZZ=             -8.4549  YZZ=              4.2055
  YYZ=              2.6653  XYZ=              2.9913
 Hexadecapole moment (field-independent basis, Debye-Ang**3):
 XXXX=          -2038.8096 YYYY=           -284.8152 ZZZZ=           -312.2966 XXXY=              7.1069
 XXXZ=             26.5592 YYYX=             30.1942 YYYZ=             29.8175 ZZZX=              2.9974
 ZZZY=              8.3601 XXYY=           -306.7583 XXZZ=           -317.7561 YYZZ=           -100.7363
 XXYZ=             49.2521 YYXZ=              1.6198 ZZXY=             11.3868
 N-N= 6.246371936057D+02 E-N=-3.211782638162D+03  KE= 8.201080691204D+02
   1 Symmetry operations used in ECPInt.
 ECPInt:  NShTT=   12246 NPrTT=   33908 LenC2=   11557 LenP2D=   25048.
 LDataN:  DoStor=T MaxTD1= 7 Len=  274
 Calling FoFJK, ICntrl=      2127 FMM=F ISym2X=0 I1Cent= 0 IOpClX= 0 NMat=1 NMatS=1 NMatT=0.
 ***** Axes restored to original set *****
 -------------------------------------------------------------------
 Center     Atomic                   Forces (Hartrees/Bohr)
 Number     Number              X              Y              Z
 -------------------------------------------------------------------
      1        6          -0.002957617    0.000407014   -0.000647785
      2        1          -0.000216308    0.000117180    0.000375642
      3        1           0.000371792   -0.000061091   -0.000328566
      4        6          -0.001786918   -0.000071663    0.006662659
      5        1           0.000300421   -0.000304272    0.000331348
      6        1           0.000035924    0.000196012    0.000459730
      7        8          -0.015013261    0.004067342   -0.000043616
      8        1          -0.000624000    0.002724507   -0.003574319
      9        8           0.017489657   -0.006843694    0.004214787
     10        1           0.000255206   -0.004426163   -0.007034262
     11       14           0.000600647    0.003156381   -0.002981019
     12        8           0.001534958    0.002466431    0.003981342
     13        1          -0.002383899   -0.001962144   -0.004496682
     14        8           0.005491047    0.000547999    0.001557206
     15        1           0.000187405    0.000253148    0.000097386
     16        8          -0.003847162   -0.000555161    0.001702250
     17        8           0.000567687    0.000142147   -0.000308985
     18        1          -0.000005580    0.000146026    0.000032884
 -------------------------------------------------------------------
 Cartesian Forces:  Max     0.017489657 RMS     0.004047816

 GradGradGradGradGradGradGradGradGradGradGradGradGradGradGradGradGradGrad
 Berny optimization.
 FormGI is forming the generalized inverse of G from B-inverse, IUseBI=4.
 Internal  Forces:  Max     0.049105806 RMS     0.009854596
 Search for a local minimum.
 Step number   1 out of a maximum of   81
 All quantities printed in internal units (Hartrees-Bohrs-Radians)
 Mixed Optimization -- RFO/linear search
 Second derivative matrix not updated -- first step.
 ITU=  0
     Eigenvalues ---    0.00230   0.00230   0.00727   0.01270   0.02071
     Eigenvalues ---    0.03714   0.03744   0.04005   0.04019   0.04637
     Eigenvalues ---    0.04864   0.05660   0.06200   0.11320   0.11470
     Eigenvalues ---    0.11748   0.12103   0.12414   0.13457   0.14001
     Eigenvalues ---    0.14007   0.16000   0.16000   0.16000   0.16000
     Eigenvalues ---    0.16000   0.20137   0.21320   0.21981   0.22046
     Eigenvalues ---    0.25000   0.25000   0.27200   0.32444   0.32875
     Eigenvalues ---    0.34825   0.35052   0.40716   0.43071   0.43416
     Eigenvalues ---    0.43903   0.46624   0.46809   0.49136   0.50720
     Eigenvalues ---    0.55559   0.56764   0.58473
 RFO step:  Lambda=-3.76704003D-02 EMin= 2.30000000D-03
 Linear search not attempted -- first point.
 Maximum step size (   0.300) exceeded in Quadratic search.
    -- Step size scaled by   0.827
 Iteration  1 RMS(Cart)=  0.24674939 RMS(Int)=  0.01902684
 Iteration  2 RMS(Cart)=  0.09278958 RMS(Int)=  0.00194791
 Iteration  3 RMS(Cart)=  0.00404928 RMS(Int)=  0.00067349
 Iteration  4 RMS(Cart)=  0.00000791 RMS(Int)=  0.00067348
 Iteration  5 RMS(Cart)=  0.00000000 RMS(Int)=  0.00067348
 Variable       Old X    -DE/DX   Delta X   Delta X   Delta X     New X
                                 (Linear)    (Quad)   (Total)
    R1        2.10039   0.00034   0.00000   0.00078   0.00078   2.10117
    R2        2.09271   0.00005   0.00000   0.00011   0.00011   2.09282
    R3        2.93922  -0.00326   0.00000  -0.00870  -0.00870   2.93052
    R4        2.59146   0.00584   0.00000   0.00886   0.00886   2.60031
    R5        2.05591  -0.00009   0.00000  -0.00019  -0.00019   2.05573
    R6        2.05961   0.00025   0.00000   0.00054   0.00054   2.06015
    R7        2.70592  -0.00211   0.00000  -0.00392  -0.00392   2.70199
    R8        2.76033   0.01725   0.00000   0.08814   0.08814   2.84848
    R9        1.93271   0.01720   0.00000   0.02983   0.02983   1.96254
   R10        1.78870   0.00827   0.00000   0.01098   0.01098   1.79968
   R11        3.10860   0.00058   0.00000   0.00102   0.00102   3.10961
   R12        3.07134   0.00155   0.00000   0.00254   0.00254   3.07388
   R13        3.06930  -0.00102   0.00000  -0.00166  -0.00166   3.06764
   R14        3.11282  -0.00047   0.00000  -0.00083  -0.00083   3.11199
   R15        1.81338  -0.00544   0.00000  -0.00758  -0.00758   1.80581
   R16        1.87448   0.00025   0.00000   0.00039   0.00039   1.87487
   R17        1.80297  -0.00009   0.00000  -0.00012  -0.00012   1.80285
    A1        1.83511   0.00065   0.00000  -0.00156  -0.00060   1.83451
    A2        1.85011  -0.00739   0.00000  -0.04838  -0.04850   1.80161
    A3        1.96667  -0.00541   0.00000  -0.04707  -0.04730   1.91936
    A4        1.87865   0.00386   0.00000   0.03775   0.03630   1.91495
    A5        1.96564   0.00138   0.00000   0.03461   0.03276   1.99840
    A6        1.95892   0.00641   0.00000   0.02180   0.02017   1.97910
    A7        1.88159   0.00112   0.00000  -0.01712  -0.01922   1.86237
    A8        1.95700   0.00848   0.00000   0.04686   0.04763   2.00462
    A9        1.97622  -0.02022   0.00000  -0.06743  -0.06836   1.90786
   A10        1.88092  -0.00184   0.00000   0.00491   0.00519   1.88611
   A11        1.91170   0.00269   0.00000  -0.02137  -0.02415   1.88756
   A12        1.85424   0.01045   0.00000   0.05632   0.05726   1.91149
   A13        1.58105   0.04911   0.00000   0.20542   0.20542   1.78646
   A14        2.84614   0.02401   0.00000   0.06900   0.06900   2.91514
   A15        1.84873  -0.00136   0.00000  -0.00567  -0.00567   1.84306
   A16        2.01754   0.00089   0.00000   0.00221   0.00219   2.01973
   A17        1.85524   0.00402   0.00000   0.01364   0.01356   1.86880
   A18        1.79305  -0.00133   0.00000   0.00212   0.00202   1.79507
   A19        1.93896  -0.00830   0.00000  -0.03343  -0.03340   1.90556
   A20        1.86558   0.00324   0.00000   0.01038   0.01038   1.87596
   A21        1.99256   0.00218   0.00000   0.00838   0.00833   2.00090
   A22        1.94477  -0.00001   0.00000  -0.00005  -0.00005   1.94473
   A23        2.05794  -0.00003   0.00000  -0.00014  -0.00014   2.05780
   A24        2.12008  -0.03953   0.00000  -0.11364  -0.11364   2.00644
   A25        1.95978  -0.00015   0.00000  -0.00062  -0.00062   1.95915
    D1        2.29463  -0.00315   0.00000   0.00735   0.00832   2.30295
    D2       -1.92094   0.00027   0.00000   0.02994   0.03034  -1.89060
    D3        0.17698   0.00556   0.00000   0.08922   0.08865   0.26563
    D4       -2.03187  -0.00411   0.00000  -0.00011   0.00001  -2.03186
    D5        0.03575  -0.00070   0.00000   0.02247   0.02204   0.05778
    D6        2.13367   0.00460   0.00000   0.08176   0.08034   2.21401
    D7        0.14067   0.00466   0.00000   0.08531   0.08632   0.22699
    D8        2.20829   0.00807   0.00000   0.10790   0.10835   2.31663
    D9       -1.97698   0.01337   0.00000   0.16718   0.16665  -1.81032
   D10        3.12255  -0.00490   0.00000  -0.07837  -0.07881   3.04373
   D11        1.05006  -0.00290   0.00000  -0.06759  -0.06686   0.98319
   D12       -1.07350  -0.01372   0.00000  -0.15876  -0.15904  -1.23254
   D13        1.17920  -0.00993   0.00000  -0.12501  -0.12383   1.05537
   D14       -0.92141   0.00014   0.00000  -0.04346  -0.04451  -0.96592
   D15       -2.94848  -0.00467   0.00000  -0.06888  -0.06901  -3.01750
   D16        0.13690  -0.00115   0.00000  -0.02376  -0.02376   0.11314
   D17        2.30909   0.00065   0.00000   0.01199   0.01199   2.32108
   D18       -1.68619   0.00380   0.00000   0.01852   0.01854  -1.66764
   D19        0.47398  -0.00326   0.00000  -0.01281  -0.01286   0.46112
   D20        2.57224   0.00030   0.00000   0.00353   0.00356   2.57579
   D21        1.81524  -0.00063   0.00000  -0.00703  -0.00700   1.80825
   D22       -0.30042  -0.00006   0.00000  -0.00033  -0.00038  -0.30080
   D23       -2.48466   0.00034   0.00000   0.00358   0.00360  -2.48106
   D24       -2.31255  -0.00077   0.00000  -0.01215  -0.01208  -2.32463
   D25       -0.10420  -0.00226   0.00000  -0.02160  -0.02162  -0.12581
   D26        2.00690  -0.00271   0.00000  -0.02720  -0.02725   1.97966
   D27        2.61638  -0.00109   0.00000  -0.00485  -0.00484   2.61153
   D28        0.48519  -0.00292   0.00000  -0.01317  -0.01320   0.47199
   D29       -1.66616   0.00387   0.00000   0.01641   0.01643  -1.64973
         Item               Value     Threshold  Converged?
 Maximum Force            0.049106     0.000450     NO 
 RMS     Force            0.009855     0.000300     NO 
 Maximum Displacement     0.995049     0.001800     NO 
 RMS     Displacement     0.322952     0.001200     NO 
 Predicted change in Energy=-2.225220D-02
 GradGradGradGradGradGradGradGradGradGradGradGradGradGradGradGradGradGrad

                          Input orientation:                          
 ---------------------------------------------------------------------
 Center     Atomic      Atomic             Coordinates (Angstroms)
 Number     Number       Type             X           Y           Z
 ---------------------------------------------------------------------
      1          6           0        1.521886    0.715843    0.688684
      2          1           0        0.714187    1.414846    0.997425
      3          1           0        2.372163    0.942075    1.361251
      4          6           0        0.936787   -0.677785    1.035580
      5          1           0        1.089709   -1.307461    0.161780
      6          1           0        1.399874   -1.169069    1.891551
      7          8           0        1.795337    0.875673   -0.650393
      8          1           0        2.984789   -0.029129   -0.846967
      9          8           0        3.760143   -0.714615   -0.760442
     10          1           0        3.716175   -1.251482   -1.545815
     11         14           0       -1.319731   -0.007709   -0.012131
     12          8           0       -2.329811    1.162146    0.552640
     13          1           0       -1.980003    1.574900    1.340311
     14          8           0       -0.290349    0.453806   -1.184006
     15          1           0        0.657711    0.607455   -0.935184
     16          8           0       -0.470647   -0.557877    1.257336
     17          8           0       -2.359087   -1.102866   -0.669630
     18          1           0       -1.972312   -1.571648   -1.405034
 ---------------------------------------------------------------------
                    Distance matrix (angstroms):
                    1          2          3          4          5
     1  C    0.000000
     2  H    1.111892   0.000000
     3  H    1.107474   1.762035   0.000000
     4  C    1.550767   2.104783   2.188678   0.000000
     5  H    2.134985   2.872329   2.853739   1.087843   0.000000
     6  H    2.239346   2.818909   2.384007   1.090182   1.762800
     7  O    1.376026   2.043257   2.093765   2.448029   2.433847
     8  H    2.247952   3.262281   2.488930   2.856405   2.498605
     9  O    3.025883   4.111271   3.028645   3.346400   2.886724
    10  H    3.698413   4.752821   3.881894   3.836369   3.133263
    11  Si   3.014873   2.679494   4.051956   2.576543   2.743174
    12  O    3.879854   3.086683   4.776069   3.780110   4.236135
    13  H    3.664127   2.720633   4.397983   3.697988   4.372650
    14  O    2.619127   2.586760   3.715603   2.777214   2.611084
    15  H    1.842686   2.095243   2.885296   2.369311   2.248745
    16  O    2.432266   2.315820   3.215932   1.429833   2.048617
    17  O    4.496072   4.308474   5.539944   3.735132   3.553490
    18  H    4.671797   4.680623   5.731108   3.901082   3.449735
                    6          7          8          9         10
     6  H    0.000000
     7  O    3.286159   0.000000
     8  H    3.363168   1.507350   0.000000
     9  O    3.579171   2.530136   1.038534   0.000000
    10  H    4.145785   3.002697   1.586652   0.952350   0.000000
    11  Si   3.516962   3.300211   4.384781   5.183127   5.409206
    12  O    4.597586   4.306530   5.623433   6.506455   6.839814
    13  H    4.388257   4.324929   5.657406   6.527198   6.983166
    14  O    3.866475   2.193810   3.327664   4.236874   4.369342
    15  H    3.420128   1.203013   2.414190   3.376905   3.630802
    16  O    2.067519   3.290773   4.080160   4.689945   5.086082
    17  O    4.549046   4.601546   5.453564   6.132206   6.139918
    18  H    4.732989   4.555661   5.221461   5.831899   5.699229
                   11         12         13         14         15
    11  Si   0.000000
    12  O    1.645535   0.000000
    13  H    2.183966   0.955592   0.000000
    14  O    1.626626   2.770756   3.237894   0.000000
    15  H    2.267318   3.383281   3.615433   0.992138   0.000000
    16  O    1.623323   2.628985   2.614149   2.648803   2.727331
    17  O    1.646795   2.573923   3.369569   2.639599   3.478043
    18  H    2.193615   3.381408   4.175852   2.642029   3.447647
                   16         17         18
    16  O    0.000000
    17  O    2.752529   0.000000
    18  H    3.220395   0.954028   0.000000
 Stoichiometry    C2H9O6Si(1-)
 Framework group  C1[X(C2H9O6Si)]
 Deg. of freedom    48
 Full point group                 C1      NOp   1
 Largest Abelian subgroup         C1      NOp   1
 Largest concise Abelian subgroup C1      NOp   1
                         Standard orientation:                         
 ---------------------------------------------------------------------
 Center     Atomic      Atomic             Coordinates (Angstroms)
 Number     Number       Type             X           Y           Z
 ---------------------------------------------------------------------
      1          6           0        1.354096   -1.080611    0.293280
      2          1           0        0.495613   -1.604347    0.767634
      3          1           0        2.134115   -1.857195    0.170854
      4          6           0        0.797895   -0.674072   -1.096051
      5          1           0        1.049959    0.374439   -1.239199
      6          1           0        1.205575   -1.237467   -1.935623
      7          8           0        1.734194   -0.006760    1.065172
      8          1           0        2.971410    0.479462    0.354547
      9          8           0        3.763419    0.653106   -0.294392
     10          1           0        3.808202    1.598905   -0.396513
     11         14           0       -1.386034    0.142283    0.000577
     12          8           0       -2.486729   -0.808583    0.770064
     13          1           0       -2.222253   -1.726794    0.760180
     14          8           0       -0.279742    0.856302    0.955673
     15          1           0        0.636697    0.476430    0.968893
     16          8           0       -0.627002   -0.792522   -1.088086
     17          8           0       -2.320724    1.332332   -0.649092
     18          1           0       -1.854113    2.161694   -0.716937
 ---------------------------------------------------------------------
 Rotational constants (GHZ):           2.5399859           0.7404187           0.7256691
 Standard basis: def2TZVPP (5D, 7F)
 There are   471 symmetry adapted cartesian basis functions of A   symmetry.
 There are   416 symmetry adapted basis functions of A   symmetry.
   416 basis functions,   630 primitive gaussians,   471 cartesian basis functions
    42 alpha electrons       42 beta electrons
       nuclear repulsion energy       635.3439233514 Hartrees.
 NAtoms=   18 NActive=   18 NUniq=   18 SFac= 1.00D+00 NAtFMM=   60 NAOKFM=F Big=F
 Integral buffers will be    131072 words long.
 Raffenetti 2 integral format.
 Two-electron integral symmetry is turned on.
 Nuclear repulsion after empirical dispersion term =      635.3346650201 Hartrees.
 One-electron integrals computed using PRISM.
   1 Symmetry operations used in ECPInt.
 ECPInt:  NShTT=   12246 NPrTT=   33908 LenC2=   11601 LenP2D=   25217.
 LDataN:  DoStor=T MaxTD1= 6 Len=  172
 NBasis=   416 RedAO= T EigKep=  1.92D-04  NBF=   416
 NBsUse=   416 1.00D-06 EigRej= -1.00D+00 NBFU=   416
 Initial guess from the checkpoint file:  "IRC_attackingOHDeprotonated_SiOH4Attack_forward_ProductOpt.chk"
 B after Tr=    -0.000000   -0.000000    0.000000
         Rot=    0.941096    0.336548   -0.014827    0.029208 Ang=  39.53 deg.
 ExpMin= 7.01D-02 ExpMax= 4.48D+04 ExpMxC= 1.53D+03 IAcc=3 IRadAn=         5 AccDes= 0.00D+00
 Harris functional with IExCor= 4639 and IRadAn=       5 diagonalized for initial guess.
 HarFok:  IExCor= 4639 AccDes= 0.00D+00 IRadAn=         5 IDoV= 1 UseB2=F ITyADJ=14
 ICtDFT=  3500011 ScaDFX=  1.000000  1.000000  1.000000  1.000000
 FoFCou: FMM=F IPFlag=           0 FMFlag=      100000 FMFlg1=           0
         NFxFlg=           0 DoJE=T BraDBF=F KetDBF=T FulRan=T
         wScrn=  0.000000 ICntrl=       500 IOpCl=  0 I1Cent=   200000004 NGrid=           0
         NMat0=    1 NMatS0=      1 NMatT0=    0 NMatD0=    1 NMtDS0=    0 NMtDT0=    0
 Petite list used in FoFCou.
 Requested convergence on RMS density matrix=1.00D-08 within 128 cycles.
 Requested convergence on MAX density matrix=1.00D-06.
 Requested convergence on             energy=1.00D-06.
 No special actions if energy rises.
 Integral accuracy reduced to 1.0D-05 until final iterations.
 Initial convergence to 1.0D-05 achieved.  Increase integral accuracy.
 SCF Done:  E(RwB97XD) =  -822.775495474     A.U. after   14 cycles
            NFock= 14  Conv=0.25D-08     -V/T= 2.0028
   1 Symmetry operations used in ECPInt.
 ECPInt:  NShTT=   12246 NPrTT=   33908 LenC2=   11601 LenP2D=   25217.
 LDataN:  DoStor=T MaxTD1= 7 Len=  274
 Calling FoFJK, ICntrl=      2127 FMM=F ISym2X=0 I1Cent= 0 IOpClX= 0 NMat=1 NMatS=1 NMatT=0.
 ***** Axes restored to original set *****
 -------------------------------------------------------------------
 Center     Atomic                   Forces (Hartrees/Bohr)
 Number     Number              X              Y              Z
 -------------------------------------------------------------------
      1        6           0.009132008    0.005524647    0.016377105
      2        1           0.005285372    0.001639059    0.001944451
      3        1           0.000919844   -0.002230559   -0.006431554
      4        6          -0.002968036    0.004449269   -0.005991176
      5        1           0.005940087   -0.004104234   -0.000332194
      6        1          -0.002592516    0.003340230    0.003469210
      7        8           0.051526023    0.009915541    0.027256238
      8        1           0.009804164   -0.010894984    0.003629691
      9        8          -0.003664651    0.007599529   -0.001424959
     10        1          -0.001631108   -0.000534043   -0.002036189
     11       14           0.005156104    0.014859103   -0.040578713
     12        8          -0.002707326    0.000473381    0.006834749
     13        1          -0.000963134    0.000162898   -0.001706617
     14        8          -0.113354630   -0.027146958   -0.004296599
     15        1           0.039984958    0.013161379   -0.016888597
     16        8           0.004271348   -0.012459796    0.016043048
     17        8          -0.005061182   -0.005867039    0.003856031
     18        1           0.000922674    0.002112577    0.000276076
 -------------------------------------------------------------------
 Cartesian Forces:  Max     0.113354630 RMS     0.020430581

 GradGradGradGradGradGradGradGradGradGradGradGradGradGradGradGradGradGrad
 Berny optimization.
 Using GEDIIS/GDIIS optimizer.
 FormGI is forming the generalized inverse of G from B-inverse, IUseBI=4.
 Internal  Forces:  Max     0.374550523 RMS     0.059611875
 Search for a local minimum.
 Step number   2 out of a maximum of   81
 All quantities printed in internal units (Hartrees-Bohrs-Radians)
 Mixed Optimization -- RFO/linear search
 Update second derivatives using D2CorX and points    2    1
 DE=  1.13D-02 DEPred=-2.23D-02 R=-5.09D-01
 Trust test=-5.09D-01 RLast= 4.61D-01 DXMaxT set to 1.50D-01
 ITU= -1  0
 Use linear search instead of GDIIS.
     Eigenvalues ---    0.00230   0.00254   0.00728   0.01358   0.02086
     Eigenvalues ---    0.03714   0.03743   0.03994   0.04006   0.04537
     Eigenvalues ---    0.05220   0.06223   0.06608   0.08490   0.11391
     Eigenvalues ---    0.11614   0.11641   0.12628   0.13048   0.13302
     Eigenvalues ---    0.13936   0.14178   0.16000   0.16000   0.16000
     Eigenvalues ---    0.16129   0.20141   0.21437   0.21757   0.22719
     Eigenvalues ---    0.24194   0.27189   0.32444   0.32875   0.34824
     Eigenvalues ---    0.35051   0.40333   0.43069   0.43285   0.43419
     Eigenvalues ---    0.45935   0.46657   0.49017   0.50643   0.55486
     Eigenvalues ---    0.56764   0.58312   2.37434
 RFO step:  Lambda=-1.00605051D-01 EMin= 2.29892757D-03
 Quartic linear search produced a step of -0.48376.
 Maximum step size (   0.150) exceeded in Quadratic search.
    -- Step size scaled by   0.278
 Iteration  1 RMS(Cart)=  0.13674394 RMS(Int)=  0.00322165
 Iteration  2 RMS(Cart)=  0.00641996 RMS(Int)=  0.00024890
 Iteration  3 RMS(Cart)=  0.00002285 RMS(Int)=  0.00024880
 Iteration  4 RMS(Cart)=  0.00000000 RMS(Int)=  0.00024880
 Variable       Old X    -DE/DX   Delta X   Delta X   Delta X     New X
                                 (Linear)    (Quad)   (Total)
    R1        2.10117  -0.00227  -0.00038  -0.00005  -0.00043   2.10074
    R2        2.09282  -0.00366  -0.00006  -0.00069  -0.00075   2.09208
    R3        2.93052   0.02803   0.00421   0.00194   0.00614   2.93667
    R4        2.60031  -0.01484  -0.00428   0.00257  -0.00172   2.59859
    R5        2.05573   0.00348   0.00009   0.00058   0.00067   2.05640
    R6        2.06015   0.00012  -0.00026   0.00031   0.00005   2.06020
    R7        2.70199   0.06374   0.00190   0.00901   0.01091   2.71290
    R8        2.84848   0.00583  -0.04264   0.05158   0.00894   2.85742
    R9        1.96254  -0.00891  -0.01443   0.01452   0.00009   1.96264
   R10        1.79968   0.00206  -0.00531   0.00611   0.00080   1.80048
   R11        3.10961   0.00447  -0.00049   0.00128   0.00079   3.11040
   R12        3.07388  -0.03514  -0.00123  -0.00413  -0.00536   3.06852
   R13        3.06764   0.08006   0.00081   0.01157   0.01238   3.08002
   R14        3.11199   0.00346   0.00040   0.00013   0.00053   3.11252
   R15        1.80581  -0.00169   0.00366  -0.00426  -0.00060   1.80521
   R16        1.87487   0.03601  -0.00019   0.00560   0.00541   1.88028
   R17        1.80285  -0.00088   0.00006  -0.00018  -0.00012   1.80273
    A1        1.83451   0.00322   0.00029  -0.00092  -0.00110   1.83341
    A2        1.80161  -0.00285   0.02346  -0.02534  -0.00186   1.79975
    A3        1.91936   0.00386   0.02288  -0.02160   0.00134   1.92071
    A4        1.91495  -0.01966  -0.01756   0.01271  -0.00413   1.91082
    A5        1.99840  -0.03536  -0.01585   0.00409  -0.01086   1.98754
    A6        1.97910   0.05095  -0.00976   0.02525   0.01625   1.99534
    A7        1.86237   0.01411   0.00930   0.00111   0.01109   1.87345
    A8        2.00462  -0.08247  -0.02304  -0.00410  -0.02730   1.97732
    A9        1.90786   0.14943   0.03307   0.00455   0.03797   1.94582
   A10        1.88611   0.01259  -0.00251   0.00242  -0.00023   1.88588
   A11        1.88756  -0.02152   0.01168  -0.01138   0.00099   1.88855
   A12        1.91149  -0.06980  -0.02770   0.00645  -0.02144   1.89005
   A13        1.78646   0.00534  -0.09937   0.11554   0.01616   1.80263
   A14        2.91514   0.00809  -0.03338   0.03963   0.00625   2.92140
   A15        1.84306  -0.00297   0.00274  -0.00415  -0.00140   1.84166
   A16        2.01973  -0.01529  -0.00106  -0.00192  -0.00306   2.01667
   A17        1.86880  -0.03920  -0.00656  -0.00269  -0.00934   1.85946
   A18        1.79507   0.01770  -0.00098   0.00040  -0.00064   1.79443
   A19        1.90556   0.11906   0.01616   0.02071   0.03687   1.94243
   A20        1.87596  -0.04960  -0.00502  -0.00919  -0.01417   1.86179
   A21        2.00090  -0.04270  -0.00403  -0.00926  -0.01325   1.98765
   A22        1.94473   0.00143   0.00002   0.00046   0.00048   1.94521
   A23        2.05780   0.05166   0.00007   0.01747   0.01754   2.07534
   A24        2.00644   0.37455   0.05497   0.03268   0.08765   2.09410
   A25        1.95915  -0.00344   0.00030  -0.00151  -0.00121   1.95794
    D1        2.30295   0.02767  -0.00402   0.01902   0.01472   2.31767
    D2       -1.89060   0.00316  -0.01468   0.02036   0.00555  -1.88505
    D3        0.26563  -0.03125  -0.04289   0.02948  -0.01335   0.25228
    D4       -2.03186   0.02219  -0.00000   0.01086   0.01098  -2.02088
    D5        0.05778  -0.00232  -0.01066   0.01220   0.00180   0.05959
    D6        2.21401  -0.03673  -0.03887   0.02132  -0.01710   2.19692
    D7        0.22699  -0.00106  -0.04176   0.04799   0.00592   0.23291
    D8        2.31663  -0.02557  -0.05241   0.04933  -0.00326   2.31337
    D9       -1.81032  -0.05998  -0.08062   0.05845  -0.02216  -1.83248
   D10        3.04373  -0.01527   0.03813  -0.05473  -0.01641   3.02732
   D11        0.98319   0.00102   0.03235  -0.04088  -0.00890   0.97429
   D12       -1.23254   0.01438   0.07694  -0.08503  -0.00792  -1.24047
   D13        1.05537   0.10203   0.05990  -0.00403   0.05545   1.11082
   D14       -0.96592   0.01735   0.02153  -0.00154   0.02043  -0.94550
   D15       -3.01750   0.05327   0.03339  -0.00153   0.03184  -2.98565
   D16        0.11314  -0.00049   0.01149  -0.01483  -0.00334   0.10981
   D17        2.32108  -0.00067  -0.00580   0.00667   0.00087   2.32195
   D18       -1.66764  -0.05646  -0.00897  -0.00976  -0.01870  -1.68635
   D19        0.46112   0.05755   0.00622   0.01370   0.01989   0.48101
   D20        2.57579  -0.00005  -0.00172   0.00213   0.00041   2.57620
   D21        1.80825   0.01591   0.00338   0.00484   0.00825   1.81650
   D22       -0.30080  -0.01374   0.00018  -0.00623  -0.00613  -0.30693
   D23       -2.48106  -0.00390  -0.00174  -0.00190  -0.00359  -2.48465
   D24       -2.32463   0.00737   0.00584  -0.00035   0.00548  -2.31915
   D25       -0.12581   0.03819   0.01046   0.00862   0.01916  -0.10665
   D26        1.97966   0.03329   0.01318   0.00580   0.01891   1.99856
   D27        2.61153   0.00762   0.00234  -0.00032   0.00202   2.61356
   D28        0.47199   0.03942   0.00639   0.00602   0.01242   0.48441
   D29       -1.64973  -0.04870  -0.00795  -0.00770  -0.01566  -1.66540
         Item               Value     Threshold  Converged?
 Maximum Force            0.374551     0.000450     NO 
 RMS     Force            0.059612     0.000300     NO 
 Maximum Displacement     0.445693     0.001800     NO 
 RMS     Displacement     0.141162     0.001200     NO 
 Predicted change in Energy=-3.637610D-02
 GradGradGradGradGradGradGradGradGradGradGradGradGradGradGradGradGradGrad

                          Input orientation:                          
 ---------------------------------------------------------------------
 Center     Atomic      Atomic             Coordinates (Angstroms)
 Number     Number       Type             X           Y           Z
 ---------------------------------------------------------------------
      1          6           0        1.611701    0.711470    0.719521
      2          1           0        0.822547    1.436882    1.014164
      3          1           0        2.436620    0.876095    1.439263
      4          6           0        0.947240   -0.665293    0.998782
      5          1           0        1.117674   -1.290918    0.124870
      6          1           0        1.363646   -1.176776    1.866855
      7          8           0        1.969843    0.911751   -0.592946
      8          1           0        3.144331   -0.022248   -0.778983
      9          8           0        3.897048   -0.733023   -0.696103
     10          1           0        3.871019   -1.227970   -1.509814
     11         14           0       -1.410724   -0.008702   -0.033202
     12          8           0       -2.400190    1.143497    0.601275
     13          1           0       -1.997559    1.574573    1.352681
     14          8           0       -0.517187    0.459065   -1.305791
     15          1           0        0.450640    0.646613   -1.171035
     16          8           0       -0.469906   -0.536393    1.188638
     17          8           0       -2.473838   -1.136245   -0.591141
     18          1           0       -2.136086   -1.605273   -1.350076
 ---------------------------------------------------------------------
                    Distance matrix (angstroms):
                    1          2          3          4          5
     1  C    0.000000
     2  H    1.111666   0.000000
     3  H    1.107078   1.760802   0.000000
     4  C    1.554018   2.105926   2.188186   0.000000
     5  H    2.146446   2.884239   2.857131   1.088199   0.000000
     6  H    2.223371   2.801977   2.355502   1.090210   1.762964
     7  O    1.375117   2.043245   2.085432   2.463003   2.468442
     8  H    2.265571   3.276449   2.495695   2.898477   2.556133
     9  O    3.051780   4.133528   3.046621   3.402733   2.951299
    10  H    3.719661   4.771276   3.896363   3.893346   3.202665
    11  Si   3.196919   2.859054   4.213440   2.656331   2.839341
    12  O    4.036818   3.262298   4.916143   3.825575   4.304498
    13  H    3.764651   2.843687   4.489690   3.716730   4.407180
    14  O    2.949196   2.851878   4.053913   2.952928   2.789624
    15  H    2.219565   2.353281   3.287922   2.583759   2.424527
    16  O    2.471906   2.365310   3.241270   1.435605   2.054584
    17  O    4.671565   4.479302   5.681959   3.801766   3.665454
    18  H    4.867899   4.857762   5.903156   3.988433   3.586257
                    6          7          8          9         10
     6  H    0.000000
     7  O    3.283297   0.000000
     8  H    3.391789   1.512081   0.000000
     9  O    3.630949   2.535753   1.038582   0.000000
    10  H    4.206118   3.005582   1.586176   0.952773   0.000000
    11  Si   3.559739   3.548067   4.615723   5.397825   5.618167
    12  O    4.599111   4.536194   5.831448   6.697740   7.029126
    13  H    4.374013   4.468229   5.790757   6.653488   7.105514
    14  O    4.034747   2.626478   3.730402   4.612836   4.705747
    15  H    3.658838   1.646955   2.803043   3.742550   3.915076
    16  O    2.057177   3.350154   4.147117   4.760377   5.157862
    17  O    4.557375   4.892912   5.730628   6.384497   6.411676
    18  H    4.772879   4.875173   5.542104   6.130841   6.021062
                   11         12         13         14         15
    11  Si   0.000000
    12  O    1.645955   0.000000
    13  H    2.184447   0.955275   0.000000
    14  O    1.623791   2.766053   3.240885   0.000000
    15  H    2.277889   3.393407   3.636473   0.994999   0.000000
    16  O    1.629874   2.625457   2.610903   2.686140   2.795525
    17  O    1.647077   2.573811   3.369543   2.623780   3.473821
    18  H    2.193022   3.381310   4.175585   2.623793   3.434269
                   16         17         18
    16  O    0.000000
    17  O    2.746485   0.000000
    18  H    3.219275   0.953963   0.000000
 Stoichiometry    C2H9O6Si(1-)
 Framework group  C1[X(C2H9O6Si)]
 Deg. of freedom    48
 Full point group                 C1      NOp   1
 Largest Abelian subgroup         C1      NOp   1
 Largest concise Abelian subgroup C1      NOp   1
                         Standard orientation:                         
 ---------------------------------------------------------------------
 Center     Atomic      Atomic             Coordinates (Angstroms)
 Number     Number       Type             X           Y           Z
 ---------------------------------------------------------------------
      1          6           0        1.482245   -1.090292    0.239446
      2          1           0        0.653818   -1.651931    0.723256
      3          1           0        2.253391   -1.852243    0.014973
      4          6           0        0.843575   -0.592835   -1.087057
      5          1           0        1.089329    0.462272   -1.189677
      6          1           0        1.218361   -1.114269   -1.968080
      7          8           0        1.918328   -0.084905    1.070093
      8          1           0        3.130455    0.460258    0.349029
      9          8           0        3.897641    0.691701   -0.311662
     10          1           0        3.939536    1.643368   -0.330376
     11         14           0       -1.461609    0.135685    0.013616
     12          8           0       -2.524914   -0.918751    0.696782
     13          1           0       -2.185183   -1.811542    0.689305
     14          8           0       -0.502281    0.934271    1.052196
     15          1           0        0.448588    0.654918    1.140702
     16          8           0       -0.586172   -0.720022   -1.062426
     17          8           0       -2.451323    1.258281   -0.674210
     18          1           0       -2.050923    2.123756   -0.700266
 ---------------------------------------------------------------------
 Rotational constants (GHZ):           2.5191148           0.6826451           0.6705011
 Standard basis: def2TZVPP (5D, 7F)
 There are   471 symmetry adapted cartesian basis functions of A   symmetry.
 There are   416 symmetry adapted basis functions of A   symmetry.
   416 basis functions,   630 primitive gaussians,   471 cartesian basis functions
    42 alpha electrons       42 beta electrons
       nuclear repulsion energy       621.0857751537 Hartrees.
 NAtoms=   18 NActive=   18 NUniq=   18 SFac= 1.00D+00 NAtFMM=   60 NAOKFM=F Big=F
 Integral buffers will be    131072 words long.
 Raffenetti 2 integral format.
 Two-electron integral symmetry is turned on.
 Nuclear repulsion after empirical dispersion term =      621.0765871047 Hartrees.
 One-electron integrals computed using PRISM.
   1 Symmetry operations used in ECPInt.
 ECPInt:  NShTT=   12246 NPrTT=   33908 LenC2=   11520 LenP2D=   24922.
 LDataN:  DoStor=T MaxTD1= 6 Len=  172
 NBasis=   416 RedAO= T EigKep=  2.20D-04  NBF=   416
 NBsUse=   416 1.00D-06 EigRej= -1.00D+00 NBFU=   416
 Lowest energy guess from the checkpoint file:  "IRC_attackingOHDeprotonated_SiOH4Attack_forward_ProductOpt.chk"
 B after Tr=    -0.000000   -0.000000    0.000000
         Rot=    0.946539    0.321868   -0.010034    0.019089 Ang=  37.64 deg.
 B after Tr=    -0.000000    0.000000    0.000000
         Rot=    0.999812   -0.016045    0.001299   -0.010769 Ang=  -2.22 deg.
 Requested convergence on RMS density matrix=1.00D-08 within 128 cycles.
 Requested convergence on MAX density matrix=1.00D-06.
 Requested convergence on             energy=1.00D-06.
 No special actions if energy rises.
 Integral accuracy reduced to 1.0D-05 until final iterations.
 Initial convergence to 1.0D-05 achieved.  Increase integral accuracy.
 SCF Done:  E(RwB97XD) =  -822.799001762     A.U. after   13 cycles
            NFock= 13  Conv=0.54D-08     -V/T= 2.0034
   1 Symmetry operations used in ECPInt.
 ECPInt:  NShTT=   12246 NPrTT=   33908 LenC2=   11520 LenP2D=   24922.
 LDataN:  DoStor=T MaxTD1= 7 Len=  274
 Calling FoFJK, ICntrl=      2127 FMM=F ISym2X=0 I1Cent= 0 IOpClX= 0 NMat=1 NMatS=1 NMatT=0.
 ***** Axes restored to original set *****
 -------------------------------------------------------------------
 Center     Atomic                   Forces (Hartrees/Bohr)
 Number     Number              X              Y              Z
 -------------------------------------------------------------------
      1        6          -0.003688152    0.004857389   -0.002417774
      2        1           0.002524405    0.002025764    0.003775546
      3        1           0.001929564   -0.002835054   -0.003177373
      4        6          -0.001381081    0.003569658   -0.004659534
      5        1           0.005159281   -0.002571220   -0.001116974
      6        1          -0.002676909    0.001531852    0.003006060
      7        8          -0.007248375   -0.003387331    0.003595875
      8        1           0.005181721   -0.007891585    0.004524577
      9        8          -0.001546854    0.005608243   -0.001556729
     10        1          -0.001518251   -0.000233007   -0.001754044
     11       14           0.002330313    0.005710684   -0.013928666
     12        8           0.000042362   -0.000434763    0.002454558
     13        1          -0.000520684    0.000238006   -0.001055983
     14        8          -0.015828264   -0.005714396    0.003583265
     15        1           0.014914112    0.005040985    0.002011066
     16        8           0.003062283   -0.004604982    0.005114318
     17        8          -0.000995127   -0.001643911    0.001716523
     18        1           0.000259658    0.000733669   -0.000114711
 -------------------------------------------------------------------
 Cartesian Forces:  Max     0.015828264 RMS     0.004828321

 GradGradGradGradGradGradGradGradGradGradGradGradGradGradGradGradGradGrad
 Berny optimization.
 Using GEDIIS/GDIIS optimizer.
 FormGI is forming the generalized inverse of G from B-inverse, IUseBI=4.
 Internal  Forces:  Max     0.015730148 RMS     0.003674004
 Search for a local minimum.
 Step number   3 out of a maximum of   81
 All quantities printed in internal units (Hartrees-Bohrs-Radians)
 Mixed Optimization -- RFO/linear search
 Update second derivatives using D2CorX and points    2    1    3
 DE= -1.22D-02 DEPred=-3.64D-02 R= 3.35D-01
 Trust test= 3.35D-01 RLast= 4.25D-01 DXMaxT set to 1.50D-01
 ITU=  0 -1  0
 Use linear search instead of GDIIS.
     Eigenvalues ---    0.00226   0.00230   0.00728   0.01389   0.02318
     Eigenvalues ---    0.03714   0.03743   0.03996   0.04061   0.04804
     Eigenvalues ---    0.05236   0.06013   0.06297   0.11356   0.11563
     Eigenvalues ---    0.11726   0.12303   0.12583   0.13424   0.13951
     Eigenvalues ---    0.14163   0.15708   0.16000   0.16000   0.16087
     Eigenvalues ---    0.16861   0.20198   0.21445   0.22699   0.23958
     Eigenvalues ---    0.25852   0.27508   0.32445   0.32884   0.34826
     Eigenvalues ---    0.35130   0.40143   0.43070   0.43398   0.44133
     Eigenvalues ---    0.46264   0.46756   0.49963   0.53077   0.55630
     Eigenvalues ---    0.56764   0.58481   1.12739
 RFO step:  Lambda=-1.56482557D-02 EMin= 2.26378374D-03
 Quartic linear search produced a step of  0.36555.
 Maximum step size (   0.150) exceeded in Quadratic search.
    -- Step size scaled by   0.999
 Iteration  1 RMS(Cart)=  0.17497958 RMS(Int)=  0.03340843
 Iteration  2 RMS(Cart)=  0.09288862 RMS(Int)=  0.00166884
 Iteration  3 RMS(Cart)=  0.00299720 RMS(Int)=  0.00017559
 Iteration  4 RMS(Cart)=  0.00000114 RMS(Int)=  0.00017559
 Iteration  5 RMS(Cart)=  0.00000000 RMS(Int)=  0.00017559
 Variable       Old X    -DE/DX   Delta X   Delta X   Delta X     New X
                                 (Linear)    (Quad)   (Total)
    R1        2.10074   0.00053   0.00013   0.00149   0.00162   2.10236
    R2        2.09208  -0.00105  -0.00023  -0.00436  -0.00459   2.08749
    R3        2.93667  -0.00405  -0.00093  -0.01151  -0.01244   2.92423
    R4        2.59859  -0.00679   0.00261  -0.01896  -0.01635   2.58225
    R5        2.05640   0.00318   0.00018   0.01132   0.01149   2.06789
    R6        2.06020   0.00065   0.00022   0.00218   0.00239   2.06259
    R7        2.71290  -0.00331   0.00255  -0.00104   0.00151   2.71441
    R8        2.85742   0.00305   0.03549   0.02875   0.06424   2.92166
    R9        1.96264  -0.00616   0.01094  -0.02197  -0.01103   1.95160
   R10        1.80048   0.00166   0.00431   0.00195   0.00626   1.80674
   R11        3.11040   0.00069   0.00066   0.00230   0.00296   3.11337
   R12        3.06852  -0.00508  -0.00103  -0.01742  -0.01845   3.05007
   R13        3.08002   0.00516   0.00392   0.02252   0.02643   3.10645
   R14        3.11252   0.00055  -0.00011   0.00208   0.00197   3.11449
   R15        1.80521  -0.00094  -0.00299  -0.00108  -0.00407   1.80114
   R16        1.88028   0.01573   0.00212   0.04233   0.04445   1.92473
   R17        1.80273  -0.00018  -0.00009  -0.00044  -0.00053   1.80220
    A1        1.83341  -0.00136  -0.00062   0.00158   0.00103   1.83445
    A2        1.79975   0.00544  -0.01841   0.03936   0.02095   1.82070
    A3        1.92071   0.00197  -0.01680   0.01162  -0.00492   1.91579
    A4        1.91082   0.00187   0.01176  -0.00155   0.00958   1.92040
    A5        1.98754   0.00407   0.00801   0.00788   0.01508   2.00262
    A6        1.99534  -0.01107   0.01331  -0.05119  -0.03837   1.95697
    A7        1.87345  -0.00269  -0.00297  -0.02104  -0.02419   1.84927
    A8        1.97732   0.00160   0.00743  -0.00672   0.00052   1.97784
    A9        1.94582   0.00019  -0.01111   0.03990   0.02861   1.97443
   A10        1.88588   0.00024   0.00181   0.00045   0.00225   1.88813
   A11        1.88855   0.00092  -0.00846  -0.00164  -0.01014   1.87841
   A12        1.89005  -0.00028   0.01309  -0.01180   0.00113   1.89118
   A13        1.80263   0.00344   0.08100   0.01713   0.09813   1.90075
   A14        2.92140   0.00828   0.02751   0.03374   0.06125   2.98265
   A15        1.84166  -0.00285  -0.00259  -0.02071  -0.02329   1.81837
   A16        2.01667   0.00014  -0.00032   0.00009  -0.00023   2.01644
   A17        1.85946   0.00012   0.00154  -0.01240  -0.01108   1.84838
   A18        1.79443  -0.00063   0.00050  -0.00387  -0.00356   1.79088
   A19        1.94243  -0.00085   0.00127   0.02845   0.02978   1.97222
[...]
     7  O    3.361992   0.000000
     8  H    4.945700   2.655186   0.000000
     9  O    5.438403   3.291389   0.958521   0.000000
    10  H    5.083204   2.912097   1.505505   0.991357   0.000000
    11  Si   3.568807   3.303245   3.563110   3.381593   2.647989
    12  O    4.577267   4.805942   5.114342   4.765752   3.975729
    13  H    5.261046   5.018893   5.334974   4.909523   4.032094
    14  O    4.362701   2.660671   2.891259   2.675620   1.716018
    15  H    3.627211   0.994223   2.495897   2.857462   2.229487
    16  O    2.025117   3.074521   4.256338   4.423200   3.811842
    17  O    4.024343   4.020143   3.288413   3.012709   2.724455
    18  H    4.489924   3.841579   2.517597   2.153454   2.085467
                   11         12         13         14         15
    11  Si   0.000000
    12  O    1.660684   0.000000
    13  H    2.170453   0.954096   0.000000
    14  O    1.576917   2.719486   2.676653   0.000000
    15  H    2.554044   3.998512   4.121287   1.682667   0.000000
    16  O    1.668612   2.594516   3.246176   2.717752   2.736272
    17  O    1.661232   2.680824   3.333399   2.693831   3.463783
    18  H    2.183236   3.390097   3.874788   2.652607   3.314193
                   16         17         18
    16  O    0.000000
    17  O    2.649571   0.000000
    18  H    3.267377   0.962577   0.000000
 Stoichiometry    C2H9O6Si(1-)
 Framework group  C1[X(C2H9O6Si)]
 Deg. of freedom    48
 Full point group                 C1      NOp   1
 Largest Abelian subgroup         C1      NOp   1
 Largest concise Abelian subgroup C1      NOp   1
                         Standard orientation:                         
 ---------------------------------------------------------------------
 Center     Atomic      Atomic             Coordinates (Angstroms)
 Number     Number       Type             X           Y           Z
 ---------------------------------------------------------------------
      1          6           0        2.351538   -0.763423    0.185125
      2          1           0        2.359223   -1.468311    1.030437
      3          1           0        3.340661   -0.803840   -0.286507
      4          6           0        1.325363   -1.261605   -0.827218
      5          1           0        1.243368   -0.525992   -1.639542
      6          1           0        1.703063   -2.195343   -1.263441
      7          8           0        2.152560    0.551473    0.622280
      8          1           0        0.938795    2.630562   -0.497620
      9          8           0        0.035942    2.892863   -0.311026
     10          1           0       -0.222228    2.217497    0.367220
     11         14           0       -0.996004   -0.300917    0.101320
     12          8           0       -2.347471   -1.135386    0.586164
     13          1           0       -2.590846   -0.855285    1.465147
     14          8           0       -0.445482    0.718125    1.171434
     15          1           0        1.221806    0.626978    0.963564
     16          8           0        0.071250   -1.529964   -0.265666
     17          8           0       -1.348432    0.426918   -1.349797
     18          1           0       -1.058123    1.344506   -1.332291
 ---------------------------------------------------------------------
 Rotational constants (GHZ):           1.4697381           1.1839554           0.8413610

 **********************************************************************

            Population analysis using the SCF Density.

 **********************************************************************

 Orbital symmetries:
       Occupied  (A) (A) (A) (A) (A) (A) (A) (A) (A) (A) (A) (A)
                 (A) (A) (A) (A) (A) (A) (A) (A) (A) (A) (A) (A)
                 (A) (A) (A) (A) (A) (A) (A) (A) (A) (A) (A) (A)
                 (A) (A) (A) (A) (A) (A)
       Virtual   (A) (A) (A) (A) (A) (A) (A) (A) (A) (A) (A) (A)
                 (A) (A) (A) (A) (A) (A) (A) (A) (A) (A) (A) (A)
                 (A) (A) (A) (A) (A) (A) (A) (A) (A) (A) (A) (A)
                 (A) (A) (A) (A) (A) (A) (A) (A) (A) (A) (A) (A)
                 (A) (A) (A) (A) (A) (A) (A) (A) (A) (A) (A) (A)
                 (A) (A) (A) (A) (A) (A) (A) (A) (A) (A) (A) (A)
                 (A) (A) (A) (A) (A) (A) (A) (A) (A) (A) (A) (A)
                 (A) (A) (A) (A) (A) (A) (A) (A) (A) (A) (A) (A)
                 (A) (A) (A) (A) (A) (A) (A) (A) (A) (A) (A) (A)
                 (A) (A) (A) (A) (A) (A) (A) (A) (A) (A) (A) (A)
                 (A) (A) (A) (A) (A) (A) (A) (A) (A) (A) (A) (A)
                 (A) (A) (A) (A) (A) (A) (A) (A) (A) (A) (A) (A)
                 (A) (A) (A) (A) (A) (A) (A) (A) (A) (A) (A) (A)
                 (A) (A) (A) (A) (A) (A) (A) (A) (A) (A) (A) (A)
                 (A) (A) (A) (A) (A) (A) (A) (A) (A) (A) (A) (A)
                 (A) (A) (A) (A) (A) (A) (A) (A) (A) (A) (A) (A)
                 (A) (A) (A) (A) (A) (A) (A) (A) (A) (A) (A) (A)
                 (A) (A) (A) (A) (A) (A) (A) (A) (A) (A) (A) (A)
                 (A) (A) (A) (A) (A) (A) (A) (A) (A) (A) (A) (A)
                 (A) (A) (A) (A) (A) (A) (A) (A) (A) (A) (A) (A)
                 (A) (A) (A) (A) (A) (A) (A) (A) (A) (A) (A) (A)
                 (A) (A) (A) (A) (A) (A) (A) (A) (A) (A) (A) (A)
                 (A) (A) (A) (A) (A) (A) (A) (A) (A) (A) (A) (A)
                 (A) (A) (A) (A) (A) (A) (A) (A) (A) (A) (A) (A)
                 (A) (A) (A) (A) (A) (A) (A) (A) (A) (A) (A) (A)
                 (A) (A) (A) (A) (A) (A) (A) (A) (A) (A) (A) (A)
                 (A) (A) (A) (A) (A) (A) (A) (A) (A) (A) (A) (A)
                 (A) (A) (A) (A) (A) (A) (A) (A) (A) (A) (A) (A)
                 (A) (A) (A) (A) (A) (A) (A) (A) (A) (A) (A) (A)
                 (A) (A) (A) (A) (A) (A) (A) (A) (A) (A) (A) (A)
                 (A) (A) (A) (A) (A) (A) (A) (A) (A) (A) (A) (A)
                 (A) (A)
 The electronic state is 1-A.
 Alpha  occ. eigenvalues --  -66.11259 -19.08526 -19.08319 -19.08300 -19.07880
 Alpha  occ. eigenvalues --  -19.07098 -19.00632 -10.19138 -10.18828  -5.23083
 Alpha  occ. eigenvalues --   -3.57623  -3.57603  -3.57460  -0.97668  -0.95713
 Alpha  occ. eigenvalues --   -0.94410  -0.93869  -0.92185  -0.82672  -0.68828
 Alpha  occ. eigenvalues --   -0.57161  -0.48654  -0.45268  -0.44296  -0.43017
 Alpha  occ. eigenvalues --   -0.41680  -0.40619  -0.36310  -0.35625  -0.34088
 Alpha  occ. eigenvalues --   -0.32680  -0.30637  -0.29197  -0.27319  -0.25885
 Alpha  occ. eigenvalues --   -0.24852  -0.24016  -0.23725  -0.22533  -0.20628
 Alpha  occ. eigenvalues --   -0.18780  -0.17785
 Alpha virt. eigenvalues --    0.24111   0.25373   0.26861   0.28971   0.30405
 Alpha virt. eigenvalues --    0.31653   0.32404   0.33250   0.34579   0.36125
 Alpha virt. eigenvalues --    0.36365   0.38450   0.41042   0.41716   0.42661
 Alpha virt. eigenvalues --    0.43931   0.44969   0.47676   0.48620   0.49448
 Alpha virt. eigenvalues --    0.51909   0.53249   0.54684   0.56113   0.56813
 Alpha virt. eigenvalues --    0.57018   0.57619   0.58474   0.59389   0.61918
 Alpha virt. eigenvalues --    0.62103   0.62470   0.63354   0.64862   0.64926
 Alpha virt. eigenvalues --    0.66092   0.66820   0.68701   0.68936   0.69564
 Alpha virt. eigenvalues --    0.71582   0.72652   0.73671   0.74432   0.76007
 Alpha virt. eigenvalues --    0.77710   0.78799   0.80018   0.80729   0.81594
 Alpha virt. eigenvalues --    0.82780   0.84815   0.85988   0.87439   0.88753
 Alpha virt. eigenvalues --    0.90774   0.92663   0.93321   0.95507   0.96610
 Alpha virt. eigenvalues --    0.96938   0.99013   1.00206   1.00848   1.01497
 Alpha virt. eigenvalues --    1.03705   1.04963   1.05433   1.06898   1.08108
 Alpha virt. eigenvalues --    1.09790   1.12183   1.12725   1.14141   1.15493
 Alpha virt. eigenvalues --    1.16648   1.18199   1.20423   1.22585   1.23446
 Alpha virt. eigenvalues --    1.24992   1.27077   1.29098   1.29965   1.31860
 Alpha virt. eigenvalues --    1.33258   1.34134   1.34811   1.36624   1.38717
 Alpha virt. eigenvalues --    1.40962   1.42970   1.43981   1.44513   1.45100
 Alpha virt. eigenvalues --    1.46777   1.49879   1.50753   1.52422   1.52982
 Alpha virt. eigenvalues --    1.55871   1.57419   1.58027   1.59357   1.61902
 Alpha virt. eigenvalues --    1.65192   1.67228   1.68912   1.70635   1.73065
 Alpha virt. eigenvalues --    1.73304   1.75397   1.76466   1.79802   1.81853
 Alpha virt. eigenvalues --    1.85528   1.88049   1.91722   1.94600   1.97787
 Alpha virt. eigenvalues --    1.98497   2.01936   2.03259   2.05336   2.08544
 Alpha virt. eigenvalues --    2.09872   2.10482   2.13100   2.13150   2.14704
 Alpha virt. eigenvalues --    2.15359   2.17142   2.18015   2.20048   2.22116
 Alpha virt. eigenvalues --    2.25014   2.25741   2.26697   2.27794   2.30923
 Alpha virt. eigenvalues --    2.33419   2.34826   2.38509   2.39734   2.40946
 Alpha virt. eigenvalues --    2.43692   2.44509   2.45389   2.49094   2.50146
 Alpha virt. eigenvalues --    2.52251   2.55955   2.57843   2.59442   2.63812
 Alpha virt. eigenvalues --    2.67439   2.72712   2.75647   2.77794   2.79442
 Alpha virt. eigenvalues --    2.82092   2.84224   2.88817   2.90155   2.95377
 Alpha virt. eigenvalues --    2.95526   2.98286   2.99246   3.01942   3.02392
 Alpha virt. eigenvalues --    3.05100   3.06700   3.10817   3.13772   3.14995
 Alpha virt. eigenvalues --    3.17350   3.18881   3.21458   3.22383   3.25294
 Alpha virt. eigenvalues --    3.26297   3.27328   3.29606   3.31108   3.32798
 Alpha virt. eigenvalues --    3.33052   3.34992   3.35304   3.37655   3.39662
 Alpha virt. eigenvalues --    3.42311   3.42997   3.47015   3.47379   3.48624
 Alpha virt. eigenvalues --    3.50742   3.52564   3.54436   3.56589   3.57619
 Alpha virt. eigenvalues --    3.58671   3.60390   3.60531   3.61606   3.63706
 Alpha virt. eigenvalues --    3.65960   3.70094   3.73796   3.76468   3.77420
 Alpha virt. eigenvalues --    3.78806   3.80025   3.82373   3.83970   3.85885
 Alpha virt. eigenvalues --    3.87234   3.88248   3.88651   3.91098   3.93747
 Alpha virt. eigenvalues --    3.93876   3.95404   3.98762   3.99918   4.02387
 Alpha virt. eigenvalues --    4.03325   4.05081   4.07108   4.09092   4.10675
 Alpha virt. eigenvalues --    4.12668   4.15146   4.16998   4.18018   4.21165
 Alpha virt. eigenvalues --    4.22623   4.24081   4.26524   4.28955   4.29853
 Alpha virt. eigenvalues --    4.31602   4.33526   4.34367   4.35966   4.36487
 Alpha virt. eigenvalues --    4.38649   4.39979   4.42786   4.46415   4.47619
 Alpha virt. eigenvalues --    4.48496   4.51118   4.52165   4.54161   4.57571
 Alpha virt. eigenvalues --    4.59836   4.60822   4.67692   4.71303   4.74544
 Alpha virt. eigenvalues --    4.78018   4.81835   4.85349   4.87151   4.90080
 Alpha virt. eigenvalues --    4.91086   4.93879   4.97391   5.00201   5.03309
 Alpha virt. eigenvalues --    5.04046   5.07195   5.09236   5.14255   5.14564
 Alpha virt. eigenvalues --    5.15134   5.18867   5.20520   5.21562   5.25942
 Alpha virt. eigenvalues --    5.27094   5.28223   5.36684   5.40269   5.41395
 Alpha virt. eigenvalues --    5.45286   5.50763   5.50964   5.55633   5.56708
 Alpha virt. eigenvalues --    5.57032   5.59842   5.62537   5.63128   5.63762
 Alpha virt. eigenvalues --    5.65521   5.65836   5.68091   5.72034   5.75630
 Alpha virt. eigenvalues --    5.78556   5.82416   5.83467   5.84622   5.85527
 Alpha virt. eigenvalues --    5.86434   5.87284   5.91481   5.99115   6.01621
 Alpha virt. eigenvalues --    6.08531   6.10618   6.16165   6.23070   6.33474
 Alpha virt. eigenvalues --    6.37096   6.42211   6.44202   6.60582   6.63684
 Alpha virt. eigenvalues --    6.66220   6.68354   6.69520   6.70451   6.79520
 Alpha virt. eigenvalues --    6.80590   6.82029   6.83773   6.85318   6.86881
 Alpha virt. eigenvalues --    6.87273   6.88829   6.89976   6.90967   6.92018
 Alpha virt. eigenvalues --    6.92550   6.94197   6.98036   6.98669   7.00173
 Alpha virt. eigenvalues --    7.00672   7.05586   7.07588   7.10772   7.15516
 Alpha virt. eigenvalues --    7.17571   7.19905   7.21996   7.23051   7.23498
 Alpha virt. eigenvalues --    7.31877   7.36373   7.44793   7.47029   7.47783
 Alpha virt. eigenvalues --    7.54003   7.62822   7.67070   7.73103   7.76203
 Alpha virt. eigenvalues --    7.79225   7.84303   7.91276   7.92693   7.95787
 Alpha virt. eigenvalues --   12.44600  23.53799  23.63506  43.94637  43.98722
 Alpha virt. eigenvalues --   44.09792  44.16400  44.28216  44.41053
          Condensed to atoms (all electrons):
               1          2          3          4          5          6
     1  C    4.738832   0.402039   0.364078   0.290812  -0.074626  -0.028378
     2  H    0.402039   0.724381  -0.052525  -0.068715   0.015440   0.001620
     3  H    0.364078  -0.052525   0.717162  -0.023715  -0.000594   0.000711
     4  C    0.290812  -0.068715  -0.023715   4.822373   0.404307   0.351943
     5  H   -0.074626   0.015440  -0.000594   0.404307   0.694749  -0.034705
     6  H   -0.028378   0.001620   0.000711   0.351943  -0.034705   0.709118
     7  O    0.316576  -0.048257  -0.043138  -0.084527   0.009430   0.007806
     8  H   -0.000581   0.000349  -0.000378  -0.000942   0.001500   0.000052
     9  O    0.000775  -0.000038  -0.000000  -0.001943   0.000934   0.000009
    10  H   -0.001281  -0.000016   0.000036   0.001814  -0.000189  -0.000018
    11  Si   0.009049  -0.000546  -0.000329  -0.057520  -0.015813   0.007023
    12  O   -0.000272  -0.000089  -0.000010  -0.000612  -0.000154  -0.000099
    13  H    0.000137  -0.000030  -0.000003  -0.000356  -0.000062   0.000013
    14  O    0.003016   0.001191  -0.000531  -0.000837  -0.000652  -0.000395
    15  H   -0.030672  -0.012636   0.008640   0.005060  -0.002751  -0.001119
    16  O   -0.068019   0.007761   0.006486   0.308350  -0.049679  -0.043989
    17  O   -0.001039   0.000012   0.000036  -0.017202   0.018610  -0.000113
    18  H    0.000277  -0.000019   0.000005  -0.000334   0.000248  -0.000015
               7          8          9         10         11         12
     1  C    0.316576  -0.000581   0.000775  -0.001281   0.009049  -0.000272
     2  H   -0.048257   0.000349  -0.000038  -0.000016  -0.000546  -0.000089
     3  H   -0.043138  -0.000378  -0.000000   0.000036  -0.000329  -0.000010
     4  C   -0.084527  -0.000942  -0.001943   0.001814  -0.057520  -0.000612
     5  H    0.009430   0.001500   0.000934  -0.000189  -0.015813  -0.000154
     6  H    0.007806   0.000052   0.000009  -0.000018   0.007023  -0.000099
     7  O    8.025186   0.014536  -0.003279  -0.000902   0.007394  -0.000060
     8  H    0.014536   0.507639   0.335547  -0.043547   0.004860   0.000002
     9  O   -0.003279   0.335547   7.853539   0.336635   0.008683  -0.000096
    10  H   -0.000902  -0.043547   0.336635   0.381862  -0.008208  -0.000205
    11  Si   0.007394   0.004860   0.008683  -0.008208  11.565946   0.457505
    12  O   -0.000060   0.000002  -0.000096  -0.000205   0.457505   7.768831
    13  H    0.000020  -0.000001   0.000050  -0.000173  -0.031476   0.327924
    14  O   -0.051850   0.004515  -0.053947   0.079109   0.551791  -0.037127
    15  H    0.314828  -0.001885   0.001770   0.002580  -0.009980   0.000097
    16  O    0.003077  -0.000045  -0.000237   0.000539   0.402337  -0.028748
    17  O   -0.000606   0.000401  -0.018771   0.001867   0.420873  -0.026668
    18  H   -0.000173  -0.003219   0.042448  -0.006836  -0.030790   0.000124
              13         14         15         16         17         18
     1  C    0.000137   0.003016  -0.030672  -0.068019  -0.001039   0.000277
     2  H   -0.000030   0.001191  -0.012636   0.007761   0.000012  -0.000019
     3  H   -0.000003  -0.000531   0.008640   0.006486   0.000036   0.000005
     4  C   -0.000356  -0.000837   0.005060   0.308350  -0.017202  -0.000334
     5  H   -0.000062  -0.000652  -0.002751  -0.049679   0.018610   0.000248
     6  H    0.000013  -0.000395  -0.001119  -0.043989  -0.000113  -0.000015
     7  O    0.000020  -0.051850   0.314828   0.003077  -0.000606  -0.000173
     8  H   -0.000001   0.004515  -0.001885  -0.000045   0.000401  -0.003219
     9  O    0.000050  -0.053947   0.001770  -0.000237  -0.018771   0.042448
    10  H   -0.000173   0.079109   0.002580   0.000539   0.001867  -0.006836
    11  Si  -0.031476   0.551791  -0.009980   0.402337   0.420873  -0.030790
    12  O    0.327924  -0.037127   0.000097  -0.028748  -0.026668   0.000124
    13  H    0.541993   0.000387  -0.000145   0.000681  -0.000071  -0.000287
    14  O    0.000387   8.206300   0.084437  -0.028641  -0.035994  -0.003468
    15  H   -0.000145   0.084437   0.402513  -0.000433   0.001135  -0.000330
    16  O    0.000681  -0.028641  -0.000433   7.924972  -0.032094   0.001001
    17  O   -0.000071  -0.035994   0.001135  -0.032094   7.830312   0.334852
    18  H   -0.000287  -0.003468  -0.000330   0.001001   0.334852   0.469510
 Mulliken charges:
               1
     1  C    0.079278
     2  H    0.030076
     3  H    0.024070
     4  C    0.072046
     5  H    0.034006
     6  H    0.030536
     7  O   -0.466061
     8  H    0.181197
     9  O   -0.502079
    10  H    0.256932
    11  Si   0.719202
    12  O   -0.460342
    13  H    0.161400
    14  O   -0.717303
    15  H    0.238891
    16  O   -0.403319
    17  O   -0.475537
    18  H    0.197009
 Sum of Mulliken charges =  -1.00000
 Mulliken charges with hydrogens summed into heavy atoms:
               1
     1  C    0.133424
     4  C    0.136587
     7  O   -0.227169
     9  O   -0.063951
    11  Si   0.719202
    12  O   -0.298943
    14  O   -0.717303
    16  O   -0.403319
    17  O   -0.278528
 Electronic spatial extent (au):  <R**2>=           1505.4369
 Charge=             -1.0000 electrons
 Dipole moment (field-independent basis, Debye):
    X=              2.0193    Y=             -2.3004    Z=             -0.5899  Tot=              3.1172
 Quadrupole moment (field-independent basis, Debye-Ang):
   XX=            -73.8827   YY=            -81.0485   ZZ=            -67.7032
   XY=             -3.8437   XZ=             -7.4604   YZ=             -2.4074
 Traceless Quadrupole moment (field-independent basis, Debye-Ang):
   XX=              0.3288   YY=             -6.8370   ZZ=              6.5083
   XY=             -3.8437   XZ=             -7.4604   YZ=             -2.4074
 Octapole moment (field-independent basis, Debye-Ang**2):
  XXX=            -11.5212  YYY=            -26.0409  ZZZ=              5.1112  XYY=              8.1614
  XXY=              5.2856  XXZ=              5.1676  XZZ=             -3.9328  YZZ=             -3.3250
  YYZ=              0.1056  XYZ=             -1.4916
 Hexadecapole moment (field-independent basis, Debye-Ang**3):
 XXXX=           -991.1385 YYYY=           -867.5973 ZZZZ=           -290.1295 XXXY=            -22.9909
 XXXZ=            -50.2590 YYYX=             16.3335 YYYZ=              8.0965 ZZZX=            -19.2614
 ZZZY=            -16.8911 XXYY=           -275.7882 XXZZ=           -192.1429 YYZZ=           -158.6730
 XXYZ=            -10.5444 YYXZ=             -2.4686 ZZXY=             12.3648
 N-N= 6.377557956116D+02 E-N=-3.238674062068D+03  KE= 8.200491437385D+02


 THE ONLY DIFFERENCE BETWEEN ECCENTRICS AND JOGGERS
 IS THAT JOGGERS WEAR SWEATBANDS WHEN THEY RUN IN THE RAIN.
 Error termination request processed by link 9999.
 Error termination via Lnk1e in /opt/software/gaussian/g16.c01/l9999.exe at Tue Mar 26 01:59:18 2024.
 Job cpu time:       1 days  6 hours  0 minutes 45.4 seconds.
 Elapsed time:       0 days  7 hours 48 minutes  9.5 seconds.
 File lengths (MBytes):  RWF=    111 Int=      0 D2E=      0 Chk=     13 Scr=      1
