 Entering Gaussian System, Link 0=/opt/software/gaussian/g16.c01/g16
 Initial command:
 /opt/software/gaussian/g16.c01/l1.exe "/scratch/arhender/18119178/Gau-19188.inp" -scrdir="/scratch/arhender/18119178/"
 Entering Link 1 = /opt/software/gaussian/g16.c01/l1.exe PID=     19281.
  
 Copyright (c) 1988-2019, Gaussian, Inc.  All Rights Reserved.
  
 This is part of the Gaussian(R) 16 program.  It is based on
 the Gaussian(R) 09 system (copyright 2009, Gaussian, Inc.),
 the Gaussian(R) 03 system (copyright 2003, Gaussian, Inc.),
 the Gaussian(R) 98 system (copyright 1998, Gaussian, Inc.),
 the Gaussian(R) 94 system (copyright 1995, Gaussian, Inc.),
 the Gaussian 92(TM) system (copyright 1992, Gaussian, Inc.),
 the Gaussian 90(TM) system (copyright 1990, Gaussian, Inc.),
 the Gaussian 88(TM) system (copyright 1988, Gaussian, Inc.),
 the Gaussian 86(TM) system (copyright 1986, Carnegie Mellon
 University), and the Gaussian 82(TM) system (copyright 1983,
 Carnegie Mellon University). Gaussian is a federally registered
 trademark of Gaussian, Inc.
  
 This software contains proprietary and confidential information,
 including trade secrets, belonging to Gaussian, Inc.
  
 This software is provided under written license and may be
 used, copied, transmitted, or stored only in accord with that
 written license.
  
 The following legend is applicable only to US Government
 contracts under FAR:
  
                    RESTRICTED RIGHTS LEGEND
  
 Use, reproduction and disclosure by the US Government is
 subject to restrictions as set forth in subparagraphs (a)
 and (c) of the Commercial Computer Software - Restricted
 Rights clause in FAR 52.227-19.
  
 Gaussian, Inc.
 340 Quinnipiac St., Bldg. 40, Wallingford CT 06492
  
  
 ---------------------------------------------------------------
 Warning -- This program may not be used in any manner that
 competes with the business of Gaussian, Inc. or will provide
 assistance to any competitor of Gaussian, Inc.  The licensee
 of this program is prohibited from giving any competitor of
 Gaussian, Inc. access to this program.  By using this program,
 the user acknowledges that Gaussian, Inc. is engaged in the
 business of creating and licensing software in the field of
 computational chemistry and represents and warrants to the
 licensee that it is not a competitor of Gaussian, Inc. and that
 it will not use this program in any manner prohibited above.
 ---------------------------------------------------------------
  

 Cite this work as:
 Gaussian 16, Revision C.01,
 M. J. Frisch, G. W. Trucks, H. B. Schlegel, G. E. Scuseria, 
 M. A. Robb, J. R. Cheeseman, G. Scalmani, V. Barone, 
 G. A. Petersson, H. Nakatsuji, X. Li, M. Caricato, A. V. Marenich, 
 J. Bloino, B. G. Janesko, R. Gomperts, B. Mennucci, H. P. Hratchian, 
 J. V. Ortiz, A. F. Izmaylov, J. L. Sonnenberg, D. Williams-Young, 
 F. Ding, F. Lipparini, F. Egidi, J. Goings, B. Peng, A. Petrone, 
 T. Henderson, D. Ranasinghe, V. G. Zakrzewski, J. Gao, N. Rega, 
 G. Zheng, W. Liang, M. Hada, M. Ehara, K. Toyota, R. Fukuda, 
 J. Hasegawa, M. Ishida, T. Nakajima, Y. Honda, O. Kitao, H. Nakai, 
 T. Vreven, K. Throssell, J. A. Montgomery, Jr., J. E. Peralta, 
 F. Ogliaro, M. J. Bearpark, J. J. Heyd, E. N. Brothers, K. N. Kudin, 
 V. N. Staroverov, T. A. Keith, R. Kobayashi, J. Normand, 
 K. Raghavachari, A. P. Rendell, J. C. Burant, S. S. Iyengar, 
 J. Tomasi, M. Cossi, J. M. Millam, M. Klene, C. Adamo, R. Cammi, 
 J. W. Ochterski, R. L. Martin, K. Morokuma, O. Farkas, 
 J. B. Foresman, and D. J. Fox, Gaussian, Inc., Wallingford CT, 2019.
 
 ******************************************
 Gaussian 16:  ES64L-G16RevC.01  3-Jul-2019
                26-Mar-2024 
 ******************************************
 %chk=PbiLmL_to_QbiLmL_collapseIRC_Forward.chk
 %mem=1600MB
 %nprocs=4
 Will use up to    4 processors via shared memory.
 ----------------------------------------------------------------------
 # irc=(calcfc,forward,maxpoints=100,maxcycle=100) wb97xd/def2tzvpp geo
 m=connectivity
 ----------------------------------------------------------------------
 1/6=100,10=4,18=10,22=1,26=3,38=1,42=100,44=3,57=2,172=1/1,23;
 2/12=2,17=6,18=5,29=1,40=1/2;
 3/5=44,7=202,11=2,25=1,30=1,71=2,74=-58,140=1/1,2,3;
 4//1;
 5/5=2,38=5/2;
 8/6=4,10=90,11=11/1;
 11/6=1,8=1,9=11,15=111,16=1/1,2,10;
 10/6=1,13=1/2;
 6/7=2,8=2,9=2,10=2,28=1/1;
 7/10=1,25=1/1,2,3,16;
 1/6=100,10=4,18=10,22=1,26=3,42=100,44=3/23(2);
 2/29=1/2;
 99/5=20/99;
 2/29=1/2;
 3/5=44,7=202,11=2,25=1,30=1,71=2,74=-58,140=1/1,2,3;
 4/5=5,16=3,69=1/1;
 5/5=2,38=5/2;
 8/6=4,10=90,11=11/1;
 11/6=1,8=1,9=11,15=111,16=1/1,2,10;
 10/6=1,13=1/2;
 7/10=1,25=1/1,2,3,16;
 1/6=100,18=10,22=1,26=3,42=100,44=3/23(-8);
 2/29=1/2;
 6/7=2,8=2,9=2,10=2,19=2,28=1/1;
 99/5=20,9=1/99;
 --------------------------------------------------------
 Convert TS for PbiL to QbiL collapse to PbiLmL to QbiLmL
 --------------------------------------------------------
 Symbolic Z-matrix:
 Charge = -1 Multiplicity = 1
 Si                   -0.82682   0.12947   0.30069 
 O                     0.27083   1.37814   0.25174 
 O                    -2.38125   1.58096  -0.62842 
 H                    -1.98073   2.4402   -0.5039 
 O                    -0.9498   -0.69856  -1.15571 
 O                    -2.04619   0.31955   1.30885 
 H                    -2.49551   1.05285   0.51844 
 O                     0.18477  -1.1067    0.98458 
 C                     0.00825  -2.30462   0.28136 
 H                     0.89247  -2.94104   0.38699 
 H                    -0.8609   -2.85231   0.67055 
 C                    -0.22649  -1.89929  -1.17544 
 H                     0.73889  -1.74933  -1.67775 
 H                    -0.78634  -2.66203  -1.72624 
 C                     1.34209   1.44501  -0.64515 
 H                     1.17407   0.80175  -1.51769 
 H                     1.42609   2.47649  -1.01092 
 C                     2.65517   1.06342   0.01742 
 H                     3.47735   1.29324  -0.66896 
 H                     2.78042   1.6906    0.91181 
 O                     2.75175  -0.29981   0.34197 
 H                     1.89471  -0.57885   0.71486 
 
 IRC-IRC-IRC-IRC-IRC-IRC-IRC-IRC-IRC-IRC-IRC-IRC-IRC-IRC-IRC-IRC-IRC-IRC
 ------------------------------------------------------------------------
 INPUT DATA FOR L123
 ------------------------------------------------------------------------
 GENERAL PARAMETERS:
 Rxn path following direction = Forward
 Maximum points per path      = 100
 Step size                    =   0.100 bohr
 Integration scheme           = HPC                                 
    Redo corrector integration= Yes                                 
    DWI Weight Power          =  2
    DWI will use Hessian update vectors when possible.
    Max correction cycles     = 100
 Initial Hessian              = CalcFC
 Hessian evaluation           = All updating
 Hessian updating method      = Bofill                              
 ------------------------------------------------------------------------
 IRC-IRC-IRC-IRC-IRC-IRC-IRC-IRC-IRC-IRC-IRC-IRC-IRC-IRC-IRC-IRC-IRC-IRC
                          Input orientation:                          
 ---------------------------------------------------------------------
 Center     Atomic      Atomic             Coordinates (Angstroms)
 Number     Number       Type             X           Y           Z
 ---------------------------------------------------------------------
      1         14           0       -0.826815    0.129472    0.300690
      2          8           0        0.270825    1.378142    0.251743
      3          8           0       -2.381253    1.580959   -0.628422
      4          1           0       -1.980733    2.440201   -0.503898
      5          8           0       -0.949803   -0.698557   -1.155710
      6          8           0       -2.046190    0.319552    1.308846
      7          1           0       -2.495513    1.052853    0.518435
      8          8           0        0.184769   -1.106703    0.984576
      9          6           0        0.008252   -2.304618    0.281356
     10          1           0        0.892468   -2.941042    0.386992
     11          1           0       -0.860896   -2.852311    0.670548
     12          6           0       -0.226493   -1.899294   -1.175443
     13          1           0        0.738891   -1.749332   -1.677746
     14          1           0       -0.786342   -2.662034   -1.726242
     15          6           0        1.342094    1.445012   -0.645145
     16          1           0        1.174067    0.801754   -1.517685
     17          1           0        1.426089    2.476492   -1.010922
     18          6           0        2.655171    1.063420    0.017423
     19          1           0        3.477352    1.293239   -0.668955
     20          1           0        2.780419    1.690601    0.911809
     21          8           0        2.751746   -0.299807    0.341967
     22          1           0        1.894714   -0.578850    0.714857
 ---------------------------------------------------------------------
                    Distance matrix (angstroms):
                    1          2          3          4          5
     1  Si   0.000000
     2  O    1.663246   0.000000
     3  O    2.320849   2.801668   0.000000
     4  H    2.705246   2.601630   0.956148   0.000000
     5  O    1.679839   2.789899   2.742859   3.367414   0.000000
     6  O    1.593545   2.758013   2.335899   2.790605   2.883166
     7  H    1.919531   2.798136   1.267767   1.798582   2.873920
     8  O    1.737565   2.592085   4.050896   4.414236   2.456555
     9  C    2.573423   3.692227   4.651359   5.204420   2.358487
    10  H    3.520147   4.365785   5.674223   6.164961   3.286736
    11  H    3.004827   4.399196   4.863403   5.535706   2.825204
    12  C    2.579776   3.609123   4.129695   4.728588   1.401904
    13  H    3.145719   3.704471   4.682651   5.130932   2.056292
    14  H    3.450014   4.620936   4.663897   5.380845   2.051211
    15  C    2.707289   1.398748   3.725866   3.471532   3.179364
    16  H    2.786033   2.068561   3.746765   3.696625   2.625411
    17  H    3.507764   2.033551   3.929903   3.444536   3.968219
    18  C    3.616176   2.416415   5.103972   4.864042   4.180507
    19  H    4.562940   3.337171   5.865806   5.579736   4.878922
    20  H    3.977779   2.613691   5.387689   5.023415   4.888483
    21  O    3.604453   2.996435   5.552172   5.533488   4.012917
    22  H    2.842530   2.584823   4.975245   5.061534   3.406557
                    6          7          8          9         10
     6  O    0.000000
     7  H    1.168063   0.000000
     8  O    2.667683   3.473454   0.000000
     9  C    3.487511   4.194956   1.400242   0.000000
    10  H    4.485198   5.238978   2.054932   1.094547   0.000000
    11  H    3.445731   4.236203   2.058926   1.098570   1.778360
    12  C    3.795559   4.090580   2.337310   1.530247   2.185982
    13  H    4.577848   4.810075   2.794277   2.163390   2.388912
    14  H    4.437210   4.664786   3.272712   2.188510   2.713302
    15  C    4.070038   4.029260   3.241395   4.086229   4.528238
    16  H    4.311827   4.204123   3.298822   3.774284   4.208992
    17  H    4.700046   4.443494   4.285111   5.151627   5.620373
    18  C    4.931927   5.175004   3.427492   4.291797   4.390834
    19  H    5.947208   6.094489   4.397157   5.087467   5.072059
    20  H    5.033246   5.328876   3.816753   4.903484   5.029106
    21  O    4.933422   5.421675   2.766478   3.398485   3.230335
    22  H    4.085422   4.687764   1.809776   2.593248   2.586879
                   11         12         13         14         15
    11  H    0.000000
    12  C    2.172186   0.000000
    13  H    3.048010   1.098528   0.000000
    14  H    2.405487   1.094798   1.778120   0.000000
    15  C    5.005117   3.731764   3.410858   4.750457   0.000000
    16  H    4.720342   3.061757   2.592882   3.985540   1.096969
    17  H    6.037697   4.680342   4.332953   5.640123   1.097633
    18  C    5.303041   4.301696   3.802276   5.363151   1.519467
    19  H    6.148191   4.916021   4.215930   5.911102   2.140778
    20  H    5.827129   5.126937   4.765162   6.215024   2.133823
    21  O    4.435586   3.705509   3.198742   4.730293   2.450694
    22  H    3.572671   3.133102   2.903533   4.181708   2.500202
                   16         17         18         19         20
    16  H    0.000000
    17  H    1.767787   0.000000
    18  C    2.149115   2.136565   0.000000
    19  H    2.503402   2.392636   1.095405   0.000000
    20  H    3.045137   2.479663   1.099531   1.772689   0.000000
    21  O    2.675970   3.360880   1.404651   2.021451   2.070571
    22  H    2.722066   3.540203   1.939526   2.815030   2.444110
                   21         22
    21  O    0.000000
    22  H    0.975405   0.000000
 Symmetry turned off by external request.
 Stoichiometry    C4H11O6Si(1-)
 Framework group  C1[X(C4H11O6Si)]
 Deg. of freedom    60
 Full point group                 C1      NOp   1
 Rotational constants (GHZ):           1.2531081           0.8844156           0.6706108
 Standard basis: def2TZVPP (5D, 7F)
   506 basis functions,   766 primitive gaussians,   573 cartesian basis functions
    49 alpha electrons       49 beta electrons
       nuclear repulsion energy       866.0287420074 Hartrees.
 NAtoms=   22 NActive=   22 NUniq=   22 SFac= 1.00D+00 NAtFMM=   60 NAOKFM=F Big=F
 Integral buffers will be    131072 words long.
 Raffenetti 2 integral format.
 Two-electron integral symmetry is turned off.
 Nuclear repulsion after empirical dispersion term =      866.0148379280 Hartrees.
 One-electron integrals computed using PRISM.
   1 Symmetry operations used in ECPInt.
 ECPInt:  NShTT=   18145 NPrTT=   50058 LenC2=   17266 LenP2D=   36911.
 LDataN:  DoStor=T MaxTD1= 6 Len=  172
 NBasis=   506 RedAO= T EigKep=  2.42D-04  NBF=   506
 NBsUse=   506 1.00D-06 EigRej= -1.00D+00 NBFU=   506
 ExpMin= 7.01D-02 ExpMax= 4.48D+04 ExpMxC= 1.53D+03 IAcc=3 IRadAn=         5 AccDes= 0.00D+00
 Harris functional with IExCor= 4639 and IRadAn=       5 diagonalized for initial guess.
 HarFok:  IExCor= 4639 AccDes= 0.00D+00 IRadAn=         5 IDoV= 1 UseB2=F ITyADJ=14
 ICtDFT=  3500011 ScaDFX=  1.000000  1.000000  1.000000  1.000000
 FoFCou: FMM=F IPFlag=           0 FMFlag=      100000 FMFlg1=           0
         NFxFlg=           0 DoJE=T BraDBF=F KetDBF=T FulRan=T
         wScrn=  0.000000 ICntrl=       500 IOpCl=  0 I1Cent=   200000004 NGrid=           0
         NMat0=    1 NMatS0=      1 NMatT0=    0 NMatD0=    1 NMtDS0=    0 NMtDT0=    0
 Symmetry not used in FoFCou.
 Requested convergence on RMS density matrix=1.00D-08 within 128 cycles.
 Requested convergence on MAX density matrix=1.00D-06.
 Requested convergence on             energy=1.00D-06.
 No special actions if energy rises.
 Integral accuracy reduced to 1.0D-05 until final iterations.
 Initial convergence to 1.0D-05 achieved.  Increase integral accuracy.
 SCF Done:  E(RwB97XD) =  -900.172966861     A.U. after   14 cycles
            NFock= 14  Conv=0.74D-08     -V/T= 2.0036
 DoSCS=F DFT=T ScalE2(SS,OS)=  1.000000  1.000000
 Range of M.O.s used for correlation:     1   506
 NBasis=   506 NAE=    49 NBE=    49 NFC=     0 NFV=     0
 NROrb=    506 NOA=    49 NOB=    49 NVA=   457 NVB=   457

 **** Warning!!: The largest alpha MO coefficient is  0.13236050D+02

   1 Symmetry operations used in ECPInt.
 ECPInt:  NShTT=   18145 NPrTT=   50058 LenC2=   17266 LenP2D=   36911.
 LDataN:  DoStor=T MaxTD1= 7 Len=  274
 Symmetrizing basis deriv contribution to polar:
 IMax=3 JMax=2 DiffMx= 0.00D+00
 G2DrvN: will do    23 centers at a time, making    1 passes.
 Calling FoFCou, ICntrl=  3107 FMM=F I1Cent=   0 AccDes= 0.00D+00.
 End of G2Drv F.D. properties file   721 does not exist.
 End of G2Drv F.D. properties file   722 does not exist.
 End of G2Drv F.D. properties file   788 does not exist.
          IDoAtm=1111111111111111111111
          Differentiating once with respect to nuclear coordinates.
 CalDSu exits because no D1Ps are significant.
          There are    69 degrees of freedom in the 1st order CPHF.  IDoFFX=6 NUNeed=     0.
     63 vectors produced by pass  0 Test12= 3.25D-14 1.45D-09 XBig12= 8.60D-02 3.87D-02.
 AX will form    63 AO Fock derivatives at one time.
     63 vectors produced by pass  1 Test12= 3.25D-14 1.45D-09 XBig12= 2.67D-02 2.76D-02.
     63 vectors produced by pass  2 Test12= 3.25D-14 1.45D-09 XBig12= 7.15D-04 3.05D-03.
     63 vectors produced by pass  3 Test12= 3.25D-14 1.45D-09 XBig12= 1.24D-05 4.27D-04.
     63 vectors produced by pass  4 Test12= 3.25D-14 1.45D-09 XBig12= 1.48D-07 4.49D-05.
     63 vectors produced by pass  5 Test12= 3.25D-14 1.45D-09 XBig12= 1.34D-09 3.22D-06.
     63 vectors produced by pass  6 Test12= 3.25D-14 1.45D-09 XBig12= 1.00D-11 3.64D-07.
     32 vectors produced by pass  7 Test12= 3.25D-14 1.45D-09 XBig12= 7.12D-14 2.74D-08.
      2 vectors produced by pass  8 Test12= 3.25D-14 1.45D-09 XBig12= 9.90D-16 2.21D-09.
 InvSVY:  IOpt=1 It=  1 EMax= 2.78D-16
 Solved reduced A of dimension   475 with    69 vectors.
 End of Minotr F.D. properties file   721 does not exist.
 End of Minotr F.D. properties file   722 does not exist.
 End of Minotr F.D. properties file   788 does not exist.

 **********************************************************************

            Population analysis using the SCF Density.

 **********************************************************************

 Alpha  occ. eigenvalues --  -66.13857 -19.10473 -19.09254 -19.09137 -19.09046
 Alpha  occ. eigenvalues --  -19.02205 -19.01686 -10.20149 -10.20045 -10.19898
 Alpha  occ. eigenvalues --  -10.19869  -5.25348  -3.60008  -3.59891  -3.59629
 Alpha  occ. eigenvalues --   -1.00453  -0.98623  -0.96197  -0.93705  -0.89258
 Alpha  occ. eigenvalues --   -0.83301  -0.70440  -0.68866  -0.58454  -0.57100
 Alpha  occ. eigenvalues --   -0.48577  -0.46650  -0.45602  -0.44207  -0.43082
 Alpha  occ. eigenvalues --   -0.41699  -0.39900  -0.37868  -0.36532  -0.36437
 Alpha  occ. eigenvalues --   -0.35995  -0.31129  -0.29994  -0.28703  -0.27009
 Alpha  occ. eigenvalues --   -0.26211  -0.25251  -0.24640  -0.23409  -0.22549
 Alpha  occ. eigenvalues --   -0.21154  -0.19927  -0.18119  -0.16083
 Alpha virt. eigenvalues --    0.23621   0.24513   0.26273   0.26790   0.27586
 Alpha virt. eigenvalues --    0.28604   0.29602   0.30398   0.31968   0.32794
 Alpha virt. eigenvalues --    0.33354   0.34700   0.35118   0.36294   0.38159
 Alpha virt. eigenvalues --    0.39370   0.39827   0.41125   0.41994   0.42273
 Alpha virt. eigenvalues --    0.42909   0.43664   0.45938   0.46217   0.48597
 Alpha virt. eigenvalues --    0.48959   0.49363   0.51530   0.51889   0.53690
 Alpha virt. eigenvalues --    0.54662   0.56194   0.56464   0.57548   0.58760
 Alpha virt. eigenvalues --    0.59168   0.59253   0.59763   0.60722   0.61659
 Alpha virt. eigenvalues --    0.62381   0.62865   0.63447   0.64069   0.64962
 Alpha virt. eigenvalues --    0.65252   0.66448   0.67354   0.67968   0.68724
 Alpha virt. eigenvalues --    0.69094   0.69949   0.71457   0.72458   0.74239
 Alpha virt. eigenvalues --    0.75235   0.77329   0.79299   0.79596   0.80519
 Alpha virt. eigenvalues --    0.81550   0.82307   0.83338   0.84386   0.86244
 Alpha virt. eigenvalues --    0.88562   0.89356   0.90124   0.90477   0.91929
 Alpha virt. eigenvalues --    0.93099   0.94190   0.96236   0.97087   0.97376
 Alpha virt. eigenvalues --    0.97974   1.00012   1.01349   1.02074   1.03480
 Alpha virt. eigenvalues --    1.04092   1.04952   1.06981   1.08566   1.09125
 Alpha virt. eigenvalues --    1.10124   1.10731   1.13497   1.13871   1.15885
 Alpha virt. eigenvalues --    1.16802   1.17082   1.19297   1.19653   1.20533
 Alpha virt. eigenvalues --    1.21727   1.22758   1.23755   1.24782   1.26137
 Alpha virt. eigenvalues --    1.28249   1.28712   1.30173   1.31414   1.32516
 Alpha virt. eigenvalues --    1.32738   1.34891   1.35259   1.35403   1.36339
 Alpha virt. eigenvalues --    1.37635   1.39714   1.40521   1.42422   1.43059
 Alpha virt. eigenvalues --    1.44315   1.44899   1.46101   1.47304   1.49210
 Alpha virt. eigenvalues --    1.50061   1.52412   1.54449   1.55432   1.56184
 Alpha virt. eigenvalues --    1.56647   1.57378   1.58404   1.58972   1.61190
 Alpha virt. eigenvalues --    1.62385   1.63537   1.64948   1.66314   1.67945
 Alpha virt. eigenvalues --    1.70227   1.70846   1.72423   1.73539   1.75556
 Alpha virt. eigenvalues --    1.75855   1.77187   1.78426   1.80997   1.81972
 Alpha virt. eigenvalues --    1.83037   1.86832   1.89450   1.89628   1.92445
 Alpha virt. eigenvalues --    1.95789   1.97906   1.99732   2.03082   2.05548
 Alpha virt. eigenvalues --    2.07238   2.08372   2.09207   2.11590   2.11859
 Alpha virt. eigenvalues --    2.14195   2.14554   2.16861   2.18343   2.20208
 Alpha virt. eigenvalues --    2.21964   2.23206   2.24474   2.26212   2.27676
 Alpha virt. eigenvalues --    2.29840   2.32050   2.33700   2.35268   2.36625
 Alpha virt. eigenvalues --    2.38755   2.39644   2.42262   2.44395   2.44894
 Alpha virt. eigenvalues --    2.47568   2.48562   2.49959   2.51252   2.55058
 Alpha virt. eigenvalues --    2.55581   2.56752   2.59504   2.60777   2.62080
 Alpha virt. eigenvalues --    2.65044   2.66811   2.68215   2.71872   2.73575
 Alpha virt. eigenvalues --    2.76407   2.79274   2.82669   2.83537   2.84365
 Alpha virt. eigenvalues --    2.86073   2.87164   2.92318   2.93857   2.95061
 Alpha virt. eigenvalues --    2.96786   2.97891   2.99572   3.00967   3.02075
 Alpha virt. eigenvalues --    3.03283   3.04439   3.07175   3.08838   3.10434
 Alpha virt. eigenvalues --    3.11150   3.11941   3.14316   3.16253   3.18119
 Alpha virt. eigenvalues --    3.19088   3.20523   3.21504   3.23280   3.23639
 Alpha virt. eigenvalues --    3.25129   3.27607   3.28493   3.29501   3.29908
 Alpha virt. eigenvalues --    3.31637   3.32602   3.33035   3.33731   3.36130
 Alpha virt. eigenvalues --    3.36802   3.37582   3.38177   3.40711   3.41584
 Alpha virt. eigenvalues --    3.44732   3.45531   3.46857   3.47998   3.48513
 Alpha virt. eigenvalues --    3.52241   3.53635   3.54607   3.56888   3.57678
 Alpha virt. eigenvalues --    3.59848   3.60521   3.62401   3.63585   3.64991
 Alpha virt. eigenvalues --    3.66210   3.68315   3.68972   3.72734   3.73320
 Alpha virt. eigenvalues --    3.74652   3.76633   3.77421   3.78689   3.79496
 Alpha virt. eigenvalues --    3.82533   3.83511   3.83749   3.85296   3.85850
 Alpha virt. eigenvalues --    3.86949   3.88211   3.89165   3.90081   3.90517
 Alpha virt. eigenvalues --    3.93602   3.95139   3.95362   3.96317   3.98600
 Alpha virt. eigenvalues --    4.00762   4.02974   4.03733   4.06335   4.07284
 Alpha virt. eigenvalues --    4.07756   4.08938   4.10312   4.13513   4.15202
 Alpha virt. eigenvalues --    4.15754   4.16138   4.17680   4.19184   4.21076
 Alpha virt. eigenvalues --    4.22990   4.23434   4.26915   4.27413   4.28038
 Alpha virt. eigenvalues --    4.29722   4.32522   4.32869   4.35347   4.36146
 Alpha virt. eigenvalues --    4.37372   4.38705   4.39063   4.41630   4.43805
 Alpha virt. eigenvalues --    4.44542   4.46332   4.47732   4.48681   4.53017
 Alpha virt. eigenvalues --    4.53371   4.54092   4.58147   4.59304   4.59838
 Alpha virt. eigenvalues --    4.63754   4.70984   4.72167   4.73000   4.74248
 Alpha virt. eigenvalues --    4.75948   4.77256   4.80432   4.81344   4.85559
 Alpha virt. eigenvalues --    4.86828   4.87611   4.88867   4.89407   4.93812
 Alpha virt. eigenvalues --    4.95308   4.96818   4.99198   5.00634   5.02300
 Alpha virt. eigenvalues --    5.05435   5.05956   5.07260   5.09593   5.11363
 Alpha virt. eigenvalues --    5.12155   5.13463   5.14318   5.17436   5.19481
 Alpha virt. eigenvalues --    5.21688   5.24482   5.28094   5.30020   5.33466
 Alpha virt. eigenvalues --    5.34815   5.36653   5.37776   5.42506   5.45882
 Alpha virt. eigenvalues --    5.47046   5.49322   5.52238   5.54283   5.55287
 Alpha virt. eigenvalues --    5.56017   5.57867   5.60831   5.63449   5.64436
 Alpha virt. eigenvalues --    5.65471   5.66798   5.68911   5.70809   5.72455
 Alpha virt. eigenvalues --    5.72577   5.72986   5.76337   5.80173   5.80828
 Alpha virt. eigenvalues --    5.81383   5.83684   5.84186   5.85252   5.86410
 Alpha virt. eigenvalues --    5.88767   5.91993   5.93263   5.98050   6.00341
 Alpha virt. eigenvalues --    6.05857   6.13321   6.15663   6.16830   6.18805
 Alpha virt. eigenvalues --    6.20030   6.24311   6.28351   6.33789   6.34887
 Alpha virt. eigenvalues --    6.37229   6.37980   6.40463   6.47670   6.54629
 Alpha virt. eigenvalues --    6.71890   6.74198   6.79145   6.83639   6.86451
 Alpha virt. eigenvalues --    6.89162   6.90963   6.91813   6.91904   6.93684
 Alpha virt. eigenvalues --    6.94583   6.96158   6.96337   6.98835   7.00689
 Alpha virt. eigenvalues --    7.01238   7.06184   7.06844   7.10571   7.12158
 Alpha virt. eigenvalues --    7.15332   7.18288   7.20533   7.22187   7.27584
 Alpha virt. eigenvalues --    7.30468   7.34063   7.35720   7.36527   7.41872
 Alpha virt. eigenvalues --    7.50766   7.51045   7.55521   7.56710   7.65857
 Alpha virt. eigenvalues --    7.72925   7.74269   7.81260   7.86086   7.92927
 Alpha virt. eigenvalues --    8.02389  12.72455  23.50942  23.53517  23.64951
 Alpha virt. eigenvalues --   23.66260  44.06749  44.15707  44.28196  44.40778
 Alpha virt. eigenvalues --   44.43465  44.47990
          Condensed to atoms (all electrons):
               1          2          3          4          5          6
     1  Si  11.671791   0.387936   0.140957  -0.018037   0.356472   0.580507
     2  O    0.387936   7.969893  -0.022074   0.004951  -0.012809  -0.029798
     3  O    0.140957  -0.022074   8.220619   0.289321  -0.021419  -0.178629
     4  H   -0.018037   0.004951   0.289321   0.595834   0.001040   0.013986
     5  O    0.356472  -0.012809  -0.021419   0.001040   7.935293  -0.023548
     6  O    0.580507  -0.029798  -0.178629   0.013986  -0.023548   8.073593
     7  H   -0.046197   0.004149   0.177339  -0.014152   0.003302   0.205007
     8  O    0.321971  -0.032249   0.001131   0.000005  -0.020439  -0.023820
     9  C   -0.014068   0.001304   0.001051  -0.000094  -0.064334  -0.000023
    10  H    0.005113  -0.000298   0.000006  -0.000000   0.004871  -0.000290
    11  H   -0.012446  -0.000219   0.000053  -0.000002   0.003130   0.001628
    12  C   -0.069999  -0.001088   0.001095  -0.000213   0.312081  -0.006325
    13  H   -0.010227   0.000166  -0.000009   0.000018  -0.059950  -0.000077
    14  H    0.000461  -0.000233   0.000057  -0.000013  -0.039024  -0.000015
    15  C   -0.061557   0.264654   0.007663  -0.000119  -0.014090  -0.002485
    16  H   -0.023732  -0.045732   0.000456   0.000025   0.019337  -0.000063
    17  H    0.005830  -0.039306   0.000647  -0.000299   0.000049  -0.000088
    18  C    0.004975  -0.051551   0.000792  -0.000125  -0.000817  -0.000574
    19  H    0.000951   0.006856   0.000009  -0.000006   0.000042  -0.000002
    20  H   -0.003912   0.004385  -0.000015   0.000005  -0.000011   0.000002
    21  O    0.001128   0.001730  -0.000003  -0.000000  -0.000228   0.000001
    22  H   -0.002050   0.001954   0.000054  -0.000004   0.001085   0.000129
               7          8          9         10         11         12
     1  Si  -0.046197   0.321971  -0.014068   0.005113  -0.012446  -0.069999
     2  O    0.004149  -0.032249   0.001304  -0.000298  -0.000219  -0.001088
     3  O    0.177339   0.001131   0.001051   0.000006   0.000053   0.001095
     4  H   -0.014152   0.000005  -0.000094  -0.000000  -0.000002  -0.000213
     5  O    0.003302  -0.020439  -0.064334   0.004871   0.003130   0.312081
     6  O    0.205007  -0.023820  -0.000023  -0.000290   0.001628  -0.006325
     7  H    0.405454   0.001144  -0.000508   0.000006  -0.000183   0.000192
     8  O    0.001144   8.061142   0.263947  -0.045818  -0.032628  -0.064720
     9  C   -0.000508   0.263947   4.750954   0.407629   0.415266   0.272773
    10  H    0.000006  -0.045818   0.407629   0.688884  -0.055155  -0.038136
    11  H   -0.000183  -0.032628   0.415266  -0.055155   0.667014  -0.040337
    12  C    0.000192  -0.064720   0.272773  -0.038136  -0.040337   4.784864
    13  H   -0.000060   0.007911  -0.065016  -0.010909   0.012285   0.427606
    14  H    0.000005   0.005897  -0.011511   0.007017  -0.010984   0.377757
    15  C   -0.001174   0.018414  -0.006091   0.000422   0.000649   0.003219
    16  H   -0.000251  -0.001517   0.003870   0.000026  -0.000164  -0.002909
    17  H    0.000094  -0.000228   0.000180  -0.000022   0.000002  -0.000273
    18  C   -0.000258  -0.004704   0.001917   0.000501  -0.000209  -0.000035
    19  H   -0.000001  -0.000395  -0.000148   0.000008  -0.000005   0.000063
    20  H   -0.000013   0.000495   0.000628  -0.000008   0.000012  -0.000159
    21  O    0.000017  -0.029829   0.010969   0.002252  -0.000178  -0.006598
    22  H   -0.000049   0.057488  -0.011816  -0.007554   0.001571   0.004732
              13         14         15         16         17         18
     1  Si  -0.010227   0.000461  -0.061557  -0.023732   0.005830   0.004975
     2  O    0.000166  -0.000233   0.264654  -0.045732  -0.039306  -0.051551
     3  O   -0.000009   0.000057   0.007663   0.000456   0.000647   0.000792
     4  H    0.000018  -0.000013  -0.000119   0.000025  -0.000299  -0.000125
     5  O   -0.059950  -0.039024  -0.014090   0.019337   0.000049  -0.000817
     6  O   -0.000077  -0.000015  -0.002485  -0.000063  -0.000088  -0.000574
     7  H   -0.000060   0.000005  -0.001174  -0.000251   0.000094  -0.000258
     8  O    0.007911   0.005897   0.018414  -0.001517  -0.000228  -0.004704
     9  C   -0.065016  -0.011511  -0.006091   0.003870   0.000180   0.001917
    10  H   -0.010909   0.007017   0.000422   0.000026  -0.000022   0.000501
    11  H    0.012285  -0.010984   0.000649  -0.000164   0.000002  -0.000209
    12  C    0.427606   0.377757   0.003219  -0.002909  -0.000273  -0.000035
    13  H    0.717828  -0.059526   0.008774  -0.007841   0.000154  -0.001693
    14  H   -0.059526   0.690228   0.000178   0.000896   0.000012  -0.000104
    15  C    0.008774   0.000178   4.811237   0.421358   0.361842   0.301819
    16  H   -0.007841   0.000896   0.421358   0.667808  -0.032175  -0.069731
    17  H    0.000154   0.000012   0.361842  -0.032175   0.675483  -0.020938
    18  C   -0.001693  -0.000104   0.301819  -0.069731  -0.020938   4.699657
    19  H   -0.000300  -0.000009  -0.026606  -0.000820   0.001288   0.369868
    20  H    0.000282   0.000009  -0.051794   0.012710  -0.000735   0.405785
    21  O    0.006358   0.000306  -0.068105   0.002023   0.006710   0.319317
    22  H   -0.000418  -0.000225   0.000911  -0.000070  -0.000762  -0.042262
              19         20         21         22
     1  Si   0.000951  -0.003912   0.001128  -0.002050
     2  O    0.006856   0.004385   0.001730   0.001954
     3  O    0.000009  -0.000015  -0.000003   0.000054
     4  H   -0.000006   0.000005  -0.000000  -0.000004
     5  O    0.000042  -0.000011  -0.000228   0.001085
     6  O   -0.000002   0.000002   0.000001   0.000129
     7  H   -0.000001  -0.000013   0.000017  -0.000049
     8  O   -0.000395   0.000495  -0.029829   0.057488
     9  C   -0.000148   0.000628   0.010969  -0.011816
    10  H    0.000008  -0.000008   0.002252  -0.007554
    11  H   -0.000005   0.000012  -0.000178   0.001571
    12  C    0.000063  -0.000159  -0.006598   0.004732
    13  H   -0.000300   0.000282   0.006358  -0.000418
    14  H   -0.000009   0.000009   0.000306  -0.000225
    15  C   -0.026606  -0.051794  -0.068105   0.000911
    16  H   -0.000820   0.012710   0.002023  -0.000070
    17  H    0.001288  -0.000735   0.006710  -0.000762
    18  C    0.369868   0.405785   0.319317  -0.042262
    19  H    0.709117  -0.053395  -0.043698   0.010832
    20  H   -0.053395   0.708998  -0.049843  -0.009344
    21  O   -0.043698  -0.049843   7.950792   0.338129
    22  H    0.010832  -0.009344   0.338129   0.426413
 Mulliken charges:
               1
     1  Si   0.784134
     2  O   -0.412620
     3  O   -0.619100
     4  H    0.127878
     5  O   -0.380031
     6  O   -0.609117
     7  H    0.266136
     8  O   -0.483197
     9  C    0.043121
    10  H    0.041457
    11  H    0.050902
    12  C    0.046413
    13  H    0.034643
    14  H    0.038821
    15  C    0.030883
    16  H    0.056496
    17  H    0.042537
    18  C    0.088373
    19  H    0.026351
    20  H    0.035917
    21  O   -0.441250
    22  H    0.231255
 Sum of Mulliken charges =  -1.00000
 Mulliken charges with hydrogens summed into heavy atoms:
               1
     1  Si   0.784134
     2  O   -0.412620
     3  O   -0.491222
     5  O   -0.380031
     6  O   -0.342981
     8  O   -0.483197
     9  C    0.135480
    12  C    0.119877
    15  C    0.129915
    18  C    0.150640
    21  O   -0.209995
 APT charges:
               1
     1  Si   0.405364
     2  O   -0.385491
     3  O   -0.674739
     4  H    0.271319
     5  O   -0.349517
     6  O   -0.423440
     7  H    0.242089
     8  O   -0.447477
     9  C   -0.718577
    10  H    0.404403
    11  H    0.440366
    12  C   -0.591991
    13  H    0.240735
    14  H    0.511517
    15  C   -0.459028
    16  H    0.140894
    17  H    0.444245
    18  C   -0.803261
    19  H    0.543580
    20  H    0.361846
    21  O   -0.178147
    22  H    0.025308
 Sum of APT charges =  -1.00000
 APT charges with hydrogens summed into heavy atoms:
               1
     1  Si   0.405364
     2  O   -0.385491
     3  O   -0.403420
     5  O   -0.349517
     6  O   -0.181351
     8  O   -0.447477
     9  C    0.126192
    12  C    0.160262
    15  C    0.126112
    18  C    0.102165
    21  O   -0.152839
 Electronic spatial extent (au):  <R**2>=           1912.5902
 Charge=             -1.0000 electrons
 Dipole moment (field-independent basis, Debye):
    X=              4.9499    Y=             -1.5651    Z=             -1.8955  Tot=              5.5267
 Quadrupole moment (field-independent basis, Debye-Ang):
   XX=           -104.2133   YY=            -74.6501   ZZ=            -85.1764
   XY=              8.8328   XZ=             -2.3319   YZ=              1.5747
 Traceless Quadrupole moment (field-independent basis, Debye-Ang):
   XX=            -16.2000   YY=             13.3632   ZZ=              2.8369
   XY=              8.8328   XZ=             -2.3319   YZ=              1.5747
 Octapole moment (field-independent basis, Debye-Ang**2):
  XXX=              9.3506  YYY=              1.6507  ZZZ=             -2.2244  XYY=              2.3183
  XXY=             -6.4211  XXZ=             -2.4298  XZZ=             16.4258  YZZ=              0.0293
  YYZ=             -0.1471  XYZ=             -5.5471
 Hexadecapole moment (field-independent basis, Debye-Ang**3):
 XXXX=          -1466.6282 YYYY=           -850.3467 ZZZZ=           -384.1953 XXXY=             67.6635
 XXXZ=            -24.1936 YYYX=            -14.3878 YYYZ=             -3.4118 ZZZX=             13.6095
 ZZZY=              1.8992 XXYY=           -369.7061 XXZZ=           -303.7632 YYZZ=           -212.8097
 XXYZ=             16.1571 YYXZ=             -6.4581 ZZXY=              6.1618
 N-N= 8.660148379280D+02 E-N=-3.875577319977D+03  KE= 8.969755203717D+02
  Exact polarizability:       0.000       0.000       0.000       0.000       0.000       0.000
 Approx polarizability:     100.079       0.035     105.055      -2.229      -1.206      97.135
   1 Symmetry operations used in ECPInt.
 ECPInt:  NShTT=   18145 NPrTT=   50058 LenC2=   17266 LenP2D=   36911.
 LDataN:  DoStor=T MaxTD1= 8 Len=  415
 Calling FoFJK, ICntrl=    100127 FMM=F ISym2X=0 I1Cent= 0 IOpClX= 0 NMat=1 NMatS=1 NMatT=0.
 -------------------------------------------------------------------
 Center     Atomic                   Forces (Hartrees/Bohr)
 Number     Number              X              Y              Z
 -------------------------------------------------------------------
      1       14           0.000018625   -0.000020048    0.000017677
      2        8          -0.000022243    0.000005318   -0.000009430
      3        8          -0.000002792    0.000000617   -0.000011630
      4        1          -0.000003362   -0.000001372   -0.000002820
      5        8          -0.000003948    0.000005201    0.000001061
      6        8           0.000002240    0.000001648   -0.000013681
      7        1           0.000001454   -0.000000917   -0.000004585
      8        8          -0.000014596    0.000001747   -0.000000422
      9        6           0.000000607    0.000000040    0.000002121
     10        1           0.000001532    0.000000732    0.000001716
     11        1           0.000001153   -0.000000274    0.000000166
     12        6           0.000007197    0.000000170    0.000002026
     13        1           0.000000625   -0.000002130   -0.000000782
     14        1           0.000003473   -0.000001429    0.000000395
     15        6          -0.000000302   -0.000015557    0.000010160
     16        1           0.000000228    0.000007894   -0.000000762
     17        1           0.000000922    0.000005442    0.000005987
     18        6           0.000000537   -0.000008409   -0.000002698
     19        1          -0.000004510    0.000001878   -0.000002158
     20        1           0.000004117    0.000002882    0.000000871
     21        8           0.000002913    0.000014530    0.000023625
     22        1           0.000006130    0.000002038   -0.000016838
 -------------------------------------------------------------------
 Cartesian Forces:  Max     0.000023625 RMS     0.000007896
 IRC-IRC-IRC-IRC-IRC-IRC-IRC-IRC-IRC-IRC-IRC-IRC-IRC-IRC-IRC-IRC-IRC-IRC
          ******** Start new reaction path calculation ********
 Supplied step size of   0.1000 bohr.
    Integration on MW PES will use step size of   0.1065 sqrt(amu)*bohr.
 Point Number:   0          Path Number:   1
 Calculating another point on the path.
 IRC-IRC-IRC-IRC-IRC-IRC-IRC-IRC-IRC-IRC-IRC-IRC-IRC-IRC-IRC-IRC-IRC-IRC
                          Input orientation:                          
 ---------------------------------------------------------------------
 Center     Atomic      Atomic             Coordinates (Angstroms)
 Number     Number       Type             X           Y           Z
 ---------------------------------------------------------------------
      1         14           0       -0.793011    0.122526    0.281938
      2          8           0        0.304255    1.372806    0.230082
      3          8           0       -2.349420    1.576064   -0.648550
      4          1           0       -1.947579    2.434229   -0.521088
      5          8           0       -0.915971   -0.703658   -1.176928
      6          8           0       -2.011144    0.314103    1.286411
      7          1           0       -2.461004    1.072822    0.451362
      8          8           0        0.219455   -1.112697    0.963271
      9          6           0        0.042102   -2.310141    0.260262
     10          1           0        0.926041   -2.947168    0.365379
     11          1           0       -0.827280   -2.857471    0.649545
     12          6           0       -0.192773   -1.904702   -1.196559
     13          1           0        0.772661   -1.754868   -1.698886
     14          1           0       -0.752739   -2.667362   -1.747416
     15          6           0        1.375862    1.439477   -0.666317
     16          1           0        1.208109    0.796075   -1.538856
     17          1           0        1.460314    2.470995   -1.032181
     18          6           0        2.688916    1.057840   -0.003618
     19          1           0        3.511078    1.287791   -0.690027
     20          1           0        2.814103    1.685106    0.890744
     21          8           0        2.785505   -0.305299    0.320873
     22          1           0        1.928247   -0.584711    0.693560
 ---------------------------------------------------------------------
                    Distance matrix (angstroms):
                    1          2          3          4          5
     1  Si   0.000000
     2  O    1.664296   0.000000
     3  O    2.324002   2.802730   0.000000
     4  H    2.705892   2.600314   0.956122   0.000000
     5  O    1.681068   2.789324   2.744283   3.367592   0.000000
     6  O    1.590445   2.756403   2.334748   2.786760   2.881541
     7  H    1.927165   2.790271   1.214705   1.750055   2.862575
     8  O    1.736398   2.592775   4.052964   4.413620   2.457022
     9  C    2.572111   3.692388   4.652731   5.203690   2.358857
    10  H    3.519251   4.366589   5.675942   6.164654   3.287105
    11  H    3.002781   4.399041   4.863969   5.534216   2.825382
    12  C    2.579902   3.608933   4.131243   4.728840   1.402108
    13  H    3.146363   3.704411   4.684624   5.131808   2.056444
    14  H    3.450127   4.620681   4.665144   5.381242   2.051399
    15  C    2.708793   1.398684   3.727827   3.472159   3.179033
    16  H    2.788090   2.068505   3.749272   3.698347   2.625245
    17  H    3.509942   2.033666   3.932193   3.446201   3.968136
    18  C    3.616652   2.416697   5.105812   4.864084   4.180280
    19  H    4.563742   3.337295   5.867730   5.580305   4.878699
    20  H    3.977886   2.614066   5.389182   5.022756   4.888242
    21  O    3.604210   2.996812   5.553986   5.533173   4.012857
    22  H    2.841631   2.585350   4.976811   5.060771   3.406237
                    6          7          8          9         10
     6  O    0.000000
     7  H    1.214634   0.000000
     8  O    2.667536   3.496199   0.000000
     9  C    3.486468   4.212659   1.399838   0.000000
    10  H    4.484556   5.257356   2.054756   1.094624   0.000000
    11  H    3.444708   4.260932   2.058717   1.098607   1.778463
    12  C    3.794036   4.089764   2.337107   1.530318   2.185894
    13  H    4.576265   4.803747   2.793832   2.163400   2.388785
    14  H    4.435857   4.662808   3.272608   2.188641   2.713023
    15  C    4.068344   4.013126   3.241362   4.086208   4.528729
    16  H    4.310223   4.183294   3.298710   3.774251   4.209221
    17  H    4.698837   4.419561   4.285371   5.151795   5.620953
    18  C    4.930303   5.170000   3.427002   4.291684   4.391352
    19  H    5.945529   6.083974   4.396648   5.087431   5.072591
    20  H    5.031820   5.328668   3.816433   4.903416   5.029786
    21  O    4.931913   5.426058   2.765715   3.398429   3.230953
    22  H    4.083889   4.698042   1.808725   2.592758   2.587145
                   11         12         13         14         15
    11  H    0.000000
    12  C    2.172204   0.000000
    13  H    3.048060   1.098564   0.000000
    14  H    2.405643   1.094832   1.778158   0.000000
    15  C    5.004907   3.731662   3.410848   4.750352   0.000000
    16  H    4.720202   3.061671   2.592785   3.985451   1.097010
    17  H    6.037702   4.680431   4.333045   5.640202   1.097733
    18  C    5.302822   4.301615   3.802274   5.363110   1.519515
    19  H    6.148089   4.916004   4.215981   5.911129   2.140728
    20  H    5.826908   5.126876   4.765195   6.215000   2.133848
    21  O    4.435519   3.705513   3.198783   4.730363   2.450690
    22  H    3.572157   3.132674   2.903178   4.181325   2.500346
                   16         17         18         19         20
    16  H    0.000000
    17  H    1.767960   0.000000
    18  C    2.149015   2.136448   0.000000
    19  H    2.503190   2.392211   1.095438   0.000000
    20  H    3.045086   2.479517   1.099553   1.772701   0.000000
    21  O    2.675779   3.360758   1.404554   2.021462   2.070575
    22  H    2.721920   3.540407   1.939755   2.815303   2.444523
                   21         22
    21  O    0.000000
    22  H    0.975632   0.000000
 Symmetry turned off by external request.
 Stoichiometry    C4H11O6Si(1-)
 Framework group  C1[X(C4H11O6Si)]
 Deg. of freedom    60
 Full point group                 C1      NOp   1
 Rotational constants (GHZ):           1.2531604           0.8844486           0.6704813
 Standard basis: def2TZVPP (5D, 7F)
   506 basis functions,   766 primitive gaussians,   573 cartesian basis functions
    49 alpha electrons       49 beta electrons
       nuclear repulsion energy       866.0511738574 Hartrees.
 NAtoms=   22 NActive=   22 NUniq=   22 SFac= 1.00D+00 NAtFMM=   60 NAOKFM=F Big=F
 Integral buffers will be    131072 words long.
 Raffenetti 2 integral format.
 Two-electron integral symmetry is turned off.
 Nuclear repulsion after empirical dispersion term =      866.0372796204 Hartrees.
 One-electron integrals computed using PRISM.
   1 Symmetry operations used in ECPInt.
 ECPInt:  NShTT=   18145 NPrTT=   50058 LenC2=   17266 LenP2D=   36909.
 LDataN:  DoStor=T MaxTD1= 6 Len=  172
 NBasis=   506 RedAO= T EigKep=  2.42D-04  NBF=   506
 NBsUse=   506 1.00D-06 EigRej= -1.00D+00 NBFU=   506
 Initial guess from the checkpoint file:  "PbiLmL_to_QbiLmL_collapseIRC_Forward.chk"
 B after Tr=     0.063820   -0.010204   -0.040266
         Rot=    1.000000    0.000055    0.000085    0.000039 Ang=   0.01 deg.
 ExpMin= 7.01D-02 ExpMax= 4.48D+04 ExpMxC= 1.53D+03 IAcc=3 IRadAn=         5 AccDes= 0.00D+00
 Harris functional with IExCor= 4639 and IRadAn=       5 diagonalized for initial guess.
 HarFok:  IExCor= 4639 AccDes= 0.00D+00 IRadAn=         5 IDoV= 1 UseB2=F ITyADJ=14
 ICtDFT=  3500011 ScaDFX=  1.000000  1.000000  1.000000  1.000000
 FoFCou: FMM=F IPFlag=           0 FMFlag=      100000 FMFlg1=           0
         NFxFlg=           0 DoJE=T BraDBF=F KetDBF=T FulRan=T
         wScrn=  0.000000 ICntrl=       500 IOpCl=  0 I1Cent=   200000004 NGrid=           0
         NMat0=    1 NMatS0=      1 NMatT0=    0 NMatD0=    1 NMtDS0=    0 NMtDT0=    0
 Symmetry not used in FoFCou.
 Requested convergence on RMS density matrix=1.00D-08 within 128 cycles.
 Requested convergence on MAX density matrix=1.00D-06.
 Requested convergence on             energy=1.00D-06.
 No special actions if energy rises.
 Integral accuracy reduced to 1.0D-05 until final iterations.
 Initial convergence to 1.0D-05 achieved.  Increase integral accuracy.
 SCF Done:  E(RwB97XD) =  -900.173212788     A.U. after   11 cycles
            NFock= 11  Conv=0.76D-08     -V/T= 2.0036
 DoSCS=F DFT=T ScalE2(SS,OS)=  1.000000  1.000000
 Range of M.O.s used for correlation:     1   506
 NBasis=   506 NAE=    49 NBE=    49 NFC=     0 NFV=     0
 NROrb=    506 NOA=    49 NOB=    49 NVA=   457 NVB=   457

 **** Warning!!: The largest alpha MO coefficient is  0.13605272D+02

 Symmetrizing basis deriv contribution to polar:
 IMax=3 JMax=2 DiffMx= 0.00D+00
   1 Symmetry operations used in ECPInt.
 ECPInt:  NShTT=   18145 NPrTT=   50058 LenC2=   17266 LenP2D=   36909.
 LDataN:  DoStor=T MaxTD1= 7 Len=  274
 Calling FoFJK, ICntrl=      2127 FMM=F ISym2X=0 I1Cent= 0 IOpClX= 0 NMat=1 NMatS=1 NMatT=0.
 -------------------------------------------------------------------
 Center     Atomic                   Forces (Hartrees/Bohr)
 Number     Number              X              Y              Z
 -------------------------------------------------------------------
      1       14           0.000021836   -0.003101939    0.005166147
      2        8          -0.000427065    0.000260042   -0.000737099
      3        8          -0.002295129    0.001157750    0.000507582
      4        1          -0.000039073   -0.000045654    0.000260632
      5        8           0.000078962    0.000523286   -0.000176600
      6        8           0.002121643   -0.000660331   -0.000923780
      7        1          -0.000585288    0.002388878   -0.003697891
      8        8           0.001133503   -0.000587184   -0.000273526
      9        6           0.000072339    0.000006244   -0.000000687
     10        1          -0.000014015   -0.000047236   -0.000039647
     11        1          -0.000012214    0.000028747    0.000007420
     12        6          -0.000044090    0.000111588   -0.000027142
     13        1           0.000001748   -0.000003845   -0.000004989
     14        1          -0.000009738    0.000012209   -0.000006969
     15        6          -0.000001616   -0.000026687   -0.000065905
     16        1           0.000021641   -0.000005119   -0.000008037
     17        1           0.000038134    0.000009007   -0.000008541
     18        6          -0.000023403   -0.000062678    0.000041526
     19        1          -0.000006967    0.000007765   -0.000000961
     20        1          -0.000002985    0.000005429    0.000002855
     21        8          -0.000012501    0.000055055    0.000018491
     22        1          -0.000015726   -0.000025330   -0.000032877
 -------------------------------------------------------------------
 Cartesian Forces:  Max     0.005166147 RMS     0.001041685
 IRC-IRC-IRC-IRC-IRC-IRC-IRC-IRC-IRC-IRC-IRC-IRC-IRC-IRC-IRC-IRC-IRC-IRC
 Pt  1 Step number   1 out of a maximum of 100
 Modified Bulirsch-Stoer Extrapolation Cycles:
    EPS =    0.000010000000000
      PEZero:  N= 2 I= 1 D=  2.77D-04 Err=  6.80D-04
      PEZero:  N= 3 I= 2 D=  2.77D-04 Err=  4.53D-04
      PEZero:  N= 3 I= 1 D=  5.55D-04 Err=  1.72D-07
 Maximum DWI energy   std dev =  0.000002324 at pt    41
 Maximum DWI gradient std dev =  0.086928330 at pt     2
 CORRECTOR INTEGRATION CONVERGENCE:
   Recorrection delta-x convergence threshold:    0.010000
   Delta-x Convergence Met
 Point Number:   1          Path Number:   1
   CHANGE IN THE REACTION COORDINATE =    0.10644
   NET REACTION COORDINATE UP TO THIS POINT =    0.10644
  # OF POINTS ALONG THE PATH =   1
  # OF STEPS =   1

 Calculating another point on the path.
 IRC-IRC-IRC-IRC-IRC-IRC-IRC-IRC-IRC-IRC-IRC-IRC-IRC-IRC-IRC-IRC-IRC-IRC
                          Input orientation:                          
 ---------------------------------------------------------------------
 Center     Atomic      Atomic             Coordinates (Angstroms)
 Number     Number       Type             X           Y           Z
 ---------------------------------------------------------------------
      1         14           0       -0.793097    0.121232    0.284191
      2          8           0        0.303935    1.373012    0.229520
      3          8           0       -2.351192    1.576933   -0.648171
      4          1           0       -1.947898    2.433935   -0.517858
      5          8           0       -0.915916   -0.703263   -1.177075
      6          8           0       -2.009596    0.313599    1.285758
      7          1           0       -2.464116    1.099921    0.405736
      8          8           0        0.220309   -1.113138    0.963052
      9          6           0        0.042176   -2.310122    0.260270
     10          1           0        0.925862   -2.947732    0.364893
     11          1           0       -0.827431   -2.857123    0.649632
     12          6           0       -0.192815   -1.904594   -1.196585
     13          1           0        0.772680   -1.754901   -1.698933
     14          1           0       -0.752861   -2.667208   -1.747501
     15          6           0        1.375862    1.439464   -0.666380
     16          1           0        1.208372    0.795988   -1.538965
     17          1           0        1.460802    2.471057   -1.032273
     18          6           0        2.688896    1.057776   -0.003578
     19          1           0        3.511007    1.287877   -0.690051
     20          1           0        2.814056    1.685159    0.890746
     21          8           0        2.785503   -0.305256    0.320886
     22          1           0        1.927947   -0.585064    0.693208
 ---------------------------------------------------------------------
                    Distance matrix (angstroms):
                    1          2          3          4          5
     1  Si   0.000000
     2  O    1.665359   0.000000
     3  O    2.327235   2.803859   0.000000
     4  H    2.706555   2.599016   0.956075   0.000000
     5  O    1.682313   2.788811   2.745733   3.367724   0.000000
     6  O    1.587453   2.755072   2.335120   2.784360   2.880224
     7  H    1.940337   2.787066   1.162331   1.702674   2.855466
     8  O    1.735371   2.593454   4.055260   4.413155   2.457468
     9  C    2.570941   3.692552   4.654318   5.203072   2.359215
    10  H    3.518505   4.367373   5.677849   6.164421   3.287469
    11  H    3.000888   4.398924   4.864873   5.532971   2.825562
    12  C    2.580118   3.608772   4.132841   4.729040   1.402302
    13  H    3.147112   3.704388   4.686554   5.132526   2.056607
    14  H    3.450332   4.620477   4.666467   5.381616   2.051597
    15  C    2.710296   1.398599   3.729633   3.472523   3.178732
    16  H    2.790175   2.068455   3.751517   3.699672   2.625132
    17  H    3.512095   2.033756   3.934245   3.447497   3.968131
    18  C    3.617210   2.416971   5.107593   4.863966   4.180075
    19  H    4.564595   3.337390   5.869471   5.580569   4.878471
    20  H    3.978106   2.614452   5.390710   5.022055   4.888060
    21  O    3.604111   2.997183   5.555838   5.532788   4.012829
    22  H    2.840815   2.585824   4.978409   5.059962   3.405802
                    6          7          8          9         10
     6  O    0.000000
     7  H    1.264646   0.000000
     8  O    2.666869   3.523403   0.000000
     9  C    3.485011   4.234508   1.399430   0.000000
    10  H    4.483434   5.279878   2.054589   1.094712   0.000000
    11  H    3.443202   4.289105   2.058513   1.098649   1.778574
    12  C    3.792505   4.093086   2.336901   1.530392   2.185815
    13  H    4.574727   4.801717   2.793409   2.163419   2.388658
    14  H    4.434551   4.664341   3.272505   2.188775   2.712750
    15  C    4.066908   4.001269   3.241315   4.086171   4.529184
    16  H    4.308953   4.166702   3.298654   3.774279   4.209504
    17  H    4.698037   4.399188   4.285626   5.151974   5.621521
    18  C    4.928693   5.169415   3.426538   4.291560   4.391828
    19  H    5.943913   6.077678   4.396170   5.087386   5.073092
    20  H    5.030390   5.332619   3.816177   4.903375   5.030455
    21  O    4.930205   5.435091   2.765008   3.398383   3.231545
    22  H    4.082028   4.712964   1.807679   2.592179   2.587308
                   11         12         13         14         15
    11  H    0.000000
    12  C    2.172227   0.000000
    13  H    3.048116   1.098609   0.000000
    14  H    2.405800   1.094870   1.778184   0.000000
    15  C    5.004703   3.731566   3.410859   4.750267   0.000000
    16  H    4.720135   3.061648   2.592769   3.985429   1.097051
    17  H    6.037741   4.680573   4.333205   5.640356   1.097851
    18  C    5.302611   4.301530   3.802271   5.363065   1.519556
    19  H    6.147994   4.915968   4.216014   5.911131   2.140650
    20  H    5.826739   5.126845   4.765256   6.215009   2.133871
    21  O    4.435470   3.705533   3.198842   4.730440   2.450678
    22  H    3.571590   3.132109   2.902670   4.180803   2.500398
                   16         17         18         19         20
    16  H    0.000000
    17  H    1.768139   0.000000
    18  C    2.148930   2.136303   0.000000
    19  H    2.502946   2.391730   1.095472   0.000000
    20  H    3.045052   2.479301   1.099586   1.772709   0.000000
    21  O    2.675654   3.360622   1.404445   2.021490   2.070581
    22  H    2.721707   3.540534   1.939969   2.815563   2.445020
                   21         22
    21  O    0.000000
    22  H    0.975868   0.000000
 Symmetry turned off by external request.
 Stoichiometry    C4H11O6Si(1-)
 Framework group  C1[X(C4H11O6Si)]
 Deg. of freedom    60
 Full point group                 C1      NOp   1
 Rotational constants (GHZ):           1.2530315           0.8844206           0.6703450
 Standard basis: def2TZVPP (5D, 7F)
   506 basis functions,   766 primitive gaussians,   573 cartesian basis functions
    49 alpha electrons       49 beta electrons
       nuclear repulsion energy       866.0457625468 Hartrees.
 NAtoms=   22 NActive=   22 NUniq=   22 SFac= 1.00D+00 NAtFMM=   60 NAOKFM=F Big=F
 Integral buffers will be    131072 words long.
 Raffenetti 2 integral format.
 Two-electron integral symmetry is turned off.
 Nuclear repulsion after empirical dispersion term =      866.0318778569 Hartrees.
 One-electron integrals computed using PRISM.
   1 Symmetry operations used in ECPInt.
 ECPInt:  NShTT=   18145 NPrTT=   50058 LenC2=   17263 LenP2D=   36902.
 LDataN:  DoStor=T MaxTD1= 6 Len=  172
 NBasis=   506 RedAO= T EigKep=  2.42D-04  NBF=   506
 NBsUse=   506 1.00D-06 EigRej= -1.00D+00 NBFU=   506
 Initial guess from the checkpoint file:  "PbiLmL_to_QbiLmL_collapseIRC_Forward.chk"
 B after Tr=    -0.000040    0.000267   -0.000436
         Rot=    1.000000    0.000058    0.000088    0.000039 Ang=   0.01 deg.
 ExpMin= 7.01D-02 ExpMax= 4.48D+04 ExpMxC= 1.53D+03 IAcc=3 IRadAn=         5 AccDes= 0.00D+00
 Harris functional with IExCor= 4639 and IRadAn=       5 diagonalized for initial guess.
 HarFok:  IExCor= 4639 AccDes= 0.00D+00 IRadAn=         5 IDoV= 1 UseB2=F ITyADJ=14
 ICtDFT=  3500011 ScaDFX=  1.000000  1.000000  1.000000  1.000000
 FoFCou: FMM=F IPFlag=           0 FMFlag=      100000 FMFlg1=           0
         NFxFlg=           0 DoJE=T BraDBF=F KetDBF=T FulRan=T
         wScrn=  0.000000 ICntrl=       500 IOpCl=  0 I1Cent=   200000004 NGrid=           0
         NMat0=    1 NMatS0=      1 NMatT0=    0 NMatD0=    1 NMtDS0=    0 NMtDT0=    0
 Symmetry not used in FoFCou.
 Requested convergence on RMS density matrix=1.00D-08 within 128 cycles.
 Requested convergence on MAX density matrix=1.00D-06.
 Requested convergence on             energy=1.00D-06.
 No special actions if energy rises.
 Integral accuracy reduced to 1.0D-05 until final iterations.
 Initial convergence to 1.0D-05 achieved.  Increase integral accuracy.
 SCF Done:  E(RwB97XD) =  -900.173935536     A.U. after   11 cycles
            NFock= 11  Conv=0.68D-08     -V/T= 2.0035
 DoSCS=F DFT=T ScalE2(SS,OS)=  1.000000  1.000000
 Range of M.O.s used for correlation:     1   506
 NBasis=   506 NAE=    49 NBE=    49 NFC=     0 NFV=     0
 NROrb=    506 NOA=    49 NOB=    49 NVA=   457 NVB=   457

 **** Warning!!: The largest alpha MO coefficient is  0.13585340D+02

 Symmetrizing basis deriv contribution to polar:
 IMax=3 JMax=2 DiffMx= 0.00D+00
   1 Symmetry operations used in ECPInt.
 ECPInt:  NShTT=   18145 NPrTT=   50058 LenC2=   17263 LenP2D=   36902.
 LDataN:  DoStor=T MaxTD1= 7 Len=  274
 Calling FoFJK, ICntrl=      2127 FMM=F ISym2X=0 I1Cent= 0 IOpClX= 0 NMat=1 NMatS=1 NMatT=0.
 -------------------------------------------------------------------
 Center     Atomic                   Forces (Hartrees/Bohr)
 Number     Number              X              Y              Z
 -------------------------------------------------------------------
      1       14          -0.000374731   -0.006009474    0.010433033
      2        8          -0.000795749    0.000559617   -0.001490443
      3        8          -0.004439737    0.003095915   -0.000542032
      4        1          -0.000032574   -0.000073296    0.000465044
      5        8           0.000165605    0.001030459   -0.000404602
      6        8           0.004613647   -0.002043522   -0.000991727
      7        1          -0.001414818    0.004473864   -0.006623097
      8        8           0.002313180   -0.001181871   -0.000579045
      9        6           0.000147768    0.000033791    0.000008238
     10        1          -0.000032182   -0.000095611   -0.000083600
     11        1          -0.000027762    0.000059089    0.000015093
     12        6          -0.000092889    0.000220916   -0.000058583
     13        1           0.000002056   -0.000003884   -0.000007527
     14        1          -0.000025255    0.000025779   -0.000015321
     15        6           0.000002830   -0.000017353   -0.000139673
     16        1           0.000043474   -0.000023840   -0.000016075
     17        1           0.000079984    0.000008212   -0.000026381
     18        6          -0.000042599   -0.000113323    0.000088024
     19        1          -0.000004444    0.000011635   -0.000000722
     20        1          -0.000012429    0.000004950    0.000001446
     21        8          -0.000026924    0.000094838    0.000009401
     22        1          -0.000046452   -0.000056891   -0.000041451
 -------------------------------------------------------------------
 Cartesian Forces:  Max     0.010433033 RMS     0.002055749
 IRC-IRC-IRC-IRC-IRC-IRC-IRC-IRC-IRC-IRC-IRC-IRC-IRC-IRC-IRC-IRC-IRC-IRC
 Pt  2 Step number   1 out of a maximum of 100
 Modified Bulirsch-Stoer Extrapolation Cycles:
    EPS =    0.000010000000000
      PEZero:  N= 2 I= 1 D=  5.55D-04 Err=  3.37D-05
      PEZero:  N= 3 I= 2 D=  5.55D-04 Err=  2.25D-05
      PEZero:  N= 3 I= 1 D=  1.11D-03 Err=  1.72D-07
 Maximum DWI energy   std dev =  0.000006025 at pt    35
 Maximum DWI gradient std dev =  0.061954155 at pt    55
 CORRECTOR INTEGRATION CONVERGENCE:
   Recorrection delta-x convergence threshold:    0.010000
   Delta-x Convergence Met
 Point Number:   2          Path Number:   1
   CHANGE IN THE REACTION COORDINATE =    0.10641
   NET REACTION COORDINATE UP TO THIS POINT =    0.21285
  # OF POINTS ALONG THE PATH =   2
  # OF STEPS =   1

 Calculating another point on the path.
 IRC-IRC-IRC-IRC-IRC-IRC-IRC-IRC-IRC-IRC-IRC-IRC-IRC-IRC-IRC-IRC-IRC-IRC
                          Input orientation:                          
 ---------------------------------------------------------------------
 Center     Atomic      Atomic             Coordinates (Angstroms)
 Number     Number       Type             X           Y           Z
 ---------------------------------------------------------------------
      1         14           0       -0.793239    0.119831    0.286687
      2          8           0        0.303598    1.373247    0.228893
      3          8           0       -2.353087    1.578373   -0.648654
      4          1           0       -1.947865    2.433838   -0.514848
      5          8           0       -0.915843   -0.702831   -1.177237
      6          8           0       -2.007689    0.312643    1.285537
      7          1           0       -2.471550    1.128051    0.362156
      8          8           0        0.221292   -1.113635    0.962812
      9          6           0        0.042259   -2.310110    0.260269
     10          1           0        0.925639   -2.948387    0.364326
     11          1           0       -0.827613   -2.856715    0.649734
     12          6           0       -0.192870   -1.904467   -1.196620
     13          1           0        0.772692   -1.754932   -1.698987
     14          1           0       -0.753027   -2.667029   -1.747595
     15          6           0        1.375864    1.439453   -0.666460
     16          1           0        1.208668    0.795832   -1.539063
     17          1           0        1.461342    2.471095   -1.032454
     18          6           0        2.688873    1.057714   -0.003530
     19          1           0        3.510969    1.287950   -0.690046
     20          1           0        2.813974    1.685195    0.890763
     21          8           0        2.785491   -0.305217    0.320890
     22          1           0        1.927654   -0.585437    0.692912
 ---------------------------------------------------------------------
                    Distance matrix (angstroms):
                    1          2          3          4          5
     1  Si   0.000000
     2  O    1.666567   0.000000
     3  O    2.331380   2.805377   0.000000
     4  H    2.707443   2.597516   0.955997   0.000000
     5  O    1.683709   2.788250   2.747537   3.367866   0.000000
     6  O    1.584225   2.753802   2.337192   2.782882   2.878988
     7  H    1.959319   2.789144   1.112906   1.657848   2.853434
     8  O    1.734317   2.594224   4.058467   4.412855   2.457976
     9  C    2.569702   3.692750   4.656621   5.202542   2.359604
    10  H    3.517745   4.368272   5.680468   6.164277   3.287855
    11  H    2.998801   4.398787   4.866507   5.531832   2.825743
    12  C    2.580393   3.608599   4.134849   4.729241   1.402497
    13  H    3.147979   3.704359   4.688775   5.133168   2.056767
    14  H    3.450580   4.620259   4.668115   5.382021   2.051802
    15  C    2.711992   1.398497   3.731580   3.472602   3.178395
    16  H    2.792485   2.068388   3.753837   3.700782   2.624967
    17  H    3.514500   2.033873   3.936257   3.448478   3.968094
    18  C    3.617866   2.417255   5.109660   4.863590   4.179842
    19  H    4.565602   3.337508   5.871389   5.580558   4.878240
    20  H    3.978349   2.614837   5.392563   5.021088   4.887824
    21  O    3.604045   2.997582   5.558139   5.532227   4.012773
    22  H    2.840014   2.586372   4.980624   5.059086   3.405394
                    6          7          8          9         10
     6  O    0.000000
     7  H    1.316317   0.000000
     8  O    2.665855   3.554905   0.000000
     9  C    3.483145   4.260349   1.398989   0.000000
    10  H    4.481893   5.306434   2.054411   1.094799   0.000000
    11  H    3.441171   4.320138   2.058287   1.098698   1.778694
    12  C    3.790812   4.101016   2.336684   1.530476   2.185722
    13  H    4.573048   4.804686   2.792932   2.163431   2.388511
    14  H    4.433115   4.669797   3.272404   2.188924   2.712432
    15  C    4.065517   3.994699   3.241268   4.086141   4.529720
    16  H    4.307759   4.155600   3.298538   3.774252   4.209770
    17  H    4.697465   4.383645   4.285918   5.152169   5.622166
    18  C    4.926918   5.173842   3.426007   4.291432   4.392397
    19  H    5.942200   6.076449   4.395626   5.087345   5.073676
    20  H    5.028736   5.341030   3.815840   4.903303   5.031205
    21  O    4.928171   5.449077   2.764184   3.398321   3.232225
    22  H    4.079789   4.732699   1.806518   2.591599   2.587573
                   11         12         13         14         15
    11  H    0.000000
    12  C    2.172257   0.000000
    13  H    3.048178   1.098655   0.000000
    14  H    2.405978   1.094919   1.778230   0.000000
    15  C    5.004471   3.731461   3.410868   4.750181   0.000000
    16  H    4.719996   3.061567   2.592691   3.985365   1.097105
    17  H    6.037766   4.680696   4.333336   5.640493   1.097972
    18  C    5.302375   4.301445   3.802275   5.363035   1.519603
    19  H    6.147890   4.915951   4.216071   5.911170   2.140604
    20  H    5.826507   5.126788   4.765302   6.215004   2.133892
    21  O    4.435402   3.705546   3.198895   4.730527   2.450669
    22  H    3.571002   3.131580   2.902211   4.180328   2.500509
                   16         17         18         19         20
    16  H    0.000000
    17  H    1.768333   0.000000
    18  C    2.148825   2.136156   0.000000
    19  H    2.502719   2.391244   1.095516   0.000000
    20  H    3.045001   2.479116   1.099611   1.772728   0.000000
    21  O    2.675463   3.360479   1.404338   2.021508   2.070581
    22  H    2.721499   3.540723   1.940214   2.815855   2.445502
                   21         22
    21  O    0.000000
    22  H    0.976119   0.000000
 Symmetry turned off by external request.
 Stoichiometry    C4H11O6Si(1-)
 Framework group  C1[X(C4H11O6Si)]
 Deg. of freedom    60
 Full point group                 C1      NOp   1
 Rotational constants (GHZ):           1.2526715           0.8843064           0.6701735
 Standard basis: def2TZVPP (5D, 7F)
   506 basis functions,   766 primitive gaussians,   573 cartesian basis functions
    49 alpha electrons       49 beta electrons
       nuclear repulsion energy       866.0021282702 Hartrees.
 NAtoms=   22 NActive=   22 NUniq=   22 SFac= 1.00D+00 NAtFMM=   60 NAOKFM=F Big=F
 Integral buffers will be    131072 words long.
 Raffenetti 2 integral format.
 Two-electron integral symmetry is turned off.
 Nuclear repulsion after empirical dispersion term =      865.9882526515 Hartrees.
 One-electron integrals computed using PRISM.
   1 Symmetry operations used in ECPInt.
 ECPInt:  NShTT=   18145 NPrTT=   50058 LenC2=   17258 LenP2D=   36894.
 LDataN:  DoStor=T MaxTD1= 6 Len=  172
 NBasis=   506 RedAO= T EigKep=  2.42D-04  NBF=   506
 NBsUse=   506 1.00D-06 EigRej= -1.00D+00 NBFU=   506
 Initial guess from the checkpoint file:  "PbiLmL_to_QbiLmL_collapseIRC_Forward.chk"
 B after Tr=    -0.000079    0.000280   -0.000422
         Rot=    1.000000    0.000056    0.000086    0.000040 Ang=   0.01 deg.
 ExpMin= 7.01D-02 ExpMax= 4.48D+04 ExpMxC= 1.53D+03 IAcc=3 IRadAn=         5 AccDes= 0.00D+00
 Harris functional with IExCor= 4639 and IRadAn=       5 diagonalized for initial guess.
 HarFok:  IExCor= 4639 AccDes= 0.00D+00 IRadAn=         5 IDoV= 1 UseB2=F ITyADJ=14
 ICtDFT=  3500011 ScaDFX=  1.000000  1.000000  1.000000  1.000000
 FoFCou: FMM=F IPFlag=           0 FMFlag=      100000 FMFlg1=           0
         NFxFlg=           0 DoJE=T BraDBF=F KetDBF=T FulRan=T
         wScrn=  0.000000 ICntrl=       500 IOpCl=  0 I1Cent=   200000004 NGrid=           0
         NMat0=    1 NMatS0=      1 NMatT0=    0 NMatD0=    1 NMtDS0=    0 NMtDT0=    0
 Symmetry not used in FoFCou.
 Requested convergence on RMS density matrix=1.00D-08 within 128 cycles.
 Requested convergence on MAX density matrix=1.00D-06.
 Requested convergence on             energy=1.00D-06.
 No special actions if energy rises.
 Integral accuracy reduced to 1.0D-05 until final iterations.
 Initial convergence to 1.0D-05 achieved.  Increase integral accuracy.
 SCF Done:  E(RwB97XD) =  -900.174972068     A.U. after   11 cycles
            NFock= 11  Conv=0.78D-08     -V/T= 2.0035
 DoSCS=F DFT=T ScalE2(SS,OS)=  1.000000  1.000000
 Range of M.O.s used for correlation:     1   506
 NBasis=   506 NAE=    49 NBE=    49 NFC=     0 NFV=     0
 NROrb=    506 NOA=    49 NOB=    49 NVA=   457 NVB=   457

 **** Warning!!: The largest alpha MO coefficient is  0.13765176D+02

 Symmetrizing basis deriv contribution to polar:
 IMax=3 JMax=2 DiffMx= 0.00D+00
   1 Symmetry operations used in ECPInt.
 ECPInt:  NShTT=   18145 NPrTT=   50058 LenC2=   17258 LenP2D=   36894.
 LDataN:  DoStor=T MaxTD1= 7 Len=  274
 Calling FoFJK, ICntrl=      2127 FMM=F ISym2X=0 I1Cent= 0 IOpClX= 0 NMat=1 NMatS=1 NMatT=0.
 -------------------------------------------------------------------
 Center     Atomic                   Forces (Hartrees/Bohr)
 Number     Number              X              Y              Z
 -------------------------------------------------------------------
      1       14          -0.000825761   -0.008469997    0.015038335
      2        8          -0.001158774    0.000826637   -0.002181738
      3        8          -0.006140546    0.006152087   -0.004039122
      4        1           0.000029682   -0.000042049    0.000527745
      5        8           0.000263151    0.001492248   -0.000555413
      6        8           0.006781725   -0.003606065   -0.000396891
      7        1          -0.002321064    0.005194279   -0.007124462
      8        8           0.003437774   -0.001732417   -0.000829815
      9        6           0.000214825    0.000025043   -0.000014608
     10        1          -0.000049672   -0.000140206   -0.000120325
     11        1          -0.000039606    0.000087785    0.000022216
     12        6          -0.000152729    0.000337212   -0.000099877
     13        1           0.000004113   -0.000007406   -0.000010745
     14        1          -0.000034134    0.000035699   -0.000020501
     15        6           0.000007541   -0.000032393   -0.000213889
     16        1           0.000063501   -0.000034914   -0.000021186
     17        1           0.000115052    0.000007539   -0.000040966
     18        6          -0.000061187   -0.000162486    0.000123923
     19        1          -0.000006103    0.000015774    0.000003108
     20        1          -0.000019214    0.000007826    0.000004792
     21        8          -0.000049203    0.000122791    0.000012769
     22        1          -0.000059370   -0.000076988   -0.000063349
 -------------------------------------------------------------------
 Cartesian Forces:  Max     0.015038335 RMS     0.002908426
 IRC-IRC-IRC-IRC-IRC-IRC-IRC-IRC-IRC-IRC-IRC-IRC-IRC-IRC-IRC-IRC-IRC-IRC
 Pt  3 Step number   1 out of a maximum of 100
 Modified Bulirsch-Stoer Extrapolation Cycles:
    EPS =    0.000010000000000
      PEZero:  N= 2 I= 1 D=  5.55D-04 Err=  6.43D-05
      PEZero:  N= 3 I= 2 D=  5.55D-04 Err=  4.28D-05
      PEZero:  N= 3 I= 1 D=  1.11D-03 Err=  2.54D-07
 Maximum DWI energy   std dev =  0.000011465 at pt    37
 Maximum DWI gradient std dev =  0.061341649 at pt    28
 CORRECTOR INTEGRATION CONVERGENCE:
   Recorrection delta-x convergence threshold:    0.010000
   Delta-x Convergence Met
 Point Number:   3          Path Number:   1
   CHANGE IN THE REACTION COORDINATE =    0.10632
   NET REACTION COORDINATE UP TO THIS POINT =    0.31917
  # OF POINTS ALONG THE PATH =   3
  # OF STEPS =   1

 Calculating another point on the path.
 IRC-IRC-IRC-IRC-IRC-IRC-IRC-IRC-IRC-IRC-IRC-IRC-IRC-IRC-IRC-IRC-IRC-IRC
                          Input orientation:                          
 ---------------------------------------------------------------------
 Center     Atomic      Atomic             Coordinates (Angstroms)
 Number     Number       Type             X           Y           Z
 ---------------------------------------------------------------------
      1         14           0       -0.793400    0.118017    0.289905
      2          8           0        0.303125    1.373542    0.228066
      3          8           0       -2.355469    1.580970   -0.650640
      4          1           0       -1.947355    2.434184   -0.511903
      5          8           0       -0.915734   -0.702256   -1.177400
      6          8           0       -2.005272    0.311267    1.285566
      7          1           0       -2.483120    1.155307    0.323386
      8          8           0        0.222630   -1.114299    0.962518
      9          6           0        0.042370   -2.310132    0.260233
     10          1           0        0.925316   -2.949259    0.363594
     11          1           0       -0.827842   -2.856169    0.649874
     12          6           0       -0.192957   -1.904282   -1.196679
     13          1           0        0.772702   -1.754978   -1.699049
     14          1           0       -0.753231   -2.666803   -1.747703
     15          6           0        1.375863    1.439430   -0.666574
     16          1           0        1.209046    0.795633   -1.539190
     17          1           0        1.462012    2.471105   -1.032698
     18          6           0        2.688837    1.057638   -0.003468
     19          1           0        3.510925    1.288040   -0.690012
     20          1           0        2.813856    1.685230    0.890798
     21          8           0        2.785473   -0.305176    0.320894
     22          1           0        1.927356   -0.585873    0.692487
 ---------------------------------------------------------------------
                    Distance matrix (angstroms):
                    1          2          3          4          5
     1  Si   0.000000
     2  O    1.668093   0.000000
     3  O    2.337716   2.807717   0.000000
     4  H    2.709085   2.595607   0.955919   0.000000
     5  O    1.685467   2.787453   2.750170   3.368143   0.000000
     6  O    1.580292   2.752350   2.341725   2.782270   2.877591
     7  H    1.982990   2.796404   1.070612   1.618728   2.856502
     8  O    1.733011   2.595236   4.063662   4.412991   2.458639
     9  C    2.568131   3.693031   4.660471   5.202282   2.360088
    10  H    3.516759   4.369451   5.684645   6.164430   3.288336
    11  H    2.996088   4.398575   4.869618   5.530901   2.825950
    12  C    2.580727   3.608341   4.137824   4.729600   1.402727
    13  H    3.149082   3.704309   4.691818   5.133917   2.056977
    14  H    3.450895   4.619950   4.670576   5.382676   2.052095
    15  C    2.714164   1.398388   3.734050   3.472354   3.177921
    16  H    2.795450   2.068300   3.756600   3.701761   2.624739
    17  H    3.517554   2.034008   3.938461   3.449112   3.967977
    18  C    3.618692   2.417648   5.112507   4.862886   4.179507
    19  H    4.566881   3.337687   5.873835   5.580160   4.877923
    20  H    3.978634   2.615365   5.395260   5.019725   4.887472
    21  O    3.603940   2.998127   5.561539   5.531484   4.012667
    22  H    2.839022   2.587107   4.984154   5.058131   3.404877
                    6          7          8          9         10
     6  O    0.000000
     7  H    1.366211   0.000000
     8  O    2.664610   3.588968   0.000000
     9  C    3.480787   4.288515   1.398469   0.000000
    10  H    4.479890   5.335403   2.054156   1.094879   0.000000
    11  H    3.438473   4.351836   2.057996   1.098748   1.778816
    12  C    3.788758   4.112971   2.336433   1.530583   2.185627
    13  H    4.571043   4.812523   2.792309   2.163415   2.388325
    14  H    4.431392   4.678723   3.272289   2.189064   2.711988
    15  C    4.063949   3.994058   3.241206   4.086121   4.530434
    16  H    4.306472   4.150982   3.298394   3.774232   4.210143
    17  H    4.696947   4.374284   4.286266   5.152405   5.622991
    18  C    4.924768   5.183196   3.425291   4.291293   4.393173
    19  H    5.940153   6.080557   4.394880   5.087305   5.074462
    20  H    5.026690   5.353572   3.815359   4.903230   5.032198
    21  O    4.925631   5.467275   2.763065   3.398255   3.233138
    22  H    4.077030   4.756075   1.805060   2.590962   2.588021
                   11         12         13         14         15
    11  H    0.000000
    12  C    2.172309   0.000000
    13  H    3.048246   1.098710   0.000000
    14  H    2.406201   1.094976   1.778275   0.000000
    15  C    5.004150   3.731302   3.410872   4.750056   0.000000
    16  H    4.719806   3.061448   2.592598   3.985281   1.097161
    17  H    6.037742   4.680793   4.333468   5.640623   1.098099
    18  C    5.302053   4.301332   3.802286   5.362989   1.519663
    19  H    6.147736   4.915930   4.216157   5.911219   2.140550
    20  H    5.826175   5.126703   4.765360   6.214981   2.133928
    21  O    4.435295   3.705565   3.198960   4.730624   2.450662
    22  H    3.570319   3.130955   2.901634   4.179754   2.500608
                   16         17         18         19         20
    16  H    0.000000
    17  H    1.768540   0.000000
    18  C    2.148691   2.135955   0.000000
[...]
    21  O    4.415452   3.630999   3.095460   4.646512   2.455318
    22  H    3.576768   3.102273   2.853334   4.147037   2.533244
                   16         17         18         19         20
    16  H    0.000000
    17  H    1.768558   0.000000
    18  C    2.148177   2.132266   0.000000
    19  H    2.509257   2.378185   1.094690   0.000000
    20  H    3.044655   2.486337   1.098912   1.772306   0.000000
    21  O    2.669033   3.359489   1.406574   2.018067   2.071824
    22  H    2.757738   3.566782   1.940261   2.817020   2.419233
                   21         22
    21  O    0.000000
    22  H    0.972274   0.000000
 Symmetry turned off by external request.
 Stoichiometry    C4H11O6Si(1-)
 Framework group  C1[X(C4H11O6Si)]
 Deg. of freedom    60
 Full point group                 C1      NOp   1
 Rotational constants (GHZ):           1.1855372           0.7785855           0.5801328

 **********************************************************************

            Population analysis using the SCF Density.

 **********************************************************************

 Alpha  occ. eigenvalues --  -66.11808 -19.11445 -19.10764 -19.09905 -19.09570
 Alpha  occ. eigenvalues --  -19.05803 -18.99529 -10.21021 -10.20731 -10.20716
 Alpha  occ. eigenvalues --  -10.20645  -5.23699  -3.58363  -3.58254  -3.57889
 Alpha  occ. eigenvalues --   -1.01261  -0.99470  -0.96732  -0.94734  -0.92236
 Alpha  occ. eigenvalues --   -0.81713  -0.71053  -0.69744  -0.59091  -0.58007
 Alpha  occ. eigenvalues --   -0.48929  -0.47568  -0.46483  -0.44878  -0.43667
 Alpha  occ. eigenvalues --   -0.42397  -0.42199  -0.38607  -0.38081  -0.36964
 Alpha  occ. eigenvalues --   -0.36848  -0.31853  -0.30698  -0.28096  -0.27896
 Alpha  occ. eigenvalues --   -0.27536  -0.25575  -0.24528  -0.23715  -0.23075
 Alpha  occ. eigenvalues --   -0.22123  -0.21444  -0.17928  -0.17810
 Alpha virt. eigenvalues --    0.22971   0.23897   0.25154   0.26153   0.26735
 Alpha virt. eigenvalues --    0.27611   0.28977   0.29789   0.31292   0.32046
 Alpha virt. eigenvalues --    0.32761   0.33596   0.34251   0.35433   0.37611
 Alpha virt. eigenvalues --    0.38545   0.39228   0.39510   0.41082   0.41805
 Alpha virt. eigenvalues --    0.42406   0.43300   0.44689   0.46123   0.47582
 Alpha virt. eigenvalues --    0.48446   0.49006   0.51112   0.51614   0.53551
 Alpha virt. eigenvalues --    0.53926   0.55132   0.55958   0.56921   0.57836
 Alpha virt. eigenvalues --    0.58305   0.58648   0.59340   0.60003   0.60297
 Alpha virt. eigenvalues --    0.60937   0.62197   0.62829   0.63062   0.63638
 Alpha virt. eigenvalues --    0.65000   0.65829   0.66718   0.67222   0.68059
 Alpha virt. eigenvalues --    0.68881   0.69448   0.71036   0.71747   0.72399
 Alpha virt. eigenvalues --    0.73235   0.75608   0.75818   0.78756   0.79198
 Alpha virt. eigenvalues --    0.79854   0.81500   0.82237   0.84103   0.85258
 Alpha virt. eigenvalues --    0.86714   0.87118   0.88239   0.89346   0.89860
 Alpha virt. eigenvalues --    0.90519   0.92711   0.94637   0.95133   0.97016
 Alpha virt. eigenvalues --    0.97809   0.98112   1.00021   1.01277   1.01611
 Alpha virt. eigenvalues --    1.02518   1.03102   1.05197   1.05483   1.07207
 Alpha virt. eigenvalues --    1.08094   1.09899   1.10265   1.11242   1.11766
 Alpha virt. eigenvalues --    1.13686   1.14183   1.16659   1.18163   1.19285
 Alpha virt. eigenvalues --    1.20535   1.21366   1.21873   1.22485   1.23869
 Alpha virt. eigenvalues --    1.25404   1.26148   1.28319   1.30064   1.30618
 Alpha virt. eigenvalues --    1.31332   1.32300   1.33757   1.34184   1.35539
 Alpha virt. eigenvalues --    1.36480   1.38199   1.38680   1.40108   1.41142
 Alpha virt. eigenvalues --    1.43020   1.43709   1.45462   1.46354   1.47179
 Alpha virt. eigenvalues --    1.47430   1.49443   1.50991   1.52963   1.55077
 Alpha virt. eigenvalues --    1.55134   1.56102   1.56534   1.56957   1.59414
 Alpha virt. eigenvalues --    1.60594   1.61799   1.62850   1.64458   1.66990
 Alpha virt. eigenvalues --    1.68061   1.69623   1.70950   1.71668   1.73089
 Alpha virt. eigenvalues --    1.74037   1.75660   1.76391   1.77854   1.79792
 Alpha virt. eigenvalues --    1.81386   1.84941   1.87917   1.88967   1.89603
 Alpha virt. eigenvalues --    1.94507   1.98131   1.98792   1.99650   2.02664
 Alpha virt. eigenvalues --    2.05273   2.05668   2.08375   2.10793   2.11202
 Alpha virt. eigenvalues --    2.12068   2.13376   2.14526   2.15280   2.16908
 Alpha virt. eigenvalues --    2.17557   2.19664   2.21438   2.21935   2.23142
 Alpha virt. eigenvalues --    2.24696   2.26430   2.28240   2.30590   2.35923
 Alpha virt. eigenvalues --    2.36550   2.37955   2.39882   2.40433   2.43000
 Alpha virt. eigenvalues --    2.45889   2.46745   2.47850   2.48304   2.50520
 Alpha virt. eigenvalues --    2.54603   2.54948   2.56388   2.58014   2.60151
 Alpha virt. eigenvalues --    2.61086   2.64977   2.65851   2.66319   2.71554
 Alpha virt. eigenvalues --    2.75985   2.77095   2.78895   2.81890   2.82883
 Alpha virt. eigenvalues --    2.84221   2.85564   2.86680   2.90942   2.92306
 Alpha virt. eigenvalues --    2.93104   2.94261   2.95843   2.97791   2.99749
 Alpha virt. eigenvalues --    3.00267   3.02329   3.03085   3.06526   3.07475
 Alpha virt. eigenvalues --    3.08276   3.10215   3.11767   3.13323   3.14906
 Alpha virt. eigenvalues --    3.16148   3.17173   3.17755   3.19685   3.20048
 Alpha virt. eigenvalues --    3.21899   3.23527   3.25744   3.27545   3.29361
 Alpha virt. eigenvalues --    3.30225   3.31039   3.32165   3.32516   3.33794
 Alpha virt. eigenvalues --    3.34707   3.36453   3.37717   3.38160   3.39247
 Alpha virt. eigenvalues --    3.40616   3.42347   3.43865   3.44262   3.45019
 Alpha virt. eigenvalues --    3.46289   3.49787   3.52606   3.53019   3.55126
 Alpha virt. eigenvalues --    3.57380   3.58106   3.58954   3.59734   3.60463
 Alpha virt. eigenvalues --    3.62407   3.64971   3.66370   3.68001   3.71407
 Alpha virt. eigenvalues --    3.72678   3.74624   3.76885   3.77000   3.79123
 Alpha virt. eigenvalues --    3.80878   3.82072   3.83383   3.84253   3.85985
 Alpha virt. eigenvalues --    3.86265   3.87375   3.88578   3.89168   3.91280
 Alpha virt. eigenvalues --    3.92243   3.93861   3.94805   3.95267   3.96958
 Alpha virt. eigenvalues --    3.97845   3.99224   4.02096   4.02967   4.04051
 Alpha virt. eigenvalues --    4.06040   4.07334   4.07753   4.09379   4.12997
 Alpha virt. eigenvalues --    4.14072   4.15794   4.16690   4.17265   4.18509
 Alpha virt. eigenvalues --    4.21063   4.22794   4.22977   4.25789   4.26663
 Alpha virt. eigenvalues --    4.28984   4.31509   4.31845   4.33874   4.35168
 Alpha virt. eigenvalues --    4.35819   4.36526   4.37463   4.37719   4.42327
 Alpha virt. eigenvalues --    4.43362   4.45143   4.46600   4.47727   4.50364
 Alpha virt. eigenvalues --    4.51163   4.53107   4.54339   4.57288   4.58386
 Alpha virt. eigenvalues --    4.60948   4.68206   4.70594   4.72022   4.73262
 Alpha virt. eigenvalues --    4.75641   4.77661   4.78814   4.81155   4.84664
 Alpha virt. eigenvalues --    4.85861   4.87193   4.88979   4.89635   4.93443
 Alpha virt. eigenvalues --    4.93902   4.96025   4.98126   4.98488   5.01356
 Alpha virt. eigenvalues --    5.04257   5.05043   5.06013   5.06633   5.09536
 Alpha virt. eigenvalues --    5.11047   5.13710   5.14665   5.17322   5.19202
 Alpha virt. eigenvalues --    5.21316   5.22964   5.24675   5.27911   5.28401
 Alpha virt. eigenvalues --    5.32357   5.33837   5.37925   5.41785   5.43115
 Alpha virt. eigenvalues --    5.45140   5.48446   5.49905   5.51989   5.52922
 Alpha virt. eigenvalues --    5.54676   5.55835   5.56813   5.57534   5.61331
 Alpha virt. eigenvalues --    5.62908   5.64109   5.65701   5.66882   5.67926
 Alpha virt. eigenvalues --    5.70822   5.71518   5.73272   5.75470   5.77676
 Alpha virt. eigenvalues --    5.81148   5.81458   5.82665   5.83373   5.84058
 Alpha virt. eigenvalues --    5.85514   5.87090   5.89819   5.92310   5.95185
 Alpha virt. eigenvalues --    6.00107   6.06736   6.11315   6.14004   6.15706
 Alpha virt. eigenvalues --    6.19685   6.22732   6.25586   6.31328   6.33393
 Alpha virt. eigenvalues --    6.35631   6.39335   6.44305   6.46340   6.50750
 Alpha virt. eigenvalues --    6.59280   6.68819   6.69879   6.71233   6.77668
 Alpha virt. eigenvalues --    6.81885   6.83020   6.86468   6.88984   6.90814
 Alpha virt. eigenvalues --    6.91614   6.93290   6.94414   6.96427   6.97833
 Alpha virt. eigenvalues --    6.99394   7.02672   7.03921   7.06803   7.10417
 Alpha virt. eigenvalues --    7.13103   7.14223   7.18357   7.19407   7.22278
 Alpha virt. eigenvalues --    7.23519   7.26503   7.28825   7.33149   7.33733
 Alpha virt. eigenvalues --    7.38019   7.45148   7.47893   7.64876   7.68892
 Alpha virt. eigenvalues --    7.70784   7.73370   7.79582   7.82918   7.89869
 Alpha virt. eigenvalues --    7.98219  12.56617  23.50316  23.52075  23.62831
 Alpha virt. eigenvalues --   23.64417  43.97408  44.07341  44.26460  44.33704
 Alpha virt. eigenvalues --   44.41860  44.44144
          Condensed to atoms (all electrons):
               1          2          3          4          5          6
     1  Si  11.752323   0.375055   0.014222   0.004343   0.329210   0.691543
     2  O    0.375055   7.956226  -0.001674   0.005308  -0.019177  -0.037781
     3  O    0.014222  -0.001674   7.850591   0.336394  -0.001251  -0.045895
     4  H    0.004343   0.005308   0.336394   0.532069   0.000024   0.002350
     5  O    0.329210  -0.019177  -0.001251   0.000024   7.989322  -0.028493
     6  O    0.691543  -0.037781  -0.045895   0.002350  -0.028493   8.102157
     7  H    0.000807  -0.001262   0.351992  -0.048389   0.000126   0.068953
     8  O    0.310627  -0.021592  -0.000079   0.000020  -0.015775  -0.023537
     9  C   -0.010575   0.000607   0.000075   0.000007  -0.066430  -0.000895
    10  H    0.006472  -0.000374  -0.000000   0.000000   0.005481  -0.000161
    11  H   -0.009133  -0.000147   0.000002  -0.000001   0.003587   0.000841
    12  C   -0.079293   0.000719  -0.000317   0.000025   0.311792  -0.005142
    13  H   -0.008826   0.000449   0.000000  -0.000002  -0.061564  -0.000127
    14  H    0.000961  -0.000290   0.000010  -0.000001  -0.036369  -0.000032
    15  C   -0.057373   0.281364   0.000074   0.000424  -0.011475  -0.002238
    16  H   -0.017696  -0.047754  -0.000012   0.000099   0.020613   0.000117
    17  H    0.006060  -0.041606   0.000088  -0.000521   0.000080  -0.000069
    18  C    0.003209  -0.053715   0.000069   0.000047  -0.000770  -0.000602
    19  H    0.001008   0.006596  -0.000000  -0.000004   0.000038  -0.000001
    20  H   -0.003246   0.004890  -0.000001   0.000001  -0.000005  -0.000013
    21  O    0.001204   0.001458  -0.000000  -0.000001  -0.000222   0.000004
    22  H   -0.002566   0.001501   0.000000   0.000002   0.001101  -0.000096
               7          8          9         10         11         12
     1  Si   0.000807   0.310627  -0.010575   0.006472  -0.009133  -0.079293
     2  O   -0.001262  -0.021592   0.000607  -0.000374  -0.000147   0.000719
     3  O    0.351992  -0.000079   0.000075  -0.000000   0.000002  -0.000317
     4  H   -0.048389   0.000020   0.000007   0.000000  -0.000001   0.000025
     5  O    0.000126  -0.015775  -0.066430   0.005481   0.003587   0.311792
     6  O    0.068953  -0.023537  -0.000895  -0.000161   0.000841  -0.005142
     7  H    0.356859   0.000418  -0.000074   0.000001  -0.000035   0.000139
     8  O    0.000418   8.032988   0.256823  -0.043069  -0.032856  -0.062665
     9  C   -0.000074   0.256823   4.763713   0.405669   0.419491   0.273334
    10  H    0.000001  -0.043069   0.405669   0.674835  -0.050634  -0.038829
    11  H   -0.000035  -0.032856   0.419491  -0.050634   0.646978  -0.039317
    12  C    0.000139  -0.062665   0.273334  -0.038829  -0.039317   4.783457
    13  H    0.000000   0.007602  -0.068185  -0.009359   0.012071   0.426773
    14  H   -0.000018   0.004840  -0.010567   0.006855  -0.011537   0.377919
    15  C   -0.000238   0.008442  -0.007581   0.000561   0.000424   0.002911
    16  H   -0.000052  -0.000745   0.004582   0.000001  -0.000165  -0.007140
    17  H    0.000146  -0.000261   0.000151  -0.000025   0.000001  -0.000241
    18  C   -0.000054  -0.003289   0.002304   0.000377  -0.000149  -0.000031
    19  H    0.000002  -0.000352  -0.000121  -0.000008  -0.000005   0.000050
    20  H   -0.000003   0.000530   0.000721   0.000002   0.000012  -0.000327
    21  O    0.000003  -0.025291   0.012138   0.002237  -0.000102  -0.008439
    22  H    0.000000   0.051003  -0.012239  -0.007421   0.001313   0.005153
              13         14         15         16         17         18
     1  Si  -0.008826   0.000961  -0.057373  -0.017696   0.006060   0.003209
     2  O    0.000449  -0.000290   0.281364  -0.047754  -0.041606  -0.053715
     3  O    0.000000   0.000010   0.000074  -0.000012   0.000088   0.000069
     4  H   -0.000002  -0.000001   0.000424   0.000099  -0.000521   0.000047
     5  O   -0.061564  -0.036369  -0.011475   0.020613   0.000080  -0.000770
     6  O   -0.000127  -0.000032  -0.002238   0.000117  -0.000069  -0.000602
     7  H    0.000000  -0.000018  -0.000238  -0.000052   0.000146  -0.000054
     8  O    0.007602   0.004840   0.008442  -0.000745  -0.000261  -0.003289
     9  C   -0.068185  -0.010567  -0.007581   0.004582   0.000151   0.002304
    10  H   -0.009359   0.006855   0.000561   0.000001  -0.000025   0.000377
    11  H    0.012071  -0.011537   0.000424  -0.000165   0.000001  -0.000149
    12  C    0.426773   0.377919   0.002911  -0.007140  -0.000241  -0.000031
    13  H    0.720470  -0.058115   0.009204  -0.009462   0.000212  -0.002144
    14  H   -0.058115   0.683572   0.000198   0.001098   0.000012  -0.000096
    15  C    0.009204   0.000198   4.796316   0.421321   0.365783   0.294445
    16  H   -0.009462   0.001098   0.421321   0.672530  -0.034075  -0.073280
    17  H    0.000212   0.000012   0.365783  -0.034075   0.673586  -0.021090
    18  C   -0.002144  -0.000096   0.294445  -0.073280  -0.021090   4.728569
    19  H   -0.000333  -0.000011  -0.023132   0.000342   0.001115   0.364874
    20  H    0.000351   0.000012  -0.053337   0.012541  -0.001203   0.411396
    21  O    0.007765   0.000394  -0.066444   0.001122   0.006645   0.312283
    22  H   -0.000759  -0.000237   0.002098  -0.000333  -0.000787  -0.041619
              19         20         21         22
     1  Si   0.001008  -0.003246   0.001204  -0.002566
     2  O    0.006596   0.004890   0.001458   0.001501
     3  O   -0.000000  -0.000001  -0.000000   0.000000
     4  H   -0.000004   0.000001  -0.000001   0.000002
     5  O    0.000038  -0.000005  -0.000222   0.001101
     6  O   -0.000001  -0.000013   0.000004  -0.000096
     7  H    0.000002  -0.000003   0.000003   0.000000
     8  O   -0.000352   0.000530  -0.025291   0.051003
     9  C   -0.000121   0.000721   0.012138  -0.012239
    10  H   -0.000008   0.000002   0.002237  -0.007421
    11  H   -0.000005   0.000012  -0.000102   0.001313
    12  C    0.000050  -0.000327  -0.008439   0.005153
    13  H   -0.000333   0.000351   0.007765  -0.000759
    14  H   -0.000011   0.000012   0.000394  -0.000237
    15  C   -0.023132  -0.053337  -0.066444   0.002098
    16  H    0.000342   0.012541   0.001122  -0.000333
    17  H    0.001115  -0.001203   0.006645  -0.000787
    18  C    0.364874   0.411396   0.312283  -0.041619
    19  H    0.699949  -0.048872  -0.042295   0.010728
    20  H   -0.048872   0.692108  -0.048670  -0.010544
    21  O   -0.042295  -0.048670   7.942411   0.337624
    22  H    0.010728  -0.010544   0.337624   0.437412
 Mulliken charges:
               1
     1  Si   0.691664
     2  O   -0.408802
     3  O   -0.504291
     4  H    0.167805
     5  O   -0.419841
     6  O   -0.720881
     7  H    0.270679
     8  O   -0.443782
     9  C    0.037050
    10  H    0.047387
    11  H    0.059361
    12  C    0.059470
    13  H    0.033979
    14  H    0.041403
    15  C    0.038255
    16  H    0.056348
    17  H    0.045998
    18  C    0.079267
    19  H    0.030431
    20  H    0.043656
    21  O   -0.433823
    22  H    0.228664
 Sum of Mulliken charges =  -1.00000
 Mulliken charges with hydrogens summed into heavy atoms:
               1
     1  Si   0.691664
     2  O   -0.408802
     3  O   -0.065806
     5  O   -0.419841
     6  O   -0.720881
     8  O   -0.443782
     9  C    0.143799
    12  C    0.134853
    15  C    0.140601
    18  C    0.153354
    21  O   -0.205159
 APT charges:
               1
     1  Si   0.346079
     2  O   -0.416437
     3  O   -0.081034
     4  H    0.096034
     5  O   -0.382835
     6  O   -0.488019
     7  H   -0.063226
     8  O   -0.408071
     9  C   -0.757279
    10  H    0.431157
    11  H    0.460328
    12  C   -0.603467
    13  H    0.243029
    14  H    0.515218
    15  C   -0.435593
    16  H    0.158399
    17  H    0.428743
    18  C   -0.812903
    19  H    0.564085
    20  H    0.351100
    21  O   -0.173852
    22  H    0.028544
 Sum of APT charges =  -1.00000
 APT charges with hydrogens summed into heavy atoms:
               1
     1  Si   0.346079
     2  O   -0.416437
     3  O   -0.048226
     5  O   -0.382835
     6  O   -0.488019
     8  O   -0.408071
     9  C    0.134207
    12  C    0.154779
    15  C    0.151549
    18  C    0.102282
    21  O   -0.145307
 Electronic spatial extent (au):  <R**2>=           2126.8507
 Charge=             -1.0000 electrons
 Dipole moment (field-independent basis, Debye):
    X=              6.6342    Y=             -2.7878    Z=             -2.2079  Tot=              7.5272
 Quadrupole moment (field-independent basis, Debye-Ang):
   XX=           -111.3728   YY=            -78.7578   ZZ=            -82.8383
   XY=             14.9953   XZ=             -1.5181   YZ=              0.7908
 Traceless Quadrupole moment (field-independent basis, Debye-Ang):
   XX=            -20.3832   YY=             12.2319   ZZ=              8.1513
   XY=             14.9953   XZ=             -1.5181   YZ=              0.7908
 Octapole moment (field-independent basis, Debye-Ang**2):
  XXX=             27.4063  YYY=            -13.9031  ZZZ=              4.7949  XYY=             22.1884
  XXY=            -30.5490  XXZ=             -0.6728  XZZ=              9.9985  YZZ=              2.3250
  YYZ=              1.9187  XYZ=             -5.8335
 Hexadecapole moment (field-independent basis, Debye-Ang**3):
 XXXX=          -1710.2379 YYYY=          -1018.0929 ZZZZ=           -360.7764 XXXY=            249.0581
 XXXZ=            -46.9076 YYYX=            134.5846 YYYZ=             17.2501 ZZZX=             -0.5476
 ZZZY=             20.5045 XXYY=           -498.1369 XXZZ=           -318.7679 YYZZ=           -232.1403
 XXYZ=             31.8595 YYXZ=            -17.6498 ZZXY=             35.0068
 N-N= 8.406467934427D+02 E-N=-3.824436775058D+03  KE= 8.970198010572D+02
  Exact polarizability:       0.000       0.000       0.000       0.000       0.000       0.000
 Approx polarizability:     101.605      -0.415     102.755      -3.205      -0.548      94.386

 This type of calculation cannot be archived.


 IF GOD HAD MEANT MAN TO SEE THE SUN RISE, HE
 WOULD HAVE SCHEDULED IT FOR A LATER HOUR.
 Job cpu time:       3 days 17 hours 44 minutes 39.8 seconds.
 Elapsed time:       0 days 22 hours 34 minutes  9.3 seconds.
 File lengths (MBytes):  RWF=    436 Int=      0 D2E=      0 Chk=     22 Scr=      1
 Normal termination of Gaussian 16 at Wed Mar 27 02:32:33 2024.
