 Entering Gaussian System, Link 0=/opt/software/gaussian/g16.c01/g16
 Initial command:
 /opt/software/gaussian/g16.c01/l1.exe "/scratch/arhender/18233959/Gau-970.inp" -scrdir="/scratch/arhender/18233959/"
 Entering Link 1 = /opt/software/gaussian/g16.c01/l1.exe PID=       972.
  
 Copyright (c) 1988-2019, Gaussian, Inc.  All Rights Reserved.
  
 This is part of the Gaussian(R) 16 program.  It is based on
 the Gaussian(R) 09 system (copyright 2009, Gaussian, Inc.),
 the Gaussian(R) 03 system (copyright 2003, Gaussian, Inc.),
 the Gaussian(R) 98 system (copyright 1998, Gaussian, Inc.),
 the Gaussian(R) 94 system (copyright 1995, Gaussian, Inc.),
 the Gaussian 92(TM) system (copyright 1992, Gaussian, Inc.),
 the Gaussian 90(TM) system (copyright 1990, Gaussian, Inc.),
 the Gaussian 88(TM) system (copyright 1988, Gaussian, Inc.),
 the Gaussian 86(TM) system (copyright 1986, Carnegie Mellon
 University), and the Gaussian 82(TM) system (copyright 1983,
 Carnegie Mellon University). Gaussian is a federally registered
 trademark of Gaussian, Inc.
  
 This software contains proprietary and confidential information,
 including trade secrets, belonging to Gaussian, Inc.
  
 This software is provided under written license and may be
 used, copied, transmitted, or stored only in accord with that
 written license.
  
 The following legend is applicable only to US Government
 contracts under FAR:
  
                    RESTRICTED RIGHTS LEGEND
  
 Use, reproduction and disclosure by the US Government is
 subject to restrictions as set forth in subparagraphs (a)
 and (c) of the Commercial Computer Software - Restricted
 Rights clause in FAR 52.227-19.
  
 Gaussian, Inc.
 340 Quinnipiac St., Bldg. 40, Wallingford CT 06492
  
  
 ---------------------------------------------------------------
 Warning -- This program may not be used in any manner that
 competes with the business of Gaussian, Inc. or will provide
 assistance to any competitor of Gaussian, Inc.  The licensee
 of this program is prohibited from giving any competitor of
 Gaussian, Inc. access to this program.  By using this program,
 the user acknowledges that Gaussian, Inc. is engaged in the
 business of creating and licensing software in the field of
 computational chemistry and represents and warrants to the
 licensee that it is not a competitor of Gaussian, Inc. and that
 it will not use this program in any manner prohibited above.
 ---------------------------------------------------------------
  

 Cite this work as:
 Gaussian 16, Revision C.01,
 M. J. Frisch, G. W. Trucks, H. B. Schlegel, G. E. Scuseria, 
 M. A. Robb, J. R. Cheeseman, G. Scalmani, V. Barone, 
 G. A. Petersson, H. Nakatsuji, X. Li, M. Caricato, A. V. Marenich, 
 J. Bloino, B. G. Janesko, R. Gomperts, B. Mennucci, H. P. Hratchian, 
 J. V. Ortiz, A. F. Izmaylov, J. L. Sonnenberg, D. Williams-Young, 
 F. Ding, F. Lipparini, F. Egidi, J. Goings, B. Peng, A. Petrone, 
 T. Henderson, D. Ranasinghe, V. G. Zakrzewski, J. Gao, N. Rega, 
 G. Zheng, W. Liang, M. Hada, M. Ehara, K. Toyota, R. Fukuda, 
 J. Hasegawa, M. Ishida, T. Nakajima, Y. Honda, O. Kitao, H. Nakai, 
 T. Vreven, K. Throssell, J. A. Montgomery, Jr., J. E. Peralta, 
 F. Ogliaro, M. J. Bearpark, J. J. Heyd, E. N. Brothers, K. N. Kudin, 
 V. N. Staroverov, T. A. Keith, R. Kobayashi, J. Normand, 
 K. Raghavachari, A. P. Rendell, J. C. Burant, S. S. Iyengar, 
 J. Tomasi, M. Cossi, J. M. Millam, M. Klene, C. Adamo, R. Cammi, 
 J. W. Ochterski, R. L. Martin, K. Morokuma, O. Farkas, 
 J. B. Foresman, and D. J. Fox, Gaussian, Inc., Wallingford CT, 2019.
 
 ******************************************
 Gaussian 16:  ES64L-G16RevC.01  3-Jul-2019
                30-Mar-2024 
 ******************************************
 %chk=IRC_potentialSN1likeCollapseQbiLWithLattacking_forward_ReactantOpt.chk
 %mem=1600MB
 %nprocs=4
 Will use up to    4 processors via shared memory.
 ---------------------------------------------
 # opt freq wb97xd/def2tzvpp geom=connectivity
 ---------------------------------------------
 1/18=20,19=15,26=3,38=1,57=2/1,3;
 2/9=110,12=2,17=6,18=5,40=1/2;
 3/5=44,7=202,11=2,25=1,30=1,71=1,74=-58/1,2,3;
 4//1;
 5/5=2,38=5/2;
 6/7=2,8=2,9=2,10=2,28=1/1;
 7//1,2,3,16;
 1/18=20,19=15,26=3/3(2);
 2/9=110/2;
 99//99;
 2/9=110/2;
 3/5=44,7=202,11=2,25=1,30=1,71=1,74=-58/1,2,3;
 4/5=5,16=3,69=1/1;
 5/5=2,38=5/2;
 7//1,2,3,16;
 1/18=20,19=15,26=3/3(-5);
 2/9=110/2;
 6/7=2,8=2,9=2,10=2,19=2,28=1/1;
 99/9=1/99;
 ----------------------------------------------------------------------
 irc for proton transfer with potential SN1 like transition state in L 
 attack on QbiL
 ----------------------------------------------------------------------
 Symbolic Z-matrix:
 Charge =  0 Multiplicity = 1
 Si                    0.94343   0.85623   0.06351 
 O                     1.74217  -0.00395  -1.07583 
 O                     1.79984   2.17018   0.52091 
 H                     2.74104   2.07282   0.64008 
 O                    -0.48514   1.54632  -0.34828 
 H                    -0.4376    2.50201  -0.34461 
 O                     0.80838  -0.31199   1.2037 
 C                    -2.10466  -1.65572  -0.05016 
 H                    -1.59786  -2.33509   0.63655 
 H                    -2.90744  -2.20909  -0.55026 
 C                    -2.69258  -0.48548   0.72244 
 H                    -1.93702  -0.07031   1.39385 
 H                    -3.5313   -0.83634   1.3271 
 O                    -1.14214  -1.23767  -0.99698 
 H                    -1.56627  -0.5981   -1.57122 
 O                    -3.17677   0.50765  -0.15916 
 H                    -2.42879   1.08167  -0.34392 
 C                     1.64183  -1.41168   0.85387 
 H                     1.15235  -2.33807   1.14989 
 H                     2.58461  -1.32843   1.40093 
 C                     1.87746  -1.36282  -0.67041 
 H                     2.87928  -1.70814  -0.92606 
 H                     1.13686  -1.96175  -1.19695 
 
 Add virtual bond connecting atoms H17        and O5         Dist= 3.78D+00.

 GradGradGradGradGradGradGradGradGradGradGradGradGradGradGradGradGradGrad
 Berny optimization.
 Initialization pass.
                           ----------------------------
                           !    Initial Parameters    !
                           ! (Angstroms and Degrees)  !
 --------------------------                            --------------------------
 ! Name  Definition              Value          Derivative Info.                !
 --------------------------------------------------------------------------------
 ! R1    R(1,2)                  1.6358         estimate D2E/DX2                !
 ! R2    R(1,3)                  1.6338         estimate D2E/DX2                !
 ! R3    R(1,5)                  1.6391         estimate D2E/DX2                !
 ! R4    R(1,7)                  1.638          estimate D2E/DX2                !
 ! R5    R(2,21)                 1.4245         estimate D2E/DX2                !
 ! R6    R(3,4)                  0.9537         estimate D2E/DX2                !
 ! R7    R(5,6)                  0.9569         estimate D2E/DX2                !
 ! R8    R(5,17)                 1.9984         estimate D2E/DX2                !
 ! R9    R(7,18)                 1.4235         estimate D2E/DX2                !
 ! R10   R(8,9)                  1.0908         estimate D2E/DX2                !
 ! R11   R(8,10)                 1.0958         estimate D2E/DX2                !
 ! R12   R(8,11)                 1.5205         estimate D2E/DX2                !
 ! R13   R(8,14)                 1.4134         estimate D2E/DX2                !
 ! R14   R(11,12)                1.0927         estimate D2E/DX2                !
 ! R15   R(11,13)                1.0919         estimate D2E/DX2                !
 ! R16   R(11,16)                1.4135         estimate D2E/DX2                !
 ! R17   R(14,15)                0.9585         estimate D2E/DX2                !
 ! R18   R(16,17)                0.9608         estimate D2E/DX2                !
 ! R19   R(18,19)                1.0888         estimate D2E/DX2                !
 ! R20   R(18,20)                1.0932         estimate D2E/DX2                !
 ! R21   R(18,21)                1.5432         estimate D2E/DX2                !
 ! R22   R(21,22)                1.0901         estimate D2E/DX2                !
 ! R23   R(21,23)                1.0883         estimate D2E/DX2                !
 ! A1    A(2,1,3)              111.2196         estimate D2E/DX2                !
 ! A2    A(2,1,5)              118.1629         estimate D2E/DX2                !
 ! A3    A(2,1,7)               98.6298         estimate D2E/DX2                !
 ! A4    A(3,1,5)              100.871          estimate D2E/DX2                !
 ! A5    A(3,1,7)              114.9562         estimate D2E/DX2                !
 ! A6    A(5,1,7)              113.7845         estimate D2E/DX2                !
 ! A7    A(1,2,21)             110.4725         estimate D2E/DX2                !
 ! A8    A(1,3,4)              118.0482         estimate D2E/DX2                !
 ! A9    A(1,5,6)              112.1009         estimate D2E/DX2                !
 ! A10   A(1,5,17)             138.5241         estimate D2E/DX2                !
 ! A11   A(6,5,17)             106.2921         estimate D2E/DX2                !
 ! A12   A(1,7,18)             109.3677         estimate D2E/DX2                !
 ! A13   A(9,8,10)             108.2493         estimate D2E/DX2                !
 ! A14   A(9,8,11)             109.8209         estimate D2E/DX2                !
 ! A15   A(9,8,14)             106.8299         estimate D2E/DX2                !
 ! A16   A(10,8,11)            109.7117         estimate D2E/DX2                !
 ! A17   A(10,8,14)            110.0318         estimate D2E/DX2                !
 ! A18   A(11,8,14)            112.0892         estimate D2E/DX2                !
 ! A19   A(8,11,12)            109.7104         estimate D2E/DX2                !
 ! A20   A(8,11,13)            109.3345         estimate D2E/DX2                !
 ! A21   A(8,11,16)            110.8719         estimate D2E/DX2                !
 ! A22   A(12,11,13)           108.2381         estimate D2E/DX2                !
 ! A23   A(12,11,16)           110.6789         estimate D2E/DX2                !
 ! A24   A(13,11,16)           107.9414         estimate D2E/DX2                !
 ! A25   A(8,14,15)            107.2992         estimate D2E/DX2                !
 ! A26   A(11,16,17)           105.8453         estimate D2E/DX2                !
 ! A27   A(5,17,16)            153.7017         estimate D2E/DX2                !
 ! A28   A(7,18,19)            109.1039         estimate D2E/DX2                !
 ! A29   A(7,18,20)            108.8526         estimate D2E/DX2                !
 ! A30   A(7,18,21)            107.9203         estimate D2E/DX2                !
 ! A31   A(19,18,20)           108.4486         estimate D2E/DX2                !
 ! A32   A(19,18,21)           111.3546         estimate D2E/DX2                !
 ! A33   A(20,18,21)           111.1127         estimate D2E/DX2                !
 ! A34   A(2,21,18)            107.2667         estimate D2E/DX2                !
 ! A35   A(2,21,22)            108.8282         estimate D2E/DX2                !
 ! A36   A(2,21,23)            108.8224         estimate D2E/DX2                !
 ! A37   A(18,21,22)           111.2209         estimate D2E/DX2                !
 ! A38   A(18,21,23)           110.8888         estimate D2E/DX2                !
 ! A39   A(22,21,23)           109.7316         estimate D2E/DX2                !
 ! D1    D(3,1,2,21)           125.8231         estimate D2E/DX2                !
 ! D2    D(5,1,2,21)          -118.2422         estimate D2E/DX2                !
 ! D3    D(7,1,2,21)             4.7105         estimate D2E/DX2                !
 ! D4    D(2,1,3,4)            -41.2319         estimate D2E/DX2                !
 ! D5    D(5,1,3,4)           -167.3977         estimate D2E/DX2                !
 ! D6    D(7,1,3,4)             69.7597         estimate D2E/DX2                !
 ! D7    D(2,1,5,6)           -113.5229         estimate D2E/DX2                !
 ! D8    D(2,1,5,17)            90.0519         estimate D2E/DX2                !
 ! D9    D(3,1,5,6)              7.8673         estimate D2E/DX2                !
 ! D10   D(3,1,5,17)          -148.5579         estimate D2E/DX2                !
 ! D11   D(7,1,5,6)            131.5195         estimate D2E/DX2                !
 ! D12   D(7,1,5,17)           -24.9057         estimate D2E/DX2                !
 ! D13   D(2,1,7,18)            11.7969         estimate D2E/DX2                !
 ! D14   D(3,1,7,18)          -106.5246         estimate D2E/DX2                !
 ! D15   D(5,1,7,18)           137.8533         estimate D2E/DX2                !
 ! D16   D(1,2,21,18)          -18.2361         estimate D2E/DX2                !
 ! D17   D(1,2,21,22)         -138.6645         estimate D2E/DX2                !
 ! D18   D(1,2,21,23)          101.7922         estimate D2E/DX2                !
 ! D19   D(1,5,17,16)            3.0002         estimate D2E/DX2                !
 ! D20   D(6,5,17,16)         -154.2902         estimate D2E/DX2                !
 ! D21   D(1,7,18,19)         -144.3755         estimate D2E/DX2                !
 ! D22   D(1,7,18,20)           97.4508         estimate D2E/DX2                !
 ! D23   D(1,7,18,21)          -23.243          estimate D2E/DX2                !
 ! D24   D(9,8,11,12)           48.5918         estimate D2E/DX2                !
 ! D25   D(9,8,11,13)          -69.9642         estimate D2E/DX2                !
 ! D26   D(9,8,11,16)          171.1431         estimate D2E/DX2                !
 ! D27   D(10,8,11,12)         167.4556         estimate D2E/DX2                !
 ! D28   D(10,8,11,13)          48.8997         estimate D2E/DX2                !
 ! D29   D(10,8,11,16)         -69.993          estimate D2E/DX2                !
 ! D30   D(14,8,11,12)         -69.9906         estimate D2E/DX2                !
 ! D31   D(14,8,11,13)         171.4535         estimate D2E/DX2                !
 ! D32   D(14,8,11,16)          52.5608         estimate D2E/DX2                !
 ! D33   D(9,8,14,15)         -176.5443         estimate D2E/DX2                !
 ! D34   D(10,8,14,15)          66.1641         estimate D2E/DX2                !
 ! D35   D(11,8,14,15)         -56.2078         estimate D2E/DX2                !
 ! D36   D(8,11,16,17)         -87.6927         estimate D2E/DX2                !
 ! D37   D(12,11,16,17)         34.2945         estimate D2E/DX2                !
 ! D38   D(13,11,16,17)        152.5777         estimate D2E/DX2                !
 ! D39   D(11,16,17,5)          14.1838         estimate D2E/DX2                !
 ! D40   D(7,18,21,2)           26.388          estimate D2E/DX2                !
 ! D41   D(7,18,21,22)         145.2851         estimate D2E/DX2                !
 ! D42   D(7,18,21,23)         -92.314          estimate D2E/DX2                !
 ! D43   D(19,18,21,2)         146.1081         estimate D2E/DX2                !
 ! D44   D(19,18,21,22)        -94.9948         estimate D2E/DX2                !
 ! D45   D(19,18,21,23)         27.4061         estimate D2E/DX2                !
 ! D46   D(20,18,21,2)         -92.8812         estimate D2E/DX2                !
 ! D47   D(20,18,21,22)         26.0159         estimate D2E/DX2                !
 ! D48   D(20,18,21,23)        148.4168         estimate D2E/DX2                !
 --------------------------------------------------------------------------------
 Trust Radius=3.00D-01 FncErr=1.00D-07 GrdErr=1.00D-06 EigMax=2.50D+02 EigMin=1.00D-04
 Number of steps in this run=    120 maximum allowed number of steps=    138.
 GradGradGradGradGradGradGradGradGradGradGradGradGradGradGradGradGradGrad

                          Input orientation:                          
 ---------------------------------------------------------------------
 Center     Atomic      Atomic             Coordinates (Angstroms)
 Number     Number       Type             X           Y           Z
 ---------------------------------------------------------------------
      1         14           0        0.943426    0.856226    0.063505
      2          8           0        1.742172   -0.003953   -1.075829
      3          8           0        1.799844    2.170182    0.520912
      4          1           0        2.741038    2.072824    0.640080
      5          8           0       -0.485137    1.546324   -0.348275
      6          1           0       -0.437596    2.502007   -0.344609
      7          8           0        0.808383   -0.311988    1.203702
      8          6           0       -2.104660   -1.655722   -0.050162
      9          1           0       -1.597864   -2.335089    0.636547
     10          1           0       -2.907435   -2.209091   -0.550262
     11          6           0       -2.692580   -0.485482    0.722441
     12          1           0       -1.937016   -0.070310    1.393852
     13          1           0       -3.531299   -0.836342    1.327098
     14          8           0       -1.142138   -1.237667   -0.996978
     15          1           0       -1.566272   -0.598099   -1.571224
     16          8           0       -3.176766    0.507646   -0.159155
     17          1           0       -2.428786    1.081673   -0.343918
     18          6           0        1.641826   -1.411677    0.853874
     19          1           0        1.152350   -2.338068    1.149889
     20          1           0        2.584610   -1.328434    1.400930
     21          6           0        1.877464   -1.362824   -0.670409
     22          1           0        2.879275   -1.708140   -0.926056
     23          1           0        1.136855   -1.961745   -1.196950
 ---------------------------------------------------------------------
                    Distance matrix (angstroms):
                    1          2          3          4          5
     1  Si   0.000000
     2  O    1.635844   0.000000
     3  O    1.633754   2.698105   0.000000
     4  H    2.245876   2.873165   0.953691   0.000000
     5  O    1.639082   2.809555   2.523058   3.415004   0.000000
     6  H    2.186864   3.400869   2.421853   3.355223   0.956872
     7  O    1.637990   2.482561   2.758689   3.120922   2.745023
     8  C    3.951409   4.310273   5.496255   6.152989   3.600670
     9  H    4.119590   4.418401   5.644046   6.185126   4.156128
    10  H    4.960041   5.172785   6.517969   7.187277   4.473418
    11  C    3.931274   4.809643   5.222551   6.006323   3.185510
    12  H    3.305335   4.431721   4.443642   5.200518   2.785043
    13  H    4.948193   5.854607   6.173347   6.948198   4.214626
    14  O    3.139839   3.138075   4.751072   5.358952   2.933099
    15  H    3.329562   3.397680   4.834372   5.529613   2.694997
    16  O    4.140902   5.029709   5.290857   6.173246   2.891277
    17  H    3.404208   4.371632   4.451303   5.355158   1.998422
    18  C    2.501166   2.390713   3.600770   3.660017   3.836522
    19  H    3.380443   3.278689   4.597736   4.715910   4.473741
    20  H    3.042192   2.932284   3.691965   3.488828   4.554920
    21  C    2.516990   1.424500   3.729263   3.777144   3.761489
    22  H    3.361951   2.054188   4.277881   4.094824   4.716422
    23  H    3.093076   2.052810   4.523652   4.714428   3.956976
                    6          7          8          9         10
     6  H    0.000000
     7  O    3.445040   0.000000
     8  C    4.489155   3.444360   0.000000
     9  H    5.070147   3.194468   1.090849   0.000000
    10  H    5.323236   4.525781   1.095794   1.771826   0.000000
    11  C    3.892125   3.538143   1.520535   2.151006   2.153315
    12  H    3.447800   2.762568   2.151003   2.412003   3.048881
    13  H    4.848729   4.372987   2.145583   2.541904   2.407930
    14  O    3.860975   3.082922   1.413393   2.020006   2.063854
    15  H    3.519823   3.663477   1.929264   2.809339   2.331604
    16  O    3.393364   4.290757   2.416910   3.347718   2.757927
    17  H    2.445851   3.849244   2.772126   3.650480   3.331788
    18  C    4.591000   1.423490   3.861735   3.375724   4.827343
    19  H    5.309216   2.055775   3.537490   2.797714   4.403295
    20  H    5.181980   2.055978   4.919557   4.369293   5.894511
    21  C    4.516920   2.399892   4.040768   3.838143   4.860644
    22  H    5.391201   3.282332   5.060588   4.783259   5.820497
    23  H    4.809414   2.931335   3.451984   3.313576   4.103129
                   11         12         13         14         15
    11  C    0.000000
    12  H    1.092720   0.000000
    13  H    1.091862   1.770028   0.000000
    14  O    2.434349   2.776801   3.357154   0.000000
    15  H    2.557763   3.034417   3.509752   0.958486   0.000000
    16  O    1.413489   2.069503   2.034931   2.808518   2.410457
    17  H    1.913814   2.142136   2.772474   2.731536   2.252076
    18  C    4.434206   3.859916   5.226488   3.347594   4.103036
    19  H    4.289321   3.840108   4.921702   3.329354   4.221712
    20  H    5.386989   4.693403   6.136118   4.432477   5.157219
    21  C    4.857475   4.525707   5.789813   3.039787   3.640823
    22  H    5.937845   5.591164   6.850708   4.049461   4.627237
    23  H    4.530782   4.442799   5.424851   2.399601   3.050657
                   16         17         18         19         20
    16  O    0.000000
    17  H    0.960791   0.000000
    18  C    5.284776   4.921522   0.000000
    19  H    5.343494   5.172100   1.088766   0.000000
    20  H    6.244879   5.829858   1.093179   1.770240   0.000000
    21  C    5.413435   4.962454   1.543163   2.188693   2.188991
    22  H    6.494111   6.024737   2.187995   2.772837   2.376104
    23  H    5.077621   4.764856   2.182533   2.376870   3.040733
                   21         22         23
    21  C    0.000000
    22  H    1.090057   0.000000
    23  H    1.088326   1.781496   0.000000
 Stoichiometry    C4H12O6Si
 Framework group  C1[X(C4H12O6Si)]
 Deg. of freedom    63
 Full point group                 C1      NOp   1
 Largest Abelian subgroup         C1      NOp   1
 Largest concise Abelian subgroup C1      NOp   1
                         Standard orientation:                         
 ---------------------------------------------------------------------
 Center     Atomic      Atomic             Coordinates (Angstroms)
 Number     Number       Type             X           Y           Z
 ---------------------------------------------------------------------
      1         14           0       -1.122057   -0.689358   -0.013177
      2          8           0       -1.711068    0.382600   -1.099434
      3          8           0       -2.229792   -1.834715    0.347705
      4          1           0       -3.135876   -1.561164    0.464786
      5          8           0        0.151685   -1.620329   -0.457545
      6          1           0       -0.082811   -2.546035   -0.518245
      7          8           0       -0.785037    0.353938    1.203771
      8          6           0        2.361987    1.173008    0.068439
      9          1           0        1.983689    1.893846    0.794548
     10          1           0        3.268599    1.587670   -0.386397
     11          6           0        2.691421   -0.137198    0.766193
     12          1           0        1.854500   -0.436936    1.401612
     13          1           0        3.569308    0.001738    1.400366
     14          8           0        1.357020    1.014642   -0.912704
     15          1           0        1.659649    0.341885   -1.524676
     16          8           0        2.990157   -1.148053   -0.175551
     17          1           0        2.148177   -1.550024   -0.404914
     18          6           0       -1.378259    1.616639    0.920936
     19          1           0       -0.722865    2.407260    1.282584
     20          1           0       -2.330752    1.686521    1.452833
     21          6           0       -1.585507    1.712710   -0.605226
     22          1           0       -2.494083    2.264720   -0.846053
     23          1           0       -0.730303    2.185900   -1.083945
 ---------------------------------------------------------------------
 Rotational constants (GHZ):           1.3757013           0.7129598           0.5724193
 Standard basis: def2TZVPP (5D, 7F)
 There are   588 symmetry adapted cartesian basis functions of A   symmetry.
 There are   520 symmetry adapted basis functions of A   symmetry.
   520 basis functions,   783 primitive gaussians,   588 cartesian basis functions
    49 alpha electrons       49 beta electrons
       nuclear repulsion energy       856.9934411239 Hartrees.
 NAtoms=   23 NActive=   23 NUniq=   23 SFac= 1.00D+00 NAtFMM=   60 NAOKFM=F Big=F
 Integral buffers will be    131072 words long.
 Raffenetti 2 integral format.
 Two-electron integral symmetry is turned on.
 Nuclear repulsion after empirical dispersion term =      856.9786082145 Hartrees.
 One-electron integrals computed using PRISM.
   1 Symmetry operations used in ECPInt.
 ECPInt:  NShTT=   19306 NPrTT=   52617 LenC2=   18213 LenP2D=   38357.
 LDataN:  DoStor=T MaxTD1= 6 Len=  172
 NBasis=   520 RedAO= T EigKep=  1.99D-04  NBF=   520
 NBsUse=   520 1.00D-06 EigRej= -1.00D+00 NBFU=   520
 ExpMin= 7.01D-02 ExpMax= 4.48D+04 ExpMxC= 1.53D+03 IAcc=3 IRadAn=         5 AccDes= 0.00D+00
 Harris functional with IExCor= 4639 and IRadAn=       5 diagonalized for initial guess.
 HarFok:  IExCor= 4639 AccDes= 0.00D+00 IRadAn=         5 IDoV= 1 UseB2=F ITyADJ=14
 ICtDFT=  3500011 ScaDFX=  1.000000  1.000000  1.000000  1.000000
 FoFCou: FMM=F IPFlag=           0 FMFlag=      100000 FMFlg1=           0
         NFxFlg=           0 DoJE=T BraDBF=F KetDBF=T FulRan=T
         wScrn=  0.000000 ICntrl=       500 IOpCl=  0 I1Cent=   200000004 NGrid=           0
         NMat0=    1 NMatS0=      1 NMatT0=    0 NMatD0=    1 NMtDS0=    0 NMtDT0=    0
 Petite list used in FoFCou.
 Requested convergence on RMS density matrix=1.00D-08 within 128 cycles.
 Requested convergence on MAX density matrix=1.00D-06.
 Requested convergence on             energy=1.00D-06.
 No special actions if energy rises.
 Integral accuracy reduced to 1.0D-05 until final iterations.
 Initial convergence to 1.0D-05 achieved.  Increase integral accuracy.
 SCF Done:  E(RwB97XD) =  -900.751399578     A.U. after   13 cycles
            NFock= 13  Conv=0.95D-08     -V/T= 2.0036

 **********************************************************************

            Population analysis using the SCF Density.

 **********************************************************************

 Orbital symmetries:
       Occupied  (A) (A) (A) (A) (A) (A) (A) (A) (A) (A) (A) (A)
                 (A) (A) (A) (A) (A) (A) (A) (A) (A) (A) (A) (A)
                 (A) (A) (A) (A) (A) (A) (A) (A) (A) (A) (A) (A)
                 (A) (A) (A) (A) (A) (A) (A) (A) (A) (A) (A) (A)
                 (A)
       Virtual   (A) (A) (A) (A) (A) (A) (A) (A) (A) (A) (A) (A)
                 (A) (A) (A) (A) (A) (A) (A) (A) (A) (A) (A) (A)
                 (A) (A) (A) (A) (A) (A) (A) (A) (A) (A) (A) (A)
                 (A) (A) (A) (A) (A) (A) (A) (A) (A) (A) (A) (A)
                 (A) (A) (A) (A) (A) (A) (A) (A) (A) (A) (A) (A)
                 (A) (A) (A) (A) (A) (A) (A) (A) (A) (A) (A) (A)
                 (A) (A) (A) (A) (A) (A) (A) (A) (A) (A) (A) (A)
                 (A) (A) (A) (A) (A) (A) (A) (A) (A) (A) (A) (A)
                 (A) (A) (A) (A) (A) (A) (A) (A) (A) (A) (A) (A)
                 (A) (A) (A) (A) (A) (A) (A) (A) (A) (A) (A) (A)
                 (A) (A) (A) (A) (A) (A) (A) (A) (A) (A) (A) (A)
                 (A) (A) (A) (A) (A) (A) (A) (A) (A) (A) (A) (A)
                 (A) (A) (A) (A) (A) (A) (A) (A) (A) (A) (A) (A)
                 (A) (A) (A) (A) (A) (A) (A) (A) (A) (A) (A) (A)
                 (A) (A) (A) (A) (A) (A) (A) (A) (A) (A) (A) (A)
                 (A) (A) (A) (A) (A) (A) (A) (A) (A) (A) (A) (A)
                 (A) (A) (A) (A) (A) (A) (A) (A) (A) (A) (A) (A)
                 (A) (A) (A) (A) (A) (A) (A) (A) (A) (A) (A) (A)
                 (A) (A) (A) (A) (A) (A) (A) (A) (A) (A) (A) (A)
                 (A) (A) (A) (A) (A) (A) (A) (A) (A) (A) (A) (A)
                 (A) (A) (A) (A) (A) (A) (A) (A) (A) (A) (A) (A)
                 (A) (A) (A) (A) (A) (A) (A) (A) (A) (A) (A) (A)
                 (A) (A) (A) (A) (A) (A) (A) (A) (A) (A) (A) (A)
                 (A) (A) (A) (A) (A) (A) (A) (A) (A) (A) (A) (A)
                 (A) (A) (A) (A) (A) (A) (A) (A) (A) (A) (A) (A)
                 (A) (A) (A) (A) (A) (A) (A) (A) (A) (A) (A) (A)
                 (A) (A) (A) (A) (A) (A) (A) (A) (A) (A) (A) (A)
                 (A) (A) (A) (A) (A) (A) (A) (A) (A) (A) (A) (A)
                 (A) (A) (A) (A) (A) (A) (A) (A) (A) (A) (A) (A)
                 (A) (A) (A) (A) (A) (A) (A) (A) (A) (A) (A) (A)
                 (A) (A) (A) (A) (A) (A) (A) (A) (A) (A) (A) (A)
                 (A) (A) (A) (A) (A) (A) (A) (A) (A) (A) (A) (A)
                 (A) (A) (A) (A) (A) (A) (A) (A) (A) (A) (A) (A)
                 (A) (A) (A) (A) (A) (A) (A) (A) (A) (A) (A) (A)
                 (A) (A) (A) (A) (A) (A) (A) (A) (A) (A) (A) (A)
                 (A) (A) (A) (A) (A) (A) (A) (A) (A) (A) (A) (A)
                 (A) (A) (A) (A) (A) (A) (A) (A) (A) (A) (A) (A)
                 (A) (A) (A) (A) (A) (A) (A) (A) (A) (A) (A) (A)
                 (A) (A) (A) (A) (A) (A) (A) (A) (A) (A) (A) (A)
                 (A) (A) (A)
 The electronic state is 1-A.
 Alpha  occ. eigenvalues --  -66.31433 -19.27281 -19.25984 -19.25358 -19.25217
 Alpha  occ. eigenvalues --  -19.24689 -19.23547 -10.34332 -10.33599 -10.32014
 Alpha  occ. eigenvalues --  -10.31563  -5.43241  -3.77789  -3.77747  -3.77638
 Alpha  occ. eigenvalues --   -1.16275  -1.13514  -1.13052  -1.10971  -1.10558
 Alpha  occ. eigenvalues --   -1.09706  -0.83853  -0.82839  -0.71986  -0.70870
 Alpha  occ. eigenvalues --   -0.67158  -0.63357  -0.60595  -0.59813  -0.59599
 Alpha  occ. eigenvalues --   -0.58614  -0.56594  -0.54846  -0.52966  -0.50877
 Alpha  occ. eigenvalues --   -0.50487  -0.48876  -0.48260  -0.47633  -0.45373
 Alpha  occ. eigenvalues --   -0.43987  -0.43370  -0.42943  -0.41054  -0.40381
 Alpha  occ. eigenvalues --   -0.39912  -0.37785  -0.36218  -0.34212
 Alpha virt. eigenvalues --    0.08009   0.11122   0.12185   0.13916   0.14611
 Alpha virt. eigenvalues --    0.15758   0.16281   0.16800   0.17645   0.18773
 Alpha virt. eigenvalues --    0.20402   0.20886   0.21660   0.22132   0.23347
 Alpha virt. eigenvalues --    0.23468   0.24643   0.25902   0.26372   0.27697
 Alpha virt. eigenvalues --    0.27813   0.28426   0.29003   0.29612   0.31160
 Alpha virt. eigenvalues --    0.32973   0.34500   0.36422   0.38087   0.38579
 Alpha virt. eigenvalues --    0.39797   0.40093   0.42555   0.42920   0.43345
 Alpha virt. eigenvalues --    0.44084   0.44742   0.45347   0.45703   0.47059
 Alpha virt. eigenvalues --    0.47260   0.47787   0.48282   0.49364   0.50662
 Alpha virt. eigenvalues --    0.50926   0.51970   0.52649   0.52861   0.53616
 Alpha virt. eigenvalues --    0.54616   0.55678   0.56000   0.56215   0.57107
 Alpha virt. eigenvalues --    0.57600   0.59084   0.59959   0.60976   0.61841
 Alpha virt. eigenvalues --    0.63404   0.63543   0.65404   0.66325   0.68471
 Alpha virt. eigenvalues --    0.70250   0.71410   0.71847   0.72854   0.73578
 Alpha virt. eigenvalues --    0.74849   0.75475   0.75937   0.78071   0.78891
 Alpha virt. eigenvalues --    0.80981   0.82190   0.84282   0.84704   0.86015
 Alpha virt. eigenvalues --    0.86474   0.87885   0.89367   0.90502   0.92414
 Alpha virt. eigenvalues --    0.93361   0.94330   0.95451   0.96002   0.97280
 Alpha virt. eigenvalues --    0.97949   0.98092   1.00169   1.01132   1.03522
 Alpha virt. eigenvalues --    1.03833   1.05691   1.06162   1.07610   1.07853
 Alpha virt. eigenvalues --    1.08896   1.09978   1.10152   1.11618   1.12733
 Alpha virt. eigenvalues --    1.14148   1.14670   1.16776   1.18010   1.19104
 Alpha virt. eigenvalues --    1.20112   1.20526   1.22309   1.22881   1.23646
 Alpha virt. eigenvalues --    1.24569   1.25554   1.27798   1.28755   1.30056
 Alpha virt. eigenvalues --    1.32077   1.32882   1.33597   1.33911   1.34230
 Alpha virt. eigenvalues --    1.35339   1.36777   1.38530   1.39369   1.40431
 Alpha virt. eigenvalues --    1.41742   1.43539   1.45138   1.45680   1.47461
 Alpha virt. eigenvalues --    1.48464   1.49657   1.51217   1.52273   1.54636
 Alpha virt. eigenvalues --    1.55263   1.56741   1.57587   1.59675   1.61859
 Alpha virt. eigenvalues --    1.62065   1.62590   1.63846   1.64558   1.65988
 Alpha virt. eigenvalues --    1.67293   1.68397   1.70031   1.73154   1.76306
 Alpha virt. eigenvalues --    1.77961   1.79996   1.81030   1.85748   1.87823
 Alpha virt. eigenvalues --    1.89418   1.91900   1.93162   1.95202   1.97356
 Alpha virt. eigenvalues --    1.98308   1.98977   2.00733   2.02349   2.03531
 Alpha virt. eigenvalues --    2.04877   2.06552   2.07001   2.09474   2.10460
 Alpha virt. eigenvalues --    2.10968   2.11597   2.13794   2.15156   2.18172
 Alpha virt. eigenvalues --    2.19532   2.20841   2.22621   2.25533   2.26033
 Alpha virt. eigenvalues --    2.29036   2.29897   2.31876   2.32833   2.33987
 Alpha virt. eigenvalues --    2.35745   2.37195   2.38271   2.43132   2.44542
 Alpha virt. eigenvalues --    2.45466   2.49410   2.52532   2.55800   2.57550
 Alpha virt. eigenvalues --    2.61389   2.65577   2.66012   2.68442   2.68701
 Alpha virt. eigenvalues --    2.69627   2.71287   2.73073   2.76048   2.77444
 Alpha virt. eigenvalues --    2.78069   2.79603   2.80557   2.81795   2.83776
 Alpha virt. eigenvalues --    2.84746   2.85930   2.88254   2.90143   2.90610
 Alpha virt. eigenvalues --    2.94010   2.94953   2.95493   2.95955   2.98439
 Alpha virt. eigenvalues --    2.99965   3.02131   3.02874   3.05773   3.06240
 Alpha virt. eigenvalues --    3.06784   3.07726   3.09228   3.10460   3.11773
 Alpha virt. eigenvalues --    3.13341   3.15387   3.17078   3.18751   3.21548
 Alpha virt. eigenvalues --    3.22205   3.22449   3.24035   3.25372   3.26395
 Alpha virt. eigenvalues --    3.27090   3.28493   3.29804   3.31368   3.33462
 Alpha virt. eigenvalues --    3.34704   3.35304   3.36151   3.37679   3.39262
 Alpha virt. eigenvalues --    3.40823   3.41192   3.41926   3.43504   3.44062
 Alpha virt. eigenvalues --    3.46368   3.48230   3.49216   3.49457   3.50593
 Alpha virt. eigenvalues --    3.51301   3.54275   3.57920   3.60034   3.60736
 Alpha virt. eigenvalues --    3.61947   3.63161   3.63829   3.65904   3.68785
 Alpha virt. eigenvalues --    3.71130   3.71940   3.72597   3.73727   3.73844
 Alpha virt. eigenvalues --    3.75171   3.75515   3.76606   3.77638   3.79620
 Alpha virt. eigenvalues --    3.80007   3.81762   3.82633   3.83664   3.85133
 Alpha virt. eigenvalues --    3.86990   3.87861   3.90412   3.91533   3.92308
 Alpha virt. eigenvalues --    3.93948   3.96698   3.99500   4.01187   4.01599
 Alpha virt. eigenvalues --    4.03873   4.05090   4.05501   4.07306   4.07465
 Alpha virt. eigenvalues --    4.08643   4.09872   4.10012   4.12735   4.14301
 Alpha virt. eigenvalues --    4.15448   4.16373   4.16842   4.18646   4.19880
 Alpha virt. eigenvalues --    4.22424   4.22840   4.23788   4.25103   4.26272
 Alpha virt. eigenvalues --    4.28104   4.30315   4.31189   4.32631   4.34529
 Alpha virt. eigenvalues --    4.34936   4.36100   4.37672   4.39108   4.40577
 Alpha virt. eigenvalues --    4.42155   4.42890   4.44951   4.47873   4.48410
 Alpha virt. eigenvalues --    4.50733   4.52305   4.60603   4.61490   4.63906
 Alpha virt. eigenvalues --    4.65289   4.68564   4.70396   4.76195   4.77193
 Alpha virt. eigenvalues --    4.77912   4.79596   4.82899   4.84132   4.85241
 Alpha virt. eigenvalues --    4.87815   4.89533   4.90133   4.96000   4.96524
 Alpha virt. eigenvalues --    4.97641   4.97957   5.00877   5.02081   5.02427
 Alpha virt. eigenvalues --    5.06270   5.06897   5.08670   5.09642   5.10547
 Alpha virt. eigenvalues --    5.12474   5.15986   5.16995   5.20968   5.22063
 Alpha virt. eigenvalues --    5.23022   5.25523   5.29271   5.31345   5.31883
 Alpha virt. eigenvalues --    5.33862   5.36609   5.39981   5.41583   5.43236
 Alpha virt. eigenvalues --    5.43738   5.44333   5.45971   5.46617   5.51823
 Alpha virt. eigenvalues --    5.52174   5.55444   5.56128   5.56975   5.59677
 Alpha virt. eigenvalues --    5.60974   5.61225   5.62070   5.63798   5.67580
 Alpha virt. eigenvalues --    5.68971   5.70279   5.72045   5.73153   5.78170
 Alpha virt. eigenvalues --    5.78495   5.85505   5.86877   5.91285   5.96885
 Alpha virt. eigenvalues --    5.97908   6.00267   6.03182   6.08826   6.09339
 Alpha virt. eigenvalues --    6.13214   6.15874   6.20231   6.21879   6.30186
 Alpha virt. eigenvalues --    6.48626   6.54704   6.60623   6.61293   6.63754
 Alpha virt. eigenvalues --    6.66772   6.67374   6.69224   6.70211   6.73914
 Alpha virt. eigenvalues --    6.75074   6.75996   6.77741   6.78002   6.78812
 Alpha virt. eigenvalues --    6.80310   6.82005   6.83732   6.84471   6.87094
 Alpha virt. eigenvalues --    6.87906   6.89067   6.91784   6.95223   6.98759
 Alpha virt. eigenvalues --    7.02284   7.04710   7.06587   7.10280   7.13321
 Alpha virt. eigenvalues --    7.17370   7.21399   7.23552   7.28539   7.31717
 Alpha virt. eigenvalues --    7.35654   7.42716   7.46239   7.49399   7.52152
 Alpha virt. eigenvalues --    7.56324   7.61263   7.66165   7.67247   7.93969
 Alpha virt. eigenvalues --   12.37936  23.31466  23.39623  23.45655  23.51125
 Alpha virt. eigenvalues --   43.88995  43.97004  44.16604  44.18223  44.21948
 Alpha virt. eigenvalues --   44.34834
          Condensed to atoms (all electrons):
               1          2          3          4          5          6
     1  Si  11.550039   0.446200   0.475235  -0.014317   0.412907  -0.016536
     2  O    0.446200   7.861028  -0.025619  -0.001070  -0.014644   0.000450
     3  O    0.475235  -0.025619   7.663290   0.338449  -0.032885  -0.000656
     4  H   -0.014317  -0.001070   0.338449   0.499589   0.002351   0.000135
     5  O    0.412907  -0.014644  -0.032885   0.002351   7.725073   0.334910
     6  H   -0.016536   0.000450  -0.000656   0.000135   0.334910   0.485871
     7  O    0.403663  -0.018121  -0.025598  -0.000510  -0.013630   0.000850
     8  C    0.000287   0.000761  -0.000003  -0.000000  -0.001351   0.000191
     9  H   -0.001750   0.000063   0.000005  -0.000001   0.000075  -0.000015
    10  H    0.000433  -0.000012  -0.000000   0.000000   0.000011   0.000019
    11  C    0.000009  -0.000214  -0.000008  -0.000003  -0.004441  -0.000695
    12  H   -0.004662  -0.000123  -0.000134  -0.000007   0.002380   0.000376
    13  H   -0.000022  -0.000003  -0.000001   0.000000   0.000099  -0.000003
    14  O    0.019394  -0.003327  -0.000068   0.000014  -0.005439   0.000959
    15  H   -0.003717   0.000522   0.000002  -0.000005   0.003590  -0.000190
    16  O   -0.000034   0.000016  -0.000001   0.000001  -0.011625   0.000531
    17  H   -0.000829  -0.000010   0.000048  -0.000004   0.024525  -0.000231
    18  C   -0.028907  -0.059873   0.000134  -0.000214   0.000402  -0.000088
    19  H    0.006618   0.003953  -0.000111   0.000011  -0.000044   0.000007
    20  H   -0.005067   0.004273   0.000486   0.000176  -0.000073   0.000014
    21  C   -0.053477   0.263558  -0.002461  -0.000907  -0.000232   0.000028
    22  H   -0.001110  -0.033782   0.000030   0.000124  -0.000107   0.000004
    23  H   -0.003833  -0.038130  -0.000097  -0.000011   0.000323  -0.000008
               7          8          9         10         11         12
     1  Si   0.403663   0.000287  -0.001750   0.000433   0.000009  -0.004662
     2  O   -0.018121   0.000761   0.000063  -0.000012  -0.000214  -0.000123
     3  O   -0.025598  -0.000003   0.000005  -0.000000  -0.000008  -0.000134
     4  H   -0.000510  -0.000000  -0.000001   0.000000  -0.000003  -0.000007
     5  O   -0.013630  -0.001351   0.000075   0.000011  -0.004441   0.002380
     6  H    0.000850   0.000191  -0.000015   0.000019  -0.000695   0.000376
     7  O    7.906232   0.008917   0.001142   0.000097  -0.011442   0.009201
     8  C    0.008917   4.822602   0.392584   0.421532   0.277439  -0.067111
     9  H    0.001142   0.392584   0.639354  -0.029928  -0.028719  -0.000544
    10  H    0.000097   0.421532  -0.029928   0.596186  -0.037701   0.007996
    11  C   -0.011442   0.277439  -0.028719  -0.037701   4.749564   0.445057
    12  H    0.009201  -0.067111  -0.000544   0.007996   0.445057   0.607830
    13  H    0.000131  -0.036706   0.002993  -0.005766   0.416245  -0.023417
    14  O   -0.006930   0.228838  -0.041433  -0.034857  -0.047097   0.000522
    15  H    0.000070  -0.035867   0.012502  -0.006705  -0.012124   0.001502
    16  O    0.000085  -0.068265   0.005598   0.003781   0.254378  -0.044538
    17  H    0.000100   0.001863  -0.000641  -0.000812  -0.040873  -0.012304
    18  C    0.246924  -0.001777  -0.000855   0.000068   0.001023  -0.000305
    19  H   -0.038877  -0.000887  -0.000508  -0.000032   0.000521  -0.000607
    20  H   -0.037656   0.000033   0.000085   0.000002  -0.000063   0.000029
    21  C   -0.045453  -0.000943   0.000536   0.000095  -0.000970   0.000615
    22  H    0.003120   0.000121  -0.000083   0.000004  -0.000007  -0.000018
    23  H    0.004735  -0.002328  -0.000725  -0.000235   0.000995  -0.000008
              13         14         15         16         17         18
     1  Si  -0.000022   0.019394  -0.003717  -0.000034  -0.000829  -0.028907
     2  O   -0.000003  -0.003327   0.000522   0.000016  -0.000010  -0.059873
     3  O   -0.000001  -0.000068   0.000002  -0.000001   0.000048   0.000134
     4  H    0.000000   0.000014  -0.000005   0.000001  -0.000004  -0.000214
     5  O    0.000099  -0.005439   0.003590  -0.011625   0.024525   0.000402
     6  H   -0.000003   0.000959  -0.000190   0.000531  -0.000231  -0.000088
     7  O    0.000131  -0.006930   0.000070   0.000085   0.000100   0.246924
     8  C   -0.036706   0.228838  -0.035867  -0.068265   0.001863  -0.001777
     9  H    0.002993  -0.041433   0.012502   0.005598  -0.000641  -0.000855
    10  H   -0.005766  -0.034857  -0.006705   0.003781  -0.000812   0.000068
    11  C    0.416245  -0.047097  -0.012124   0.254378  -0.040873   0.001023
    12  H   -0.023417   0.000522   0.001502  -0.044538  -0.012304  -0.000305
    13  H    0.586225   0.004562   0.000739  -0.027652   0.006257   0.000053
    14  O    0.004562   7.951654   0.306237  -0.004115   0.001566   0.005217
    15  H    0.000739   0.306237   0.528312   0.024096   0.000387  -0.000170
    16  O   -0.027652  -0.004115   0.024096   7.917177   0.352978   0.000099
    17  H    0.006257   0.001566   0.000387   0.352978   0.459778  -0.000040
    18  C    0.000053   0.005217  -0.000170   0.000099  -0.000040   4.726901
    19  H   -0.000015   0.000153   0.000044  -0.000004  -0.000002   0.412234
    20  H    0.000004   0.000048  -0.000008   0.000002   0.000002   0.432027
    21  C    0.000015  -0.014903   0.000730  -0.000073   0.000003   0.294447
    22  H   -0.000001   0.000963  -0.000110  -0.000000  -0.000001  -0.016434
    23  H   -0.000010   0.013923  -0.001287  -0.000015   0.000021  -0.042853
              19         20         21         22         23
     1  Si   0.006618  -0.005067  -0.053477  -0.001110  -0.003833
     2  O    0.003953   0.004273   0.263558  -0.033782  -0.038130
     3  O   -0.000111   0.000486  -0.002461   0.000030  -0.000097
     4  H    0.000011   0.000176  -0.000907   0.000124  -0.000011
     5  O   -0.000044  -0.000073  -0.000232  -0.000107   0.000323
     6  H    0.000007   0.000014   0.000028   0.000004  -0.000008
     7  O   -0.038877  -0.037656  -0.045453   0.003120   0.004735
     8  C   -0.000887   0.000033  -0.000943   0.000121  -0.002328
     9  H   -0.000508   0.000085   0.000536  -0.000083  -0.000725
    10  H   -0.000032   0.000002   0.000095   0.000004  -0.000235
    11  C    0.000521  -0.000063  -0.000970  -0.000007   0.000995
    12  H   -0.000607   0.000029   0.000615  -0.000018  -0.000008
    13  H   -0.000015   0.000004   0.000015  -0.000001  -0.000010
    14  O    0.000153   0.000048  -0.014903   0.000963   0.013923
    15  H    0.000044  -0.000008   0.000730  -0.000110  -0.001287
    16  O   -0.000004   0.000002  -0.000073  -0.000000  -0.000015
    17  H   -0.000002   0.000002   0.000003  -0.000001   0.000021
    18  C    0.412234   0.432027   0.294447  -0.016434  -0.042853
    19  H    0.624527  -0.039937  -0.032614   0.006504  -0.010610
    20  H   -0.039937   0.607991  -0.036092  -0.014791   0.008526
    21  C   -0.032614  -0.036092   4.734618   0.406267   0.436645
    22  H    0.006504  -0.014791   0.406267   0.615082  -0.042438
    23  H   -0.010610   0.008526   0.436645  -0.042438   0.592094
 Mulliken charges:
               1
     1  Si   0.819477
     2  O   -0.385896
     3  O   -0.390034
     4  H    0.176198
     5  O   -0.422174
     6  H    0.194077
     7  O   -0.387049
     8  C    0.060069
     9  H    0.050266
    10  H    0.085822
    11  C    0.039126
    12  H    0.078270
    13  H    0.076273
    14  O   -0.375883
    15  H    0.181449
    16  O   -0.402420
    17  H    0.208217
    18  C    0.031989
    19  H    0.069677
    20  H    0.079989
    21  C    0.050568
    22  H    0.076661
    23  H    0.085327
 Sum of Mulliken charges =  -0.00000
 Mulliken charges with hydrogens summed into heavy atoms:
               1
     1  Si   0.819477
     2  O   -0.385896
     3  O   -0.213836
     5  O   -0.228097
     7  O   -0.387049
     8  C    0.196157
    11  C    0.193669
    14  O   -0.194433
    16  O   -0.194203
    18  C    0.181655
    21  C    0.212555
 Electronic spatial extent (au):  <R**2>=           2101.4916
 Charge=             -0.0000 electrons
 Dipole moment (field-independent basis, Debye):
    X=             -2.4394    Y=              0.9355    Z=              0.7389  Tot=              2.7151
 Quadrupole moment (field-independent basis, Debye-Ang):
   XX=            -70.2440   YY=            -65.7619   ZZ=            -73.8554
   XY=              2.1398   XZ=             -1.0644   YZ=              3.5778
 Traceless Quadrupole moment (field-independent basis, Debye-Ang):
   XX=             -0.2902   YY=              4.1919   ZZ=             -3.9016
   XY=              2.1398   XZ=             -1.0644   YZ=              3.5778
 Octapole moment (field-independent basis, Debye-Ang**2):
  XXX=            -57.7164  YYY=            -15.5378  ZZZ=             -8.0648  XYY=             -8.7972
  XXY=             16.3800  XXZ=             14.6637  XZZ=              7.5048  YZZ=             -4.9261
  YYZ=             -3.7873  XYZ=              0.6389
 Hexadecapole moment (field-independent basis, Debye-Ang**3):
 XXXX=          -1519.3471 YYYY=           -683.6703 ZZZZ=           -312.0495 XXXY=            102.9162
 XXXZ=            -12.1658 YYYX=            -19.5248 YYYZ=             24.3447 ZZZX=            -16.7246
 ZZZY=              2.5596 XXYY=           -395.6383 XXZZ=           -305.3909 YYZZ=           -170.6393
 XXYZ=             -5.2112 YYXZ=              2.8842 ZZXY=             -0.9007
 N-N= 8.569786082145D+02 E-N=-3.842506122228D+03  KE= 8.975468815958D+02
   1 Symmetry operations used in ECPInt.
 ECPInt:  NShTT=   19306 NPrTT=   52617 LenC2=   18213 LenP2D=   38357.
 LDataN:  DoStor=T MaxTD1= 7 Len=  274
 Calling FoFJK, ICntrl=      2127 FMM=F ISym2X=0 I1Cent= 0 IOpClX= 0 NMat=1 NMatS=1 NMatT=0.
 ***** Axes restored to original set *****
 -------------------------------------------------------------------
 Center     Atomic                   Forces (Hartrees/Bohr)
 Number     Number              X              Y              Z
 -------------------------------------------------------------------
      1       14           0.001304621    0.001299615    0.000380669
      2        8           0.000558327    0.000499590    0.000309165
      3        8           0.000656815    0.000767585   -0.000004744
      4        1          -0.000064335    0.000048882    0.000000785
      5        8           0.000654616    0.000071628   -0.000095179
      6        1           0.000010870    0.000143166   -0.000056153
      7        8           0.000171175    0.000846544    0.000020119
      8        6          -0.001098435   -0.000864858   -0.000283856
      9        1          -0.000091336   -0.000076834   -0.000044102
     10        1          -0.000035139    0.000045041   -0.000013837
     11        6          -0.000057661   -0.000564000    0.000077660
     12        1           0.000067665   -0.000059218   -0.000016844
     13        1           0.000004194   -0.000006422    0.000004279
     14        8          -0.000937975   -0.001778727   -0.000181879
     15        1          -0.000012945   -0.000046400    0.000012360
     16        8           0.000558041   -0.000251212    0.000343913
     17        1           0.000162134    0.000059402    0.000002248
     18        6          -0.001242761    0.000138955   -0.000562195
     19        1          -0.000426853   -0.000367869    0.000034056
     20        1           0.000421063   -0.000135181    0.000279049
     21        6          -0.000530913    0.000167829   -0.000230475
     22        1          -0.000038086   -0.000017006    0.000010851
     23        1          -0.000033081    0.000079488    0.000014111
 -------------------------------------------------------------------
 Cartesian Forces:  Max     0.001778727 RMS     0.000485588

 GradGradGradGradGradGradGradGradGradGradGradGradGradGradGradGradGradGrad
 Berny optimization.
 FormGI is forming the generalized inverse of G from B-inverse, IUseBI=4.
 Internal  Forces:  Max     0.012577260 RMS     0.002120452
 Search for a local minimum.
 Step number   1 out of a maximum of  120
 All quantities printed in internal units (Hartrees-Bohrs-Radians)
 Mixed Optimization -- RFO/linear search
 Second derivative matrix not updated -- first step.
 ITU=  0
     Eigenvalues ---    0.00230   0.00494   0.00737   0.01513   0.01515
     Eigenvalues ---    0.01547   0.02915   0.03125   0.03822   0.03893
     Eigenvalues ---    0.04318   0.04719   0.04898   0.04971   0.05102
     Eigenvalues ---    0.05687   0.05893   0.05970   0.06023   0.09630
     Eigenvalues ---    0.10507   0.10640   0.11264   0.11350   0.11480
     Eigenvalues ---    0.11666   0.12501   0.13846   0.13862   0.13952
     Eigenvalues ---    0.15761   0.16000   0.16000   0.16000   0.16000
     Eigenvalues ---    0.16349   0.21846   0.22048   0.22063   0.22296
     Eigenvalues ---    0.25000   0.27332   0.30315   0.34152   0.34448
     Eigenvalues ---    0.34500   0.34598   0.34715   0.34806   0.34956
     Eigenvalues ---    0.35007   0.39359   0.40255   0.42875   0.43456
     Eigenvalues ---    0.43471   0.44108   0.44347   0.45208   0.55304
     Eigenvalues ---    0.55800   0.56152   0.56853
 RFO step:  Lambda=-6.49830272D-03 EMin= 2.30000000D-03
 Linear search not attempted -- first point.
 Iteration  1 RMS(Cart)=  0.20096843 RMS(Int)=  0.02689720
 Iteration  2 RMS(Cart)=  0.21773190 RMS(Int)=  0.01370767
 Iteration  3 RMS(Cart)=  0.03136565 RMS(Int)=  0.00018113
 Iteration  4 RMS(Cart)=  0.00046844 RMS(Int)=  0.00006921
 Iteration  5 RMS(Cart)=  0.00000010 RMS(Int)=  0.00006921
 Variable       Old X    -DE/DX   Delta X   Delta X   Delta X     New X
                                 (Linear)    (Quad)   (Total)
    R1        3.09130  -0.00054   0.00000  -0.00125  -0.00124   3.09006
    R2        3.08735   0.00097   0.00000   0.00211   0.00211   3.08946
    R3        3.09742  -0.00066   0.00000  -0.00146  -0.00146   3.09596
    R4        3.09535  -0.00077   0.00000  -0.00156  -0.00155   3.09380
    R5        2.69191   0.00000   0.00000  -0.00021  -0.00021   2.69171
    R6        1.80221  -0.00007   0.00000  -0.00012  -0.00012   1.80210
    R7        1.80823   0.00014   0.00000   0.00025   0.00025   1.80848
    R8        3.77647   0.00223   0.00000   0.04479   0.04479   3.82126
    R9        2.69001  -0.00044   0.00000  -0.00098  -0.00099   2.68902
   R10        2.06141  -0.00002   0.00000  -0.00007  -0.00007   2.06134
   R11        2.07075   0.00001   0.00000   0.00003   0.00003   2.07078
   R12        2.87339   0.00151   0.00000   0.00489   0.00489   2.87828
   R13        2.67093  -0.00107   0.00000  -0.00243  -0.00243   2.66850
   R14        2.06494   0.00001   0.00000   0.00004   0.00004   2.06498
   R15        2.06332   0.00000   0.00000   0.00000   0.00000   2.06332
   R16        2.67111   0.00133   0.00000   0.00301   0.00301   2.67412
   R17        1.81128  -0.00003   0.00000  -0.00006  -0.00006   1.81122
   R18        1.81563   0.00338   0.00000   0.00604   0.00604   1.82167
   R19        2.05747   0.00052   0.00000   0.00145   0.00145   2.05892
   R20        2.06581   0.00049   0.00000   0.00140   0.00140   2.06721
   R21        2.91615   0.00018   0.00000   0.00071   0.00070   2.91686
   R22        2.05991  -0.00003   0.00000  -0.00009  -0.00009   2.05982
   R23        2.05664  -0.00003   0.00000  -0.00008  -0.00008   2.05656
    A1        1.94115  -0.00038   0.00000   0.00059   0.00058   1.94173
    A2        2.06233  -0.00041   0.00000  -0.00295  -0.00298   2.05935
    A3        1.72141   0.00080   0.00000   0.00246   0.00241   1.72382
    A4        1.76053   0.00149   0.00000   0.00840   0.00843   1.76896
    A5        2.00636   0.00048   0.00000   0.00475   0.00477   2.01114
    A6        1.98591  -0.00209   0.00000  -0.01350  -0.01351   1.97240
    A7        1.92811  -0.00075   0.00000  -0.00226  -0.00227   1.92584
    A8        2.06033   0.00008   0.00000   0.00046   0.00046   2.06079
    A9        1.95653  -0.00087   0.00000  -0.00599  -0.00598   1.95055
   A10        2.41770   0.00152   0.00000   0.00856   0.00856   2.42627
   A11        1.85515  -0.00065   0.00000  -0.00441  -0.00441   1.85074
   A12        1.90883  -0.00020   0.00000   0.00132   0.00130   1.91013
   A13        1.88931   0.00026   0.00000  -0.00241  -0.00243   1.88688
   A14        1.91674  -0.00058   0.00000  -0.00082  -0.00086   1.91587
   A15        1.86453  -0.00076   0.00000   0.00060   0.00056   1.86509
   A16        1.91483  -0.00090   0.00000  -0.00567  -0.00566   1.90917
   A17        1.92042  -0.00123   0.00000  -0.00687  -0.00684   1.91357
   A18        1.95633   0.00314   0.00000   0.01481   0.01480   1.97113
   A19        1.91481   0.00208   0.00000   0.02344   0.02325   1.93806
   A20        1.90825  -0.00325   0.00000  -0.02916  -0.02910   1.87915
   A21        1.93508   0.00214   0.00000   0.01043   0.01013   1.94521
   A22        1.88911   0.00022   0.00000  -0.00189  -0.00167   1.88744
   A23        1.93171  -0.00094   0.00000   0.00766   0.00722   1.93893
   A24        1.88393  -0.00040   0.00000  -0.01201  -0.01207   1.87186
   A25        1.87272  -0.00004   0.00000  -0.00023  -0.00023   1.87250
   A26        1.84735   0.01258   0.00000   0.07554   0.07554   1.92289
   A27        2.68260   0.01252   0.00000   0.04880   0.04880   2.73140
   A28        1.90422  -0.00003   0.00000  -0.00085  -0.00084   1.90339
   A29        1.89984   0.00007   0.00000   0.00045   0.00045   1.90029
   A30        1.88357  -0.00007   0.00000   0.00075   0.00072   1.88429
   A31        1.89279   0.00002   0.00000   0.00015   0.00015   1.89293
   A32        1.94351   0.00012   0.00000   0.00020   0.00020   1.94371
   A33        1.93928  -0.00011   0.00000  -0.00071  -0.00070   1.93859
   A34        1.87216   0.00036   0.00000   0.00199   0.00198   1.87413
   A35        1.89941   0.00001   0.00000   0.00096   0.00096   1.90037
   A36        1.89931  -0.00026   0.00000  -0.00200  -0.00200   1.89731
   A37        1.94117  -0.00002   0.00000  -0.00017  -0.00017   1.94100
   A38        1.93538  -0.00015   0.00000  -0.00067  -0.00067   1.93470
   A39        1.91518   0.00005   0.00000  -0.00007  -0.00007   1.91510
    D1        2.19603   0.00086   0.00000   0.01669   0.01669   2.21272
    D2       -2.06371   0.00226   0.00000   0.02628   0.02629  -2.03743
    D3        0.08221   0.00002   0.00000   0.00964   0.00964   0.09185
    D4       -0.71963  -0.00027   0.00000  -0.00142  -0.00141  -0.72104
    D5       -2.92164  -0.00051   0.00000  -0.00344  -0.00343  -2.92507
    D6        1.21754   0.00078   0.00000   0.00487   0.00485   1.22239
    D7       -1.98135  -0.00063   0.00000  -0.01037  -0.01034  -1.99169
    D8        1.57170  -0.00031   0.00000  -0.00153  -0.00151   1.57019
    D9        0.13731  -0.00022   0.00000  -0.00499  -0.00498   0.13233
   D10       -2.59282   0.00010   0.00000   0.00385   0.00386  -2.58897
   D11        2.29545   0.00025   0.00000  -0.00078  -0.00081   2.29463
   D12       -0.43469   0.00057   0.00000   0.00805   0.00802  -0.42666
   D13        0.20589  -0.00021   0.00000  -0.01383  -0.01384   0.19205
   D14       -1.85920  -0.00046   0.00000  -0.01804  -0.01806  -1.87726
   D15        2.40599  -0.00123   0.00000  -0.02264  -0.02263   2.38337
   D16       -0.31828   0.00016   0.00000  -0.00275  -0.00274  -0.32102
   D17       -2.42015  -0.00004   0.00000  -0.00423  -0.00423  -2.42438
   D18        1.77661   0.00005   0.00000  -0.00353  -0.00353   1.77308
   D19        0.05236  -0.00131   0.00000  -0.13203  -0.13204  -0.07967
   D20       -2.69287  -0.00094   0.00000  -0.12308  -0.12308  -2.81595
   D21       -2.51983   0.00031   0.00000   0.01357   0.01357  -2.50626
   D22        1.70084   0.00027   0.00000   0.01362   0.01361   1.71445
   D23       -0.40567   0.00040   0.00000   0.01377   0.01376  -0.39191
   D24        0.84809  -0.00044   0.00000  -0.02021  -0.02037   0.82772
   D25       -1.22111  -0.00000   0.00000  -0.01438  -0.01430  -1.23541
   D26        2.98701   0.00123   0.00000   0.01240   0.01249   2.99950
   D27        2.92265  -0.00102   0.00000  -0.02711  -0.02727   2.89538
   D28        0.85346  -0.00058   0.00000  -0.02129  -0.02121   0.83225
   D29       -1.22161   0.00065   0.00000   0.00549   0.00559  -1.21602
   D30       -1.22157  -0.00109   0.00000  -0.02978  -0.02996  -1.25152
   D31        2.99243  -0.00065   0.00000  -0.02395  -0.02389   2.96854
   D32        0.91736   0.00058   0.00000   0.00282   0.00290   0.92026
   D33       -3.08128  -0.00049   0.00000  -0.00557  -0.00558  -3.08686
   D34        1.15478   0.00028   0.00000   0.00059   0.00058   1.15536
   D35       -0.98101   0.00015   0.00000   0.00253   0.00255  -0.97846
   D36       -1.53053  -0.00643   0.00000  -0.22469  -0.22472  -1.75525
   D37        0.59855  -0.00296   0.00000  -0.18255  -0.18250   0.41605
   D38        2.66298  -0.00347   0.00000  -0.18771  -0.18773   2.47526
   D39        0.24755  -0.00536   0.00000  -0.24402  -0.24402   0.00353
   D40        0.46056  -0.00020   0.00000  -0.00666  -0.00666   0.45390
   D41        2.53570   0.00002   0.00000  -0.00437  -0.00437   2.53133
   D42       -1.61118  -0.00003   0.00000  -0.00506  -0.00506  -1.61624
   D43        2.55007  -0.00021   0.00000  -0.00710  -0.00711   2.54296
   D44       -1.65797   0.00001   0.00000  -0.00481  -0.00482  -1.66279
   D45        0.47833  -0.00004   0.00000  -0.00550  -0.00550   0.47282
   D46       -1.62108  -0.00018   0.00000  -0.00726  -0.00726  -1.62834
   D47        0.45406   0.00004   0.00000  -0.00497  -0.00497   0.44909
   D48        2.59036  -0.00001   0.00000  -0.00566  -0.00566   2.58471
         Item               Value     Threshold  Converged?
 Maximum Force            0.012577     0.000450     NO 
 RMS     Force            0.002120     0.000300     NO 
 Maximum Displacement     1.540108     0.001800     NO 
 RMS     Displacement     0.430949     0.001200     NO 
 Predicted change in Energy=-4.000352D-03
 GradGradGradGradGradGradGradGradGradGradGradGradGradGradGradGradGradGrad

                          Input orientation:                          
 ---------------------------------------------------------------------
 Center     Atomic      Atomic             Coordinates (Angstroms)
 Number     Number       Type             X           Y           Z
 ---------------------------------------------------------------------
      1         14           0        1.137529    0.965150    0.117071
      2          8           0        1.884596    0.000813   -0.971866
      3          8           0        1.995862    2.330135    0.387033
      4          1           0        2.943705    2.256813    0.462030
      5          8           0       -0.329015    1.579220   -0.278182
      6          1           0       -0.301636    2.531320   -0.370998
      7          8           0        1.075509   -0.080507    1.375274
      8          6           0       -2.642737   -1.810593   -0.370682
      9          1           0       -2.166728   -2.704347    0.034896
     10          1           0       -3.685823   -2.054939   -0.601039
     11          6           0       -2.601716   -0.691450    0.661664
     12          1           0       -1.603277   -0.593626    1.094827
     13          1           0       -3.295629   -0.953977    1.462743
     14          8           0       -1.957128   -1.486019   -1.561748
     15          1           0       -2.338318   -0.673171   -1.897319
     16          8           0       -3.040771    0.536261    0.111745
     17          1           0       -2.283996    1.090099   -0.111461
     18          6           0        1.886433   -1.214285    1.089298
     19          1           0        1.409069   -2.104927    1.496680
     20          1           0        2.857051   -1.087475    1.577648
     21          6           0        2.044661   -1.312031   -0.442992
     22          1           0        3.032718   -1.683695   -0.714521
     23          1           0        1.279337   -1.956518   -0.871100
 ---------------------------------------------------------------------
                    Distance matrix (angstroms):
                    1          2          3          4          5
     1  Si   0.000000
     2  O    1.635188   0.000000
     3  O    1.634869   2.699023   0.000000
     4  H    2.247145   2.875292   0.953628   0.000000
     5  O    1.638310   2.805822   2.532081   3.423118   0.000000
     6  H    2.182269   3.397664   2.427670   3.361774   0.957005
     7  O    1.637169   2.484009   2.763126   3.128456   2.731538
     8  C    4.715195   4.913182   6.263893   6.960283   4.105204
     9  H    4.938632   4.974403   6.541954   7.135270   4.671634
    10  H    5.735969   5.949218   7.244770   7.979471   4.957773
    11  C    4.125876   4.824379   5.508459   6.283613   3.347301
    12  H    3.301183   4.097540   4.690752   5.403747   2.868826
    13  H    5.014656   5.802902   6.320002   7.088010   4.271850
    14  O    4.289938   4.161427   5.829829   6.490195   3.700539
    15  H    4.338591   4.375353   5.746583   6.484681   3.425225
    16  O    4.200258   5.071504   5.353638   6.236742   2.931455
    17  H    3.431424   4.393631   4.483678   5.386925   2.022124
    18  C    2.501203   2.392669   3.614978   3.682365   3.818623
    19  H    3.376748   3.279327   4.609275   4.738184   4.443423
    20  H    3.050132   2.937696   3.720117   3.526525   4.550426
    21  C    2.514381   1.424391   3.735866   3.789986   3.744440
    22  H    3.361498   2.054746   4.289443   4.113368   4.705131
    23  H    3.087513   2.051253   4.524567   4.722237   3.929350
                    6          7          8          9         10
     6  H    0.000000
     7  O    3.430399   0.000000
     8  C    4.932846   4.457232   0.000000
     9  H    5.572749   4.381011   1.090814   0.000000
    10  H    5.704333   5.520369   1.095809   1.770252   0.000000
    11  C    4.091822   3.795322   1.523123   2.152628   2.151467
    12  H    3.688930   2.741867   2.170070   2.428184   3.057514
    13  H    4.947110   4.458413   2.126383   2.525265   2.371405
    14  O    4.505281   4.449545   1.412107   2.019289   2.057916
    15  H    4.092248   4.766060   1.927958   2.808661   2.324951
    16  O    3.422888   4.349790   2.428763   3.357290   2.763778
    17  H    2.464595   3.855772   2.934264   3.799078   3.477940
    18  C    4.577081   1.422966   4.795884   4.445240   5.883364
    19  H    5.282946   2.055304   4.471107   3.909276   5.510067
    20  H    5.183647   2.056412   5.879333   5.498428   6.963609
    21  C    4.503515   2.400416   4.714392   4.461246   5.780600
    22  H    5.385376   3.281482   5.687277   5.351411   6.729747
    23  H    4.784378   2.933796   3.956561   3.640802   4.973473
                   11         12         13         14         15
    11  C    0.000000
    12  H    1.092740   0.000000
    13  H    1.091862   1.768974   0.000000
    14  O    2.447528   2.824707   3.349955   0.000000
    15  H    2.572568   3.082134   3.505041   0.958455   0.000000
    16  O    1.415081   2.075930   2.027550   2.839802   2.447958
    17  H    1.967888   2.180239   2.771239   2.974317   2.510251
    18  C    4.538689   3.544477   5.202017   4.677055   5.202038
    19  H    4.333769   3.394074   4.843554   4.590023   5.254718
    20  H    5.549233   4.513482   6.155200   5.761159   6.264095
    21  C    4.816036   4.023486   5.681437   4.158870   4.661943
    22  H    5.884325   5.094550   6.732083   5.065119   5.591797
    23  H    4.360313   3.745905   5.232802   3.342614   3.973352
                   16         17         18         19         20
    16  O    0.000000
    17  H    0.963984   0.000000
    18  C    5.319526   4.913703   0.000000
    19  H    5.356770   5.141306   1.089532   0.000000
    20  H    6.290444   5.833119   1.093922   1.771557   0.000000
    21  C    5.439258   4.961594   1.543535   2.189746   2.189380
    22  H    6.519063   6.027028   2.188168   2.775443   2.374947
    23  H    5.083627   4.749344   2.182346   2.375971   3.039866
                   21         22         23
    21  C    0.000000
    22  H    1.090009   0.000000
    23  H    1.088284   1.781375   0.000000
 Stoichiometry    C4H12O6Si
 Framework group  C1[X(C4H12O6Si)]
 Deg. of freedom    63
 Full point group                 C1      NOp   1
 Largest Abelian subgroup         C1      NOp   1
 Largest concise Abelian subgroup C1      NOp   1
                         Standard orientation:                         
 ---------------------------------------------------------------------
 Center     Atomic      Atomic             Coordinates (Angstroms)
 Number     Number       Type             X           Y           Z
 ---------------------------------------------------------------------
      1         14           0       -1.376007   -0.585633   -0.096619
      2          8           0       -1.671760    0.648315   -1.127998
      3          8           0       -2.630990   -1.632338   -0.049468
      4          1           0       -3.514562   -1.273640   -0.042882
      5          8           0       -0.129375   -1.591987   -0.438990
      6          1           0       -0.432772   -2.477347   -0.638856
      7          8           0       -1.140156    0.283153    1.270826
      8          6           0        3.095927    0.903863    0.030972
      9          1           0        2.870549    1.865519    0.493895
     10          1           0        4.182821    0.828820   -0.086612
     11          6           0        2.604955   -0.226495    0.926036
     12          1           0        1.582229   -0.043063    1.264363
     13          1           0        3.252900   -0.259032    1.804257
     14          8           0        2.480136    0.906645   -1.239791
     15          1           0        2.632459    0.045465   -1.631968
     16          8           0        2.710355   -1.481124    0.280088
     17          1           0        1.851081   -1.751588   -0.063080
     18          6           0       -1.533787    1.632406    1.048558
     19          1           0       -0.857616    2.293893    1.589212
     20          1           0       -2.545021    1.775257    1.440558
     21          6           0       -1.484953    1.898315   -0.471116
     22          1           0       -2.278200    2.580058   -0.777882
     23          1           0       -0.518309    2.304671   -0.762381
 ---------------------------------------------------------------------
 Rotational constants (GHZ):           1.3100933           0.5699306           0.4852180
 Standard basis: def2TZVPP (5D, 7F)
 There are   588 symmetry adapted cartesian basis functions of A   symmetry.
 There are   520 symmetry adapted basis functions of A   symmetry.
   520 basis functions,   783 primitive gaussians,   588 cartesian basis functions
    49 alpha electrons       49 beta electrons
       nuclear repulsion energy       820.9604926966 Hartrees.
 NAtoms=   23 NActive=   23 NUniq=   23 SFac= 1.00D+00 NAtFMM=   60 NAOKFM=F Big=F
 Integral buffers will be    131072 words long.
 Raffenetti 2 integral format.
 Two-electron integral symmetry is turned on.
 Nuclear repulsion after empirical dispersion term =      820.9481079983 Hartrees.
 One-electron integrals computed using PRISM.
   1 Symmetry operations used in ECPInt.
 ECPInt:  NShTT=   19306 NPrTT=   52617 LenC2=   17835 LenP2D=   37031.
 LDataN:  DoStor=T MaxTD1= 6 Len=  172
 NBasis=   520 RedAO= T EigKep=  2.66D-04  NBF=   520
 NBsUse=   520 1.00D-06 EigRej= -1.00D+00 NBFU=   520
 Initial guess from the checkpoint file:  "IRC_potentialSN1likeCollapseQbiLWithLattacking_forward_ReactantOpt.chk"
 B after Tr=     0.000000    0.000000   -0.000000
         Rot=    0.997274   -0.012767    0.039938    0.060714 Ang=  -8.46 deg.
 ExpMin= 7.01D-02 ExpMax= 4.48D+04 ExpMxC= 1.53D+03 IAcc=3 IRadAn=         5 AccDes= 0.00D+00
 Harris functional with IExCor= 4639 and IRadAn=       5 diagonalized for initial guess.
 HarFok:  IExCor= 4639 AccDes= 0.00D+00 IRadAn=         5 IDoV= 1 UseB2=F ITyADJ=14
 ICtDFT=  3500011 ScaDFX=  1.000000  1.000000  1.000000  1.000000
 FoFCou: FMM=F IPFlag=           0 FMFlag=      100000 FMFlg1=           0
         NFxFlg=           0 DoJE=T BraDBF=F KetDBF=T FulRan=T
         wScrn=  0.000000 ICntrl=       500 IOpCl=  0 I1Cent=   200000004 NGrid=           0
         NMat0=    1 NMatS0=      1 NMatT0=    0 NMatD0=    1 NMtDS0=    0 NMtDT0=    0
 Petite list used in FoFCou.
 Requested convergence on RMS density matrix=1.00D-08 within 128 cycles.
 Requested convergence on MAX density matrix=1.00D-06.
 Requested convergence on             energy=1.00D-06.
 No special actions if energy rises.
 Integral accuracy reduced to 1.0D-05 until final iterations.
 Initial convergence to 1.0D-05 achieved.  Increase integral accuracy.
 SCF Done:  E(RwB97XD) =  -900.748347509     A.U. after   14 cycles
            NFock= 14  Conv=0.33D-08     -V/T= 2.0036
   1 Symmetry operations used in ECPInt.
 ECPInt:  NShTT=   19306 NPrTT=   52617 LenC2=   17835 LenP2D=   37031.
 LDataN:  DoStor=T MaxTD1= 7 Len=  274
 Calling FoFJK, ICntrl=      2127 FMM=F ISym2X=0 I1Cent= 0 IOpClX= 0 NMat=1 NMatS=1 NMatT=0.
 ***** Axes restored to original set *****
 -------------------------------------------------------------------
 Center     Atomic                   Forces (Hartrees/Bohr)
 Number     Number              X              Y              Z
 -------------------------------------------------------------------
      1       14           0.002364219    0.010804304    0.000492934
      2        8          -0.000421928   -0.001149183    0.000992854
      3        8          -0.000380919   -0.001326515   -0.000255891
      4        1           0.000175805    0.000248964   -0.000020472
      5        8           0.002311155   -0.003281849    0.000827764
      6        1          -0.001014792   -0.000070043   -0.000423319
      7        8          -0.002512697   -0.001827244   -0.002996862
      8        6          -0.000774687    0.002903722   -0.003695653
      9        1          -0.000396927   -0.000267572    0.000401822
     10        1          -0.000651539   -0.000198258    0.001043655
     11        6          -0.001102544    0.001964429   -0.001231296
     12        1           0.000863711    0.000352139   -0.001164570
     13        1           0.000884278    0.000090070    0.002332271
     14        8           0.003380672   -0.000580790    0.001926453
     15        1           0.000196110    0.000455307    0.001536336
     16        8          -0.001068992    0.001494833   -0.003098414
     17        1           0.000902680   -0.008006809    0.003268690
     18        6           0.000695168   -0.001117257    0.001022428
     19        1           0.000157287    0.000064318    0.000056094
     20        1          -0.000234376   -0.000069891   -0.000096833
     21        6          -0.001435962    0.001819826    0.000890663
     22        1          -0.000987911   -0.000804083   -0.000416048
     23        1          -0.000947813   -0.001498419   -0.001392608
 -------------------------------------------------------------------
 Cartesian Forces:  Max     0.010804304 RMS     0.002173726

 GradGradGradGradGradGradGradGradGradGradGradGradGradGradGradGradGradGrad
 Berny optimization.
 Using GEDIIS/GDIIS optimizer.
 FormGI is forming the generalized inverse of G from B-inverse, IUseBI=4.
 Internal  Forces:  Max     0.007900530 RMS     0.002304315
 Search for a local minimum.
 Step number   2 out of a maximum of  120
 All quantities printed in internal units (Hartrees-Bohrs-Radians)
 Mixed Optimization -- RFO/linear search
 Update second derivatives using D2CorX and points    2    1
 DE=  3.05D-03 DEPred=-4.00D-03 R=-7.63D-01
 Trust test=-7.63D-01 RLast= 4.80D-01 DXMaxT set to 1.50D-01
 ITU= -1  0
 Use linear search instead of GDIIS.
     Eigenvalues ---    0.00257   0.00494   0.00735   0.01431   0.01516
     Eigenvalues ---    0.02662   0.02940   0.03189   0.03828   0.03893
     Eigenvalues ---    0.04345   0.04715   0.04825   0.04895   0.05258
     Eigenvalues ---    0.05699   0.05893   0.06025   0.06040   0.09498
     Eigenvalues ---    0.10510   0.10624   0.11272   0.11353   0.11547
     Eigenvalues ---    0.11756   0.12410   0.13771   0.13976   0.14109
     Eigenvalues ---    0.15353   0.15785   0.16000   0.16000   0.16349
     Eigenvalues ---    0.18935   0.21557   0.22056   0.22245   0.23159
     Eigenvalues ---    0.24320   0.27365   0.30487   0.34154   0.34448
     Eigenvalues ---    0.34502   0.34616   0.34715   0.34809   0.34953
     Eigenvalues ---    0.35082   0.39369   0.40270   0.42861   0.43444
     Eigenvalues ---    0.43569   0.44114   0.44693   0.45264   0.55791
     Eigenvalues ---    0.55845   0.56152   0.56854
 RFO step:  Lambda=-3.08515446D-03 EMin= 2.57053795D-03
 Quartic linear search produced a step of -0.77907.
 Iteration  1 RMS(Cart)=  0.18610586 RMS(Int)=  0.05037198
 Iteration  2 RMS(Cart)=  0.20952957 RMS(Int)=  0.02939365
 Iteration  3 RMS(Cart)=  0.17596194 RMS(Int)=  0.00836856
 Iteration  4 RMS(Cart)=  0.01716957 RMS(Int)=  0.00007052
 Iteration  5 RMS(Cart)=  0.00011651 RMS(Int)=  0.00005538
 Iteration  6 RMS(Cart)=  0.00000001 RMS(Int)=  0.00005538
 Variable       Old X    -DE/DX   Delta X   Delta X   Delta X     New X
                                 (Linear)    (Quad)   (Total)
    R1        3.09006  -0.00054   0.00097  -0.00132  -0.00033   3.08973
    R2        3.08946  -0.00105  -0.00164   0.00210   0.00046   3.08992
    R3        3.09596  -0.00551   0.00114  -0.00471  -0.00357   3.09238
    R4        3.09380  -0.00027   0.00121  -0.00171  -0.00048   3.09333
    R5        2.69171   0.00041   0.00016  -0.00014   0.00001   2.69172
    R6        1.80210   0.00015   0.00009  -0.00009   0.00001   1.80210
    R7        1.80848  -0.00006  -0.00020   0.00029   0.00010   1.80858
    R8        3.82126  -0.00162  -0.03489   0.03390  -0.00099   3.82027
    R9        2.68902   0.00032   0.00077  -0.00139  -0.00062   2.68839
   R10        2.06134   0.00020   0.00005   0.00005   0.00010   2.06144
   R11        2.07078   0.00044  -0.00002   0.00034   0.00031   2.07109
   R12        2.87828  -0.00257  -0.00381   0.00410   0.00029   2.87857
   R13        2.66850  -0.00121   0.00189  -0.00369  -0.00180   2.66670
   R14        2.06498   0.00036  -0.00003   0.00029   0.00026   2.06524
   R15        2.06332   0.00113  -0.00000   0.00076   0.00075   2.06408
   R16        2.67412  -0.00290  -0.00234   0.00222  -0.00012   2.67400
   R17        1.81122  -0.00023   0.00005  -0.00017  -0.00012   1.81110
   R18        1.82167  -0.00506  -0.00470   0.00549   0.00079   1.82245
   R19        2.05892  -0.00010  -0.00113   0.00173   0.00061   2.05952
   R20        2.06721  -0.00026  -0.00109   0.00157   0.00048   2.06769
   R21        2.91686   0.00045  -0.00055   0.00033  -0.00024   2.91662
   R22        2.05982  -0.00052   0.00007  -0.00046  -0.00039   2.05943
   R23        2.05656   0.00210   0.00006   0.00129   0.00135   2.05791
    A1        1.94173   0.00115  -0.00046   0.00479   0.00436   1.94609
    A2        2.05935  -0.00359   0.00232  -0.01058  -0.00834   2.05101
    A3        1.72382  -0.00015  -0.00188   0.00090  -0.00101   1.72281
    A4        1.76896   0.00479  -0.00656   0.01784   0.01132   1.78027
    A5        2.01114   0.00182  -0.00372   0.01017   0.00646   2.01759
    A6        1.97240  -0.00427   0.01053  -0.02377  -0.01331   1.95909
    A7        1.92584  -0.00024   0.00177  -0.00300  -0.00120   1.92464
    A8        2.06079   0.00046  -0.00036   0.00121   0.00085   2.06164
    A9        1.95055   0.00485   0.00466   0.00072   0.00539   1.95593
   A10        2.42627  -0.00733  -0.00667   0.00038  -0.00629   2.41998
   A11        1.85074   0.00227   0.00343  -0.00140   0.00203   1.85277
   A12        1.91013   0.00082  -0.00101   0.00178   0.00082   1.91095
   A13        1.88688  -0.00052   0.00189  -0.00235  -0.00044   1.88643
   A14        1.91587   0.00103   0.00067  -0.00244  -0.00173   1.91414
   A15        1.86509   0.00031  -0.00044  -0.00330  -0.00371   1.86139
   A16        1.90917   0.00020   0.00441  -0.00519  -0.00080   1.90838
   A17        1.91357   0.00368   0.00533  -0.00022   0.00509   1.91866
   A18        1.97113  -0.00456  -0.01153   0.01299   0.00146   1.97259
   A19        1.93806  -0.00205  -0.01811   0.01983   0.00187   1.93992
   A20        1.87915   0.00341   0.02267  -0.02506  -0.00244   1.87671
   A21        1.94521  -0.00155  -0.00789   0.01056   0.00290   1.94811
   A22        1.88744  -0.00054   0.00130  -0.00204  -0.00090   1.88654
   A23        1.93893   0.00124  -0.00562   0.00401  -0.00127   1.93766
   A24        1.87186  -0.00033   0.00941  -0.00986  -0.00041   1.87145
[...]
 0.00025757,-0.00004108,0.00025305,0.00004096,0.00002051,-0.00005485,-0
 .00049332,-0.00009493,0.00055895,0.06582925,-0.03164253,-0.10918031,0.
 03105855,-0.01850108,-0.01363228,-0.00476828,0.00582414,0.01341794,0.0
 1831302,-0.00995736,-0.00867932,0.00060862,0.00220437,0.00041299,-0.00
 041993,-0.00383359,0.00123348,-0.19695806,-0.19224180,0.43882499,0.001
 37834,-0.00188047,-0.00094925,0.00049601,0.00225324,0.00099443,-0.0000
 6841,0.00050816,0.00025814,-0.00009697,-0.00010293,-0.00008959,-0.0009
 0790,0.00029301,-0.00007085,0.00004045,-0.00005328,0.00000390,-0.00044
 892,0.00099766,0.00060951,-0.01571862,-0.01691120,0.03528553,-0.004314
 23,0.00299167,0.00130260,-0.00026796,-0.00096691,0.00016407,0.00139300
 ,0.00022413,0.00110920,0.00000314,-0.00005363,-0.00028727,-0.00012297,
 -0.00036408,-0.00008111,-0.05844961,-0.03996399,0.08973499,0.07946728,
 -0.00115635,-0.00017587,-0.00063700,0.00040525,0.00014623,0.00011569,0
 .00034978,0.00018545,0.00018639,-0.00005631,-0.00002962,-0.00002055,0.
 00067276,0.00042761,0.00029704,0.00004561,-0.00009087,0.00002332,0.000
 40531,-0.00038990,0.00021287,0.00899920,0.01062870,-0.01783547,0.00277
 417,-0.00147717,-0.00261287,0.00094374,-0.00023400,0.00025971,0.003122
 00,0.00063934,-0.00552525,-0.00013358,-0.00030267,0.00038878,-0.000594
 27,-0.00018833,0.00101186,-0.06947765,-0.19231926,0.24519673,0.0568540
 6,0.18166100,-0.00050681,-0.00085577,0.00046086,0.00016662,0.00014895,
 -0.00039966,0.00018551,0.00024626,-0.00000764,-0.00005293,-0.00004131,
 0.00000362,0.00007100,0.00027363,-0.00013200,0.00001265,-0.00004404,0.
 00003960,0.00038019,0.00061284,-0.00007078,0.00826766,0.01044627,-0.01
 875997,0.00323445,-0.00230412,0.00025305,-0.00111792,0.00034575,0.0013
 1760,0.00005720,0.00105300,-0.00076745,-0.00000795,-0.00032804,-0.0003
 3792,-0.00013374,0.00094838,-0.00004193,0.11758317,0.21220217,-0.32595
 861,-0.12590958,-0.22356746,0.34437066,0.00482436,0.00138606,0.0030107
 4,-0.00084111,-0.00020754,-0.00039196,-0.00124603,-0.00073849,-0.00073
 451,0.00015703,0.00013528,0.00008817,-0.00220050,-0.00685919,-0.001786
 01,-0.00170547,0.00035536,-0.00088192,-0.00086399,0.00069897,-0.001656
 30,-0.00498844,-0.00803087,0.01836111,0.00059654,-0.00330126,-0.000711
 99,0.00051430,0.00174966,0.00061838,-0.08220092,-0.03009097,0.04324322
 ,0.01237800,0.00817669,-0.01634027,-0.00361517,-0.01655327,0.03044203,
 0.00414248,0.00171617,-0.00188372,-0.00179998,-0.00068056,-0.00160311,
 0.19385256,0.00717486,-0.00707230,0.00246712,-0.00073619,0.00282674,0.
 00020144,-0.00210664,0.00045762,-0.00078906,-0.00002742,-0.00011031,-0
 .00006662,-0.00897970,-0.00355361,-0.00319290,-0.00094358,0.00075441,-
 0.00041773,-0.00020267,0.00299035,-0.00081084,-0.01320677,-0.02927835,
 0.04439583,-0.00105453,-0.00829429,-0.00220233,0.00062270,0.00313676,-
 0.00038588,-0.02576322,-0.10807302,0.06481873,0.00007961,-0.00073861,0
 .00793496,-0.00429276,0.00869177,-0.00418884,-0.00191386,-0.00025211,0
 .00282735,-0.00097949,0.00154282,0.00129890,0.25520440,0.52161013,-0.0
 0076561,0.00128004,-0.00356119,0.00032386,-0.00002126,0.00137778,0.000
 22752,-0.00008595,0.00054543,0.00002573,0.00001996,-0.00012015,0.00035
 706,-0.00131191,0.00307265,-0.00056680,-0.00015305,-0.00039793,-0.0010
 9411,-0.00074459,0.00161370,0.00435287,0.00595713,-0.00284725,-0.00015
 182,-0.00168202,0.00112611,0.00048430,0.00068602,0.00189813,0.02053163
 ,0.02992238,-0.20867891,0.01197427,0.01959220,-0.03544951,0.01299056,0
 .01295921,-0.02522566,-0.00186350,-0.00103977,0.00344664,-0.00054635,0
 .00164827,-0.00003077,-0.01198475,0.00172604,0.33318470,-0.01033880,0.
 00225395,-0.00406481,0.00145080,-0.00182279,-0.00025582,0.00206977,0.0
 0032001,0.00083706,-0.00008897,-0.00004511,-0.00001131,-0.00125351,0.0
 0249316,0.00075403,0.00251042,-0.00054392,0.00125102,0.00096248,-0.002
 23680,0.00097591,-0.00026803,0.00084721,0.00068267,0.00032735,0.000236
 15,-0.00015888,0.00008849,0.00017341,0.00010072,-0.00623747,-0.0085988
 2,0.00011293,0.00160468,0.00126687,-0.00085933,-0.00021200,-0.00081647
 ,-0.00037104,-0.00034832,0.00163033,-0.00076356,0.00095375,-0.00146100
 ,-0.00018716,-0.11686552,-0.20217490,-0.03482717,0.12589670,-0.0072982
 0,0.01098981,-0.00145362,0.00060827,-0.00289140,-0.00058849,0.00268571
 ,-0.00070482,0.00084359,0.00009757,0.00018447,0.00014339,0.00661024,-0
 .00553208,0.00219753,-0.00008039,-0.00149069,-0.00021427,-0.00080099,-
 0.00296550,-0.00015369,-0.00026064,-0.00189504,0.00262356,-0.00013526,
 -0.00038189,-0.00039811,0.00010474,0.00025397,0.00021359,-0.00751040,-
 0.01547823,-0.00141255,0.00068150,0.00153378,-0.00248575,0.00092479,0.
 00093770,-0.00152797,-0.00082111,0.00126235,0.00071009,-0.00001858,-0.
 00037726,-0.00031173,-0.20212684,-0.38219238,-0.06850627,0.20609000,0.
 39807192,-0.00435005,0.00131829,0.00144291,0.00013498,-0.00059697,-0.0
 0101225,0.00092764,0.00005035,0.00013009,-0.00004080,-0.00000902,0.000
 12137,0.00063593,0.00079444,-0.00376675,0.00140879,0.00002321,0.000538
 44,0.00121522,-0.00101258,-0.00030418,0.00232428,0.00214308,-0.0075265
 2,0.00034907,0.00184670,0.00057061,0.00012894,-0.00026109,0.00000858,0
 .01971278,0.03781584,0.00318210,-0.00067635,0.00080936,0.00013260,0.00
 102092,0.00024214,-0.00058479,-0.00030424,-0.00084789,0.00070769,-0.00
 066301,0.00055658,-0.00006411,-0.05818570,-0.11336288,-0.06895095,0.03
 634735,0.07009024,0.07491475,0.00362466,0.00613144,-0.00710164,-0.0031
 8853,-0.01143502,0.01725510,-0.00347030,-0.00443460,0.00191579,0.00054
 255,-0.00046414,0.00009225,0.00099443,0.00017191,0.00051106,-0.0001880
 2,0.00041507,-0.00045140,-0.08133666,0.04323192,0.02268817,0.00010788,
 -0.00064094,-0.00036904,-0.00006927,0.00001350,0.00002070,-0.00002670,
 0.00015736,0.00017402,-0.00060581,-0.00000719,-0.00047866,-0.00116954,
 0.00037118,0.00054169,0.00032131,0.00001527,0.00019216,-0.00092095,-0.
 00004506,-0.00006188,0.00013391,-0.00012282,-0.00053764,0.00076340,-0.
 00013363,0.00073912,-0.00046931,0.00032676,-0.00038800,0.59652376,-0.0
 0434305,-0.05121157,0.02171883,-0.00251838,-0.04179999,0.01935654,0.00
 172732,0.00355435,-0.00150715,-0.00084168,-0.00036809,0.00022611,-0.00
 148377,0.00345775,-0.00307169,0.00000973,-0.00009378,0.00006388,0.0395
 8446,-0.16726702,-0.04158841,-0.00228600,0.00139091,0.00065473,-0.0000
 0008,-0.00009429,-0.00006492,0.00034088,-0.00043953,-0.00010993,0.0004
 3552,0.00017754,-0.00001398,0.00043513,0.00085603,-0.00024901,-0.00010
 098,-0.00021951,-0.00001630,0.00355596,-0.00002448,0.00043405,-0.00084
 093,0.00038288,-0.00064274,-0.00105034,-0.00116646,-0.00017493,0.00123
 973,0.00022253,0.00075749,0.05182443,0.56168893,-0.00616145,0.00025733
 ,0.01595837,0.01053487,0.00574950,-0.01252723,0.00174788,0.00189690,-0
 .00165880,-0.00028299,-0.00014566,0.00026785,-0.00142692,0.00451000,-0
 .00359665,-0.00030257,0.00018152,-0.00080926,0.02090303,-0.05808371,-0
 .09459423,-0.00072364,0.00049815,0.00005404,0.00003957,-0.00001131,-0.
 00003674,0.00005209,-0.00015409,-0.00004069,-0.00001441,-0.00018098,0.
 00079133,0.00033591,0.00026588,-0.00020236,-0.00005336,-0.00006215,-0.
 00016837,0.00023673,-0.00052337,-0.00026246,-0.00060000,-0.00003256,-0
 .00002551,0.00053846,-0.00053791,-0.00053926,0.00032464,0.00053328,0.0
 0049344,0.05465725,-0.05063635,0.44909647,-0.00011367,0.00060772,0.001
 68407,0.00109288,0.00073751,-0.00024385,0.00049463,0.00072017,-0.00028
 530,-0.00007288,0.00010587,-0.00000442,-0.00036503,0.00014047,-0.00028
 903,-0.00001187,-0.00001834,-0.00002635,0.01251401,0.01742904,-0.00004
 448,-0.00092071,0.00013748,0.00026541,0.00002344,-0.00003179,-0.000063
 21,0.00019590,-0.00004684,0.00000756,-0.00016025,0.00020248,-0.0004389
 9,0.00000869,0.00031698,0.00036359,0.00013977,-0.00007649,0.00009077,-
 0.00075490,-0.00021193,-0.00004361,0.00008382,-0.00006758,-0.00039939,
 -0.00006871,-0.00029437,0.00021424,0.00013604,0.00018127,0.00000889,-0
 .18669454,-0.14096790,0.01939755,0.19152714,-0.00005644,0.00071046,-0.
 00415421,-0.00051589,0.00103923,0.00121016,-0.00077905,-0.00138280,0.0
 0043856,0.00017555,-0.00006801,0.00002266,0.00058125,-0.00039053,0.000
 45568,-0.00000201,0.00005875,0.00003455,-0.01125363,-0.03206115,-0.002
 83284,0.00022249,0.00012949,0.00023883,-0.00001200,0.00001807,0.000003
 45,0.00004985,-0.00005982,-0.00006390,0.00037470,0.00013535,0.00048784
 ,0.00013051,-0.00032826,-0.00026709,-0.00016495,-0.00002838,-0.0001163
 2,-0.00128215,-0.00111586,-0.00068747,0.00036472,0.00017224,0.00032955
 ,-0.00012820,0.00025038,-0.00020768,-0.00013298,-0.00027991,-0.0000461
 2,-0.12865552,-0.18257062,0.02075820,0.14053580,0.20998386,0.00160219,
 -0.00057586,-0.00515875,0.00084461,0.00622481,-0.00453520,-0.00045859,
 -0.00038189,0.00074509,-0.00000373,-0.00002411,-0.00009207,-0.00021791
 ,-0.00006369,0.00040895,0.00001350,-0.00001265,0.00000846,-0.00768921,
 -0.02148351,0.00144141,-0.00066185,0.00048491,0.00086694,0.00013427,0.
 00002407,-0.00011134,0.00027715,-0.00013479,-0.00011551,0.00004446,0.0
 0009657,0.00024198,-0.00003095,-0.00015143,0.00000403,-0.00000352,-0.0
 0009853,-0.00004293,0.00133804,0.00003157,-0.00070268,-0.00075558,0.00
 005891,-0.00075449,0.00008353,-0.00019016,-0.00016225,0.00009057,0.000
 10675,-0.00002982,0.01894335,0.02379242,-0.05541207,-0.02156001,-0.018
 73004,0.05871231,-0.00234531,-0.00313423,0.00273789,0.00045707,0.00080
 370,-0.00081584,0.00052019,0.00067856,-0.00003728,-0.00014051,0.000060
 84,-0.00003505,-0.00018764,0.00085871,-0.00038894,-0.00002712,-0.00006
 757,-0.00011059,-0.00536362,0.01585116,0.00178336,0.00035387,-0.000065
 93,-0.00020476,-0.00001734,-0.00000418,0.00004037,-0.00009690,0.000012
 27,-0.00000675,0.00022392,0.00000423,0.00013716,0.00016313,0.00001306,
 -0.00012254,-0.00008603,0.00002440,-0.00003369,-0.00083163,-0.00039007
 ,-0.00027805,0.00014568,0.00006898,0.00029412,-0.00015047,0.00004119,-
 0.00010210,0.00011992,-0.00005140,0.00011172,-0.24261725,0.04904038,-0
 .09966997,-0.01682308,0.00587917,-0.01138751,0.25862110,0.00490605,0.0
 0251277,-0.00306179,-0.00112804,0.00111004,0.00018304,-0.00067893,-0.0
 0017377,-0.00014967,0.00006486,-0.00023606,0.00005332,0.00024806,-0.00
 159892,0.00084293,0.00013339,-0.00007812,0.00024626,0.03005649,-0.0244
 3779,0.00473958,0.00047610,-0.00024070,-0.00018376,-0.00001274,0.00001
 471,0.00002558,-0.00009357,0.00007185,0.00002390,0.00002482,0.00001592
 ,0.00015835,-0.00009588,-0.00018861,-0.00005840,-0.00003383,0.00003155
 ,-0.00003194,-0.00090425,-0.00023629,-0.00023395,0.00016467,-0.0000169
 9,0.00023364,0.00014051,0.00027077,-0.00003837,-0.00023337,-0.00013649
 ,-0.00014198,0.04551567,-0.06488108,0.03116495,-0.01843030,0.00927888,
 -0.00984066,-0.06616712,0.07844969,0.00166516,0.00084775,-0.00213173,0
 .00112618,0.00129792,0.00173944,-0.00004828,0.00002305,0.00009089,-0.0
 0003957,0.00006139,0.00001251,0.00014807,-0.00068868,0.00049969,0.0000
 5643,-0.00007779,0.00011741,0.01762602,-0.01287356,0.00931478,0.000076
 54,-0.00006199,-0.00001217,-0.00002136,-0.00000220,0.00001687,-0.00000
 828,0.00001915,0.00000290,0.00000862,0.00010299,-0.00018152,-0.0000492
 0,-0.00005708,0.00002942,-0.00001776,-0.00000351,0.00004520,-0.0000047
 1,0.00003313,0.00015281,0.00023251,0.00012128,-0.00006871,-0.00020177,
 0.00006177,0.00021388,-0.00001388,-0.00013617,-0.00012870,-0.10067397,
 0.03364634,-0.10265357,0.00333801,-0.00046060,0.00309438,0.10394665,-0
 .02731774,0.11022014,0.00481953,0.00619249,-0.00119053,-0.07516001,-0.
 03495848,0.00153822,0.00130988,-0.00004718,0.00059122,-0.00002624,-0.0
 0002335,0.00020129,-0.00451034,0.00072693,0.00206734,0.00010338,-0.000
 32223,-0.00004345,-0.00538430,0.00559472,0.02401975,-0.00091946,0.0006
 4162,0.00042665,0.00016457,-0.00001214,-0.00015449,0.00017985,-0.00013
 011,-0.00001252,-0.00020478,-0.00026578,0.00058921,0.00005553,0.000121
 03,-0.00000804,0.00015988,-0.00005623,-0.00012607,0.00149632,0.0001427
 6,-0.00093869,-0.00217646,-0.00074810,0.00031241,0.00069349,-0.0006329
 4,-0.00071624,-0.00010730,0.00109480,0.00042794,-0.08590728,0.00291783
 ,-0.00098984,-0.00130921,-0.00555045,0.01960766,0.00565979,0.00653107,
 -0.02871296,0.61168080,0.01902187,-0.02995530,-0.04396019,-0.02873932,
 -0.20319771,-0.00778422,-0.00036734,0.00355657,0.00595054,-0.00086762,
 -0.00069877,-0.00135951,-0.00529596,0.00274862,0.00287813,0.00009774,-
 0.00058857,0.00042399,0.00162034,-0.02501059,-0.02237590,-0.00103830,0
 .00062880,0.00070452,0.00012239,-0.00004406,-0.00011674,0.00023761,-0.
 00013349,-0.00004888,-0.00009797,-0.00003124,0.00002981,-0.00001890,0.
 00010445,0.00004903,0.00012616,-0.00008171,-0.00010296,0.00173773,-0.0
 0007273,-0.00071247,-0.00140990,-0.00036129,-0.00001217,0.00095706,-0.
 00159989,-0.00039198,0.00132294,0.00157552,0.00022182,-0.00502099,-0.0
 6830560,0.03873003,-0.00122809,-0.00342163,0.02123350,-0.00285650,-0.0
 0060244,0.00365481,-0.06115379,0.48329582,0.00099246,-0.02220477,-0.00
 559069,0.00025770,0.00655593,-0.06877794,0.00054884,-0.00187018,-0.003
 58829,0.00026916,-0.00006768,0.00033176,-0.00006087,0.00052226,-0.0003
 1887,-0.00006839,0.00004421,-0.00015590,0.01315485,-0.01018122,-0.0269
 9003,-0.00006465,0.00009660,-0.00006259,0.00013415,0.00003965,-0.00007
 055,-0.00007441,-0.00003332,-0.00000829,0.00001110,-0.00043708,0.00124
 853,0.00004267,-0.00007351,-0.00027967,0.00001175,0.00004236,-0.000289
 15,-0.00024888,-0.00004321,-0.00090827,-0.00126847,-0.00077583,0.00033
 967,0.00158843,-0.00014885,-0.00106267,-0.00006498,0.00047221,0.000377
 57,-0.00153842,0.01233533,-0.16964452,-0.00202164,0.00281727,0.0016385
 7,0.00367169,0.00312065,-0.01610896,0.01224852,0.07710629,0.51226282,-
 0.00017986,-0.00200762,-0.00044839,0.01265186,-0.00756491,-0.00503129,
 -0.00001472,0.00004989,-0.00021628,-0.00002116,-0.00005746,-0.00003371
 ,0.00037674,0.00005386,-0.00017073,0.00001697,-0.00001360,0.00000958,0
 .00117459,-0.00054718,-0.00002466,0.00006432,0.00005168,0.00003178,-0.
 00001491,-0.00002058,0.00001760,-0.00001461,-0.00000599,-0.00001608,0.
 00020914,0.00020397,-0.00035038,0.00002744,-0.00002068,-0.00000562,-0.
 00007174,-0.00002309,0.00008049,-0.00009157,-0.00033426,-0.00009995,0.
 00025220,0.00047685,0.00017277,-0.00081612,0.00007392,0.00028764,0.000
 17002,-0.00030234,-0.00007626,-0.00169392,0.00176800,-0.00235980,0.000
 19541,-0.00002197,0.00032595,0.00119019,-0.00030704,0.00017213,-0.2142
 2203,0.10601352,0.08597723,0.21972022,-0.00166155,-0.00245817,0.005521
 06,0.02020990,-0.03517085,-0.01635976,-0.00036995,-0.00057892,-0.00119
 593,0.00018188,-0.00001413,0.00004828,0.00150289,-0.00054353,-0.000856
 60,0.00000481,0.00013948,-0.00005867,-0.00043022,0.00262435,0.00207422
 ,0.00003739,-0.00001286,-0.00003055,-0.00000243,0.00000460,0.00000377,
 -0.00000474,0.00000099,0.00000089,0.00001583,-0.00000756,0.00001907,0.
 00001969,-0.00000766,-0.00001067,-0.00001369,0.00000095,0.00000097,-0.
 00005117,-0.00003263,0.00001061,0.00005554,0.00005671,0.00001433,-0.00
 010560,0.00018681,0.00002023,-0.00014527,-0.00024437,-0.00005058,-0.00
 463067,0.00664903,0.00036041,-0.00002304,-0.00075692,-0.00076508,-0.00
 010811,0.00084168,-0.00020851,0.09765069,-0.10904912,-0.05076116,-0.11
 022607,0.13359054,0.00059150,0.00213075,-0.00214000,-0.00227466,0.0021
 5534,0.00384749,-0.00022821,-0.00037272,0.00012241,0.00008923,-0.00002
 389,-0.00000664,0.00017481,-0.00039344,0.00032239,0.00004344,-0.000005
 05,-0.00000046,0.00171567,-0.00218648,-0.00630294,0.00010169,-0.000078
 15,-0.00003580,-0.00002464,-0.00001142,0.00001246,-0.00001113,0.000028
 42,0.00001269,0.00000478,0.00012742,-0.00029904,-0.00004926,-0.0000387
 4,0.00004880,-0.00000899,-0.00000403,0.00007069,-0.00013715,-0.0000320
 6,0.00012820,0.00023286,0.00019197,-0.00000130,-0.00040957,0.00009738,
 0.00027908,-0.00000891,-0.00017546,-0.00012974,0.02191870,-0.01579135,
 -0.00753431,0.00011830,0.00096122,-0.00119727,-0.00079459,-0.00057692,
 0.00100742,0.08244089,-0.05508045,-0.09691997,-0.08995859,0.06050910,0
 .10029037,-0.00225801,0.00088400,0.00263526,0.00050096,-0.01164735,-0.
 00316571,0.00005055,-0.00038075,-0.00045857,0.00009236,0.00009308,0.00
 012547,0.00064401,-0.00045493,-0.00024622,0.00000389,0.00006412,-0.000
 07482,0.00034968,-0.00036547,-0.00103425,0.00009206,-0.00015703,-0.000
 13655,-0.00001419,0.00002092,0.00003044,-0.00001608,0.00002286,0.00001
 623,-0.00001386,-0.00015003,0.00011533,0.00001153,0.00000160,-0.000049
 16,0.00002683,0.00003667,-0.00004889,-0.00061566,-0.00005022,0.0006455
 1,0.00002444,-0.00061948,-0.00028151,-0.00055974,0.00024598,0.00010966
 ,-0.00010117,0.00000051,-0.00007003,0.00534619,0.00155375,0.00381695,0
 .00088310,0.00024119,-0.00053641,0.00123205,-0.00017665,0.00139542,-0.
 23639560,-0.02316266,-0.11349783,-0.01890847,-0.00190612,-0.01352616,0
 .24962516,-0.00707130,-0.00010692,0.00350528,-0.03202119,-0.02675010,-
 0.02122223,0.00070483,-0.00135754,-0.00158526,0.00029765,0.00020563,0.
 00039640,0.00079909,0.00011933,0.00023333,-0.00005388,0.00002173,-0.00
 003084,0.00035898,0.00189495,-0.00025593,-0.00028137,0.00034678,0.0002
 3225,0.00007062,-0.00006248,-0.00003191,0.00009215,-0.00003664,-0.0000
 2848,0.00010353,0.00042509,-0.00047146,-0.00000700,-0.00005397,0.00006
 751,-0.00007712,-0.00009320,0.00013473,0.00039541,-0.00046151,-0.00011
 977,-0.00116148,0.00012024,-0.00004629,-0.00064703,-0.00038723,0.00054
 629,0.00033768,-0.00046198,-0.00034043,0.00741608,0.00006206,0.0054619
 3,0.00028190,0.00068719,0.00039889,-0.00049154,0.00022938,0.00201828,-
 0.01771316,-0.04875563,-0.01655595,0.01276112,0.00478158,0.00856857,0.
 03590602,0.06963322,-0.00149393,0.00018149,-0.00030067,0.00204231,-0.0
 0259928,0.00540476,0.00010072,-0.00020452,-0.00002791,0.00004315,0.000
 06592,0.00001422,0.00049584,-0.00000010,0.00002068,-0.00001203,0.00000
 391,0.00007855,0.00157274,-0.00097756,0.00113544,0.00049010,-0.0002410
 3,-0.00022990,-0.00008969,-0.00001830,0.00007372,-0.00012729,0.0000550
 8,0.00001472,0.00027265,0.00016769,-0.00060036,-0.00001516,-0.00004399
 ,0.00000403,-0.00009904,0.00003069,0.00011398,-0.00090324,-0.00038694,
 0.00031500,0.00129332,0.00073762,0.00063579,-0.00120248,0.00046447,0.0
 0026840,0.00010995,-0.00057013,-0.00012233,-0.02804872,0.00088104,-0.0
 1695549,-0.00006810,-0.00019169,0.00115226,0.00126470,0.00084299,-0.00
 527237,-0.11157827,-0.01903700,-0.12542256,0.01171659,0.00171456,0.008
 42544,0.12423585,0.01912508,0.13127458\\0.00003341,0.00000530,-0.00002
 368,-0.00001623,0.00002452,0.00000200,-0.00000650,0.00000044,0.0000008
 2,-0.00000082,-0.00000170,0.00000562,-0.00000713,-0.00000450,0.0000043
 5,-0.00000424,0.00000119,-0.00001069,0.00000526,-0.00000986,0.00000977
 ,-0.00000368,0.00001378,0.00000339,0.00000036,-0.00000231,0.00000154,0
 .00000287,-0.00000108,0.00000073,-0.00000705,-0.00001296,0.00001272,0.
 00000118,-0.00000134,-0.00000336,-0.00000022,-0.00000084,0.00000131,0.
 00000837,-0.00000065,-0.00000003,-0.00000290,-0.00000364,0.00000330,0.
 00000294,0.00000508,-0.00000762,0.00000039,0.00000435,-0.00000347,-0.0
 0000103,0.00000520,0.00000124,-0.00000107,-0.00000016,-0.00000292,0.00
 000133,0.00000118,-0.00000206,-0.00000406,-0.00002504,0.00000828,-0.00
 000037,0.00000227,-0.00000012,-0.00000080,0.00000079,-0.00000111\\\@
 The archive entry for this job was punched.


 KNIGHT- SIRE, I'VE JUST RETURNED FROM THE FRONT
 KING-   HOW GOES THE BATTLE                    
 KNIGHT- THE SITUATION IS QUITE FLUID           
 KING-   WHAT DOES *THAT* MEAN                  
 KNIGHT- WE'RE UP THE CREEK                     
                THE WIZARD OF ID                
 Job cpu time:       0 days  5 hours 52 minutes  2.7 seconds.
 Elapsed time:       0 days  1 hours 28 minutes 14.0 seconds.
 File lengths (MBytes):  RWF=    493 Int=      0 D2E=      0 Chk=     22 Scr=      1
 Normal termination of Gaussian 16 at Sun Mar 31 05:52:14 2024.
