 Entering Gaussian System, Link 0=/opt/software/gaussian/g16.c01/g16
 Initial command:
 /opt/software/gaussian/g16.c01/l1.exe "/scratch/arhender/17934791/Gau-22101.inp" -scrdir="/scratch/arhender/17934791/"
 Entering Link 1 = /opt/software/gaussian/g16.c01/l1.exe PID=     22102.
  
 Copyright (c) 1988-2019, Gaussian, Inc.  All Rights Reserved.
  
 This is part of the Gaussian(R) 16 program.  It is based on
 the Gaussian(R) 09 system (copyright 2009, Gaussian, Inc.),
 the Gaussian(R) 03 system (copyright 2003, Gaussian, Inc.),
 the Gaussian(R) 98 system (copyright 1998, Gaussian, Inc.),
 the Gaussian(R) 94 system (copyright 1995, Gaussian, Inc.),
 the Gaussian 92(TM) system (copyright 1992, Gaussian, Inc.),
 the Gaussian 90(TM) system (copyright 1990, Gaussian, Inc.),
 the Gaussian 88(TM) system (copyright 1988, Gaussian, Inc.),
 the Gaussian 86(TM) system (copyright 1986, Carnegie Mellon
 University), and the Gaussian 82(TM) system (copyright 1983,
 Carnegie Mellon University). Gaussian is a federally registered
 trademark of Gaussian, Inc.
  
 This software contains proprietary and confidential information,
 including trade secrets, belonging to Gaussian, Inc.
  
 This software is provided under written license and may be
 used, copied, transmitted, or stored only in accord with that
 written license.
  
 The following legend is applicable only to US Government
 contracts under FAR:
  
                    RESTRICTED RIGHTS LEGEND
  
 Use, reproduction and disclosure by the US Government is
 subject to restrictions as set forth in subparagraphs (a)
 and (c) of the Commercial Computer Software - Restricted
 Rights clause in FAR 52.227-19.
  
 Gaussian, Inc.
 340 Quinnipiac St., Bldg. 40, Wallingford CT 06492
  
  
 ---------------------------------------------------------------
 Warning -- This program may not be used in any manner that
 competes with the business of Gaussian, Inc. or will provide
 assistance to any competitor of Gaussian, Inc.  The licensee
 of this program is prohibited from giving any competitor of
 Gaussian, Inc. access to this program.  By using this program,
 the user acknowledges that Gaussian, Inc. is engaged in the
 business of creating and licensing software in the field of
 computational chemistry and represents and warrants to the
 licensee that it is not a competitor of Gaussian, Inc. and that
 it will not use this program in any manner prohibited above.
 ---------------------------------------------------------------
  

 Cite this work as:
 Gaussian 16, Revision C.01,
 M. J. Frisch, G. W. Trucks, H. B. Schlegel, G. E. Scuseria, 
 M. A. Robb, J. R. Cheeseman, G. Scalmani, V. Barone, 
 G. A. Petersson, H. Nakatsuji, X. Li, M. Caricato, A. V. Marenich, 
 J. Bloino, B. G. Janesko, R. Gomperts, B. Mennucci, H. P. Hratchian, 
 J. V. Ortiz, A. F. Izmaylov, J. L. Sonnenberg, D. Williams-Young, 
 F. Ding, F. Lipparini, F. Egidi, J. Goings, B. Peng, A. Petrone, 
 T. Henderson, D. Ranasinghe, V. G. Zakrzewski, J. Gao, N. Rega, 
 G. Zheng, W. Liang, M. Hada, M. Ehara, K. Toyota, R. Fukuda, 
 J. Hasegawa, M. Ishida, T. Nakajima, Y. Honda, O. Kitao, H. Nakai, 
 T. Vreven, K. Throssell, J. A. Montgomery, Jr., J. E. Peralta, 
 F. Ogliaro, M. J. Bearpark, J. J. Heyd, E. N. Brothers, K. N. Kudin, 
 V. N. Staroverov, T. A. Keith, R. Kobayashi, J. Normand, 
 K. Raghavachari, A. P. Rendell, J. C. Burant, S. S. Iyengar, 
 J. Tomasi, M. Cossi, J. M. Millam, M. Klene, C. Adamo, R. Cammi, 
 J. W. Ochterski, R. L. Martin, K. Morokuma, O. Farkas, 
 J. B. Foresman, and D. J. Fox, Gaussian, Inc., Wallingford CT, 2019.
 
 ******************************************
 Gaussian 16:  ES64L-G16RevC.01  3-Jul-2019
                18-Mar-2024 
 ******************************************
 %chk=IRC_EGdepattackQbiL_forward.chk
 %mem=1600MB
 %nprocs=4
 Will use up to    4 processors via shared memory.
 ----------------------------------------------------------------------
 # irc=(forward,calcfc,maxpoints=100,maxcycle=100) wb97xd/def2tzvpp geo
 m=connectivity
 ----------------------------------------------------------------------
 1/6=100,10=4,18=10,22=1,26=3,38=1,42=100,44=3,57=2,172=1/1,23;
 2/12=2,17=6,18=5,29=1,40=1/2;
 3/5=44,7=202,11=2,25=1,30=1,71=2,74=-58,140=1/1,2,3;
 4//1;
 5/5=2,38=5/2;
 8/6=4,10=90,11=11/1;
 11/6=1,8=1,9=11,15=111,16=1/1,2,10;
 10/6=1,13=1/2;
 6/7=2,8=2,9=2,10=2,28=1/1;
 7/10=1,25=1/1,2,3,16;
 1/6=100,10=4,18=10,22=1,26=3,42=100,44=3/23(2);
 2/29=1/2;
 99/5=20/99;
 2/29=1/2;
 3/5=44,7=202,11=2,25=1,30=1,71=2,74=-58,140=1/1,2,3;
 4/5=5,16=3,69=1/1;
 5/5=2,38=5/2;
 8/6=4,10=90,11=11/1;
 11/6=1,8=1,9=11,15=111,16=1/1,2,10;
 10/6=1,13=1/2;
 7/10=1,25=1/1,2,3,16;
 1/6=100,18=10,22=1,26=3,42=100,44=3/23(-8);
 2/29=1/2;
 6/7=2,8=2,9=2,10=2,19=2,28=1/1;
 99/5=20,9=1/99;
 ----------------------------
 IRC for EGOdep attack on QL2
 ----------------------------
 Symbolic Z-matrix:
 Charge = -1 Multiplicity = 1
 Si                    1.04648   0.59962  -0.02306 
 O                     1.74932  -0.61699  -0.92915 
 O                     2.31215   1.35616   0.78559 
 H                     2.67068   0.77251   1.44881 
 O                     0.546     1.9761   -0.75954 
 O                     0.51321  -0.39502   1.23397 
 C                    -2.02082  -0.68161  -0.76321 
 H                    -1.78985  -1.76812  -0.71753 
 H                    -2.7651   -0.57361  -1.57703 
 C                    -2.72088  -0.3098    0.54775 
 H                    -2.10177  -0.62793   1.39603 
 H                    -3.69814  -0.79901   0.62147 
 O                    -0.9294    0.10396  -1.00156 
 H                    -0.24857   1.69272  -1.23908 
 O                    -2.92762   1.08758   0.59988 
 H                    -2.14037   1.43449   0.16086 
 C                     0.62217  -1.74484   0.86139 
 H                    -0.34571  -2.24861   0.95566 
 H                     1.32361  -2.23935   1.54611 
 C                     1.14256  -1.83864  -0.60052 
 H                     1.88087  -2.64223  -0.69202 
 H                     0.31612  -2.04045  -1.28642 
 
 IRC-IRC-IRC-IRC-IRC-IRC-IRC-IRC-IRC-IRC-IRC-IRC-IRC-IRC-IRC-IRC-IRC-IRC
 ------------------------------------------------------------------------
 INPUT DATA FOR L123
 ------------------------------------------------------------------------
 GENERAL PARAMETERS:
 Rxn path following direction = Forward
 Maximum points per path      = 100
 Step size                    =   0.100 bohr
 Integration scheme           = HPC                                 
    Redo corrector integration= Yes                                 
    DWI Weight Power          =  2
    DWI will use Hessian update vectors when possible.
    Max correction cycles     = 100
 Initial Hessian              = CalcFC
 Hessian evaluation           = All updating
 Hessian updating method      = Bofill                              
 ------------------------------------------------------------------------
 IRC-IRC-IRC-IRC-IRC-IRC-IRC-IRC-IRC-IRC-IRC-IRC-IRC-IRC-IRC-IRC-IRC-IRC
                          Input orientation:                          
 ---------------------------------------------------------------------
 Center     Atomic      Atomic             Coordinates (Angstroms)
 Number     Number       Type             X           Y           Z
 ---------------------------------------------------------------------
      1         14           0        1.046479    0.599618   -0.023055
      2          8           0        1.749323   -0.616987   -0.929148
      3          8           0        2.312148    1.356157    0.785587
      4          1           0        2.670684    0.772505    1.448813
      5          8           0        0.546000    1.976099   -0.759538
      6          8           0        0.513210   -0.395022    1.233971
      7          6           0       -2.020822   -0.681612   -0.763211
      8          1           0       -1.789852   -1.768124   -0.717529
      9          1           0       -2.765100   -0.573608   -1.577032
     10          6           0       -2.720878   -0.309797    0.547745
     11          1           0       -2.101769   -0.627934    1.396033
     12          1           0       -3.698137   -0.799009    0.621470
     13          8           0       -0.929396    0.103959   -1.001561
     14          1           0       -0.248565    1.692721   -1.239076
     15          8           0       -2.927620    1.087581    0.599876
     16          1           0       -2.140372    1.434493    0.160860
     17          6           0        0.622173   -1.744840    0.861385
     18          1           0       -0.345711   -2.248614    0.955656
     19          1           0        1.323605   -2.239350    1.546111
     20          6           0        1.142561   -1.838641   -0.600520
     21          1           0        1.880873   -2.642227   -0.692017
     22          1           0        0.316121   -2.040450   -1.286415
 ---------------------------------------------------------------------
                    Distance matrix (angstroms):
                    1          2          3          4          5
     1  Si   0.000000
     2  O    1.671862   0.000000
     3  O    1.681717   2.674020   0.000000
     4  H    2.198710   2.904185   0.953450   0.000000
     5  O    1.639386   2.863712   2.427142   3.292375   0.000000
     6  O    1.689319   2.501265   2.550265   2.462513   3.097962
     7  C    3.405542   3.774348   5.032485   5.386811   3.694864
     8  H    3.759424   3.727688   5.370930   5.571734   4.413295
     9  H    4.280121   4.560883   5.923209   6.365179   4.258249
    10  C    3.917375   4.717868   5.306913   5.572454   4.196046
    11  H    3.664991   4.498610   4.877697   4.973964   4.293967
    12  H    4.988281   5.666778   6.387112   6.611810   5.255579
    13  O    2.259919   2.774985   3.907621   4.405890   2.395887
    14  H    2.085838   3.069587   3.281735   4.073519   0.970357
    15  O    4.052112   5.207424   5.249932   5.671065   3.834515
    16  H    3.299524   4.530609   4.496816   5.024272   2.890859
    17  C    2.541408   2.397609   3.532413   3.298256   4.059382
    18  H    3.317905   3.256357   4.481909   4.297558   4.645992
    19  H    3.255583   2.990017   3.805691   3.300812   4.867309
    20  C    2.507550   1.403066   3.673685   3.654177   3.864377
    21  H    3.413690   2.043314   4.284435   4.106988   4.807846
    22  H    3.016531   2.051330   4.451321   4.575823   4.057476
                    6          7          8          9         10
     6  O    0.000000
     7  C    3.239165   0.000000
     8  H    3.316302   1.111729   0.000000
     9  H    4.322146   1.108115   1.765424   0.000000
    10  C    3.307188   1.531969   2.143466   2.141548   0.000000
    11  H    2.630328   2.161427   2.421667   3.046650   1.097315
    12  H    4.274787   2.178189   2.524610   2.398911   1.095353
    13  O    2.706972   1.365702   2.079845   2.039626   2.404361
    14  H    3.324896   3.000800   3.824268   3.403441   3.648992
    15  O    3.799934   2.410463   3.344417   2.743153   1.413551
    16  H    3.397085   2.312163   3.339339   2.728190   1.878620
    17  C    1.404529   3.279510   2.882946   4.334891   3.651535
    18  H    2.061797   2.866356   2.261849   3.882473   3.093028
    19  H    2.038558   4.352552   3.878110   5.407978   4.591051
    20  C    2.417742   3.372266   2.935594   4.221812   4.310689
    21  H    3.260347   4.367185   3.773451   5.162122   5.305973
    22  H    3.016392   2.753450   2.198389   3.424910   3.947489
                   11         12         13         14         15
    11  H    0.000000
    12  H    1.782584   0.000000
    13  O    2.767414   3.333993   0.000000
    14  H    3.970341   4.644340   1.744737   0.000000
    15  O    2.063707   2.037985   2.743176   3.305340   0.000000
    16  H    2.404319   2.761761   2.141963   2.367580   0.965838
    17  C    2.992188   4.429135   3.048933   4.121522   4.548849
    18  H    2.429871   3.667669   3.115443   4.512251   4.233560
    19  H    3.788452   5.305416   4.130102   5.068547   5.480579
    20  C    3.997213   5.099652   2.868368   3.848831   5.154619
    21  H    4.927349   6.020636   3.941442   4.860613   6.221098
    22  H    3.877747   4.614701   2.496186   3.775934   4.885133
                   16         17         18         19         20
    16  H    0.000000
    17  C    4.269725   0.000000
    18  H    4.173462   1.095205   0.000000
    19  H    5.235951   1.097906   1.770689   0.000000
    20  C    4.697952   1.554596   2.191966   2.191203   0.000000
    21  H    5.789426   2.191503   2.797755   2.341383   1.095092
    22  H    4.494907   2.189543   2.346963   3.012937   1.092786
                   21         22
    21  H    0.000000
    22  H    1.778734   0.000000
 Symmetry turned off by external request.
 Stoichiometry    C4H11O6Si(1-)
 Framework group  C1[X(C4H11O6Si)]
 Deg. of freedom    60
 Full point group                 C1      NOp   1
 Rotational constants (GHZ):           1.3965599           0.7812234           0.6529476
 Standard basis: def2TZVPP (5D, 7F)
   506 basis functions,   766 primitive gaussians,   573 cartesian basis functions
    49 alpha electrons       49 beta electrons
       nuclear repulsion energy       861.2819602580 Hartrees.
 NAtoms=   22 NActive=   22 NUniq=   22 SFac= 1.00D+00 NAtFMM=   60 NAOKFM=F Big=F
 Integral buffers will be    131072 words long.
 Raffenetti 2 integral format.
 Two-electron integral symmetry is turned off.
 Nuclear repulsion after empirical dispersion term =      861.2670362660 Hartrees.
 One-electron integrals computed using PRISM.
   1 Symmetry operations used in ECPInt.
 ECPInt:  NShTT=   18145 NPrTT=   50058 LenC2=   17288 LenP2D=   37028.
 LDataN:  DoStor=T MaxTD1= 6 Len=  172
 NBasis=   506 RedAO= T EigKep=  2.08D-04  NBF=   506
 NBsUse=   506 1.00D-06 EigRej= -1.00D+00 NBFU=   506
 ExpMin= 7.01D-02 ExpMax= 4.48D+04 ExpMxC= 1.53D+03 IAcc=3 IRadAn=         5 AccDes= 0.00D+00
 Harris functional with IExCor= 4639 and IRadAn=       5 diagonalized for initial guess.
 HarFok:  IExCor= 4639 AccDes= 0.00D+00 IRadAn=         5 IDoV= 1 UseB2=F ITyADJ=14
 ICtDFT=  3500011 ScaDFX=  1.000000  1.000000  1.000000  1.000000
 FoFCou: FMM=F IPFlag=           0 FMFlag=      100000 FMFlg1=           0
         NFxFlg=           0 DoJE=T BraDBF=F KetDBF=T FulRan=T
         wScrn=  0.000000 ICntrl=       500 IOpCl=  0 I1Cent=   200000004 NGrid=           0
         NMat0=    1 NMatS0=      1 NMatT0=    0 NMatD0=    1 NMtDS0=    0 NMtDT0=    0
 Symmetry not used in FoFCou.
 Requested convergence on RMS density matrix=1.00D-08 within 128 cycles.
 Requested convergence on MAX density matrix=1.00D-06.
 Requested convergence on             energy=1.00D-06.
 No special actions if energy rises.
 Integral accuracy reduced to 1.0D-05 until final iterations.
 Initial convergence to 1.0D-05 achieved.  Increase integral accuracy.
 SCF Done:  E(RwB97XD) =  -900.173853886     A.U. after   14 cycles
            NFock= 14  Conv=0.64D-08     -V/T= 2.0036
 DoSCS=F DFT=T ScalE2(SS,OS)=  1.000000  1.000000
 Range of M.O.s used for correlation:     1   506
 NBasis=   506 NAE=    49 NBE=    49 NFC=     0 NFV=     0
 NROrb=    506 NOA=    49 NOB=    49 NVA=   457 NVB=   457

 **** Warning!!: The largest alpha MO coefficient is  0.13902433D+02

   1 Symmetry operations used in ECPInt.
 ECPInt:  NShTT=   18145 NPrTT=   50058 LenC2=   17288 LenP2D=   37028.
 LDataN:  DoStor=T MaxTD1= 7 Len=  274
 Symmetrizing basis deriv contribution to polar:
 IMax=3 JMax=2 DiffMx= 0.00D+00
 G2DrvN: will do    23 centers at a time, making    1 passes.
 Calling FoFCou, ICntrl=  3107 FMM=F I1Cent=   0 AccDes= 0.00D+00.
 End of G2Drv F.D. properties file   721 does not exist.
 End of G2Drv F.D. properties file   722 does not exist.
 End of G2Drv F.D. properties file   788 does not exist.
          IDoAtm=1111111111111111111111
          Differentiating once with respect to nuclear coordinates.
 CalDSu exits because no D1Ps are significant.
          There are    69 degrees of freedom in the 1st order CPHF.  IDoFFX=6 NUNeed=     0.
     63 vectors produced by pass  0 Test12= 3.25D-14 1.45D-09 XBig12= 8.43D-02 4.74D-02.
 AX will form    63 AO Fock derivatives at one time.
     63 vectors produced by pass  1 Test12= 3.25D-14 1.45D-09 XBig12= 2.74D-02 2.20D-02.
     63 vectors produced by pass  2 Test12= 3.25D-14 1.45D-09 XBig12= 8.63D-04 4.37D-03.
     63 vectors produced by pass  3 Test12= 3.25D-14 1.45D-09 XBig12= 1.42D-05 5.40D-04.
     63 vectors produced by pass  4 Test12= 3.25D-14 1.45D-09 XBig12= 1.62D-07 4.88D-05.
     63 vectors produced by pass  5 Test12= 3.25D-14 1.45D-09 XBig12= 1.53D-09 4.48D-06.
     63 vectors produced by pass  6 Test12= 3.25D-14 1.45D-09 XBig12= 1.08D-11 2.71D-07.
     29 vectors produced by pass  7 Test12= 3.25D-14 1.45D-09 XBig12= 7.04D-14 2.32D-08.
      3 vectors produced by pass  8 Test12= 3.25D-14 1.45D-09 XBig12= 7.95D-16 1.82D-09.
 InvSVY:  IOpt=1 It=  1 EMax= 3.33D-16
 Solved reduced A of dimension   473 with    69 vectors.
 End of Minotr F.D. properties file   721 does not exist.
 End of Minotr F.D. properties file   722 does not exist.
 End of Minotr F.D. properties file   788 does not exist.

 **********************************************************************

            Population analysis using the SCF Density.

 **********************************************************************

 Alpha  occ. eigenvalues --  -66.15083 -19.09284 -19.08829 -19.08760 -19.07181
 Alpha  occ. eigenvalues --  -19.07099 -19.01600 -10.19861 -10.19346 -10.17167
 Alpha  occ. eigenvalues --  -10.16338  -5.26436  -3.61111  -3.60936  -3.60769
 Alpha  occ. eigenvalues --   -0.99651  -0.97478  -0.94102  -0.93832  -0.91950
 Alpha  occ. eigenvalues --   -0.87890  -0.68590  -0.65865  -0.56735  -0.53855
 Alpha  occ. eigenvalues --   -0.49205  -0.45428  -0.44601  -0.43797  -0.41805
 Alpha  occ. eigenvalues --   -0.39407  -0.38863  -0.37543  -0.37060  -0.35808
 Alpha  occ. eigenvalues --   -0.34322  -0.32839  -0.30109  -0.28153  -0.27462
 Alpha  occ. eigenvalues --   -0.26392  -0.25892  -0.25394  -0.24677  -0.22736
 Alpha  occ. eigenvalues --   -0.21375  -0.20081  -0.15696  -0.15033
 Alpha virt. eigenvalues --    0.23550   0.24335   0.25871   0.27050   0.28653
 Alpha virt. eigenvalues --    0.28812   0.29786   0.31099   0.32603   0.33066
 Alpha virt. eigenvalues --    0.33652   0.35995   0.36700   0.37457   0.37740
 Alpha virt. eigenvalues --    0.39392   0.40251   0.40855   0.41461   0.42400
 Alpha virt. eigenvalues --    0.43325   0.44620   0.45755   0.46405   0.47285
 Alpha virt. eigenvalues --    0.49811   0.52676   0.53365   0.53950   0.54907
 Alpha virt. eigenvalues --    0.55876   0.56722   0.57195   0.58239   0.58328
 Alpha virt. eigenvalues --    0.58886   0.60722   0.60870   0.61432   0.61624
 Alpha virt. eigenvalues --    0.62598   0.63848   0.64689   0.65514   0.65929
 Alpha virt. eigenvalues --    0.67394   0.67587   0.67932   0.69527   0.70555
 Alpha virt. eigenvalues --    0.71418   0.71852   0.73085   0.73957   0.74305
 Alpha virt. eigenvalues --    0.75751   0.76602   0.77730   0.78413   0.79386
 Alpha virt. eigenvalues --    0.79793   0.81201   0.83916   0.84292   0.85121
 Alpha virt. eigenvalues --    0.87146   0.88537   0.89283   0.90574   0.92541
 Alpha virt. eigenvalues --    0.93012   0.93749   0.95399   0.96321   0.99566
 Alpha virt. eigenvalues --    0.99833   1.01541   1.02026   1.03570   1.04170
 Alpha virt. eigenvalues --    1.04684   1.05522   1.06491   1.08052   1.08858
 Alpha virt. eigenvalues --    1.10126   1.11644   1.12989   1.13749   1.14665
 Alpha virt. eigenvalues --    1.15491   1.16999   1.19048   1.21020   1.21829
 Alpha virt. eigenvalues --    1.22142   1.24610   1.24858   1.24997   1.26188
 Alpha virt. eigenvalues --    1.27494   1.28526   1.29551   1.30497   1.31774
 Alpha virt. eigenvalues --    1.32843   1.33469   1.35175   1.36082   1.37761
 Alpha virt. eigenvalues --    1.39104   1.40042   1.41837   1.42198   1.44084
 Alpha virt. eigenvalues --    1.45599   1.46609   1.47508   1.48332   1.49468
 Alpha virt. eigenvalues --    1.51047   1.52694   1.52793   1.55022   1.55283
 Alpha virt. eigenvalues --    1.57269   1.58080   1.58946   1.59647   1.60674
 Alpha virt. eigenvalues --    1.60877   1.63124   1.64043   1.64923   1.67362
 Alpha virt. eigenvalues --    1.70271   1.70370   1.72601   1.73555   1.75115
 Alpha virt. eigenvalues --    1.76114   1.77531   1.79101   1.80083   1.81276
 Alpha virt. eigenvalues --    1.85033   1.86290   1.87700   1.90840   1.92163
 Alpha virt. eigenvalues --    1.94192   1.96805   1.98389   2.00164   2.05417
 Alpha virt. eigenvalues --    2.07443   2.08164   2.11192   2.12340   2.13599
 Alpha virt. eigenvalues --    2.13908   2.16453   2.16937   2.19354   2.19910
 Alpha virt. eigenvalues --    2.20619   2.23112   2.24441   2.24869   2.26171
 Alpha virt. eigenvalues --    2.26697   2.28387   2.30547   2.31276   2.32572
 Alpha virt. eigenvalues --    2.36890   2.37729   2.39983   2.43102   2.44702
 Alpha virt. eigenvalues --    2.47058   2.49304   2.50528   2.52319   2.53409
 Alpha virt. eigenvalues --    2.56292   2.58616   2.60209   2.62845   2.63781
 Alpha virt. eigenvalues --    2.68667   2.72198   2.73635   2.75643   2.76176
 Alpha virt. eigenvalues --    2.80502   2.82246   2.83568   2.85414   2.86261
 Alpha virt. eigenvalues --    2.86561   2.89307   2.91221   2.91684   2.94648
 Alpha virt. eigenvalues --    2.95472   2.96684   2.98097   2.99345   3.01525
 Alpha virt. eigenvalues --    3.03245   3.04138   3.06042   3.07844   3.09248
 Alpha virt. eigenvalues --    3.09480   3.11355   3.13405   3.14228   3.15940
 Alpha virt. eigenvalues --    3.17781   3.20569   3.21797   3.23144   3.24052
 Alpha virt. eigenvalues --    3.25276   3.26208   3.27294   3.28431   3.29536
 Alpha virt. eigenvalues --    3.31522   3.32311   3.34978   3.36165   3.37130
 Alpha virt. eigenvalues --    3.39325   3.40769   3.41500   3.42872   3.44563
 Alpha virt. eigenvalues --    3.45498   3.46135   3.48380   3.48993   3.50733
 Alpha virt. eigenvalues --    3.53617   3.55174   3.55834   3.56770   3.59462
 Alpha virt. eigenvalues --    3.61186   3.61855   3.62481   3.64066   3.64619
 Alpha virt. eigenvalues --    3.66358   3.67003   3.68539   3.71751   3.74069
 Alpha virt. eigenvalues --    3.76060   3.77178   3.78838   3.79225   3.81362
 Alpha virt. eigenvalues --    3.82144   3.84282   3.85199   3.87563   3.88257
 Alpha virt. eigenvalues --    3.89655   3.90761   3.91450   3.91788   3.93354
 Alpha virt. eigenvalues --    3.94581   3.95943   3.97765   3.99014   4.00875
 Alpha virt. eigenvalues --    4.02019   4.02532   4.03964   4.05659   4.06394
 Alpha virt. eigenvalues --    4.07526   4.08986   4.09838   4.12247   4.16284
 Alpha virt. eigenvalues --    4.17416   4.18316   4.20497   4.23297   4.24882
 Alpha virt. eigenvalues --    4.25168   4.26575   4.27878   4.29311   4.31074
 Alpha virt. eigenvalues --    4.32357   4.33612   4.34295   4.36208   4.37660
 Alpha virt. eigenvalues --    4.39415   4.39677   4.41156   4.41811   4.42311
 Alpha virt. eigenvalues --    4.45324   4.48239   4.48738   4.51197   4.52417
 Alpha virt. eigenvalues --    4.54470   4.56585   4.57861   4.58719   4.61213
 Alpha virt. eigenvalues --    4.63370   4.65274   4.67187   4.70168   4.71062
 Alpha virt. eigenvalues --    4.73845   4.77359   4.79667   4.81420   4.84242
 Alpha virt. eigenvalues --    4.86981   4.89014   4.91588   4.92143   4.93764
 Alpha virt. eigenvalues --    4.97966   4.99779   5.00256   5.02766   5.04128
 Alpha virt. eigenvalues --    5.05296   5.09467   5.10121   5.13046   5.14847
 Alpha virt. eigenvalues --    5.16173   5.17705   5.19159   5.19865   5.21099
 Alpha virt. eigenvalues --    5.23779   5.26523   5.27620   5.30185   5.30932
 Alpha virt. eigenvalues --    5.34329   5.34345   5.37636   5.39530   5.44136
 Alpha virt. eigenvalues --    5.45814   5.48410   5.50225   5.51225   5.52648
 Alpha virt. eigenvalues --    5.54657   5.55987   5.58441   5.58931   5.61057
 Alpha virt. eigenvalues --    5.64095   5.65083   5.68042   5.69056   5.71592
 Alpha virt. eigenvalues --    5.72488   5.73379   5.73827   5.75207   5.78846
 Alpha virt. eigenvalues --    5.82058   5.82939   5.84370   5.85604   5.87890
 Alpha virt. eigenvalues --    5.89142   5.93182   5.94430   5.97374   5.98529
 Alpha virt. eigenvalues --    5.99765   6.08112   6.15375   6.16485   6.20865
 Alpha virt. eigenvalues --    6.23347   6.28224   6.30837   6.30999   6.34832
 Alpha virt. eigenvalues --    6.38355   6.46121   6.48819   6.57685   6.68052
 Alpha virt. eigenvalues --    6.71681   6.73088   6.77387   6.83430   6.83800
 Alpha virt. eigenvalues --    6.84795   6.86116   6.88416   6.89336   6.90846
 Alpha virt. eigenvalues --    6.91405   6.92857   6.93271   6.96048   6.97351
 Alpha virt. eigenvalues --    6.99428   7.00110   7.01613   7.04806   7.07151
 Alpha virt. eigenvalues --    7.14874   7.16043   7.19522   7.20316   7.26779
 Alpha virt. eigenvalues --    7.33049   7.33804   7.35059   7.36579   7.42370
 Alpha virt. eigenvalues --    7.48585   7.52978   7.57804   7.59298   7.60982
 Alpha virt. eigenvalues --    7.64425   7.70069   7.74946   7.78525   7.83927
 Alpha virt. eigenvalues --    8.00200  12.62117  23.47932  23.56363  23.61683
 Alpha virt. eigenvalues --   23.70228  44.01775  44.06279  44.25690  44.38720
 Alpha virt. eigenvalues --   44.46607  44.55867
          Condensed to atoms (all electrons):
               1          2          3          4          5          6
     1  Si  11.506026   0.390783   0.471075  -0.030722   0.457674   0.346851
     2  O    0.390783   7.960020  -0.038526  -0.000417  -0.020293  -0.014024
     3  O    0.471075  -0.038526   7.813496   0.314972  -0.042269  -0.048695
     4  H   -0.030722  -0.000417   0.314972   0.569027   0.003562   0.003920
     5  O    0.457674  -0.020293  -0.042269   0.003562   7.826291  -0.010854
     6  O    0.346851  -0.014024  -0.048695   0.003920  -0.010854   8.052004
     7  C   -0.014856   0.004495   0.000164  -0.000055   0.003598   0.003926
     8  H   -0.013240   0.001781   0.000018  -0.000012  -0.000574   0.001587
     9  H    0.002391  -0.000264  -0.000002   0.000002   0.000338  -0.000647
    10  C    0.002685  -0.001245  -0.000168   0.000005  -0.001877  -0.003069
    11  H   -0.006593   0.000131   0.000063  -0.000008   0.000174   0.011061
    12  H    0.000661   0.000001  -0.000001  -0.000000  -0.000025   0.000437
    13  O    0.145795  -0.027102   0.000084   0.000162  -0.081505  -0.030730
    14  H   -0.041487   0.000199   0.002845  -0.000481   0.314023   0.001573
    15  O    0.004423  -0.000010  -0.000008   0.000005  -0.000507  -0.000384
    16  H   -0.000235   0.000092  -0.000165  -0.000020   0.006634   0.000063
    17  C   -0.039111  -0.084709   0.004129   0.000402  -0.001400   0.278073
    18  H   -0.001502   0.005833  -0.000373   0.000238  -0.000015  -0.052448
    19  H    0.005760   0.006473   0.000453  -0.000692  -0.000025  -0.046622
    20  C   -0.048370   0.311445  -0.004684  -0.001083  -0.001499  -0.062814
    21  H   -0.000704  -0.042857   0.000126   0.000134  -0.000171   0.003946
    22  H   -0.003081  -0.045818  -0.000343  -0.000052   0.000407   0.006581
               7          8          9         10         11         12
     1  Si  -0.014856  -0.013240   0.002391   0.002685  -0.006593   0.000661
     2  O    0.004495   0.001781  -0.000264  -0.001245   0.000131   0.000001
     3  O    0.000164   0.000018  -0.000002  -0.000168   0.000063  -0.000001
     4  H   -0.000055  -0.000012   0.000002   0.000005  -0.000008  -0.000000
     5  O    0.003598  -0.000574   0.000338  -0.001877   0.000174  -0.000025
     6  O    0.003926   0.001587  -0.000647  -0.003069   0.011061   0.000437
     7  C    4.650868   0.372662   0.375874   0.364331  -0.044496  -0.016227
     8  H    0.372662   0.925636  -0.065388  -0.106756  -0.003253   0.008786
     9  H    0.375874  -0.065388   0.763506  -0.067652   0.014571  -0.009679
    10  C    0.364331  -0.106756  -0.067652   4.852328   0.400332   0.362671
    11  H   -0.044496  -0.003253   0.014571   0.400332   0.699982  -0.054593
    12  H   -0.016227   0.008786  -0.009679   0.362671  -0.054593   0.701241
    13  O    0.311047  -0.081040  -0.038166  -0.110530   0.003133   0.008610
    14  H    0.005045   0.002767  -0.003130  -0.002254   0.000072  -0.000101
    15  O   -0.053831   0.007987   0.007749   0.289874  -0.052810  -0.038113
    16  H   -0.012728   0.004594   0.001475  -0.082095   0.002358   0.012018
    17  C   -0.004183  -0.011071   0.000729  -0.000111  -0.004244   0.000264
    18  H   -0.001397   0.001929   0.000188   0.001324  -0.004581  -0.000739
    19  H   -0.000040   0.000214  -0.000016   0.000311   0.000134   0.000023
    20  C   -0.012505   0.003266   0.000382   0.000144   0.000984   0.000168
    21  H    0.001873  -0.001525  -0.000004  -0.000096  -0.000010  -0.000005
    22  H   -0.013318  -0.005054   0.000455   0.003129  -0.000447  -0.000052
              13         14         15         16         17         18
     1  Si   0.145795  -0.041487   0.004423  -0.000235  -0.039111  -0.001502
     2  O   -0.027102   0.000199  -0.000010   0.000092  -0.084709   0.005833
     3  O    0.000084   0.002845  -0.000008  -0.000165   0.004129  -0.000373
     4  H    0.000162  -0.000481   0.000005  -0.000020   0.000402   0.000238
     5  O   -0.081505   0.314023  -0.000507   0.006634  -0.001400  -0.000015
     6  O   -0.030730   0.001573  -0.000384   0.000063   0.278073  -0.052448
     7  C    0.311047   0.005045  -0.053831  -0.012728  -0.004183  -0.001397
     8  H   -0.081040   0.002767   0.007987   0.004594  -0.011071   0.001929
     9  H   -0.038166  -0.003130   0.007749   0.001475   0.000729   0.000188
    10  C   -0.110530  -0.002254   0.289874  -0.082095  -0.000111   0.001324
    11  H    0.003133   0.000072  -0.052810   0.002358  -0.004244  -0.004581
    12  H    0.008610  -0.000101  -0.038113   0.012018   0.000264  -0.000739
    13  O    8.492304   0.045451  -0.016162   0.042212   0.012968  -0.000741
    14  H    0.045451   0.475224  -0.000375   0.002770  -0.001088   0.000036
    15  O   -0.016162  -0.000375   7.936036   0.345235   0.000068  -0.000062
    16  H    0.042212   0.002770   0.345235   0.479611  -0.000496   0.000006
    17  C    0.012968  -0.001088   0.000068  -0.000496   4.779412   0.406967
    18  H   -0.000741   0.000036  -0.000062   0.000006   0.406967   0.737613
    19  H   -0.000012   0.000020  -0.000006   0.000000   0.400260  -0.066101
    20  C    0.010248  -0.000920  -0.000031   0.000158   0.286950  -0.046628
    21  H    0.001347  -0.000098   0.000003  -0.000009  -0.015167   0.010800
    22  H    0.007919   0.000405   0.000001  -0.000079  -0.058967  -0.015895
              19         20         21         22
     1  Si   0.005760  -0.048370  -0.000704  -0.003081
     2  O    0.006473   0.311445  -0.042857  -0.045818
     3  O    0.000453  -0.004684   0.000126  -0.000343
     4  H   -0.000692  -0.001083   0.000134  -0.000052
     5  O   -0.000025  -0.001499  -0.000171   0.000407
     6  O   -0.046622  -0.062814   0.003946   0.006581
     7  C   -0.000040  -0.012505   0.001873  -0.013318
     8  H    0.000214   0.003266  -0.001525  -0.005054
     9  H   -0.000016   0.000382  -0.000004   0.000455
    10  C    0.000311   0.000144  -0.000096   0.003129
    11  H    0.000134   0.000984  -0.000010  -0.000447
    12  H    0.000023   0.000168  -0.000005  -0.000052
    13  O   -0.000012   0.010248   0.001347   0.007919
    14  H    0.000020  -0.000920  -0.000098   0.000405
    15  O   -0.000006  -0.000031   0.000003   0.000001
    16  H    0.000000   0.000158  -0.000009  -0.000079
    17  C    0.400260   0.286950  -0.015167  -0.058967
    18  H   -0.066101  -0.046628   0.010800  -0.015895
    19  H    0.696322  -0.030775  -0.024167   0.014021
    20  C   -0.030775   4.705027   0.383552   0.439129
    21  H   -0.024167   0.383552   0.718710  -0.068405
    22  H    0.014021   0.439129  -0.068405   0.686542
 Mulliken charges:
               1
     1  Si   0.865776
     2  O   -0.405989
     3  O   -0.472191
     4  H    0.141113
     5  O   -0.451686
     6  O   -0.439736
     7  C    0.079754
     8  H   -0.043316
     9  H    0.017289
    10  C    0.098719
    11  H    0.038040
    12  H    0.024655
    13  O   -0.695293
    14  H    0.199503
    15  O   -0.429085
    16  H    0.198601
    17  C    0.050326
    18  H    0.025548
    19  H    0.044466
    20  C    0.067855
    21  H    0.032728
    22  H    0.052923
 Sum of Mulliken charges =  -1.00000
 Mulliken charges with hydrogens summed into heavy atoms:
               1
     1  Si   0.865776
     2  O   -0.405989
     3  O   -0.331078
     5  O   -0.252183
     6  O   -0.439736
     7  C    0.053727
    10  C    0.161415
    13  O   -0.695293
    15  O   -0.230484
    17  C    0.120340
    20  C    0.153505
 APT charges:
               1
     1  Si   0.350379
     2  O   -0.308743
     3  O   -0.556828
     4  H    0.477825
     5  O   -0.418571
     6  O   -0.393187
     7  C   -0.627208
     8  H    0.127518
     9  H    0.425452
    10  C   -0.581213
    11  H    0.097359
    12  H    0.608366
    13  O   -0.613073
    14  H    0.289319
    15  O   -0.152688
    16  H    0.011907
    17  C   -0.620064
    18  H    0.252467
    19  H    0.489919
    20  C   -0.636197
    21  H    0.530545
    22  H    0.246717
 Sum of APT charges =  -1.00000
 APT charges with hydrogens summed into heavy atoms:
               1
     1  Si   0.350379
     2  O   -0.308743
     3  O   -0.079003
     5  O   -0.129253
     6  O   -0.393187
     7  C   -0.074238
    10  C    0.124512
    13  O   -0.613073
    15  O   -0.140781
    17  C    0.122322
    20  C    0.141065
 Electronic spatial extent (au):  <R**2>=           1951.8480
 Charge=             -1.0000 electrons
 Dipole moment (field-independent basis, Debye):
    X=              0.5382    Y=             -4.7704    Z=              1.1719  Tot=              4.9417
 Quadrupole moment (field-independent basis, Debye-Ang):
   XX=            -97.2143   YY=            -84.4645   ZZ=            -81.7964
   XY=             -2.4394   XZ=              5.0540   YZ=             -2.2693
 Traceless Quadrupole moment (field-independent basis, Debye-Ang):
   XX=             -9.3892   YY=              3.3606   ZZ=              6.0287
   XY=             -2.4394   XZ=              5.0540   YZ=             -2.2693
 Octapole moment (field-independent basis, Debye-Ang**2):
  XXX=             40.3297  YYY=             -7.9411  ZZZ=              3.4874  XYY=             -5.9192
  XXY=            -24.4511  XXZ=              2.8297  XZZ=              9.0038  YZZ=              5.5484
  YYZ=             -1.2637  XYZ=              3.1770
 Hexadecapole moment (field-independent basis, Debye-Ang**3):
 XXXX=          -1598.9169 YYYY=           -780.6283 ZZZZ=           -387.8009 XXXY=             29.9895
 XXXZ=             54.4517 YYYX=            -42.4153 YYYZ=             -0.6912 ZZZX=             12.8516
 ZZZY=             -2.5406 XXYY=           -408.7917 XXZZ=           -305.6727 YYZZ=           -190.1244
 XXYZ=            -27.2405 YYXZ=              3.1319 ZZXY=              1.1754
 N-N= 8.612670362660D+02 E-N=-3.866363173138D+03  KE= 8.969765678005D+02
  Exact polarizability:       0.000       0.000       0.000       0.000       0.000       0.000
 Approx polarizability:     101.947       3.305     107.908       1.539      -2.173      94.714
   1 Symmetry operations used in ECPInt.
 ECPInt:  NShTT=   18145 NPrTT=   50058 LenC2=   17288 LenP2D=   37028.
 LDataN:  DoStor=T MaxTD1= 8 Len=  415
 Calling FoFJK, ICntrl=    100127 FMM=F ISym2X=0 I1Cent= 0 IOpClX= 0 NMat=1 NMatS=1 NMatT=0.
 -------------------------------------------------------------------
 Center     Atomic                   Forces (Hartrees/Bohr)
 Number     Number              X              Y              Z
 -------------------------------------------------------------------
      1       14          -0.000001129    0.000001139   -0.000001211
      2        8          -0.000000500    0.000000237   -0.000001407
      3        8          -0.000000584    0.000002475   -0.000003102
      4        1           0.000000325    0.000002399   -0.000002273
      5        8          -0.000001898   -0.000000291   -0.000002106
      6        8           0.000000580    0.000001219   -0.000000951
      7        6          -0.000000580   -0.000001429    0.000001713
      8        1           0.000000428   -0.000001455    0.000001686
      9        1          -0.000000890   -0.000002452    0.000001511
     10        6          -0.000000081   -0.000001456    0.000001134
     11        1           0.000001221   -0.000000120    0.000001323
     12        1           0.000000730   -0.000001559    0.000002178
     13        8          -0.000000711   -0.000001215   -0.000000103
     14        1          -0.000001793   -0.000000535   -0.000001445
     15        8           0.000000168   -0.000000609    0.000000244
     16        1          -0.000001640   -0.000001133    0.000000239
     17        6           0.000001715    0.000000840    0.000000766
     18        1           0.000001562    0.000000568    0.000001196
     19        1           0.000001750    0.000002236   -0.000000058
     20        6           0.000000573    0.000000483    0.000000088
     21        1           0.000000914    0.000000788    0.000000068
     22        1          -0.000000160   -0.000000130    0.000000510
 -------------------------------------------------------------------
 Cartesian Forces:  Max     0.000003102 RMS     0.000001286
 IRC-IRC-IRC-IRC-IRC-IRC-IRC-IRC-IRC-IRC-IRC-IRC-IRC-IRC-IRC-IRC-IRC-IRC
          ******** Start new reaction path calculation ********
 Supplied step size of   0.1000 bohr.
    Integration on MW PES will use step size of   0.2630 sqrt(amu)*bohr.
 Point Number:   0          Path Number:   1
 Calculating another point on the path.
 IRC-IRC-IRC-IRC-IRC-IRC-IRC-IRC-IRC-IRC-IRC-IRC-IRC-IRC-IRC-IRC-IRC-IRC
                          Input orientation:                          
 ---------------------------------------------------------------------
 Center     Atomic      Atomic             Coordinates (Angstroms)
 Number     Number       Type             X           Y           Z
 ---------------------------------------------------------------------
      1         14           0        0.996612    0.548481   -0.024844
      2          8           0        1.709656   -0.666974   -0.927134
      3          8           0        2.263511    1.304122    0.788329
      4          1           0        2.617005    0.718849    1.452853
      5          8           0        0.514214    1.934334   -0.761584
      6          8           0        0.473906   -0.448500    1.238236
      7          6           0       -2.045663   -0.727826   -0.754525
      8          1           0       -1.813258   -1.813349   -0.708579
      9          1           0       -2.784133   -0.619193   -1.572874
     10          6           0       -2.753448   -0.357190    0.552133
     11          1           0       -2.137956   -0.673588    1.403588
     12          1           0       -3.729699   -0.849109    0.620426
     13          8           0       -0.954106    0.061314   -0.988440
     14          1           0       -0.278895    1.662934   -1.247605
     15          8           0       -2.964720    1.039589    0.602757
     16          1           0       -2.175925    1.389815    0.169352
     17          6           0        0.587882   -1.797372    0.865708
     18          1           0       -0.377643   -2.306030    0.961122
     19          1           0        1.292012   -2.289437    1.549543
     20          6           0        1.107782   -1.889980   -0.596854
     21          1           0        1.848590   -2.691369   -0.688056
     22          1           0        0.281864   -2.096843   -1.282252
 ---------------------------------------------------------------------
                    Distance matrix (angstroms):
                    1          2          3          4          5
     1  Si   0.000000
     2  O    1.673287   0.000000
     3  O    1.684421   2.671102   0.000000
     4  H    2.199611   2.899677   0.953465   0.000000
     5  O    1.641975   2.867628   2.420627   3.286771   0.000000
     6  O    1.691911   2.502726   2.544953   2.449824   3.111078
     7  C    3.378881   3.759777   5.007814   5.357786   3.693254
     8  H    3.733779   3.711181   5.345971   5.541755   4.411923
     9  H    4.248987   4.540198   5.895178   6.333852   4.249445
    10  C    3.900781   4.712058   5.290144   5.550759   4.201732
    11  H    3.655050   4.498492   4.864441   4.954893   4.303863
    12  H    4.970679   5.658153   6.370491   6.590302   5.260068
    13  O    2.229608   2.762208   3.880018   4.375512   2.390739
    14  H    2.089036   3.079855   3.276828   4.070628   0.968967
    15  O    4.040696   5.206027   5.238207   5.655192   3.842523
    16  H    3.287940   4.531048   4.483198   5.006970   2.898274
    17  C    2.542276   2.398011   3.526043   3.285339   4.071748
    18  H    3.317972   3.257120   4.476466   4.284812   4.663026
    19  H    3.258793   2.990107   3.799595   3.288577   4.877142
    20  C    2.507119   1.402527   3.668341   3.644866   3.873607
    21  H    3.415018   2.043193   4.279699   4.099213   4.814883
    22  H    3.014910   2.051639   4.447560   4.567473   4.071298
                    6          7          8          9         10
     6  O    0.000000
     7  C    3.224492   0.000000
     8  H    3.299094   1.111073   0.000000
     9  H    4.306541   1.107625   1.765110   0.000000
    10  C    3.300741   1.531563   2.143303   2.141317   0.000000
    11  H    2.626753   2.160767   2.421928   3.046281   1.097231
    12  H    4.267607   2.177425   2.523640   2.399484   1.095315
    13  O    2.693922   1.367098   2.081064   2.038051   2.405440
    14  H    3.347278   3.013359   3.837885   3.404427   3.666521
    15  O    3.800315   2.410527   3.344357   2.741813   1.413574
    16  H    3.397576   2.314070   3.341039   2.727889   1.879383
    17  C    1.404003   3.271795   2.871255   4.324959   3.651978
    18  H    2.062121   2.866438   2.256463   3.880432   3.099951
    19  H    2.038445   4.345968   3.868912   5.399459   4.592837
    20  C    2.418102   3.364473   2.924180   4.208861   4.310303
    21  H    3.260493   4.361780   3.765697   5.151596   5.307091
    22  H    3.017744   2.751379   2.190664   3.415882   3.950251
                   11         12         13         14         15
    11  H    0.000000
    12  H    1.782638   0.000000
    13  O    2.768281   3.334852   0.000000
    14  H    3.993028   4.659179   1.757345   0.000000
    15  O    2.063939   2.037814   2.744357   3.320550   0.000000
    16  H    2.404664   2.762329   2.144350   2.383503   0.965761
    17  C    2.997065   4.427287   3.044718   4.146217   4.553952
    18  H    2.441177   3.670827   3.120484   4.543226   4.244356
    19  H    3.794332   5.306165   4.124614   5.090484   5.486218
    20  C    4.002024   5.095724   2.865706   3.869050   5.158169
    21  H    4.933454   6.018584   3.939874   4.878447   6.225287
    22  H    3.885219   4.611905   2.504315   3.801523   4.891909
                   16         17         18         19         20
    16  H    0.000000
    17  C    4.275710   0.000000
    18  H    4.185688   1.095480   0.000000
    19  H    5.241031   1.097979   1.770385   0.000000
    20  C    4.703919   1.554978   2.192458   2.191010   0.000000
    21  H    5.795509   2.191528   2.797210   2.340550   1.095144
    22  H    4.506070   2.190220   2.347646   3.012732   1.093025
                   21         22
    21  H    0.000000
    22  H    1.777965   0.000000
 Symmetry turned off by external request.
 Stoichiometry    C4H11O6Si(1-)
 Framework group  C1[X(C4H11O6Si)]
 Deg. of freedom    60
 Full point group                 C1      NOp   1
 Rotational constants (GHZ):           1.3945706           0.7851488           0.6549519
 Standard basis: def2TZVPP (5D, 7F)
   506 basis functions,   766 primitive gaussians,   573 cartesian basis functions
    49 alpha electrons       49 beta electrons
       nuclear repulsion energy       862.0161610502 Hartrees.
 NAtoms=   22 NActive=   22 NUniq=   22 SFac= 1.00D+00 NAtFMM=   60 NAOKFM=F Big=F
 Integral buffers will be    131072 words long.
 Raffenetti 2 integral format.
 Two-electron integral symmetry is turned off.
 Nuclear repulsion after empirical dispersion term =      862.0012407055 Hartrees.
 One-electron integrals computed using PRISM.
   1 Symmetry operations used in ECPInt.
 ECPInt:  NShTT=   18145 NPrTT=   50058 LenC2=   17289 LenP2D=   37037.
 LDataN:  DoStor=T MaxTD1= 6 Len=  172
 NBasis=   506 RedAO= T EigKep=  2.08D-04  NBF=   506
 NBsUse=   506 1.00D-06 EigRej= -1.00D+00 NBFU=   506
 Initial guess from the checkpoint file:  "IRC_EGdepattackQbiL_forward.chk"
 B after Tr=    -0.069871   -0.092182    0.006347
         Rot=    1.000000   -0.000005    0.000034   -0.000021 Ang=  -0.00 deg.
 ExpMin= 7.01D-02 ExpMax= 4.48D+04 ExpMxC= 1.53D+03 IAcc=3 IRadAn=         5 AccDes= 0.00D+00
 Harris functional with IExCor= 4639 and IRadAn=       5 diagonalized for initial guess.
 HarFok:  IExCor= 4639 AccDes= 0.00D+00 IRadAn=         5 IDoV= 1 UseB2=F ITyADJ=14
 ICtDFT=  3500011 ScaDFX=  1.000000  1.000000  1.000000  1.000000
 FoFCou: FMM=F IPFlag=           0 FMFlag=      100000 FMFlg1=           0
         NFxFlg=           0 DoJE=T BraDBF=F KetDBF=T FulRan=T
         wScrn=  0.000000 ICntrl=       500 IOpCl=  0 I1Cent=   200000004 NGrid=           0
         NMat0=    1 NMatS0=      1 NMatT0=    0 NMatD0=    1 NMtDS0=    0 NMtDT0=    0
 Symmetry not used in FoFCou.
 Requested convergence on RMS density matrix=1.00D-08 within 128 cycles.
 Requested convergence on MAX density matrix=1.00D-06.
 Requested convergence on             energy=1.00D-06.
 No special actions if energy rises.
 Integral accuracy reduced to 1.0D-05 until final iterations.
 Initial convergence to 1.0D-05 achieved.  Increase integral accuracy.
 SCF Done:  E(RwB97XD) =  -900.173891681     A.U. after   11 cycles
            NFock= 11  Conv=0.43D-08     -V/T= 2.0036
 DoSCS=F DFT=T ScalE2(SS,OS)=  1.000000  1.000000
 Range of M.O.s used for correlation:     1   506
 NBasis=   506 NAE=    49 NBE=    49 NFC=     0 NFV=     0
 NROrb=    506 NOA=    49 NOB=    49 NVA=   457 NVB=   457

 **** Warning!!: The largest alpha MO coefficient is  0.13846888D+02

 Symmetrizing basis deriv contribution to polar:
 IMax=3 JMax=2 DiffMx= 0.00D+00
   1 Symmetry operations used in ECPInt.
 ECPInt:  NShTT=   18145 NPrTT=   50058 LenC2=   17289 LenP2D=   37037.
 LDataN:  DoStor=T MaxTD1= 7 Len=  274
 Calling FoFJK, ICntrl=      2127 FMM=F ISym2X=0 I1Cent= 0 IOpClX= 0 NMat=1 NMatS=1 NMatT=0.
 -------------------------------------------------------------------
 Center     Atomic                   Forces (Hartrees/Bohr)
 Number     Number              X              Y              Z
 -------------------------------------------------------------------
      1       14          -0.000727344   -0.000110657   -0.000321699
      2        8          -0.000080897   -0.000039942   -0.000037089
      3        8          -0.000363748   -0.000103312   -0.000009727
      4        1          -0.000039838    0.000002801   -0.000013015
      5        8           0.000137243    0.000166072   -0.000189032
      6        8          -0.000069199   -0.000167445    0.000025494
      7        6           0.000287845    0.000061218    0.000140504
      8        1           0.000029423    0.000014416    0.000016741
      9        1           0.000047791    0.000006254    0.000013876
     10        6           0.000113057    0.000030931    0.000027032
     11        1           0.000000031    0.000007487    0.000001198
     12        1           0.000023774   -0.000000767   -0.000008351
     13        8           0.000354584    0.000184208    0.000303794
     14        1           0.000089305    0.000088169    0.000006897
     15        8           0.000025829    0.000027733   -0.000031698
     16        1          -0.000017863    0.000002907    0.000022180
     17        6           0.000074838   -0.000084179    0.000035017
     18        1           0.000016627   -0.000014532    0.000005930
     19        1           0.000010794   -0.000000178   -0.000001998
     20        6           0.000065794   -0.000054312    0.000008446
     21        1           0.000008616    0.000001913    0.000001399
     22        1           0.000013337   -0.000018783    0.000004101
 -------------------------------------------------------------------
 Cartesian Forces:  Max     0.000727344 RMS     0.000142152
 IRC-IRC-IRC-IRC-IRC-IRC-IRC-IRC-IRC-IRC-IRC-IRC-IRC-IRC-IRC-IRC-IRC-IRC
 Pt  1 Step number   1 out of a maximum of 100
 Modified Bulirsch-Stoer Extrapolation Cycles:
    EPS =    0.000010000000000
      PEZero:  N= 2 I= 1 D=  6.85D-04 Err=  1.21D-02
      PEZero:  N= 3 I= 2 D=  6.85D-04 Err=  1.90D-02
      PEZero:  N= 3 I= 1 D=  1.37D-03 Err=  1.64D-02
      PEZero:  N= 4 I= 3 D=  3.42D-04 Err=  3.25D-02
      PEZero:  N= 4 I= 2 D=  1.03D-03 Err=  2.44D-02
      PEZero:  N= 4 I= 1 D=  1.71D-03 Err=  1.95D-02
      PEZero:  N= 5 I= 4 D=  3.42D-04 Err=  3.99D-02
      PEZero:  N= 5 I= 3 D=  6.85D-04 Err=  2.72D-02
      PEZero:  N= 5 I= 2 D=  1.37D-03 Err=  1.51D-02
      PEZero:  N= 5 I= 1 D=  2.05D-03 Err=  8.57D-03
      PEZero:  N= 6 I= 5 D=  1.71D-04 Err=  1.35D-02
      PEZero:  N= 6 I= 4 D=  5.14D-04 Err=  2.19D-02
      PEZero:  N= 7 I= 6 D=  1.71D-04 Err=  1.93D-04
      PEZero:  N= 7 I= 5 D=  3.42D-04 Err=  1.32D-02
      PEZero:  N= 8 I= 7 D=  8.56D-05 Err=  1.25D-04
      PEZero:  N= 8 I= 6 D=  2.57D-04 Err=  2.60D-05
      PEZero:  N= 8 I= 5 D=  4.28D-04 Err=  1.64D-02
      PEZero:  N= 9 I= 8 D=  8.56D-05 Err=  8.30D-05
      PEZero:  N= 9 I= 7 D=  1.71D-04 Err=  8.07D-07
      PEZero:  N= 9 I= 6 D=  3.42D-04 Err=  1.22D-05
 Maximum DWI energy   std dev =  0.000000319 at pt     6
 Maximum DWI gradient std dev =  0.185975451 at pt     9
 CORRECTOR INTEGRATION CONVERGENCE:
   Recorrection delta-x convergence threshold:    0.010000
   Delta-x Convergence Met
 Point Number:   1          Path Number:   1
   CHANGE IN THE REACTION COORDINATE =    0.26295
   NET REACTION COORDINATE UP TO THIS POINT =    0.26295
  # OF POINTS ALONG THE PATH =   1
  # OF STEPS =   1

 Calculating another point on the path.
 IRC-IRC-IRC-IRC-IRC-IRC-IRC-IRC-IRC-IRC-IRC-IRC-IRC-IRC-IRC-IRC-IRC-IRC
                          Input orientation:                          
 ---------------------------------------------------------------------
 Center     Atomic      Atomic             Coordinates (Angstroms)
 Number     Number       Type             X           Y           Z
 ---------------------------------------------------------------------
      1         14           0        0.983958    0.546170   -0.030094
      2          8           0        1.707218   -0.668121   -0.928493
      3          8           0        2.252031    1.301024    0.787659
      4          1           0        2.600615    0.714209    1.453424
      5          8           0        0.520027    1.941379   -0.767038
      6          8           0        0.471672   -0.453124    1.238991
      7          6           0       -2.033428   -0.725490   -0.748788
      8          1           0       -1.799044   -1.809867   -0.702056
      9          1           0       -2.766355   -0.616977   -1.571460
     10          6           0       -2.748646   -0.355758    0.553585
     11          1           0       -2.136384   -0.669925    1.408082
     12          1           0       -3.723681   -0.850647    0.616962
     13          8           0       -0.942225    0.067648   -0.978955
     14          1           0       -0.271420    1.682994   -1.259978
     15          8           0       -2.964743    1.040381    0.602175
     16          1           0       -2.174766    1.393832    0.173737
     17          6           0        0.591254   -1.801053    0.866876
     18          1           0       -0.371635   -2.315023    0.963764
     19          1           0        1.298464   -2.290179    1.549781
     20          6           0        1.110469   -1.892532   -0.596389
     21          1           0        1.853879   -2.691612   -0.687312
     22          1           0        0.285053   -2.104658   -1.281183
 ---------------------------------------------------------------------
                    Distance matrix (angstroms):
                    1          2          3          4          5
     1  Si   0.000000
     2  O    1.674733   0.000000
     3  O    1.687167   2.668245   0.000000
     4  H    2.200601   2.895259   0.953471   0.000000
     5  O    1.644666   2.871407   2.413913   3.281043   0.000000
     6  O    1.694580   2.504154   2.539766   2.437426   3.124122
     7  C    3.352352   3.745400   4.983231   5.328868   3.692243
     8  H    3.707768   3.694419   5.320535   5.511266   4.410687
     9  H    4.218242   4.519832   5.867569   6.302884   4.241767
    10  C    3.884133   4.706257   5.273186   5.528936   4.207744
    11  H    3.644691   4.498095   4.850541   4.935286   4.313534
    12  H    4.952943   5.649461   6.353578   6.568498   5.264972
    13  O    2.199887   2.750173   3.852974   4.345829   2.386201
    14  H    2.093074   3.090733   3.272083   4.068131   0.967544
    15  O    4.029422   5.204723   5.226573   5.639523   3.850995
    16  H    3.276829   4.531706   4.470127   4.990366   2.906333
    17  C    2.543271   2.398388   3.519565   3.272325   4.084182
    18  H    3.318405   3.257998   4.471065   4.272035   4.680565
    19  H    3.261870   2.989983   3.793001   3.275855   4.886686
    20  C    2.506784   1.401994   3.662998   3.635570   3.882862
    21  H    3.416421   2.043085   4.274951   4.091452   4.821839
    22  H    3.013401   2.051970   4.443847   4.559158   4.085337
                    6          7          8          9         10
     6  O    0.000000
     7  C    3.209514   0.000000
     8  H    3.280940   1.110402   0.000000
     9  H    4.290723   1.107134   1.764806   0.000000
    10  C    3.293890   1.531148   2.143084   2.141113   0.000000
    11  H    2.622509   2.160041   2.421972   3.045872   1.097146
    12  H    4.259804   2.176670   2.522724   2.400055   1.095274
    13  O    2.681342   1.368492   2.082276   2.036474   2.406472
    14  H    3.370465   3.027670   3.852919   3.407578   3.685399
    15  O    3.800663   2.410549   3.344216   2.740599   1.413599
    16  H    3.398477   2.315720   3.342435   2.727462   1.880077
    17  C    1.403453   3.264378   2.859222   4.315212   3.652664
    18  H    2.062422   2.867230   2.251141   3.878840   3.107595
    19  H    2.038368   4.339721   3.859537   5.391151   4.594942
    20  C    2.418383   3.356978   2.912605   4.196137   4.310091
    21  H    3.260670   4.356670   3.757864   5.141244   5.308416
    22  H    3.018886   2.749710   2.183060   3.407132   3.953272
                   11         12         13         14         15
    11  H    0.000000
    12  H    1.782707   0.000000
    13  O    2.769111   3.335673   0.000000
    14  H    4.016573   4.675505   1.771523   0.000000
    15  O    2.064173   2.037693   2.745315   3.336847   0.000000
    16  H    2.405031   2.762839   2.146304   2.400391   0.965686
    17  C    3.002059   4.425425   3.041495   4.172086   4.559487
    18  H    2.453182   3.674354   3.126795   4.575938   4.256018
    19  H    3.800458   5.307009   4.120017   5.113256   5.492315
    20  C    4.006835   5.091832   2.863951   3.890290   5.161965
    21  H    4.939645   6.016599   3.939134   4.897145   6.229740
    22  H    3.892809   4.609279   2.513259   3.828371   4.898926
                   16         17         18         19         20
    16  H    0.000000
    17  C    4.282359   0.000000
    18  H    4.198932   1.095768   0.000000
    19  H    5.246786   1.098067   1.770103   0.000000
    20  C    4.710208   1.555345   2.192990   2.190779   0.000000
    21  H    5.801917   2.191534   2.796566   2.339705   1.095196
    22  H    4.517404   2.190912   2.348464   3.012604   1.093276
                   21         22
    21  H    0.000000
    22  H    1.777193   0.000000
 Symmetry turned off by external request.
 Stoichiometry    C4H11O6Si(1-)
 Framework group  C1[X(C4H11O6Si)]
 Deg. of freedom    60
 Full point group                 C1      NOp   1
 Rotational constants (GHZ):           1.3925404           0.7890192           0.6568814
 Standard basis: def2TZVPP (5D, 7F)
   506 basis functions,   766 primitive gaussians,   573 cartesian basis functions
    49 alpha electrons       49 beta electrons
       nuclear repulsion energy       862.7298703206 Hartrees.
 NAtoms=   22 NActive=   22 NUniq=   22 SFac= 1.00D+00 NAtFMM=   60 NAOKFM=F Big=F
 Integral buffers will be    131072 words long.
 Raffenetti 2 integral format.
 Two-electron integral symmetry is turned off.
 Nuclear repulsion after empirical dispersion term =      862.7149552752 Hartrees.
 One-electron integrals computed using PRISM.
   1 Symmetry operations used in ECPInt.
 ECPInt:  NShTT=   18145 NPrTT=   50058 LenC2=   17293 LenP2D=   37044.
 LDataN:  DoStor=T MaxTD1= 6 Len=  172
 NBasis=   506 RedAO= T EigKep=  2.08D-04  NBF=   506
 NBsUse=   506 1.00D-06 EigRej= -1.00D+00 NBFU=   506
 Initial guess from the checkpoint file:  "IRC_EGdepattackQbiL_forward.chk"
 B after Tr=     0.000505    0.000098    0.000053
         Rot=    1.000000    0.000043    0.000007   -0.000043 Ang=   0.01 deg.
 ExpMin= 7.01D-02 ExpMax= 4.48D+04 ExpMxC= 1.53D+03 IAcc=3 IRadAn=         5 AccDes= 0.00D+00
 Harris functional with IExCor= 4639 and IRadAn=       5 diagonalized for initial guess.
 HarFok:  IExCor= 4639 AccDes= 0.00D+00 IRadAn=         5 IDoV= 1 UseB2=F ITyADJ=14
 ICtDFT=  3500011 ScaDFX=  1.000000  1.000000  1.000000  1.000000
 FoFCou: FMM=F IPFlag=           0 FMFlag=      100000 FMFlg1=           0
         NFxFlg=           0 DoJE=T BraDBF=F KetDBF=T FulRan=T
         wScrn=  0.000000 ICntrl=       500 IOpCl=  0 I1Cent=   200000004 NGrid=           0
         NMat0=    1 NMatS0=      1 NMatT0=    0 NMatD0=    1 NMtDS0=    0 NMtDT0=    0
 Symmetry not used in FoFCou.
 Requested convergence on RMS density matrix=1.00D-08 within 128 cycles.
 Requested convergence on MAX density matrix=1.00D-06.
 Requested convergence on             energy=1.00D-06.
 No special actions if energy rises.
 Integral accuracy reduced to 1.0D-05 until final iterations.
 Initial convergence to 1.0D-05 achieved.  Increase integral accuracy.
 SCF Done:  E(RwB97XD) =  -900.173998610     A.U. after   11 cycles
            NFock= 11  Conv=0.41D-08     -V/T= 2.0036
 DoSCS=F DFT=T ScalE2(SS,OS)=  1.000000  1.000000
 Range of M.O.s used for correlation:     1   506
 NBasis=   506 NAE=    49 NBE=    49 NFC=     0 NFV=     0
 NROrb=    506 NOA=    49 NOB=    49 NVA=   457 NVB=   457

 **** Warning!!: The largest alpha MO coefficient is  0.13803781D+02

 Symmetrizing basis deriv contribution to polar:
 IMax=3 JMax=2 DiffMx= 0.00D+00
   1 Symmetry operations used in ECPInt.
 ECPInt:  NShTT=   18145 NPrTT=   50058 LenC2=   17293 LenP2D=   37044.
 LDataN:  DoStor=T MaxTD1= 7 Len=  274
 Calling FoFJK, ICntrl=      2127 FMM=F ISym2X=0 I1Cent= 0 IOpClX= 0 NMat=1 NMatS=1 NMatT=0.
 -------------------------------------------------------------------
 Center     Atomic                   Forces (Hartrees/Bohr)
 Number     Number              X              Y              Z
 -------------------------------------------------------------------
      1       14          -0.001285202   -0.000064192   -0.000581019
      2        8          -0.000157375   -0.000085231   -0.000080060
      3        8          -0.000730738   -0.000209340   -0.000013022
      4        1          -0.000079729   -0.000003251   -0.000016796
      5        8           0.000241094    0.000227938   -0.000372127
      6        8          -0.000150226   -0.000346058    0.000048416
      7        6           0.000565520    0.000118550    0.000273765
      8        1           0.000059754    0.000030089    0.000027906
      9        1           0.000091061    0.000014632    0.000022323
     10        6           0.000230049    0.000067716    0.000064369
     11        1           0.000001892    0.000015792    0.000003781
     12        1           0.000044261    0.000002230   -0.000020642
     13        8           0.000549305    0.000304063    0.000538516
     14        1           0.000225445    0.000213492    0.000026281
     15        8           0.000040277    0.000051194   -0.000061820
     16        1          -0.000027140    0.000012386    0.000039178
     17        6           0.000157032   -0.000170538    0.000071945
     18        1           0.000037838   -0.000030627    0.000007332
     19        1           0.000016800   -0.000003386   -0.000004410
     20        6           0.000130650   -0.000111543    0.000014946
     21        1           0.000015166    0.000002173    0.000002094
     22        1           0.000024266   -0.000036090    0.000009044
 -------------------------------------------------------------------
 Cartesian Forces:  Max     0.001285202 RMS     0.000257685
 IRC-IRC-IRC-IRC-IRC-IRC-IRC-IRC-IRC-IRC-IRC-IRC-IRC-IRC-IRC-IRC-IRC-IRC
 Pt  2 Step number   1 out of a maximum of 100
 Modified Bulirsch-Stoer Extrapolation Cycles:
    EPS =    0.000010000000000
      PEZero:  N= 2 I= 1 D=  1.37D-03 Err=  1.83D-02
      PEZero:  N= 3 I= 2 D=  1.37D-03 Err=  3.24D-02
      PEZero:  N= 3 I= 1 D=  2.74D-03 Err=  3.04D-02
      PEZero:  N= 4 I= 3 D=  6.85D-04 Err=  5.74D-02
      PEZero:  N= 4 I= 2 D=  2.05D-03 Err=  4.41D-02
      PEZero:  N= 4 I= 1 D=  3.42D-03 Err=  3.46D-02
      PEZero:  N= 5 I= 4 D=  6.85D-04 Err=  7.57D-02
      PEZero:  N= 5 I= 3 D=  1.37D-03 Err=  5.62D-02
      PEZero:  N= 5 I= 2 D=  2.74D-03 Err=  3.41D-02
      PEZero:  N= 5 I= 1 D=  4.11D-03 Err=  2.26D-02
      PEZero:  N= 6 I= 5 D=  3.42D-04 Err=  1.70D-02
      PEZero:  N= 6 I= 4 D=  1.03D-03 Err=  5.31D-02
      PEZero:  N= 7 I= 6 D=  3.42D-04 Err=  6.51D-06
      PEZero:  N= 7 I= 5 D=  6.85D-04 Err=  1.70D-02
 Maximum DWI energy   std dev =  0.000000673 at pt   145
 Maximum DWI gradient std dev =  0.172814463 at pt   217
 CORRECTOR INTEGRATION CONVERGENCE:
   Recorrection delta-x convergence threshold:    0.010000
   Delta-x Convergence Met
 Point Number:   2          Path Number:   1
   CHANGE IN THE REACTION COORDINATE =    0.26283
   NET REACTION COORDINATE UP TO THIS POINT =    0.52579
  # OF POINTS ALONG THE PATH =   2
  # OF STEPS =   1

 Calculating another point on the path.
 IRC-IRC-IRC-IRC-IRC-IRC-IRC-IRC-IRC-IRC-IRC-IRC-IRC-IRC-IRC-IRC-IRC-IRC
                          Input orientation:                          
 ---------------------------------------------------------------------
 Center     Atomic      Atomic             Coordinates (Angstroms)
 Number     Number       Type             X           Y           Z
 ---------------------------------------------------------------------
      1         14           0        0.971514    0.544037   -0.035270
      2          8           0        1.704709   -0.669129   -0.929917
      3          8           0        2.240035    1.297943    0.787819
      4          1           0        2.582386    0.709823    1.455699
      5          8           0        0.526883    1.948252   -0.772742
      6          8           0        0.469132   -0.458056    1.239438
      7          6           0       -2.021471   -0.723437   -0.742743
      8          1           0       -1.784324   -1.806470   -0.694557
      9          1           0       -2.749314   -0.616097   -1.569419
     10          6           0       -2.743624   -0.354201    0.555434
     11          1           0       -2.134222   -0.665755    1.412811
     12          1           0       -3.717317   -0.852132    0.614351
     13          8           0       -0.931536    0.074225   -0.970218
     14          1           0       -0.262138    1.705100   -1.274052
     15          8           0       -2.964612    1.041280    0.601484
     16          1           0       -2.173863    1.397724    0.177147
     17          6           0        0.595096   -1.804987    0.868006
     18          1           0       -0.364798   -2.324842    0.966500
     19          1           0        1.305717   -2.290742    1.549942
     20          6           0        1.113480   -1.895128   -0.595977
     21          1           0        1.859681   -2.691693   -0.686762
     22          1           0        0.288566   -2.112715   -1.280077
 ---------------------------------------------------------------------
                    Distance matrix (angstroms):
                    1          2          3          4          5
     1  Si   0.000000
     2  O    1.676229   0.000000
     3  O    1.689673   2.665814   0.000000
     4  H    2.201223   2.891883   0.953495   0.000000
     5  O    1.647235   2.874485   2.406895   3.274867   0.000000
     6  O    1.697486   2.505455   2.534480   2.424160   3.137280
     7  C    3.326405   3.731274   4.958733   5.299329   3.692280
     8  H    3.681601   3.677267   5.294363   5.479369   4.409731
     9  H    4.188566   4.500011   5.840695   6.271876   4.236041
    10  C    3.867558   4.700331   5.255515   5.505362   4.214446
    11  H    3.634024   4.497307   4.835374   4.913293   4.323327
    12  H    4.935223   5.640622   6.335846   6.544756   5.270617
    13  O    2.171739   2.739340   3.827145   4.317025   2.382847
    14  H    2.098701   3.102238   3.267715   4.066133   0.965913
    15  O    4.018182   5.203196   5.214302   5.622165   3.860263
    16  H    3.266083   4.532196   4.457058   4.972908   2.915373
    17  C    2.544703   2.398737   3.512895   3.258677   4.096769
    18  H    3.319599   3.258932   4.465608   4.258450   4.698871
    19  H    3.265051   2.989736   3.785821   3.262232   4.895969
    20  C    2.506806   1.401478   3.657830   3.626683   3.891904
    21  H    3.418075   2.043014   4.270393   4.084453   4.828337
    22  H    3.012357   2.052319   4.440384   4.551132   4.099468
                    6          7          8          9         10
     6  O    0.000000
     7  C    3.194147   0.000000
     8  H    3.261383   1.109739   0.000000
     9  H    4.274699   1.106648   1.764534   0.000000
    10  C    3.286403   1.530720   2.142853   2.140939   0.000000
    11  H    2.617374   2.159271   2.421705   3.045406   1.097056
    12  H    4.251162   2.175812   2.521996   2.400331   1.095210
    13  O    2.669789   1.369660   2.083326   2.034675   2.407244
    14  H    3.395826   3.045544   3.870916   3.414856   3.707494
    15  O    3.800736   2.410537   3.344022   2.739720   1.413621
    16  H    3.399677   2.317056   3.343422   2.727107   1.880684
    17  C    1.402873   3.257405   2.846620   4.305761   3.653701
    18  H    2.062722   2.868898   2.245634   3.877707   3.116282
    19  H    2.038388   4.333939   3.849759   5.383133   4.597433
    20  C    2.418493   3.349973   2.900836   4.183861   4.310157
    21  H    3.260829   4.352069   3.749994   5.131279   5.310116
    22  H    3.019678   2.748653   2.175659   3.398868   3.956722
                   11         12         13         14         15
    11  H    0.000000
    12  H    1.782825   0.000000
    13  O    2.769991   3.336101   0.000000
    14  H    4.042881   4.695078   1.788900   0.000000
    15  O    2.064405   2.037581   2.745695   3.355839   0.000000
    16  H    2.405490   2.763195   2.147435   2.419742   0.965607
    17  C    3.007297   4.423707   3.039919   4.200473   4.565500
    18  H    2.466297   3.678623   3.134898   4.612054   4.268846
    19  H    3.806910   5.308088   4.116985   5.138080   5.498877
    20  C    4.011752   5.088156   2.863651   3.913279   5.165969
    21  H    4.946098   6.014963   3.939739   4.917196   6.234458
    22  H    3.900671   4.607063   2.523364   3.857333   4.906233
                   16         17         18         19         20
    16  H    0.000000
    17  C    4.289730   0.000000
    18  H    4.213466   1.096060   0.000000
    19  H    5.253268   1.098169   1.769798   0.000000
    20  C    4.716696   1.555665   2.193466   2.190532   0.000000
    21  H    5.808541   2.191512   2.795740   2.338906   1.095251
    22  H    4.528824   2.191556   2.349253   3.012523   1.093536
                   21         22
    21  H    0.000000
    22  H    1.776412   0.000000
 Symmetry turned off by external request.
 Stoichiometry    C4H11O6Si(1-)
 Framework group  C1[X(C4H11O6Si)]
 Deg. of freedom    60
 Full point group                 C1      NOp   1
 Rotational constants (GHZ):           1.3902324           0.7928199           0.6587488
 Standard basis: def2TZVPP (5D, 7F)
   506 basis functions,   766 primitive gaussians,   573 cartesian basis functions
    49 alpha electrons       49 beta electrons
       nuclear repulsion energy       863.4018474268 Hartrees.
 NAtoms=   22 NActive=   22 NUniq=   22 SFac= 1.00D+00 NAtFMM=   60 NAOKFM=F Big=F
 Integral buffers will be    131072 words long.
 Raffenetti 2 integral format.
 Two-electron integral symmetry is turned off.
 Nuclear repulsion after empirical dispersion term =      863.3869407767 Hartrees.
 One-electron integrals computed using PRISM.
   1 Symmetry operations used in ECPInt.
 ECPInt:  NShTT=   18145 NPrTT=   50058 LenC2=   17296 LenP2D=   37058.
 LDataN:  DoStor=T MaxTD1= 6 Len=  172
 NBasis=   506 RedAO= T EigKep=  2.08D-04  NBF=   506
 NBsUse=   506 1.00D-06 EigRej= -1.00D+00 NBFU=   506
 Initial guess from the checkpoint file:  "IRC_EGdepattackQbiL_forward.chk"
 B after Tr=     0.000566    0.000109    0.000077
         Rot=    1.000000    0.000037    0.000022   -0.000045 Ang=   0.01 deg.
 ExpMin= 7.01D-02 ExpMax= 4.48D+04 ExpMxC= 1.53D+03 IAcc=3 IRadAn=         5 AccDes= 0.00D+00
 Harris functional with IExCor= 4639 and IRadAn=       5 diagonalized for initial guess.
 HarFok:  IExCor= 4639 AccDes= 0.00D+00 IRadAn=         5 IDoV= 1 UseB2=F ITyADJ=14
 ICtDFT=  3500011 ScaDFX=  1.000000  1.000000  1.000000  1.000000
 FoFCou: FMM=F IPFlag=           0 FMFlag=      100000 FMFlg1=           0
         NFxFlg=           0 DoJE=T BraDBF=F KetDBF=T FulRan=T
         wScrn=  0.000000 ICntrl=       500 IOpCl=  0 I1Cent=   200000004 NGrid=           0
         NMat0=    1 NMatS0=      1 NMatT0=    0 NMatD0=    1 NMtDS0=    0 NMtDT0=    0
 Symmetry not used in FoFCou.
 Requested convergence on RMS density matrix=1.00D-08 within 128 cycles.
 Requested convergence on MAX density matrix=1.00D-06.
 Requested convergence on             energy=1.00D-06.
 No special actions if energy rises.
 Integral accuracy reduced to 1.0D-05 until final iterations.
 Initial convergence to 1.0D-05 achieved.  Increase integral accuracy.
 SCF Done:  E(RwB97XD) =  -900.174172738     A.U. after   11 cycles
            NFock= 11  Conv=0.34D-08     -V/T= 2.0036
 DoSCS=F DFT=T ScalE2(SS,OS)=  1.000000  1.000000
 Range of M.O.s used for correlation:     1   506
 NBasis=   506 NAE=    49 NBE=    49 NFC=     0 NFV=     0
 NROrb=    506 NOA=    49 NOB=    49 NVA=   457 NVB=   457

 **** Warning!!: The largest alpha MO coefficient is  0.13774388D+02

 Symmetrizing basis deriv contribution to polar:
 IMax=3 JMax=2 DiffMx= 0.00D+00
   1 Symmetry operations used in ECPInt.
 ECPInt:  NShTT=   18145 NPrTT=   50058 LenC2=   17296 LenP2D=   37058.
 LDataN:  DoStor=T MaxTD1= 7 Len=  274
 Calling FoFJK, ICntrl=      2127 FMM=F ISym2X=0 I1Cent= 0 IOpClX= 0 NMat=1 NMatS=1 NMatT=0.
 -------------------------------------------------------------------
 Center     Atomic                   Forces (Hartrees/Bohr)
 Number     Number              X              Y              Z
 -------------------------------------------------------------------
      1       14          -0.002084312   -0.000276135   -0.000914564
      2        8          -0.000217916   -0.000108382   -0.000115720
      3        8          -0.001029956   -0.000304505    0.000054487
      4        1          -0.000112980    0.000009494   -0.000028212
      5        8           0.000426922    0.000413515   -0.000553349
      6        8          -0.000237458   -0.000482701    0.000034574
      7        6           0.000767651    0.000131924    0.000411447
      8        1           0.000082639    0.000035890    0.000036172
      9        1           0.000110938    0.000012282    0.000023460
     10        6           0.000320934    0.000102403    0.000118393
     11        1           0.000005336    0.000025507    0.000013265
     12        1           0.000048239   -0.000002322   -0.000017332
     13        8           0.001009373    0.000594096    0.000808253
     14        1           0.000312255    0.000242383    0.000050310
     15        8           0.000034542    0.000068630   -0.000082640
     16        1          -0.000017323    0.000025717    0.000034959
     17        6           0.000242974   -0.000242648    0.000090464
     18        1           0.000066759   -0.000049579    0.000009286
     19        1           0.000026812    0.000001651   -0.000005689
     20        6           0.000194640   -0.000151240    0.000018157
     21        1           0.000022760    0.000004045    0.000001511
     22        1           0.000027169   -0.000050025    0.000012768
 -------------------------------------------------------------------
 Cartesian Forces:  Max     0.002084312 RMS     0.000404087
 IRC-IRC-IRC-IRC-IRC-IRC-IRC-IRC-IRC-IRC-IRC-IRC-IRC-IRC-IRC-IRC-IRC-IRC
 Pt  3 Step number   1 out of a maximum of 100
 Modified Bulirsch-Stoer Extrapolation Cycles:
    EPS =    0.000010000000000
      PEZero:  N= 2 I= 1 D=  1.37D-03 Err=  4.02D-02
      PEZero:  N= 3 I= 2 D=  1.37D-03 Err=  6.39D-02
      PEZero:  N= 3 I= 1 D=  2.74D-03 Err=  5.57D-02
      PEZero:  N= 4 I= 3 D=  6.85D-04 Err=  5.84D-02
      PEZero:  N= 4 I= 2 D=  2.05D-03 Err=  1.39D-02
      PEZero:  N= 4 I= 1 D=  3.42D-03 Err=  1.67D-02
      PEZero:  N= 5 I= 4 D=  6.85D-04 Err=  4.84D-06
      PEZero:  N= 5 I= 3 D=  1.37D-03 Err=  5.84D-02
 Maximum DWI energy   std dev =  0.000000396 at pt    87
 Maximum DWI gradient std dev =  0.135387075 at pt   112
 CORRECTOR INTEGRATION CONVERGENCE:
   Recorrection delta-x convergence threshold:    0.010000
   Delta-x Convergence Met
 Point Number:   3          Path Number:   1
   CHANGE IN THE REACTION COORDINATE =    0.26290
   NET REACTION COORDINATE UP TO THIS POINT =    0.78869
  # OF POINTS ALONG THE PATH =   3
  # OF STEPS =   1

 Calculating another point on the path.
 IRC-IRC-IRC-IRC-IRC-IRC-IRC-IRC-IRC-IRC-IRC-IRC-IRC-IRC-IRC-IRC-IRC-IRC
                          Input orientation:                          
 ---------------------------------------------------------------------
 Center     Atomic      Atomic             Coordinates (Angstroms)
 Number     Number       Type             X           Y           Z
 ---------------------------------------------------------------------
      1         14           0        0.958873    0.541732   -0.040475
      2          8           0        1.702341   -0.670170   -0.931263
      3          8           0        2.228347    1.294744    0.787816
      4          1           0        2.565373    0.705174    1.457080
      5          8           0        0.533963    1.955097   -0.777875
      6          8           0        0.466435   -0.462954    1.239875
      7          6           0       -2.009693   -0.721190   -0.736923
      8          1           0       -1.770034   -1.802908   -0.687742
      9          1           0       -2.732266   -0.614417   -1.567635
     10          6           0       -2.738830   -0.352682    0.557077
     11          1           0       -2.132331   -0.661798    1.417272
     12          1           0       -3.711210   -0.853578    0.611471
     13          8           0       -0.920575    0.080875   -0.961360
     14          1           0       -0.252082    1.727949   -1.287987
     15          8           0       -2.964589    1.042122    0.600764
     16          1           0       -2.173043    1.401670    0.180696
     17          6           0        0.598852   -1.808794    0.869095
     18          1           0       -0.357905   -2.334699    0.969129
     19          1           0        1.312877   -2.291151    1.550044
     20          6           0        1.116346   -1.897601   -0.595612
     21          1           0        1.865114   -2.691831   -0.686325
     22          1           0        0.291875   -2.120489   -1.278972
 ---------------------------------------------------------------------
                    Distance matrix (angstroms):
                    1          2          3          4          5
     1  Si   0.000000
     2  O    1.677782   0.000000
     3  O    1.692530   2.663232   0.000000
     4  H    2.202323   2.888006   0.953464   0.000000
     5  O    1.649820   2.877614   2.399665   3.268633   0.000000
     6  O    1.700348   2.506839   2.529465   2.411896   3.150054
     7  C    3.300364   3.717468   4.934553   5.270616   3.692475
     8  H    3.655575   3.660572   5.268755   5.448531   4.408982
     9  H    4.158534   4.480381   5.813839   6.241410   4.230174
    10  C    3.850981   4.694673   5.238331   5.483032   4.221269
    11  H    3.623403   4.496709   4.820766   4.892710   4.333120
    12  H    4.917479   5.632069   6.318602   6.522289   5.276403
    13  O    2.143069   2.728491   3.801159   4.288407   2.379507
    14  H    2.104711   3.114160   3.263305   4.064421   0.964198
    15  O    4.006886   5.201855   5.202442   5.606005   3.869630
    16  H    3.255351   4.532943   4.444352   4.956495   2.924554
    17  C    2.545959   2.399050   3.506254   3.245453   4.108965
    18  H    3.320702   3.259872   4.460318   4.245525   4.716969
    19  H    3.268072   2.989339   3.778587   3.248900   4.904746
    20  C    2.506656   1.400943   3.652600   3.617687   3.900727
    21  H    3.419697   2.042940   4.265890   4.077278   4.834695
    22  H    3.011011   2.052741   4.436819   4.543033   4.113406
                    6          7          8          9         10
     6  O    0.000000
     7  C    3.178935   0.000000
     8  H    3.242372   1.109039   0.000000
     9  H    4.258725   1.106162   1.764259   0.000000
    10  C    3.279039   1.530319   2.142731   2.140783   0.000000
    11  H    2.612392   2.158501   2.421668   3.044969   1.096963
[...]
    15  O    3.854927   2.404080   3.332800   2.758789   1.412949
    16  H    3.510394   2.314222   3.319864   2.737621   1.887508
    17  C    1.386601   3.237282   2.598854   4.195864   3.823093
    18  H    2.061645   3.096530   2.237745   3.987934   3.530265
    19  H    2.048545   4.327463   3.676694   5.297751   4.788513
    20  C    2.391666   3.329455   2.709136   4.021006   4.429245
    21  H    3.264716   4.378789   3.657702   5.006740   5.470984
    22  H    2.962707   2.850220   2.123796   3.313274   4.133743
                   11         12         13         14         15
    11  H    0.000000
    12  H    1.783384   0.000000
    13  O    2.778746   3.322265   0.000000
    14  H    4.519838   5.103895   2.014217   0.000000
    15  O    2.067720   2.037725   2.685634   3.844324   0.000000
    16  H    2.422930   2.764359   2.075564   2.921609   0.965243
    17  C    3.275607   4.519109   3.198663   4.604718   4.830612
    18  H    2.983651   3.988721   3.520193   5.232820   4.753893
    19  H    4.095742   5.467703   4.213103   5.419871   5.758173
    20  C    4.228945   5.124525   3.059439   4.151608   5.348636
    21  H    5.212682   6.106673   4.138924   5.065292   6.435340
    22  H    4.161080   4.671752   2.893408   4.209746   5.136983
                   16         17         18         19         20
    16  H    0.000000
    17  C    4.582837   0.000000
    18  H    4.718011   1.101965   0.000000
    19  H    5.506328   1.102618   1.768536   0.000000
    20  C    4.939928   1.550579   2.190651   2.180906   0.000000
    21  H    6.033586   2.188996   2.752020   2.340422   1.096362
    22  H    4.818077   2.191647   2.360550   3.023643   1.099121
                   21         22
    21  H    0.000000
    22  H    1.766976   0.000000
 Symmetry turned off by external request.
 Stoichiometry    C4H11O6Si(1-)
 Framework group  C1[X(C4H11O6Si)]
 Deg. of freedom    60
 Full point group                 C1      NOp   1
 Rotational constants (GHZ):           1.3466230           0.8307264           0.6744254
 Standard basis: def2TZVPP (5D, 7F)
   506 basis functions,   766 primitive gaussians,   573 cartesian basis functions
    49 alpha electrons       49 beta electrons
       nuclear repulsion energy       870.5819259101 Hartrees.
 NAtoms=   22 NActive=   22 NUniq=   22 SFac= 1.00D+00 NAtFMM=   60 NAOKFM=F Big=F
 Integral buffers will be    131072 words long.
 Raffenetti 2 integral format.
 Two-electron integral symmetry is turned off.
 Nuclear repulsion after empirical dispersion term =      870.5675458525 Hartrees.
 One-electron integrals computed using PRISM.
   1 Symmetry operations used in ECPInt.
 ECPInt:  NShTT=   18145 NPrTT=   50058 LenC2=   17313 LenP2D=   37107.
 LDataN:  DoStor=T MaxTD1= 6 Len=  172
 NBasis=   506 RedAO= T EigKep=  2.16D-04  NBF=   506
 NBsUse=   506 1.00D-06 EigRej= -1.00D+00 NBFU=   506
 Initial guess from the checkpoint file:  "IRC_EGdepattackQbiL_forward.chk"
 B after Tr=     0.000034   -0.000048    0.000052
         Rot=    1.000000    0.000010   -0.000021   -0.000013 Ang=   0.00 deg.
 ExpMin= 7.01D-02 ExpMax= 4.48D+04 ExpMxC= 1.53D+03 IAcc=3 IRadAn=         5 AccDes= 0.00D+00
 Harris functional with IExCor= 4639 and IRadAn=       5 diagonalized for initial guess.
 HarFok:  IExCor= 4639 AccDes= 0.00D+00 IRadAn=         5 IDoV= 1 UseB2=F ITyADJ=14
 ICtDFT=  3500011 ScaDFX=  1.000000  1.000000  1.000000  1.000000
 FoFCou: FMM=F IPFlag=           0 FMFlag=      100000 FMFlg1=           0
         NFxFlg=           0 DoJE=T BraDBF=F KetDBF=T FulRan=T
         wScrn=  0.000000 ICntrl=       500 IOpCl=  0 I1Cent=   200000004 NGrid=           0
         NMat0=    1 NMatS0=      1 NMatT0=    0 NMatD0=    1 NMtDS0=    0 NMtDT0=    0
 Symmetry not used in FoFCou.
 Requested convergence on RMS density matrix=1.00D-08 within 128 cycles.
 Requested convergence on MAX density matrix=1.00D-06.
 Requested convergence on             energy=1.00D-06.
 No special actions if energy rises.
 Integral accuracy reduced to 1.0D-05 until final iterations.
 Initial convergence to 1.0D-05 achieved.  Increase integral accuracy.
 SCF Done:  E(RwB97XD) =  -900.186746117     A.U. after    9 cycles
            NFock=  9  Conv=0.47D-08     -V/T= 2.0035
 DoSCS=F DFT=T ScalE2(SS,OS)=  1.000000  1.000000
 Range of M.O.s used for correlation:     1   506
 NBasis=   506 NAE=    49 NBE=    49 NFC=     0 NFV=     0
 NROrb=    506 NOA=    49 NOB=    49 NVA=   457 NVB=   457

 **** Warning!!: The largest alpha MO coefficient is  0.12610313D+02

 Symmetrizing basis deriv contribution to polar:
 IMax=3 JMax=2 DiffMx= 0.00D+00
   1 Symmetry operations used in ECPInt.
 ECPInt:  NShTT=   18145 NPrTT=   50058 LenC2=   17313 LenP2D=   37107.
 LDataN:  DoStor=T MaxTD1= 7 Len=  274
 Calling FoFJK, ICntrl=      2127 FMM=F ISym2X=0 I1Cent= 0 IOpClX= 0 NMat=1 NMatS=1 NMatT=0.
 -------------------------------------------------------------------
 Center     Atomic                   Forces (Hartrees/Bohr)
 Number     Number              X              Y              Z
 -------------------------------------------------------------------
      1       14          -0.001081301   -0.000123280   -0.000870899
      2        8          -0.000432238    0.000179863   -0.000711799
      3        8          -0.004407396    0.001005581    0.001856715
      4        1          -0.000403461   -0.000400893    0.000852383
      5        8           0.005193814   -0.001949357   -0.002162957
      6        8          -0.000535360   -0.002572608   -0.001241956
      7        6           0.000649998    0.000697042    0.001513304
      8        1           0.000104535    0.000196243    0.000183464
      9        1           0.000128576   -0.000029561    0.000154687
     10        6          -0.000256745    0.000705574    0.000917331
     11        1          -0.000053000    0.000127885    0.000085957
     12        1           0.000028095    0.000011621    0.000069089
     13        8          -0.000753290    0.002860076    0.002089419
     14        1          -0.001220955    0.000074954   -0.001828886
     15        8          -0.001570829    0.000559070   -0.000051362
     16        1          -0.000111261    0.000041010   -0.000003696
     17        6           0.002324416   -0.000994561   -0.000212683
     18        1           0.000451918   -0.000073781    0.000001533
     19        1           0.000164283    0.000121535   -0.000116668
     20        6           0.001483750   -0.000410592   -0.000446894
     21        1           0.000162558    0.000057960   -0.000090940
     22        1           0.000133892   -0.000083781    0.000014859
 -------------------------------------------------------------------
 Cartesian Forces:  Max     0.005193814 RMS     0.001269400
 IRC-IRC-IRC-IRC-IRC-IRC-IRC-IRC-IRC-IRC-IRC-IRC-IRC-IRC-IRC-IRC-IRC-IRC
 Error in corrector energy =          -0.0000124586
 Magnitude of corrector gradient =     0.0099619359
 Magnitude of analytic gradient =      0.0103126524
 Magnitude of difference =             0.0033660658
 Angle between gradients (degrees)=   19.0113
 Pt 26 Step number  99 out of a maximum of 100
 Modified Bulirsch-Stoer Extrapolation Cycles:
    EPS =    0.000010000000000
      PEZero:  N= 2 I= 1 D=  1.37D-03 Err=  8.17D-05
      PEZero:  N= 3 I= 2 D=  1.37D-03 Err=  5.42D-05
      PEZero:  N= 3 I= 1 D=  2.74D-03 Err=  4.29D-07
 Maximum DWI energy   std dev =  0.000006490 at pt    24
 Maximum DWI gradient std dev =  0.417213902 at pt    37
 CORRECTOR INTEGRATION CONVERGENCE:
   Recorrection delta-x convergence threshold:    0.010000
   Delta-x Convergence NOT Met
 IRC-IRC-IRC-IRC-IRC-IRC-IRC-IRC-IRC-IRC-IRC-IRC-IRC-IRC-IRC-IRC-IRC-IRC
                          Input orientation:                          
 ---------------------------------------------------------------------
 Center     Atomic      Atomic             Coordinates (Angstroms)
 Number     Number       Type             X           Y           Z
 ---------------------------------------------------------------------
      1         14           0        0.802414    0.519002   -0.117376
      2          8           0        1.652738   -0.670834   -0.976668
      3          8           0        1.938546    1.271218    0.906947
      4          1           0        2.076379    0.695339    1.655435
      5          8           0        0.753730    1.965929   -0.993563
      6          8           0        0.394725   -0.615002    1.189822
      7          6           0       -1.843638   -0.667577   -0.582741
      8          1           0       -1.462299   -1.686047   -0.444911
      9          1           0       -2.489413   -0.684003   -1.472363
     10          6           0       -2.688401   -0.297469    0.630486
     11          1           0       -2.122215   -0.525440    1.539264
     12          1           0       -3.621846   -0.868824    0.637549
     13          8           0       -0.856139    0.282179   -0.798835
     14          1           0        0.031481    1.902511   -1.617156
     15          8           0       -3.016377    1.076084    0.584998
     16          1           0       -2.236459    1.479886    0.184545
     17          6           0        0.769342   -1.910598    0.868809
     18          1           0       -0.059271   -2.618496    1.027593
     19          1           0        1.596446   -2.240544    1.518342
     20          6           0        1.229467   -1.948485   -0.611438
     21          1           0        2.050610   -2.663688   -0.738457
     22          1           0        0.406988   -2.279623   -1.260867
 ---------------------------------------------------------------------
                    Distance matrix (angstroms):
                    1          2          3          4          5
     1  Si   0.000000
     2  O    1.696214   0.000000
     3  O    1.704660   2.720525   0.000000
     4  H    2.190192   2.995641   0.954394   0.000000
     5  O    1.692239   2.785861   2.344857   3.221955   0.000000
     6  O    1.777904   2.505871   2.453819   2.182143   3.399598
     7  C    2.937026   3.518499   4.503667   4.715242   3.721620
     8  H    3.177804   3.319167   4.705176   4.754439   4.306824
     9  H    3.757570   4.171727   5.393592   5.703697   4.215373
    10  C    3.662200   4.644117   4.893450   4.973863   4.428180
    11  H    3.519768   4.538868   4.485263   4.374013   4.570908
    12  H    4.697876   5.519613   5.964085   5.996037   5.462785
    13  O    1.808665   2.689669   3.420257   3.846272   2.337651
    14  H    2.181233   3.108183   3.225915   4.043356   0.956313
    15  O    3.922605   5.224094   4.969205   5.217947   4.182988
    16  H    3.201437   4.593458   4.242178   4.623808   3.250447
    17  C    2.622329   2.392318   3.390051   3.019608   4.300714
    18  H    3.449253   3.277411   4.374437   3.992078   5.075727
    19  H    3.304716   2.948258   3.580964   2.978009   4.971343
    20  C    2.552443   1.394612   3.629707   3.584101   3.961690
    21  H    3.474659   2.046097   4.266544   4.124857   4.814596
    22  H    3.048973   2.054474   4.433234   4.487993   4.268067
                    6          7          8          9         10
     6  O    0.000000
     7  C    2.855698   0.000000
     8  H    2.695928   1.096219   0.000000
     9  H    3.925588   1.099420   1.764855   0.000000
    10  C    3.149500   1.523982   2.141950   2.147318   0.000000
    11  H    2.542660   2.144927   2.391537   3.038071   1.094721
    12  H    4.062299   2.166017   2.550140   2.401727   1.094448
    13  O    2.514827   1.387043   2.089642   2.013637   2.395023
    14  H    3.788000   3.345361   4.059961   3.614682   4.158072
    15  O    3.855023   2.404014   3.332452   2.758320   1.412900
    16  H    3.510308   2.314008   3.319438   2.737105   1.887354
    17  C    1.386346   3.237247   2.599328   4.195845   3.822953
    18  H    2.060683   3.095679   2.237458   3.987184   3.529473
    19  H    2.048034   4.327002   3.676649   5.297299   4.787874
    20  C    2.391549   3.329493   2.709651   4.021216   4.429212
    21  H    3.264556   4.378799   3.658208   5.006954   5.470943
    22  H    2.962598   2.850239   2.124229   3.313589   4.133712
                   11         12         13         14         15
    11  H    0.000000
    12  H    1.783226   0.000000
    13  O    2.778832   3.322220   0.000000
    14  H    4.527289   5.109872   2.020642   0.000000
    15  O    2.067615   2.037651   2.685500   3.849922   0.000000
    16  H    2.422735   2.764227   2.075288   2.927164   0.965241
    17  C    3.275558   4.518994   3.198672   4.611319   4.830372
    18  H    2.983023   3.988161   3.519198   5.238553   4.752925
    19  H    4.095175   5.466990   4.212910   5.426358   5.757542
    20  C    4.228989   5.124536   3.059532   4.156538   5.348521
    21  H    5.212733   6.106692   4.138958   5.069435   6.435199
    22  H    4.161101   4.671813   2.893405   4.214047   5.136868
                   16         17         18         19         20
    16  H    0.000000
    17  C    4.582405   0.000000
    18  H    4.716737   1.101332   0.000000
    19  H    5.505612   1.102205   1.767789   0.000000
    20  C    4.939632   1.550575   2.190019   2.180810   0.000000
    21  H    6.033249   2.189086   2.751831   2.340610   1.096323
    22  H    4.817772   2.191575   2.359933   3.023299   1.099037
                   21         22
    21  H    0.000000
    22  H    1.766894   0.000000
 Symmetry turned off by external request.
 Stoichiometry    C4H11O6Si(1-)
 Framework group  C1[X(C4H11O6Si)]
 Deg. of freedom    60
 Full point group                 C1      NOp   1
 Rotational constants (GHZ):           1.3466821           0.8307277           0.6744464
 Standard basis: def2TZVPP (5D, 7F)
   506 basis functions,   766 primitive gaussians,   573 cartesian basis functions
    49 alpha electrons       49 beta electrons
       nuclear repulsion energy       870.5697278582 Hartrees.
 NAtoms=   22 NActive=   22 NUniq=   22 SFac= 1.00D+00 NAtFMM=   60 NAOKFM=F Big=F
 Integral buffers will be    131072 words long.
 Raffenetti 2 integral format.
 Two-electron integral symmetry is turned off.
 Nuclear repulsion after empirical dispersion term =      870.5553507222 Hartrees.
 One-electron integrals computed using PRISM.
   1 Symmetry operations used in ECPInt.
 ECPInt:  NShTT=   18145 NPrTT=   50058 LenC2=   17313 LenP2D=   37106.
 LDataN:  DoStor=T MaxTD1= 6 Len=  172
 NBasis=   506 RedAO= T EigKep=  2.16D-04  NBF=   506
 NBsUse=   506 1.00D-06 EigRej= -1.00D+00 NBFU=   506
 Initial guess from the checkpoint file:  "IRC_EGdepattackQbiL_forward.chk"
 B after Tr=    -0.000034    0.000048   -0.000052
         Rot=    1.000000   -0.000010    0.000021    0.000013 Ang=  -0.00 deg.
 ExpMin= 7.01D-02 ExpMax= 4.48D+04 ExpMxC= 1.53D+03 IAcc=3 IRadAn=         5 AccDes= 0.00D+00
 Harris functional with IExCor= 4639 and IRadAn=       5 diagonalized for initial guess.
 HarFok:  IExCor= 4639 AccDes= 0.00D+00 IRadAn=         5 IDoV= 1 UseB2=F ITyADJ=14
 ICtDFT=  3500011 ScaDFX=  1.000000  1.000000  1.000000  1.000000
 FoFCou: FMM=F IPFlag=           0 FMFlag=      100000 FMFlg1=           0
         NFxFlg=           0 DoJE=T BraDBF=F KetDBF=T FulRan=T
         wScrn=  0.000000 ICntrl=       500 IOpCl=  0 I1Cent=   200000004 NGrid=           0
         NMat0=    1 NMatS0=      1 NMatT0=    0 NMatD0=    1 NMtDS0=    0 NMtDT0=    0
 Symmetry not used in FoFCou.
 Requested convergence on RMS density matrix=1.00D-08 within 128 cycles.
 Requested convergence on MAX density matrix=1.00D-06.
 Requested convergence on             energy=1.00D-06.
 No special actions if energy rises.
 Integral accuracy reduced to 1.0D-05 until final iterations.
 Initial convergence to 1.0D-05 achieved.  Increase integral accuracy.
 SCF Done:  E(RwB97XD) =  -900.186746585     A.U. after    9 cycles
            NFock=  9  Conv=0.58D-08     -V/T= 2.0036
 DoSCS=F DFT=T ScalE2(SS,OS)=  1.000000  1.000000
 Range of M.O.s used for correlation:     1   506
 NBasis=   506 NAE=    49 NBE=    49 NFC=     0 NFV=     0
 NROrb=    506 NOA=    49 NOB=    49 NVA=   457 NVB=   457

 **** Warning!!: The largest alpha MO coefficient is  0.12616420D+02

 Symmetrizing basis deriv contribution to polar:
 IMax=3 JMax=2 DiffMx= 0.00D+00
   1 Symmetry operations used in ECPInt.
 ECPInt:  NShTT=   18145 NPrTT=   50058 LenC2=   17313 LenP2D=   37106.
 LDataN:  DoStor=T MaxTD1= 7 Len=  274
 Calling FoFJK, ICntrl=      2127 FMM=F ISym2X=0 I1Cent= 0 IOpClX= 0 NMat=1 NMatS=1 NMatT=0.
 -------------------------------------------------------------------
 Center     Atomic                   Forces (Hartrees/Bohr)
 Number     Number              X              Y              Z
 -------------------------------------------------------------------
      1       14          -0.001401418   -0.000315478   -0.001062898
      2        8          -0.000416945    0.000202546   -0.000736995
      3        8          -0.004233536    0.000164518    0.003071657
      4        1          -0.000567892    0.000461698   -0.000297359
      5        8           0.002463081   -0.001515374   -0.005037036
      6        8          -0.000578808   -0.002311809   -0.001201617
      7        6           0.000601553    0.000840443    0.001614221
      8        1           0.000199881    0.000035890    0.000195670
      9        1           0.000053290   -0.000047142    0.000035669
     10        6          -0.000259309    0.000700388    0.000919169
     11        1          -0.000023906    0.000117013    0.000108376
     12        1          -0.000001186   -0.000007974    0.000058996
     13        8          -0.000718683    0.002814522    0.002114722
     14        1           0.001827651   -0.000120825    0.001153854
     15        8          -0.001580977    0.000589222   -0.000043206
     16        1          -0.000094885    0.000055757   -0.000022486
     17        6           0.002387330   -0.000909143   -0.000411304
     18        1           0.000184416   -0.000351271    0.000060855
     19        1           0.000368480    0.000046032    0.000004257
     20        6           0.001523060   -0.000372956   -0.000433941
     21        1           0.000178654    0.000031275   -0.000081055
     22        1           0.000090149   -0.000107333   -0.000009549
 -------------------------------------------------------------------
 Cartesian Forces:  Max     0.005037036 RMS     0.001280202
 IRC-IRC-IRC-IRC-IRC-IRC-IRC-IRC-IRC-IRC-IRC-IRC-IRC-IRC-IRC-IRC-IRC-IRC
 Error in corrector energy =          -0.0000128862
 Magnitude of corrector gradient =     0.0099593053
 Magnitude of analytic gradient =      0.0104004075
 Magnitude of difference =             0.0033717549
 Angle between gradients (degrees)=   18.9044
 Pt 26 Step number 100 out of a maximum of 100
 Modified Bulirsch-Stoer Extrapolation Cycles:
    EPS =    0.000010000000000
      PEZero:  N= 2 I= 1 D=  1.37D-03 Err=  1.92D-05
      PEZero:  N= 3 I= 2 D=  1.37D-03 Err=  1.27D-05
      PEZero:  N= 3 I= 1 D=  2.74D-03 Err=  1.40D-07
 Maximum DWI energy   std dev =  0.000003907 at pt    28
 Maximum DWI gradient std dev =  0.278568920 at pt    28
 CORRECTOR INTEGRATION CONVERGENCE:
   Recorrection delta-x convergence threshold:    0.010000
   Delta-x Convergence NOT Met
 Maximum number of corrector steps exceded.
 Error termination via Lnk1e in /opt/software/gaussian/g16.c01/l123.exe at Wed Mar 20 10:25:54 2024.
 Job cpu time:       6 days 21 hours 41 minutes 33.4 seconds.
 Elapsed time:       1 days 19 hours 24 minutes 20.5 seconds.
 File lengths (MBytes):  RWF=    436 Int=      0 D2E=      0 Chk=     21 Scr=      1
