 Entering Gaussian System, Link 0=/opt/software/gaussian/g16.c01/g16
 Initial command:
 /opt/software/gaussian/g16.c01/l1.exe "/scratch/arhender/17270146/Gau-229422.inp" -scrdir="/scratch/arhender/17270146/"
 Entering Link 1 = /opt/software/gaussian/g16.c01/l1.exe PID=    229423.
  
 Copyright (c) 1988-2019, Gaussian, Inc.  All Rights Reserved.
  
 This is part of the Gaussian(R) 16 program.  It is based on
 the Gaussian(R) 09 system (copyright 2009, Gaussian, Inc.),
 the Gaussian(R) 03 system (copyright 2003, Gaussian, Inc.),
 the Gaussian(R) 98 system (copyright 1998, Gaussian, Inc.),
 the Gaussian(R) 94 system (copyright 1995, Gaussian, Inc.),
 the Gaussian 92(TM) system (copyright 1992, Gaussian, Inc.),
 the Gaussian 90(TM) system (copyright 1990, Gaussian, Inc.),
 the Gaussian 88(TM) system (copyright 1988, Gaussian, Inc.),
 the Gaussian 86(TM) system (copyright 1986, Carnegie Mellon
 University), and the Gaussian 82(TM) system (copyright 1983,
 Carnegie Mellon University). Gaussian is a federally registered
 trademark of Gaussian, Inc.
  
 This software contains proprietary and confidential information,
 including trade secrets, belonging to Gaussian, Inc.
  
 This software is provided under written license and may be
 used, copied, transmitted, or stored only in accord with that
 written license.
  
 The following legend is applicable only to US Government
 contracts under FAR:
  
                    RESTRICTED RIGHTS LEGEND
  
 Use, reproduction and disclosure by the US Government is
 subject to restrictions as set forth in subparagraphs (a)
 and (c) of the Commercial Computer Software - Restricted
 Rights clause in FAR 52.227-19.
  
 Gaussian, Inc.
 340 Quinnipiac St., Bldg. 40, Wallingford CT 06492
  
  
 ---------------------------------------------------------------
 Warning -- This program may not be used in any manner that
 competes with the business of Gaussian, Inc. or will provide
 assistance to any competitor of Gaussian, Inc.  The licensee
 of this program is prohibited from giving any competitor of
 Gaussian, Inc. access to this program.  By using this program,
 the user acknowledges that Gaussian, Inc. is engaged in the
 business of creating and licensing software in the field of
 computational chemistry and represents and warrants to the
 licensee that it is not a competitor of Gaussian, Inc. and that
 it will not use this program in any manner prohibited above.
 ---------------------------------------------------------------
  

 Cite this work as:
 Gaussian 16, Revision C.01,
 M. J. Frisch, G. W. Trucks, H. B. Schlegel, G. E. Scuseria, 
 M. A. Robb, J. R. Cheeseman, G. Scalmani, V. Barone, 
 G. A. Petersson, H. Nakatsuji, X. Li, M. Caricato, A. V. Marenich, 
 J. Bloino, B. G. Janesko, R. Gomperts, B. Mennucci, H. P. Hratchian, 
 J. V. Ortiz, A. F. Izmaylov, J. L. Sonnenberg, D. Williams-Young, 
 F. Ding, F. Lipparini, F. Egidi, J. Goings, B. Peng, A. Petrone, 
 T. Henderson, D. Ranasinghe, V. G. Zakrzewski, J. Gao, N. Rega, 
 G. Zheng, W. Liang, M. Hada, M. Ehara, K. Toyota, R. Fukuda, 
 J. Hasegawa, M. Ishida, T. Nakajima, Y. Honda, O. Kitao, H. Nakai, 
 T. Vreven, K. Throssell, J. A. Montgomery, Jr., J. E. Peralta, 
 F. Ogliaro, M. J. Bearpark, J. J. Heyd, E. N. Brothers, K. N. Kudin, 
 V. N. Staroverov, T. A. Keith, R. Kobayashi, J. Normand, 
 K. Raghavachari, A. P. Rendell, J. C. Burant, S. S. Iyengar, 
 J. Tomasi, M. Cossi, J. M. Millam, M. Klene, C. Adamo, R. Cammi, 
 J. W. Ochterski, R. L. Martin, K. Morokuma, O. Farkas, 
 J. B. Foresman, and D. J. Fox, Gaussian, Inc., Wallingford CT, 2019.
 
 ******************************************
 Gaussian 16:  ES64L-G16RevC.01  3-Jul-2019
                26-Feb-2024 
 ******************************************
 %chk=QbiLmL_to_PbiL2_IRCforward.chk
 %mem=1600MB
 %nprocs=4
 Will use up to    4 processors via shared memory.
 ----------------------------------------------------------------------
 # irc=(forward,calcfc,maxpoints=100,maxcycle=100) wb97xd/def2tzvpp geo
 m=connectivity
 ----------------------------------------------------------------------
 1/6=100,10=4,18=10,22=1,26=3,38=1,42=100,44=3,57=2,172=1/1,23;
 2/12=2,17=6,18=5,29=1,40=1/2;
 3/5=44,7=202,11=2,25=1,30=1,71=2,74=-58,140=1/1,2,3;
 4//1;
 5/5=2,38=5/2;
 8/6=4,10=90,11=11/1;
 11/6=1,8=1,9=11,15=111,16=1/1,2,10;
 10/6=1,13=1/2;
 6/7=2,8=2,9=2,10=2,28=1/1;
 7/10=1,25=1/1,2,3,16;
 1/6=100,10=4,18=10,22=1,26=3,42=100,44=3/23(2);
 2/29=1/2;
 99/5=20/99;
 2/29=1/2;
 3/5=44,7=202,11=2,25=1,30=1,71=2,74=-58,140=1/1,2,3;
 4/5=5,16=3,69=1/1;
 5/5=2,38=5/2;
 8/6=4,10=90,11=11/1;
 11/6=1,8=1,9=11,15=111,16=1/1,2,10;
 10/6=1,13=1/2;
 7/10=1,25=1/1,2,3,16;
 1/6=100,18=10,22=1,26=3,42=100,44=3/23(-8);
 2/29=1/2;
 6/7=2,8=2,9=2,10=2,19=2,28=1/1;
 99/5=20,9=1/99;
 ----------------------------------------------------------------------
 convert QmonoL to QbiL attacking OH deprotonated TS to QbiLmonoL to Qb
 iL2
 ----------------------------------------------------------------------
 Symbolic Z-matrix:
 Charge = -1 Multiplicity = 1
 Si                    0.23308   0.30083  -0.22238 
 O                     0.9471   -0.13821   1.22954 
 O                    -0.32651   1.80452  -0.32197 
 H                    -1.2077    1.62557   0.20708 
 O                     1.64649   0.17918  -1.12723 
 O                    -0.69205  -0.90232  -0.84565 
 C                    -1.93948  -1.30802  -0.3212 
 H                    -1.76675  -1.93919   0.56019 
 H                    -2.44163  -1.90983  -1.08871 
 C                    -2.78675  -0.10573   0.09592 
 H                    -3.09887   0.41122  -0.84048 
 H                    -3.7248   -0.51559   0.53386 
 O                    -2.09519   0.6954    0.94868 
 C                     2.74886  -0.0461   -0.29427 
 H                     3.47577  -0.69439  -0.79533 
 H                     3.24714   0.90433  -0.05692 
 C                     2.21269  -0.69336   0.99037 
 H                     2.13274  -1.78131   0.85761 
 H                     2.87037  -0.50176   1.84402 
 
 IRC-IRC-IRC-IRC-IRC-IRC-IRC-IRC-IRC-IRC-IRC-IRC-IRC-IRC-IRC-IRC-IRC-IRC
 ------------------------------------------------------------------------
 INPUT DATA FOR L123
 ------------------------------------------------------------------------
 GENERAL PARAMETERS:
 Rxn path following direction = Forward
 Maximum points per path      = 100
 Step size                    =   0.100 bohr
 Integration scheme           = HPC                                 
    Redo corrector integration= Yes                                 
    DWI Weight Power          =  2
    DWI will use Hessian update vectors when possible.
    Max correction cycles     = 100
 Initial Hessian              = CalcFC
 Hessian evaluation           = All updating
 Hessian updating method      = Bofill                              
 ------------------------------------------------------------------------
 IRC-IRC-IRC-IRC-IRC-IRC-IRC-IRC-IRC-IRC-IRC-IRC-IRC-IRC-IRC-IRC-IRC-IRC
                          Input orientation:                          
 ---------------------------------------------------------------------
 Center     Atomic      Atomic             Coordinates (Angstroms)
 Number     Number       Type             X           Y           Z
 ---------------------------------------------------------------------
      1         14           0        0.233081    0.300832   -0.222377
      2          8           0        0.947098   -0.138205    1.229541
      3          8           0       -0.326511    1.804519   -0.321969
      4          1           0       -1.207700    1.625565    0.207079
      5          8           0        1.646491    0.179183   -1.127233
      6          8           0       -0.692048   -0.902322   -0.845645
      7          6           0       -1.939478   -1.308021   -0.321200
      8          1           0       -1.766750   -1.939186    0.560187
      9          1           0       -2.441626   -1.909825   -1.088705
     10          6           0       -2.786750   -0.105727    0.095920
     11          1           0       -3.098870    0.411221   -0.840476
     12          1           0       -3.724802   -0.515590    0.533856
     13          8           0       -2.095195    0.695398    0.948683
     14          6           0        2.748858   -0.046103   -0.294269
     15          1           0        3.475773   -0.694393   -0.795332
     16          1           0        3.247142    0.904330   -0.056923
     17          6           0        2.212687   -0.693362    0.990372
     18          1           0        2.132739   -1.781313    0.857613
     19          1           0        2.870369   -0.501763    1.844022
 ---------------------------------------------------------------------
                    Distance matrix (angstroms):
                    1          2          3          4          5
     1  Si   0.000000
     2  O    1.676496   0.000000
     3  O    1.607525   2.793464   0.000000
     4  H    2.003796   2.966390   1.043269   0.000000
     5  O    1.682644   2.478764   2.680094   3.466816   0.000000
     6  O    1.640703   2.752648   2.781158   2.786456   2.591854
     7  C    2.705215   3.479309   3.505648   3.069284   3.964926
     8  H    3.103129   3.325137   4.107045   3.625558   4.357188
     9  H    3.576533   4.471728   4.342574   3.962400   4.591093
    10  C    3.063655   3.902278   3.142681   2.345875   4.607700
    11  H    3.390594   4.577848   3.145807   2.479622   4.759677
    12  H    4.111359   4.738465   4.202823   3.320712   5.665043
    13  O    2.635893   3.166910   2.443962   1.484195   4.310002
    14  C    2.540604   2.361529   3.589354   4.324370   1.399927
    15  H    3.440029   3.286891   4.574494   5.321837   2.054158
    16  H    3.078335   2.834091   3.694805   4.520563   2.057544
    17  C    2.525475   1.402539   3.795942   4.205950   2.359272
    18  H    3.018345   2.060068   4.505276   4.815449   2.831889
    19  H    3.445207   2.051520   4.497832   4.882187   3.284802
                    6          7          8          9         10
     6  O    0.000000
     7  C    1.412698   0.000000
     8  H    2.050960   1.097746   0.000000
     9  H    2.033510   1.096989   1.781899   0.000000
    10  C    2.430820   1.528846   2.148841   2.185684   0.000000
    11  H    2.741936   2.137669   3.043158   2.425045   1.114222
    12  H    3.354129   2.132240   2.421009   2.494621   1.113426
    13  O    2.782291   2.377086   2.683251   3.325380   1.359137
    14  C    3.588448   4.855271   4.970370   5.571868   5.549663
    15  H    4.173308   5.470492   5.556167   6.048054   6.352956
    16  H    4.404917   5.644942   5.797027   6.430095   6.119757
    17  C    3.442689   4.397556   4.192023   5.240703   5.112703
    18  H    3.413669   4.265742   3.914001   4.972875   5.252536
    19  H    4.481693   5.335997   5.021682   6.229030   5.934282
                   11         12         13         14         15
    11  H    0.000000
    12  H    1.771880   0.000000
    13  O    2.071041   2.072243   0.000000
    14  C    5.890960   6.543278   5.055651   0.000000
    15  H    6.667110   7.324411   6.000733   1.095331   0.000000
    16  H    6.413188   7.139552   5.440171   1.099065   1.775791
    17  C    5.725797   5.957666   4.526394   1.535163   2.187265
    18  H    5.921186   6.001471   4.900798   2.171955   2.391101
    19  H    6.608471   6.724062   5.185716   2.189676   2.714739
                   16         17         18         19
    16  H    0.000000
    17  C    2.172451   0.000000
    18  H    3.048106   1.098933   0.000000
    19  H    2.394295   1.094520   1.776049   0.000000
 Symmetry turned off by external request.
 Stoichiometry    C4H9O5Si(1-)
 Framework group  C1[X(C4H9O5Si)]
 Deg. of freedom    51
 Full point group                 C1      NOp   1
 Rotational constants (GHZ):           2.3765497           0.8545821           0.8223354
 Standard basis: def2TZVPP (5D, 7F)
   447 basis functions,   681 primitive gaussians,   507 cartesian basis functions
    44 alpha electrons       44 beta electrons
       nuclear repulsion energy       725.0481831074 Hartrees.
 NAtoms=   19 NActive=   19 NUniq=   19 SFac= 1.00D+00 NAtFMM=   60 NAOKFM=F Big=F
 Integral buffers will be    131072 words long.
 Raffenetti 2 integral format.
 Two-electron integral symmetry is turned off.
 Nuclear repulsion after empirical dispersion term =      725.0384561204 Hartrees.
 One-electron integrals computed using PRISM.
   1 Symmetry operations used in ECPInt.
 ECPInt:  NShTT=   14028 NPrTT=   39320 LenC2=   13314 LenP2D=   29151.
 LDataN:  DoStor=T MaxTD1= 6 Len=  172
 NBasis=   447 RedAO= T EigKep=  2.81D-04  NBF=   447
 NBsUse=   447 1.00D-06 EigRej= -1.00D+00 NBFU=   447
 ExpMin= 7.01D-02 ExpMax= 4.48D+04 ExpMxC= 1.53D+03 IAcc=3 IRadAn=         5 AccDes= 0.00D+00
 Harris functional with IExCor= 4639 and IRadAn=       5 diagonalized for initial guess.
 HarFok:  IExCor= 4639 AccDes= 0.00D+00 IRadAn=         5 IDoV= 1 UseB2=F ITyADJ=14
 ICtDFT=  3500011 ScaDFX=  1.000000  1.000000  1.000000  1.000000
 FoFCou: FMM=F IPFlag=           0 FMFlag=      100000 FMFlg1=           0
         NFxFlg=           0 DoJE=T BraDBF=F KetDBF=T FulRan=T
         wScrn=  0.000000 ICntrl=       500 IOpCl=  0 I1Cent=   200000004 NGrid=           0
         NMat0=    1 NMatS0=      1 NMatT0=    0 NMatD0=    1 NMtDS0=    0 NMtDT0=    0
 Symmetry not used in FoFCou.
 Requested convergence on RMS density matrix=1.00D-08 within 128 cycles.
 Requested convergence on MAX density matrix=1.00D-06.
 Requested convergence on             energy=1.00D-06.
 No special actions if energy rises.
 Integral accuracy reduced to 1.0D-05 until final iterations.
 Initial convergence to 1.0D-05 achieved.  Increase integral accuracy.
 SCF Done:  E(RwB97XD) =  -823.723223054     A.U. after   15 cycles
            NFock= 15  Conv=0.46D-08     -V/T= 2.0035
 DoSCS=F DFT=T ScalE2(SS,OS)=  1.000000  1.000000
 Range of M.O.s used for correlation:     1   447
 NBasis=   447 NAE=    44 NBE=    44 NFC=     0 NFV=     0
 NROrb=    447 NOA=    44 NOB=    44 NVA=   403 NVB=   403

 **** Warning!!: The largest alpha MO coefficient is  0.13212756D+02

   1 Symmetry operations used in ECPInt.
 ECPInt:  NShTT=   14028 NPrTT=   39320 LenC2=   13314 LenP2D=   29151.
 LDataN:  DoStor=T MaxTD1= 7 Len=  274
 Symmetrizing basis deriv contribution to polar:
 IMax=3 JMax=2 DiffMx= 0.00D+00
 G2DrvN: will do    20 centers at a time, making    1 passes.
 Calling FoFCou, ICntrl=  3107 FMM=F I1Cent=   0 AccDes= 0.00D+00.
 End of G2Drv F.D. properties file   721 does not exist.
 End of G2Drv F.D. properties file   722 does not exist.
 End of G2Drv F.D. properties file   788 does not exist.
          IDoAtm=1111111111111111111
          Differentiating once with respect to nuclear coordinates.
 CalDSu exits because no D1Ps are significant.
          There are    60 degrees of freedom in the 1st order CPHF.  IDoFFX=6 NUNeed=     0.
     54 vectors produced by pass  0 Test12= 2.96D-14 1.67D-09 XBig12= 8.80D-02 5.43D-02.
 AX will form    54 AO Fock derivatives at one time.
     54 vectors produced by pass  1 Test12= 2.96D-14 1.67D-09 XBig12= 2.73D-02 2.32D-02.
     54 vectors produced by pass  2 Test12= 2.96D-14 1.67D-09 XBig12= 9.48D-04 4.44D-03.
     54 vectors produced by pass  3 Test12= 2.96D-14 1.67D-09 XBig12= 2.45D-05 6.37D-04.
     54 vectors produced by pass  4 Test12= 2.96D-14 1.67D-09 XBig12= 2.70D-07 5.53D-05.
     54 vectors produced by pass  5 Test12= 2.96D-14 1.67D-09 XBig12= 2.70D-09 5.19D-06.
     54 vectors produced by pass  6 Test12= 2.96D-14 1.67D-09 XBig12= 1.98D-11 4.27D-07.
     25 vectors produced by pass  7 Test12= 2.96D-14 1.67D-09 XBig12= 1.36D-13 3.24D-08.
      2 vectors produced by pass  8 Test12= 2.96D-14 1.67D-09 XBig12= 1.06D-15 3.12D-09.
 InvSVY:  IOpt=1 It=  1 EMax= 3.12D-16
 Solved reduced A of dimension   405 with    60 vectors.
 End of Minotr F.D. properties file   721 does not exist.
 End of Minotr F.D. properties file   722 does not exist.
 End of Minotr F.D. properties file   788 does not exist.

 **********************************************************************

            Population analysis using the SCF Density.

 **********************************************************************

 Alpha  occ. eigenvalues --  -66.13832 -19.09314 -19.09112 -19.08560 -19.04555
 Alpha  occ. eigenvalues --  -18.98930 -10.20413 -10.20378 -10.17110 -10.14615
 Alpha  occ. eigenvalues --   -5.25495  -3.60173  -3.59956  -3.59820  -1.00282
 Alpha  occ. eigenvalues --   -0.95686  -0.94116  -0.90477  -0.85765  -0.69497
 Alpha  occ. eigenvalues --   -0.64914  -0.57502  -0.52906  -0.47106  -0.45617
 Alpha  occ. eigenvalues --   -0.43728  -0.40933  -0.39981  -0.39634  -0.37550
 Alpha  occ. eigenvalues --   -0.36572  -0.35640  -0.31588  -0.30145  -0.27046
 Alpha  occ. eigenvalues --   -0.26959  -0.26242  -0.25753  -0.24480  -0.22901
 Alpha  occ. eigenvalues --   -0.21446  -0.20222  -0.13093  -0.12828
 Alpha virt. eigenvalues --    0.23659   0.26119   0.26767   0.27323   0.28108
 Alpha virt. eigenvalues --    0.29770   0.31575   0.32629   0.33199   0.33502
 Alpha virt. eigenvalues --    0.34884   0.35423   0.38050   0.38909   0.39088
 Alpha virt. eigenvalues --    0.40211   0.40668   0.42453   0.42551   0.43751
 Alpha virt. eigenvalues --    0.44653   0.47188   0.49000   0.50366   0.51537
 Alpha virt. eigenvalues --    0.51688   0.52668   0.54522   0.55237   0.57213
 Alpha virt. eigenvalues --    0.57300   0.58597   0.58875   0.59917   0.60617
 Alpha virt. eigenvalues --    0.61145   0.61691   0.62645   0.63117   0.63344
 Alpha virt. eigenvalues --    0.63698   0.64827   0.66407   0.67485   0.68908
 Alpha virt. eigenvalues --    0.70491   0.70824   0.72204   0.72304   0.74703
 Alpha virt. eigenvalues --    0.74920   0.75849   0.77754   0.79606   0.80702
 Alpha virt. eigenvalues --    0.84413   0.85688   0.87198   0.88138   0.89318
 Alpha virt. eigenvalues --    0.91359   0.92755   0.94052   0.94885   0.96149
 Alpha virt. eigenvalues --    0.96743   0.97674   0.99706   0.99990   1.00530
 Alpha virt. eigenvalues --    1.02647   1.03967   1.04864   1.05460   1.06510
 Alpha virt. eigenvalues --    1.07400   1.08085   1.10704   1.12565   1.14641
 Alpha virt. eigenvalues --    1.15527   1.16865   1.19257   1.20075   1.20972
 Alpha virt. eigenvalues --    1.21979   1.22882   1.24364   1.24807   1.26265
 Alpha virt. eigenvalues --    1.27386   1.28502   1.30154   1.31999   1.32236
 Alpha virt. eigenvalues --    1.33699   1.34511   1.34965   1.37886   1.38339
 Alpha virt. eigenvalues --    1.38488   1.41229   1.41580   1.42817   1.44406
 Alpha virt. eigenvalues --    1.45446   1.46851   1.48325   1.49445   1.51738
 Alpha virt. eigenvalues --    1.53420   1.54276   1.55390   1.56728   1.58606
 Alpha virt. eigenvalues --    1.59279   1.61334   1.62436   1.62838   1.64847
 Alpha virt. eigenvalues --    1.67639   1.69539   1.70443   1.71084   1.72088
 Alpha virt. eigenvalues --    1.73801   1.76222   1.76557   1.77579   1.78293
 Alpha virt. eigenvalues --    1.80164   1.81505   1.83535   1.85696   1.89534
 Alpha virt. eigenvalues --    1.90989   1.97724   1.99527   2.00655   2.01740
 Alpha virt. eigenvalues --    2.04626   2.08399   2.11147   2.11836   2.14573
 Alpha virt. eigenvalues --    2.16893   2.17819   2.20944   2.22156   2.23460
 Alpha virt. eigenvalues --    2.25764   2.26742   2.29637   2.30061   2.33298
 Alpha virt. eigenvalues --    2.34723   2.35280   2.37031   2.39290   2.39631
 Alpha virt. eigenvalues --    2.43876   2.45905   2.48764   2.49847   2.50964
 Alpha virt. eigenvalues --    2.53321   2.57182   2.57867   2.60212   2.61985
 Alpha virt. eigenvalues --    2.64297   2.66342   2.67986   2.69453   2.75913
 Alpha virt. eigenvalues --    2.79859   2.81491   2.82685   2.84856   2.86370
 Alpha virt. eigenvalues --    2.87992   2.88693   2.91281   2.95340   2.95929
 Alpha virt. eigenvalues --    2.98167   2.99163   3.01338   3.03463   3.04680
 Alpha virt. eigenvalues --    3.06818   3.08123   3.09674   3.11021   3.14588
 Alpha virt. eigenvalues --    3.16106   3.16859   3.18452   3.18777   3.19038
 Alpha virt. eigenvalues --    3.22840   3.23148   3.23863   3.25905   3.27067
 Alpha virt. eigenvalues --    3.29892   3.30611   3.31794   3.33005   3.33920
 Alpha virt. eigenvalues --    3.34889   3.35343   3.36439   3.37642   3.40027
 Alpha virt. eigenvalues --    3.40545   3.41216   3.44106   3.45736   3.47030
 Alpha virt. eigenvalues --    3.49754   3.50386   3.52455   3.54893   3.56233
 Alpha virt. eigenvalues --    3.59788   3.60224   3.62997   3.64760   3.65477
 Alpha virt. eigenvalues --    3.70550   3.72079   3.74225   3.74944   3.76967
 Alpha virt. eigenvalues --    3.78302   3.82387   3.83998   3.85420   3.85980
 Alpha virt. eigenvalues --    3.86821   3.88122   3.89327   3.90982   3.92417
 Alpha virt. eigenvalues --    3.93534   3.94496   3.95340   3.96832   3.98244
 Alpha virt. eigenvalues --    4.01854   4.02325   4.03827   4.05150   4.06313
 Alpha virt. eigenvalues --    4.07561   4.08573   4.14231   4.15233   4.17491
 Alpha virt. eigenvalues --    4.17896   4.18888   4.20823   4.24267   4.26078
 Alpha virt. eigenvalues --    4.26366   4.29431   4.31855   4.31964   4.33415
 Alpha virt. eigenvalues --    4.36736   4.37447   4.39473   4.40237   4.43819
 Alpha virt. eigenvalues --    4.44700   4.45063   4.47275   4.49979   4.51452
 Alpha virt. eigenvalues --    4.53287   4.55638   4.56690   4.58786   4.62106
 Alpha virt. eigenvalues --    4.69836   4.71783   4.72731   4.76147   4.76305
 Alpha virt. eigenvalues --    4.79856   4.80807   4.87239   4.88167   4.88839
 Alpha virt. eigenvalues --    4.90161   4.94111   4.95667   4.97393   4.98930
 Alpha virt. eigenvalues --    5.00722   5.02405   5.05033   5.05771   5.10330
 Alpha virt. eigenvalues --    5.12010   5.13009   5.15313   5.16157   5.19104
 Alpha virt. eigenvalues --    5.23990   5.24705   5.26818   5.29655   5.32617
 Alpha virt. eigenvalues --    5.33889   5.36695   5.39112   5.42192   5.45876
 Alpha virt. eigenvalues --    5.47730   5.48783   5.50427   5.53893   5.55218
 Alpha virt. eigenvalues --    5.57486   5.58797   5.61706   5.64328   5.66402
 Alpha virt. eigenvalues --    5.67854   5.68673   5.71106   5.72915   5.73275
 Alpha virt. eigenvalues --    5.73534   5.77254   5.78903   5.81119   5.81971
 Alpha virt. eigenvalues --    5.84169   5.85003   5.85581   5.88139   5.91892
 Alpha virt. eigenvalues --    5.95701   5.98628   6.00825   6.06269   6.10626
 Alpha virt. eigenvalues --    6.15447   6.21234   6.23378   6.26956   6.27541
 Alpha virt. eigenvalues --    6.33046   6.35188   6.37161   6.39689   6.42946
 Alpha virt. eigenvalues --    6.48681   6.50835   6.64008   6.81667   6.83599
 Alpha virt. eigenvalues --    6.87141   6.88987   6.91600   6.93078   6.94711
 Alpha virt. eigenvalues --    6.97625   6.99993   7.01654   7.01958   7.11649
 Alpha virt. eigenvalues --    7.14409   7.15342   7.19819   7.24132   7.25847
 Alpha virt. eigenvalues --    7.26868   7.28008   7.33716   7.37959   7.39344
 Alpha virt. eigenvalues --    7.42648   7.46378   7.53891   7.65773   7.73906
 Alpha virt. eigenvalues --    7.76151   7.90815   8.04167  12.61075  23.47340
 Alpha virt. eigenvalues --   23.56223  23.60079  23.70795  44.12006  44.29811
 Alpha virt. eigenvalues --   44.31210  44.41554  44.46330
          Condensed to atoms (all electrons):
               1          2          3          4          5          6
     1  Si  11.588760   0.385044   0.504642  -0.063797   0.434353   0.439932
     2  O    0.385044   7.920075  -0.022573   0.001798  -0.022437  -0.020431
     3  O    0.504642  -0.022573   7.924057   0.279901  -0.022229  -0.026632
     4  H   -0.063797   0.001798   0.279901   0.404757   0.001106  -0.001060
     5  O    0.434353  -0.022437  -0.022229   0.001106   7.942596  -0.029124
     6  O    0.439932  -0.020431  -0.026632  -0.001060  -0.029124   7.904233
     7  C   -0.122969   0.003160  -0.008562   0.026406  -0.000927   0.302725
     8  H    0.010591   0.003085  -0.000035  -0.002787  -0.000029  -0.055444
     9  H    0.008295  -0.000064  -0.000307  -0.001660  -0.000114  -0.042710
    10  C   -0.009064  -0.002058   0.017429  -0.011071  -0.000221  -0.071164
    11  H    0.033909  -0.000216   0.005583  -0.026534  -0.000022   0.001224
    12  H   -0.000239   0.000151  -0.001707   0.003942   0.000013   0.006309
    13  O    0.102019  -0.004451  -0.113639   0.136122  -0.000067  -0.008746
    14  C   -0.043186  -0.073877  -0.000708  -0.001631   0.315401  -0.003312
    15  H   -0.001385   0.004339  -0.000217  -0.000005  -0.042804   0.000311
    16  H    0.003934   0.007103   0.000512   0.000034  -0.052020  -0.000440
    17  C   -0.055008   0.317844  -0.002437   0.000592  -0.078385   0.003081
    18  H    0.000738  -0.051111  -0.000288  -0.000075   0.006920   0.001595
    19  H    0.003217  -0.042238  -0.000066   0.000060   0.005668  -0.000179
               7          8          9         10         11         12
     1  Si  -0.122969   0.010591   0.008295  -0.009064   0.033909  -0.000239
     2  O    0.003160   0.003085  -0.000064  -0.002058  -0.000216   0.000151
     3  O   -0.008562  -0.000035  -0.000307   0.017429   0.005583  -0.001707
     4  H    0.026406  -0.002787  -0.001660  -0.011071  -0.026534   0.003942
     5  O   -0.000927  -0.000029  -0.000114  -0.000221  -0.000022   0.000013
     6  O    0.302725  -0.055444  -0.042710  -0.071164   0.001224   0.006309
     7  C    5.082232   0.386217   0.318207   0.231583  -0.138986  -0.033343
     8  H    0.386217   0.711592  -0.053694  -0.045167   0.020583  -0.016329
     9  H    0.318207  -0.053694   0.742391  -0.008393   0.000664   0.011532
    10  C    0.231583  -0.045167  -0.008393   4.691979   0.423852   0.315558
    11  H   -0.138986   0.020583   0.000664   0.423852   0.870497  -0.094324
    12  H   -0.033343  -0.016329   0.011532   0.315558  -0.094324   0.870561
    13  O   -0.144342   0.010881   0.011027   0.388253  -0.080114  -0.039239
    14  C   -0.001642   0.000987   0.000085  -0.000190   0.000204  -0.000015
    15  H    0.000149  -0.000005  -0.000002  -0.000003   0.000000   0.000000
    16  H   -0.000153  -0.000005  -0.000003   0.000013  -0.000000   0.000000
    17  C    0.002513  -0.000928   0.000078  -0.000453  -0.000185   0.000084
    18  H   -0.000340  -0.000474  -0.000011   0.000234   0.000011  -0.000001
    19  H   -0.000003   0.000019  -0.000003  -0.000020  -0.000001  -0.000000
              13         14         15         16         17         18
     1  Si   0.102019  -0.043186  -0.001385   0.003934  -0.055008   0.000738
     2  O   -0.004451  -0.073877   0.004339   0.007103   0.317844  -0.051111
     3  O   -0.113639  -0.000708  -0.000217   0.000512  -0.002437  -0.000288
     4  H    0.136122  -0.001631  -0.000005   0.000034   0.000592  -0.000075
     5  O   -0.000067   0.315401  -0.042804  -0.052020  -0.078385   0.006920
     6  O   -0.008746  -0.003312   0.000311  -0.000440   0.003081   0.001595
     7  C   -0.144342  -0.001642   0.000149  -0.000153   0.002513  -0.000340
     8  H    0.010881   0.000987  -0.000005  -0.000005  -0.000928  -0.000474
     9  H    0.011027   0.000085  -0.000002  -0.000003   0.000078  -0.000011
    10  C    0.388253  -0.000190  -0.000003   0.000013  -0.000453   0.000234
    11  H   -0.080114   0.000204   0.000000  -0.000000  -0.000185   0.000011
    12  H   -0.039239  -0.000015   0.000000   0.000000   0.000084  -0.000001
    13  O    8.423515   0.000099  -0.000001   0.000029  -0.000232   0.000111
    14  C    0.000099   4.737348   0.371811   0.415769   0.283311  -0.057467
    15  H   -0.000001   0.371811   0.735688  -0.075739  -0.010024  -0.016682
    16  H    0.000029   0.415769  -0.075739   0.728900  -0.058683   0.015846
    17  C   -0.000232   0.283311  -0.010024  -0.058683   4.744306   0.415087
    18  H    0.000111  -0.057467  -0.016682   0.015846   0.415087   0.723797
    19  H   -0.000026  -0.013624   0.009418  -0.017285   0.375414  -0.070639
              19
     1  Si   0.003217
     2  O   -0.042238
     3  O   -0.000066
     4  H    0.000060
     5  O    0.005668
     6  O   -0.000179
     7  C   -0.000003
     8  H    0.000019
     9  H   -0.000003
    10  C   -0.000020
    11  H   -0.000001
    12  H   -0.000000
    13  O   -0.000026
    14  C   -0.013624
    15  H    0.009418
    16  H   -0.017285
    17  C    0.375414
    18  H   -0.070639
    19  H    0.717759
 Mulliken charges:
               1
     1  Si   0.780212
     2  O   -0.403143
     3  O   -0.532725
     4  H    0.253903
     5  O   -0.457676
     6  O   -0.400169
     7  C    0.098076
     8  H    0.030943
     9  H    0.014683
    10  C    0.078905
    11  H   -0.016144
    12  H   -0.022951
    13  O   -0.681198
    14  C    0.070637
    15  H    0.025153
    16  H    0.032189
    17  C    0.064025
    18  H    0.032750
    19  H    0.032530
 Sum of Mulliken charges =  -1.00000
 Mulliken charges with hydrogens summed into heavy atoms:
               1
     1  Si   0.780212
     2  O   -0.403143
     3  O   -0.278822
     5  O   -0.457676
     6  O   -0.400169
     7  C    0.143703
    10  C    0.039810
    13  O   -0.681198
    14  C    0.127979
    17  C    0.129305
 APT charges:
               1
     1  Si   0.408480
     2  O   -0.401614
     3  O   -0.491848
     4  H    0.300195
     5  O   -0.376777
     6  O   -0.363756
     7  C   -0.465876
     8  H    0.253408
     9  H    0.419742
    10  C   -0.763250
    11  H    0.245683
    12  H    0.432107
    13  O   -0.559076
    14  C   -0.708038
    15  H    0.485302
    16  H    0.413023
    17  C   -0.605382
    18  H    0.299117
    19  H    0.478559
 Sum of APT charges =  -1.00000
 APT charges with hydrogens summed into heavy atoms:
               1
     1  Si   0.408480
     2  O   -0.401614
     3  O   -0.191654
     5  O   -0.376777
     6  O   -0.363756
     7  C    0.207275
    10  C   -0.085460
    13  O   -0.559076
    14  C    0.190286
    17  C    0.172295
 Electronic spatial extent (au):  <R**2>=           1604.2179
 Charge=             -1.0000 electrons
 Dipole moment (field-independent basis, Debye):
    X=              4.2528    Y=             -3.3718    Z=             -0.5435  Tot=              5.4544
 Quadrupole moment (field-independent basis, Debye-Ang):
   XX=            -79.7984   YY=            -76.2822   ZZ=            -78.5808
   XY=              2.4978   XZ=              6.9811   YZ=             -1.3450
 Traceless Quadrupole moment (field-independent basis, Debye-Ang):
   XX=             -1.5780   YY=              1.9383   ZZ=             -0.3603
   XY=              2.4978   XZ=              6.9811   YZ=             -1.3450
 Octapole moment (field-independent basis, Debye-Ang**2):
  XXX=             42.9713  YYY=             -7.2184  ZZZ=             -4.1875  XYY=              6.4142
  XXY=             -6.6983  XXZ=             -6.7937  XZZ=              5.1094  YZZ=             -0.4762
  YYZ=              3.7305  XYZ=              5.5634
 Hexadecapole moment (field-independent basis, Debye-Ang**3):
 XXXX=          -1574.8734 YYYY=           -415.4463 ZZZZ=           -321.1076 XXXY=              7.1782
 XXXZ=             28.7417 YYYX=             -5.4838 YYYZ=              6.3311 ZZZX=             10.4135
 ZZZY=             -1.4956 XXYY=           -315.4366 XXZZ=           -320.7831 YYZZ=           -119.5341
 XXYZ=             -6.4501 YYXZ=             -0.1685 ZZXY=              3.6036
 N-N= 7.250384561204D+02 E-N=-3.411870707144D+03  KE= 8.208157462213D+02
  Exact polarizability:       0.000       0.000       0.000       0.000       0.000       0.000
 Approx polarizability:      99.792       2.301      91.185       1.055       0.273      89.106
   1 Symmetry operations used in ECPInt.
 ECPInt:  NShTT=   14028 NPrTT=   39320 LenC2=   13314 LenP2D=   29151.
 LDataN:  DoStor=T MaxTD1= 8 Len=  415
 Calling FoFJK, ICntrl=    100127 FMM=F ISym2X=0 I1Cent= 0 IOpClX= 0 NMat=1 NMatS=1 NMatT=0.
 -------------------------------------------------------------------
 Center     Atomic                   Forces (Hartrees/Bohr)
 Number     Number              X              Y              Z
 -------------------------------------------------------------------
      1       14           0.000000610    0.000000874    0.000000256
      2        8           0.000000402   -0.000000993   -0.000000159
      3        8           0.000000420    0.000000039    0.000001218
      4        1           0.000001532    0.000000694   -0.000000006
      5        8           0.000000781   -0.000000319    0.000000394
      6        8          -0.000001348   -0.000000633   -0.000000256
      7        6          -0.000000209    0.000001370    0.000000151
      8        1          -0.000000593    0.000000596   -0.000000526
      9        1          -0.000000914    0.000001117   -0.000000654
     10        6          -0.000000155    0.000001410   -0.000000232
     11        1           0.000000332    0.000001367    0.000000565
     12        1          -0.000000097    0.000001154    0.000000073
     13        8           0.000000449    0.000000664    0.000000821
     14        6           0.000000295   -0.000000769   -0.000000238
     15        1          -0.000000261   -0.000001111   -0.000000292
     16        1           0.000000047   -0.000001625    0.000000071
     17        6          -0.000000507   -0.000001046   -0.000000110
     18        1          -0.000000723   -0.000000931   -0.000000735
     19        1          -0.000000061   -0.000001859   -0.000000343
 -------------------------------------------------------------------
 Cartesian Forces:  Max     0.000001859 RMS     0.000000774
 IRC-IRC-IRC-IRC-IRC-IRC-IRC-IRC-IRC-IRC-IRC-IRC-IRC-IRC-IRC-IRC-IRC-IRC
          ******** Start new reaction path calculation ********
 Supplied step size of   0.1000 bohr.
    Integration on MW PES will use step size of   0.2355 sqrt(amu)*bohr.
 Point Number:   0          Path Number:   1
 Calculating another point on the path.
 IRC-IRC-IRC-IRC-IRC-IRC-IRC-IRC-IRC-IRC-IRC-IRC-IRC-IRC-IRC-IRC-IRC-IRC
                          Input orientation:                          
 ---------------------------------------------------------------------
 Center     Atomic      Atomic             Coordinates (Angstroms)
 Number     Number       Type             X           Y           Z
 ---------------------------------------------------------------------
      1         14           0        0.236740    0.274856   -0.219244
      2          8           0        0.947219   -0.165521    1.234453
      3          8           0       -0.339970    1.769281   -0.305772
      4          1           0       -1.227712    1.567632    0.230759
      5          8           0        1.648851    0.152710   -1.122634
      6          8           0       -0.693097   -0.928703   -0.835325
      7          6           0       -1.940955   -1.331325   -0.309414
      8          1           0       -1.768837   -1.957554    0.575635
      9          1           0       -2.442028   -1.937995   -1.073879
     10          6           0       -2.793370   -0.129468    0.099387
     11          1           0       -3.100095    0.384499   -0.839902
     12          1           0       -3.732717   -0.541224    0.531836
     13          8           0       -2.113851    0.678289    0.956887
     14          6           0        2.750095   -0.073704   -0.287662
     15          1           0        3.477216   -0.721801   -0.788473
     16          1           0        3.247983    0.876561   -0.049368
     17          6           0        2.212246   -0.721523    0.996193
     18          1           0        2.131991   -1.809400    0.862666
     19          1           0        2.869780   -0.530804    1.850177
 ---------------------------------------------------------------------
                    Distance matrix (angstroms):
                    1          2          3          4          5
     1  Si   0.000000
     2  O    1.676886   0.000000
     3  O    1.604178   2.787939   0.000000
     4  H    2.004593   2.956610   1.056698   0.000000
     5  O    1.680800   2.479801   2.689977   3.479696   0.000000
     6  O    1.640947   2.749012   2.772047   2.766594   2.595519
     7  C    2.707453   3.476229   3.489545   3.033885   3.968676
     8  H    3.104485   3.319997   4.087522   3.583112   4.360954
     9  H    3.578115   4.467331   4.330419   3.932692   4.594422
    10  C    3.073527   3.909178   3.128669   2.312724   4.615873
    11  H    3.395836   4.581072   3.133880   2.460069   4.762998
    12  H    4.121492   4.747275   4.189361   3.288309   5.672749
    13  O    2.659195   3.187351   2.435410   1.450323   4.331116
    14  C    2.538332   2.361276   3.597976   4.334247   1.400422
    15  H    3.437736   3.286725   4.583601   5.330730   2.054106
    16  H    3.075466   2.833310   3.706224   4.537388   2.057446
    17  C    2.524417   1.402212   3.796449   4.202312   2.360323
    18  H    3.017719   2.060157   4.503643   4.805336   2.832793
    19  H    3.444487   2.051533   4.499000   4.880101   3.285645
                    6          7          8          9         10
     6  O    0.000000
     7  C    1.412740   0.000000
     8  H    2.050990   1.097770   0.000000
     9  H    2.033307   1.097055   1.781703   0.000000
    10  C    2.433847   1.529114   2.149041   2.184208   0.000000
    11  H    2.741926   2.137540   3.043223   2.425237   1.113781
    12  H    3.355377   2.131284   2.421721   2.489009   1.113072
    13  O    2.795173   2.381588   2.685527   3.328161   1.359972
    14  C    3.589782   4.856752   4.971410   5.572420   5.557240
    15  H    4.175705   5.473353   5.559582   6.049630   6.360770
    16  H    4.405544   5.645127   5.795802   6.430208   6.126350
    17  C    3.440698   4.396083   4.189709   5.237105   5.119666
    18  H    3.411733   4.265116   3.914179   4.968741   5.259652
    19  H    4.479324   5.333651   5.017653   6.224596   5.941178
                   11         12         13         14         15
    11  H    0.000000
    12  H    1.771677   0.000000
    13  O    2.070614   2.070895   0.000000
    14  C    5.894035   6.551107   5.076649   0.000000
    15  H    6.669900   7.332050   6.022172   1.095238   0.000000
    16  H    6.416008   7.146893   5.459040   1.098945   1.775834
    17  C    5.728481   5.965795   4.547101   1.535328   2.187506
    18  H    5.923399   6.009369   4.921854   2.172083   2.391393
    19  H    6.611635   6.732837   5.205425   2.189433   2.714394
                   16         17         18         19
    16  H    0.000000
    17  C    2.172514   0.000000
    18  H    3.048217   1.098976   0.000000
    19  H    2.394156   1.094538   1.776040   0.000000
 Symmetry turned off by external request.
 Stoichiometry    C4H9O5Si(1-)
 Framework group  C1[X(C4H9O5Si)]
 Deg. of freedom    51
 Full point group                 C1      NOp   1
 Rotational constants (GHZ):           2.3842173           0.8515282           0.8198411
 Standard basis: def2TZVPP (5D, 7F)
   447 basis functions,   681 primitive gaussians,   507 cartesian basis functions
    44 alpha electrons       44 beta electrons
       nuclear repulsion energy       724.7847683166 Hartrees.
 NAtoms=   19 NActive=   19 NUniq=   19 SFac= 1.00D+00 NAtFMM=   60 NAOKFM=F Big=F
 Integral buffers will be    131072 words long.
 Raffenetti 2 integral format.
 Two-electron integral symmetry is turned off.
 Nuclear repulsion after empirical dispersion term =      724.7750349949 Hartrees.
 One-electron integrals computed using PRISM.
   1 Symmetry operations used in ECPInt.
 ECPInt:  NShTT=   14028 NPrTT=   39320 LenC2=   13308 LenP2D=   29138.
 LDataN:  DoStor=T MaxTD1= 6 Len=  172
 NBasis=   447 RedAO= T EigKep=  2.81D-04  NBF=   447
 NBsUse=   447 1.00D-06 EigRej= -1.00D+00 NBFU=   447
 Initial guess from the checkpoint file:  "QbiLmL_to_PbiL2_IRCforward.chk"
 B after Tr=    -0.005837   -0.050170    0.013943
         Rot=    1.000000   -0.000018    0.000001   -0.000031 Ang=  -0.00 deg.
 ExpMin= 7.01D-02 ExpMax= 4.48D+04 ExpMxC= 1.53D+03 IAcc=3 IRadAn=         5 AccDes= 0.00D+00
 Harris functional with IExCor= 4639 and IRadAn=       5 diagonalized for initial guess.
 HarFok:  IExCor= 4639 AccDes= 0.00D+00 IRadAn=         5 IDoV= 1 UseB2=F ITyADJ=14
 ICtDFT=  3500011 ScaDFX=  1.000000  1.000000  1.000000  1.000000
 FoFCou: FMM=F IPFlag=           0 FMFlag=      100000 FMFlg1=           0
         NFxFlg=           0 DoJE=T BraDBF=F KetDBF=T FulRan=T
         wScrn=  0.000000 ICntrl=       500 IOpCl=  0 I1Cent=   200000004 NGrid=           0
         NMat0=    1 NMatS0=      1 NMatT0=    0 NMatD0=    1 NMtDS0=    0 NMtDT0=    0
 Symmetry not used in FoFCou.
 Requested convergence on RMS density matrix=1.00D-08 within 128 cycles.
 Requested convergence on MAX density matrix=1.00D-06.
 Requested convergence on             energy=1.00D-06.
 No special actions if energy rises.
 Integral accuracy reduced to 1.0D-05 until final iterations.
 Initial convergence to 1.0D-05 achieved.  Increase integral accuracy.
 SCF Done:  E(RwB97XD) =  -823.723265864     A.U. after   11 cycles
            NFock= 11  Conv=0.59D-08     -V/T= 2.0035
 DoSCS=F DFT=T ScalE2(SS,OS)=  1.000000  1.000000
 Range of M.O.s used for correlation:     1   447
 NBasis=   447 NAE=    44 NBE=    44 NFC=     0 NFV=     0
 NROrb=    447 NOA=    44 NOB=    44 NVA=   403 NVB=   403

 **** Warning!!: The largest alpha MO coefficient is  0.13056569D+02

 Symmetrizing basis deriv contribution to polar:
 IMax=3 JMax=2 DiffMx= 0.00D+00
   1 Symmetry operations used in ECPInt.
 ECPInt:  NShTT=   14028 NPrTT=   39320 LenC2=   13308 LenP2D=   29138.
 LDataN:  DoStor=T MaxTD1= 7 Len=  274
 Calling FoFJK, ICntrl=      2127 FMM=F ISym2X=0 I1Cent= 0 IOpClX= 0 NMat=1 NMatS=1 NMatT=0.
 -------------------------------------------------------------------
 Center     Atomic                   Forces (Hartrees/Bohr)
 Number     Number              X              Y              Z
 -------------------------------------------------------------------
      1       14           0.000377005    0.000204329   -0.000280720
      2        8           0.000164897   -0.000056785   -0.000102005
      3        8          -0.000088677   -0.000488330    0.000216104
      4        1          -0.000419061   -0.000101792    0.000268488
      5        8           0.000259299   -0.000015890   -0.000123298
      6        8           0.000072881   -0.000047973    0.000113384
      7        6           0.000076893    0.000116306    0.000144701
      8        1          -0.000001599    0.000027828    0.000013854
      9        1           0.000006783    0.000004185    0.000029353
     10        6          -0.000124758    0.000049614   -0.000146273
     11        1           0.000018068    0.000003670    0.000005645
     12        1           0.000020481    0.000025925   -0.000020688
     13        8          -0.000625428    0.000403854   -0.000034044
     14        6           0.000139156   -0.000041105   -0.000026473
     15        1           0.000013790   -0.000004501   -0.000001596
     16        1           0.000010958   -0.000004770    0.000001010
     17        6           0.000083625   -0.000057495   -0.000046604
     18        1           0.000006849   -0.000007108   -0.000007735
     19        1           0.000008839   -0.000009962   -0.000003104
 -------------------------------------------------------------------
 Cartesian Forces:  Max     0.000625428 RMS     0.000169192
 IRC-IRC-IRC-IRC-IRC-IRC-IRC-IRC-IRC-IRC-IRC-IRC-IRC-IRC-IRC-IRC-IRC-IRC
 Pt  1 Step number   1 out of a maximum of 100
 Modified Bulirsch-Stoer Extrapolation Cycles:
    EPS =    0.000010000000000
      PEZero:  N= 2 I= 1 D=  6.13D-04 Err=  3.57D-02
      PEZero:  N= 3 I= 2 D=  6.13D-04 Err=  1.68D-02
      PEZero:  N= 3 I= 1 D=  1.23D-03 Err=  1.05D-02
      PEZero:  N= 4 I= 3 D=  3.07D-04 Err=  5.55D-04
      PEZero:  N= 4 I= 2 D=  9.20D-04 Err=  1.61D-02
      PEZero:  N= 5 I= 4 D=  3.07D-04 Err=  3.00D-04
      PEZero:  N= 5 I= 3 D=  6.13D-04 Err=  1.04D-04
      PEZero:  N= 5 I= 2 D=  1.23D-03 Err=  5.14D-03
      PEZero:  N= 6 I= 5 D=  1.53D-04 Err=  2.19D-04
      PEZero:  N= 6 I= 4 D=  4.60D-04 Err=  8.65D-06
      PEZero:  N= 6 I= 3 D=  7.67D-04 Err=  5.23D-05
 Maximum DWI energy   std dev =  0.000000538 at pt    46
 Maximum DWI gradient std dev =  0.562215242 at pt     6
 CORRECTOR INTEGRATION CONVERGENCE:
   Recorrection delta-x convergence threshold:    0.010000
   Delta-x Convergence NOT Met
 IRC-IRC-IRC-IRC-IRC-IRC-IRC-IRC-IRC-IRC-IRC-IRC-IRC-IRC-IRC-IRC-IRC-IRC
                          Input orientation:                          
 ---------------------------------------------------------------------
 Center     Atomic      Atomic             Coordinates (Angstroms)
 Number     Number       Type             X           Y           Z
 ---------------------------------------------------------------------
      1         14           0        0.236543    0.275165   -0.219195
      2          8           0        0.947101   -0.165607    1.234503
      3          8           0       -0.340400    1.769015   -0.305527
      4          1           0       -1.229493    1.565248    0.232361
      5          8           0        1.648738    0.152555   -1.122592
      6          8           0       -0.693096   -0.928850   -0.835421
      7          6           0       -1.940843   -1.331341   -0.309540
      8          1           0       -1.768900   -1.957683    0.575458
      9          1           0       -2.442207   -1.937850   -1.073919
     10          6           0       -2.793034   -0.129443    0.099326
     11          1           0       -3.099911    0.384726   -0.839623
     12          1           0       -3.732054   -0.540562    0.532609
     13          8           0       -2.112889    0.678455    0.956516
     14          6           0        2.749947   -0.073717   -0.287624
     15          1           0        3.477165   -0.721783   -0.788366
     16          1           0        3.247793    0.876580   -0.049314
     17          6           0        2.212116   -0.721549    0.996228
     18          1           0        2.131916   -1.809438    0.862642
     19          1           0        2.869688   -0.530875    1.850207
 ---------------------------------------------------------------------
                    Distance matrix (angstroms):
                    1          2          3          4          5
     1  Si   0.000000
     2  O    1.677024   0.000000
     3  O    1.603716   2.787851   0.000000
     4  H    2.004365   2.955961   1.058929   0.000000
     5  O    1.680909   2.479802   2.690206   3.480778   0.000000
     6  O    1.641223   2.749067   2.771942   2.765575   2.595398
     7  C    2.707402   3.476093   3.489074   3.031485   3.968387
     8  H    3.104656   3.320021   4.087179   3.580463   4.360818
     9  H    3.578223   4.467332   4.329996   3.930488   4.594344
    10  C    3.073028   3.908778   3.127853   2.309618   4.615404
    11  H    3.395417   4.580738   3.133115   2.457894   4.762735
    12  H    4.120726   4.746339   4.188070   3.284417   5.672127
    13  O    2.657964   3.186417   2.433884   1.446094   4.330023
    14  C    2.538425   2.361264   3.598087   4.335036   1.400368
    15  H    3.437949   3.286724   4.583778   5.331513   2.054099
    16  H    3.075417   2.833289   3.706376   4.538689   2.057453
    17  C    2.524595   1.402180   3.796421   4.202095   2.360265
    18  H    3.018009   2.060157   4.503586   4.804667   2.832672
    19  H    3.444645   2.051549   4.499039   4.880004   3.285625
                    6          7          8          9         10
     6  O    0.000000
     7  C    1.412594   0.000000
     8  H    2.050960   1.097767   0.000000
     9  H    2.033310   1.097039   1.781623   0.000000
    10  C    2.433628   1.529039   2.148956   2.184014   0.000000
    11  H    2.741944   2.137595   3.043177   2.425248   1.113629
    12  H    3.355226   2.131428   2.421578   2.489387   1.112884
    13  O    2.794689   2.381550   2.685658   3.328088   1.360174
    14  C    3.589691   4.856501   4.971340   5.572406   5.556751
    15  H    4.175664   5.473175   5.559557   6.049737   6.360367
    16  H    4.405468   5.644871   5.795740   6.430158   6.125829
    17  C    3.440664   4.395900   4.189698   5.237138   5.119233
    18  H    3.411677   4.264968   3.914182   4.968838   5.259293
    19  H    4.479331   5.333522   5.017695   6.224653   5.940804
                   11         12         13         14         15
    11  H    0.000000
    12  H    1.771661   0.000000
    13  O    2.070411   2.070603   0.000000
    14  C    5.893701   6.550348   5.075512   0.000000
    15  H    6.669702   7.331484   6.021129   1.095253   0.000000
    16  H    6.415595   7.145991   5.457826   1.098957   1.775831
    17  C    5.728160   5.964969   4.546126   1.535326   2.187493
    18  H    5.923181   6.008753   4.921056   2.172050   2.391342
    19  H    6.611325   6.731950   5.204540   2.189441   2.714322
                   16         17         18         19
    16  H    0.000000
    17  C    2.172510   0.000000
    18  H    3.048202   1.098990   0.000000
    19  H    2.394175   1.094549   1.776039   0.000000
 Symmetry turned off by external request.
 Stoichiometry    C4H9O5Si(1-)
 Framework group  C1[X(C4H9O5Si)]
 Deg. of freedom    51
 Full point group                 C1      NOp   1
 Rotational constants (GHZ):           2.3844183           0.8517154           0.8200126
 Standard basis: def2TZVPP (5D, 7F)
   447 basis functions,   681 primitive gaussians,   507 cartesian basis functions
    44 alpha electrons       44 beta electrons
       nuclear repulsion energy       724.8298295615 Hartrees.
 NAtoms=   19 NActive=   19 NUniq=   19 SFac= 1.00D+00 NAtFMM=   60 NAOKFM=F Big=F
 Integral buffers will be    131072 words long.
 Raffenetti 2 integral format.
 Two-electron integral symmetry is turned off.
 Nuclear repulsion after empirical dispersion term =      724.8200960554 Hartrees.
 One-electron integrals computed using PRISM.
   1 Symmetry operations used in ECPInt.
 ECPInt:  NShTT=   14028 NPrTT=   39320 LenC2=   13308 LenP2D=   29138.
 LDataN:  DoStor=T MaxTD1= 6 Len=  172
 NBasis=   447 RedAO= T EigKep=  2.81D-04  NBF=   447
 NBsUse=   447 1.00D-06 EigRej= -1.00D+00 NBFU=   447
 Initial guess from the checkpoint file:  "QbiLmL_to_PbiL2_IRCforward.chk"
 B after Tr=    -0.000020   -0.000028    0.000036
         Rot=    1.000000   -0.000018   -0.000003   -0.000001 Ang=  -0.00 deg.
 ExpMin= 7.01D-02 ExpMax= 4.48D+04 ExpMxC= 1.53D+03 IAcc=3 IRadAn=         5 AccDes= 0.00D+00
 Harris functional with IExCor= 4639 and IRadAn=       5 diagonalized for initial guess.
 HarFok:  IExCor= 4639 AccDes= 0.00D+00 IRadAn=         5 IDoV= 1 UseB2=F ITyADJ=14
 ICtDFT=  3500011 ScaDFX=  1.000000  1.000000  1.000000  1.000000
 FoFCou: FMM=F IPFlag=           0 FMFlag=      100000 FMFlg1=           0
         NFxFlg=           0 DoJE=T BraDBF=F KetDBF=T FulRan=T
         wScrn=  0.000000 ICntrl=       500 IOpCl=  0 I1Cent=   200000004 NGrid=           0
         NMat0=    1 NMatS0=      1 NMatT0=    0 NMatD0=    1 NMtDS0=    0 NMtDT0=    0
 Symmetry not used in FoFCou.
 Requested convergence on RMS density matrix=1.00D-08 within 128 cycles.
 Requested convergence on MAX density matrix=1.00D-06.
 Requested convergence on             energy=1.00D-06.
 No special actions if energy rises.
 Integral accuracy reduced to 1.0D-05 until final iterations.
 Initial convergence to 1.0D-05 achieved.  Increase integral accuracy.
 SCF Done:  E(RwB97XD) =  -823.723267127     A.U. after   10 cycles
            NFock= 10  Conv=0.36D-08     -V/T= 2.0035
 DoSCS=F DFT=T ScalE2(SS,OS)=  1.000000  1.000000
 Range of M.O.s used for correlation:     1   447
 NBasis=   447 NAE=    44 NBE=    44 NFC=     0 NFV=     0
 NROrb=    447 NOA=    44 NOB=    44 NVA=   403 NVB=   403

 **** Warning!!: The largest alpha MO coefficient is  0.13064138D+02

 Symmetrizing basis deriv contribution to polar:
 IMax=3 JMax=2 DiffMx= 0.00D+00
   1 Symmetry operations used in ECPInt.
 ECPInt:  NShTT=   14028 NPrTT=   39320 LenC2=   13308 LenP2D=   29138.
 LDataN:  DoStor=T MaxTD1= 7 Len=  274
 Calling FoFJK, ICntrl=      2127 FMM=F ISym2X=0 I1Cent= 0 IOpClX= 0 NMat=1 NMatS=1 NMatT=0.
 -------------------------------------------------------------------
 Center     Atomic                   Forces (Hartrees/Bohr)
 Number     Number              X              Y              Z
 -------------------------------------------------------------------
      1       14           0.000554954    0.000096314   -0.000360301
      2        8           0.000140934   -0.000056030   -0.000111835
      3        8          -0.000437495   -0.000451884    0.000390541
      4        1          -0.000178649   -0.000117621    0.000124110
      5        8           0.000255627   -0.000022262   -0.000128685
      6        8           0.000098851   -0.000018510    0.000138262
      7        6           0.000070085    0.000111650    0.000153717
      8        1           0.000002502    0.000020742    0.000022199
      9        1           0.000005886   -0.000004632    0.000019875
     10        6          -0.000104091    0.000093876   -0.000154651
     11        1           0.000006367    0.000001386   -0.000017639
     12        1          -0.000010737    0.000007085   -0.000019750
     13        8          -0.000666837    0.000475072    0.000025943
     14        6           0.000144982   -0.000046892   -0.000022399
     15        1           0.000012286   -0.000002904   -0.000000384
     16        1           0.000009473   -0.000003731    0.000001253
     17        6           0.000084024   -0.000068651   -0.000051245
     18        1           0.000005813   -0.000005204   -0.000006241
     19        1           0.000006023   -0.000007805   -0.000002770
 -------------------------------------------------------------------
 Cartesian Forces:  Max     0.000666837 RMS     0.000187316
 IRC-IRC-IRC-IRC-IRC-IRC-IRC-IRC-IRC-IRC-IRC-IRC-IRC-IRC-IRC-IRC-IRC-IRC
 Error in corrector energy =           0.0000002683
 Magnitude of corrector gradient =     0.0014638605
 Magnitude of analytic gradient =      0.0014142034
 Magnitude of difference =             0.0001971889
 Angle between gradients (degrees)=    7.6049
 Pt  1 Step number   2 out of a maximum of 100
 Modified Bulirsch-Stoer Extrapolation Cycles:
    EPS =    0.000010000000000
      PEZero:  N= 2 I= 1 D=  6.13D-04 Err=  3.49D-02
      PEZero:  N= 3 I= 2 D=  6.13D-04 Err=  1.59D-02
      PEZero:  N= 3 I= 1 D=  1.23D-03 Err=  1.11D-02
      PEZero:  N= 4 I= 3 D=  3.07D-04 Err=  6.13D-04
      PEZero:  N= 4 I= 2 D=  9.20D-04 Err=  1.51D-02
      PEZero:  N= 5 I= 4 D=  3.07D-04 Err=  2.99D-04
      PEZero:  N= 5 I= 3 D=  6.13D-04 Err=  1.65D-04
      PEZero:  N= 5 I= 2 D=  1.23D-03 Err=  5.37D-03
      PEZero:  N= 6 I= 5 D=  1.53D-04 Err=  2.17D-04
      PEZero:  N= 6 I= 4 D=  4.60D-04 Err=  9.34D-06
      PEZero:  N= 6 I= 3 D=  7.67D-04 Err=  8.76D-05
 Maximum DWI energy   std dev =  0.000000562 at pt     1
 Maximum DWI gradient std dev =  0.674177401 at pt     5
 CORRECTOR INTEGRATION CONVERGENCE:
   Recorrection delta-x convergence threshold:    0.010000
   Delta-x Convergence Met
 Point Number:   1          Path Number:   1
   CHANGE IN THE REACTION COORDINATE =    0.23483
   NET REACTION COORDINATE UP TO THIS POINT =    0.23483
  # OF POINTS ALONG THE PATH =   1
  # OF STEPS =   2

 Calculating another point on the path.
 IRC-IRC-IRC-IRC-IRC-IRC-IRC-IRC-IRC-IRC-IRC-IRC-IRC-IRC-IRC-IRC-IRC-IRC
                          Input orientation:                          
 ---------------------------------------------------------------------
 Center     Atomic      Atomic             Coordinates (Angstroms)
 Number     Number       Type             X           Y           Z
 ---------------------------------------------------------------------
      1         14           0        0.243029    0.276081   -0.223455
      2          8           0        0.949908   -0.166647    1.232143
      3          8           0       -0.351814    1.759679   -0.296310
      4          1           0       -1.249321    1.529481    0.251389
      5          8           0        1.654022    0.152097   -1.125278
      6          8           0       -0.690978   -0.929118   -0.832629
      7          6           0       -1.939016   -1.328240   -0.305356
      8          1           0       -1.768006   -1.950039    0.583095
      9          1           0       -2.439892   -1.939148   -1.066660
     10          6           0       -2.795823   -0.126628    0.095515
     11          1           0       -3.097584    0.384978   -0.845744
     12          1           0       -3.735660   -0.538614    0.524639
     13          8           0       -2.126625    0.688004    0.957021
     14          6           0        2.753958   -0.075004   -0.288140
     15          1           0        3.481611   -0.722816   -0.788416
     16          1           0        3.251257    0.875215   -0.048847
     17          6           0        2.214355   -0.723361    0.994901
     18          1           0        2.133947   -1.811201    0.860520
     19          1           0        2.871766   -0.533571    1.849248
 ---------------------------------------------------------------------
                    Distance matrix (angstroms):
                    1          2          3          4          5
     1  Si   0.000000
     2  O    1.677633   0.000000
     3  O    1.600065   2.782334   0.000000
     4  H    2.005890   2.945392   1.076329   0.000000
     5  O    1.679154   2.480889   2.700905   3.495969   0.000000
     6  O    1.641939   2.745387   2.762661   2.744367   2.598787
     7  C    2.709589   3.472619   3.471964   2.992024   3.971598
     8  H    3.106508   3.314936   4.067058   3.533571   4.364377
     9  H    3.579986   4.462847   4.316808   3.896935   4.597486
    10  C    3.081970   3.914592   3.112051   2.271269   4.622678
    11  H    3.399823   4.583022   3.119445   2.435090   4.765515
    12  H    4.129569   4.753259   4.172113   3.245546   5.678731
    13  O    2.679265   3.204867   2.422660   1.405583   4.349306
    14  C    2.536181   2.360987   3.607208   4.346459   1.400797
    15  H    3.435897   3.286564   4.593484   5.341886   2.054027
    16  H    3.072278   2.832423   3.718284   4.557785   2.057368
    17  C    2.523768   1.401799   3.797096   4.198233   2.361262
    18  H    3.017834   2.060245   4.502049   4.793505   2.833418
    19  H    3.444110   2.051582   4.500431   4.877775   3.286464
                    6          7          8          9         10
     6  O    0.000000
     7  C    1.412414   0.000000
     8  H    2.050986   1.097827   0.000000
     9  H    2.033134   1.097119   1.781360   0.000000
    10  C    2.436353   1.529277   2.149179   2.182331   0.000000
    11  H    2.742038   2.137618   3.043298   2.425474   1.112999
    12  H    3.356302   2.130805   2.422231   2.484501   1.112283
    13  O    2.806958   2.386217   2.688438   3.330968   1.361486
    14  C    3.590761   4.857459   4.972219   5.572900   5.563266
    15  H    4.177919   5.475681   5.562876   6.051536   6.367335
    16  H    4.405809   5.644462   5.794343   6.430068   6.131208
    17  C    3.438482   4.393977   4.187304   5.233564   5.125122
    18  H    3.409549   4.263983   3.914266   4.964917   5.265516
    19  H    4.476837   5.330801   5.013682   6.220280   5.946659
                   11         12         13         14         15
    11  H    0.000000
    12  H    1.771472   0.000000
    13  O    2.069915   2.068946   0.000000
    14  C    5.896020   6.556729   5.094379   0.000000
    15  H    6.672053   7.338055   6.040635   1.095178   0.000000
    16  H    6.417411   7.151561   5.474344   1.098855   1.775874
    17  C    5.730016   5.971429   4.564810   1.535492   2.187728
    18  H    5.924817   6.015362   4.940426   2.172145   2.391603
    19  H    6.613611   6.738894   5.222282   2.189199   2.713852
                   16         17         18         19
    16  H    0.000000
    17  C    2.172561   0.000000
    18  H    3.048304   1.099053   0.000000
    19  H    2.394046   1.094586   1.776034   0.000000
 Symmetry turned off by external request.
 Stoichiometry    C4H9O5Si(1-)
 Framework group  C1[X(C4H9O5Si)]
 Deg. of freedom    51
 Full point group                 C1      NOp   1
 Rotational constants (GHZ):           2.3922903           0.8490136           0.8178475
 Standard basis: def2TZVPP (5D, 7F)
   447 basis functions,   681 primitive gaussians,   507 cartesian basis functions
    44 alpha electrons       44 beta electrons
       nuclear repulsion energy       724.6435139336 Hartrees.
 NAtoms=   19 NActive=   19 NUniq=   19 SFac= 1.00D+00 NAtFMM=   60 NAOKFM=F Big=F
 Integral buffers will be    131072 words long.
 Raffenetti 2 integral format.
 Two-electron integral symmetry is turned off.
 Nuclear repulsion after empirical dispersion term =      724.6337739841 Hartrees.
 One-electron integrals computed using PRISM.
   1 Symmetry operations used in ECPInt.
 ECPInt:  NShTT=   14028 NPrTT=   39320 LenC2=   13306 LenP2D=   29136.
 LDataN:  DoStor=T MaxTD1= 6 Len=  172
 NBasis=   447 RedAO= T EigKep=  2.80D-04  NBF=   447
 NBsUse=   447 1.00D-06 EigRej= -1.00D+00 NBFU=   447
 Initial guess from the checkpoint file:  "QbiLmL_to_PbiL2_IRCforward.chk"
 B after Tr=    -0.000065   -0.000363    0.000188
         Rot=    1.000000   -0.000044   -0.000002   -0.000028 Ang=  -0.01 deg.
 ExpMin= 7.01D-02 ExpMax= 4.48D+04 ExpMxC= 1.53D+03 IAcc=3 IRadAn=         5 AccDes= 0.00D+00
 Harris functional with IExCor= 4639 and IRadAn=       5 diagonalized for initial guess.
 HarFok:  IExCor= 4639 AccDes= 0.00D+00 IRadAn=         5 IDoV= 1 UseB2=F ITyADJ=14
 ICtDFT=  3500011 ScaDFX=  1.000000  1.000000  1.000000  1.000000
 FoFCou: FMM=F IPFlag=           0 FMFlag=      100000 FMFlg1=           0
         NFxFlg=           0 DoJE=T BraDBF=F KetDBF=T FulRan=T
         wScrn=  0.000000 ICntrl=       500 IOpCl=  0 I1Cent=   200000004 NGrid=           0
         NMat0=    1 NMatS0=      1 NMatT0=    0 NMatD0=    1 NMtDS0=    0 NMtDT0=    0
 Symmetry not used in FoFCou.
 Requested convergence on RMS density matrix=1.00D-08 within 128 cycles.
 Requested convergence on MAX density matrix=1.00D-06.
 Requested convergence on             energy=1.00D-06.
 No special actions if energy rises.
 Integral accuracy reduced to 1.0D-05 until final iterations.
 Initial convergence to 1.0D-05 achieved.  Increase integral accuracy.
 SCF Done:  E(RwB97XD) =  -823.723418800     A.U. after   12 cycles
            NFock= 12  Conv=0.45D-08     -V/T= 2.0035
 DoSCS=F DFT=T ScalE2(SS,OS)=  1.000000  1.000000
 Range of M.O.s used for correlation:     1   447
 NBasis=   447 NAE=    44 NBE=    44 NFC=     0 NFV=     0
 NROrb=    447 NOA=    44 NOB=    44 NVA=   403 NVB=   403

 **** Warning!!: The largest alpha MO coefficient is  0.12731277D+02

 Symmetrizing basis deriv contribution to polar:
 IMax=3 JMax=2 DiffMx= 0.00D+00
   1 Symmetry operations used in ECPInt.
 ECPInt:  NShTT=   14028 NPrTT=   39320 LenC2=   13306 LenP2D=   29136.
 LDataN:  DoStor=T MaxTD1= 7 Len=  274
 Calling FoFJK, ICntrl=      2127 FMM=F ISym2X=0 I1Cent= 0 IOpClX= 0 NMat=1 NMatS=1 NMatT=0.
 -------------------------------------------------------------------
 Center     Atomic                   Forces (Hartrees/Bohr)
 Number     Number              X              Y              Z
 -------------------------------------------------------------------
      1       14           0.000838640    0.000569957   -0.000680421
      2        8           0.000334844   -0.000137266   -0.000219990
      3        8           0.000138460   -0.001068376    0.000263090
      4        1          -0.001323865   -0.000289450    0.000824963
      5        8           0.000573712   -0.000070423   -0.000271973
      6        8           0.000169117   -0.000146070    0.000235644
      7        6           0.000193583    0.000261159    0.000306366
      8        1          -0.000001207    0.000051934    0.000032354
      9        1           0.000012399    0.000005546    0.000059568
     10        6          -0.000244153    0.000094812   -0.000359028
     11        1           0.000037011    0.000011539    0.000010303
     12        1           0.000044871    0.000060932   -0.000028344
     13        8          -0.001308127    0.000924588   -0.000012404
     14        6           0.000289486   -0.000096352   -0.000050519
     15        1           0.000029843   -0.000006695   -0.000000170
     16        1           0.000020064   -0.000005288    0.000003530
     17        6           0.000163611   -0.000131703   -0.000095604
     18        1           0.000014916   -0.000013059   -0.000013188
     19        1           0.000016795   -0.000015787   -0.000004178
 -------------------------------------------------------------------
 Cartesian Forces:  Max     0.001323865 RMS     0.000398706
 IRC-IRC-IRC-IRC-IRC-IRC-IRC-IRC-IRC-IRC-IRC-IRC-IRC-IRC-IRC-IRC-IRC-IRC
 Pt  2 Step number   1 out of a maximum of 100
 Modified Bulirsch-Stoer Extrapolation Cycles:
    EPS =    0.000010000000000
      PEZero:  N= 2 I= 1 D=  1.23D-03 Err=  4.48D-02
      PEZero:  N= 3 I= 2 D=  1.23D-03 Err=  9.22D-03
      PEZero:  N= 3 I= 1 D=  2.45D-03 Err=  3.10D-02
      PEZero:  N= 4 I= 3 D=  6.13D-04 Err=  5.32D-05
      PEZero:  N= 4 I= 2 D=  1.84D-03 Err=  9.17D-03
      PEZero:  N= 5 I= 4 D=  6.13D-04 Err=  3.54D-05
      PEZero:  N= 5 I= 3 D=  1.23D-03 Err=  1.03D-07
      PEZero:  N= 5 I= 2 D=  2.45D-03 Err=  4.61D-03
 Maximum DWI energy   std dev =  0.000004669 at pt   143
 Maximum DWI gradient std dev =  0.565647980 at pt   107
 CORRECTOR INTEGRATION CONVERGENCE:
   Recorrection delta-x convergence threshold:    0.010000
   Delta-x Convergence NOT Met
 IRC-IRC-IRC-IRC-IRC-IRC-IRC-IRC-IRC-IRC-IRC-IRC-IRC-IRC-IRC-IRC-IRC-IRC
                          Input orientation:                          
 ---------------------------------------------------------------------
 Center     Atomic      Atomic             Coordinates (Angstroms)
 Number     Number       Type             X           Y           Z
 ---------------------------------------------------------------------
      1         14           0        0.242635    0.276682   -0.223351
      2          8           0        0.949690   -0.166768    1.232295
      3          8           0       -0.351916    1.759334   -0.296248
      4          1           0       -1.253516    1.524120    0.255126
      5          8           0        1.653817    0.151804   -1.125166
      6          8           0       -0.691152   -0.929333   -0.832818
      7          6           0       -1.938873   -1.328368   -0.305565
      8          1           0       -1.768098   -1.950217    0.582906
      9          1           0       -2.440211   -1.939164   -1.066591
     10          6           0       -2.795447   -0.126850    0.095395
     11          1           0       -3.097334    0.385295   -0.845126
     12          1           0       -3.734643   -0.537554    0.526038
     13          8           0       -2.125101    0.688090    0.956583
     14          6           0        2.753681   -0.074956   -0.288087
     15          1           0        3.481582   -0.722718   -0.788170
     16          1           0        3.250928    0.875335   -0.048804
     17          6           0        2.214165   -0.723289    0.995008
     18          1           0        2.133969   -1.811170    0.860583
     19          1           0        2.871668   -0.533485    1.849314
 ---------------------------------------------------------------------
                    Distance matrix (angstroms):
                    1          2          3          4          5
     1  Si   0.000000
     2  O    1.677940   0.000000
     3  O    1.599081   2.782174   0.000000
     4  H    2.005869   2.944161   1.082691   0.000000
     5  O    1.679374   2.480908   2.700782   3.498720   0.000000
     6  O    1.642523   2.745644   2.762592   2.742135   2.598693
     7  C    2.709599   3.472481   3.471660   2.986767   3.971156
     8  H    3.106796   3.314931   4.066847   3.527500   4.364116
     9  H    3.580320   4.462924   4.316630   3.892239   4.597461
    10  C    3.081296   3.914101   3.111578   2.264679   4.622053
    11  H    3.399088   4.582451   3.118745   2.430461   4.765122
    12  H    4.128354   4.751763   4.170694   3.237265   5.677781
    13  O    2.677252   3.203302   2.421019   1.396657   4.347586
    14  C    2.536374   2.361012   3.606858   4.348535   1.400650
    15  H    3.436364   3.286615   4.593287   5.343960   2.054040
    16  H    3.072243   2.832471   3.717952   4.561065   2.057380
    17  C    2.524138   1.401755   3.796779   4.197986   2.361125
    18  H    3.018474   2.060277   4.501819   4.792264   2.833198
    19  H    3.444434   2.051632   4.500216   4.877737   3.286382
                    6          7          8          9         10
     6  O    0.000000
     7  C    1.412102   0.000000
     8  H    2.050924   1.097835   0.000000
     9  H    2.033129   1.097074   1.781207   0.000000
    10  C    2.435901   1.529095   2.148902   2.181946   0.000000
    11  H    2.741917   2.137708   3.043150   2.425689   1.112658
    12  H    3.356012   2.131136   2.422014   2.485264   1.111854
    13  O    2.806104   2.386168   2.688447   3.330914   1.362034
    14  C    3.590761   4.857099   4.972094   5.572957   5.562605
    15  H    4.178086   5.475496   5.562890   6.051850   6.366855
    16  H    4.405849   5.644136   5.794258   6.430113   6.130565
    17  C    3.438644   4.393784   4.187314   5.233714   5.124574
    18  H    3.409773   4.263923   3.914404   4.965229   5.265129
    19  H    4.477077   5.330727   5.013816   6.220490   5.946241
                   11         12         13         14         15
    11  H    0.000000
    12  H    1.771413   0.000000
    13  O    2.069559   2.068380   0.000000
    14  C    5.895465   6.555543   5.092540   0.000000
    15  H    6.671813   7.337257   6.038994   1.095225   0.000000
    16  H    6.416752   7.150168   5.472436   1.098893   1.775849
    17  C    5.729492   5.970155   4.563190   1.535495   2.187709
    18  H    5.924562   6.014534   4.939149   2.172078   2.391480
    19  H    6.613105   6.737538   5.220816   2.189212   2.713692
                   16         17         18         19
    16  H    0.000000
    17  C    2.172561   0.000000
    18  H    3.048261   1.099085   0.000000
    19  H    2.394048   1.094612   1.776026   0.000000
 Symmetry turned off by external request.
 Stoichiometry    C4H9O5Si(1-)
 Framework group  C1[X(C4H9O5Si)]
 Deg. of freedom    51
 Full point group                 C1      NOp   1
 Rotational constants (GHZ):           2.3924801           0.8492802           0.8181080
 Standard basis: def2TZVPP (5D, 7F)
   447 basis functions,   681 primitive gaussians,   507 cartesian basis functions
    44 alpha electrons       44 beta electrons
       nuclear repulsion energy       724.7033381320 Hartrees.
 NAtoms=   19 NActive=   19 NUniq=   19 SFac= 1.00D+00 NAtFMM=   60 NAOKFM=F Big=F
 Integral buffers will be    131072 words long.
 Raffenetti 2 integral format.
 Two-electron integral symmetry is turned off.
 Nuclear repulsion after empirical dispersion term =      724.6935979042 Hartrees.
 One-electron integrals computed using PRISM.
   1 Symmetry operations used in ECPInt.
 ECPInt:  NShTT=   14028 NPrTT=   39320 LenC2=   13306 LenP2D=   29136.
 LDataN:  DoStor=T MaxTD1= 6 Len=  172
 NBasis=   447 RedAO= T EigKep=  2.80D-04  NBF=   447
 NBsUse=   447 1.00D-06 EigRej= -1.00D+00 NBFU=   447
 Initial guess from the checkpoint file:  "QbiLmL_to_PbiL2_IRCforward.chk"
 B after Tr=    -0.000053   -0.000084    0.000091
         Rot=    1.000000   -0.000020   -0.000007   -0.000012 Ang=  -0.00 deg.
 ExpMin= 7.01D-02 ExpMax= 4.48D+04 ExpMxC= 1.53D+03 IAcc=3 IRadAn=         5 AccDes= 0.00D+00
 Harris functional with IExCor= 4639 and IRadAn=       5 diagonalized for initial guess.
 HarFok:  IExCor= 4639 AccDes= 0.00D+00 IRadAn=         5 IDoV= 1 UseB2=F ITyADJ=14
 ICtDFT=  3500011 ScaDFX=  1.000000  1.000000  1.000000  1.000000
 FoFCou: FMM=F IPFlag=           0 FMFlag=      100000 FMFlg1=           0
         NFxFlg=           0 DoJE=T BraDBF=F KetDBF=T FulRan=T
         wScrn=  0.000000 ICntrl=       500 IOpCl=  0 I1Cent=   200000004 NGrid=           0
         NMat0=    1 NMatS0=      1 NMatT0=    0 NMatD0=    1 NMtDS0=    0 NMtDT0=    0
 Symmetry not used in FoFCou.
 Requested convergence on RMS density matrix=1.00D-08 within 128 cycles.
 Requested convergence on MAX density matrix=1.00D-06.
 Requested convergence on             energy=1.00D-06.
 No special actions if energy rises.
 Integral accuracy reduced to 1.0D-05 until final iterations.
 Initial convergence to 1.0D-05 achieved.  Increase integral accuracy.
 SCF Done:  E(RwB97XD) =  -823.723431640     A.U. after   10 cycles
            NFock= 10  Conv=0.65D-08     -V/T= 2.0035
 DoSCS=F DFT=T ScalE2(SS,OS)=  1.000000  1.000000
 Range of M.O.s used for correlation:     1   447
 NBasis=   447 NAE=    44 NBE=    44 NFC=     0 NFV=     0
 NROrb=    447 NOA=    44 NOB=    44 NVA=   403 NVB=   403

 **** Warning!!: The largest alpha MO coefficient is  0.12784736D+02

 Symmetrizing basis deriv contribution to polar:
 IMax=3 JMax=2 DiffMx= 0.00D+00
   1 Symmetry operations used in ECPInt.
 ECPInt:  NShTT=   14028 NPrTT=   39320 LenC2=   13306 LenP2D=   29136.
 LDataN:  DoStor=T MaxTD1= 7 Len=  274
 Calling FoFJK, ICntrl=      2127 FMM=F ISym2X=0 I1Cent= 0 IOpClX= 0 NMat=1 NMatS=1 NMatT=0.
 -------------------------------------------------------------------
 Center     Atomic                   Forces (Hartrees/Bohr)
 Number     Number              X              Y              Z
 -------------------------------------------------------------------
      1       14           0.001279019    0.000515865   -0.000908531
      2        8           0.000281784   -0.000167743   -0.000244423
      3        8          -0.000851178   -0.001184874    0.000806717
      4        1          -0.000852257   -0.000377547    0.000551310
      5        8           0.000597231   -0.000148982   -0.000298935
      6        8           0.000201081   -0.000105718    0.000299603
      7        6           0.000211798    0.000253229    0.000352469
      8        1           0.000003587    0.000033283    0.000039188
      9        1           0.000004226   -0.000010216    0.000037191
     10        6          -0.000174556    0.000195267   -0.000423593
     11        1           0.000016062    0.000010839   -0.000023498
     12        1          -0.000003800    0.000034867   -0.000007655
     13        8          -0.001235038    0.001241412   -0.000037574
     14        6           0.000307599   -0.000108407   -0.000038726
     15        1           0.000021783   -0.000003861    0.000004931
     16        1           0.000010539   -0.000004122    0.000003479
     17        6           0.000164016   -0.000152501   -0.000100121
     18        1           0.000010132   -0.000009007   -0.000009258
     19        1           0.000007971   -0.000011783   -0.000002572
 -------------------------------------------------------------------
 Cartesian Forces:  Max     0.001279019 RMS     0.000442898
 IRC-IRC-IRC-IRC-IRC-IRC-IRC-IRC-IRC-IRC-IRC-IRC-IRC-IRC-IRC-IRC-IRC-IRC
 Error in corrector energy =           0.0000040274
 Magnitude of corrector gradient =     0.0036370870
 Magnitude of analytic gradient =      0.0033438040
 Magnitude of difference =             0.0011144671
 Angle between gradients (degrees)=   17.7355
 Pt  2 Step number   2 out of a maximum of 100
 Modified Bulirsch-Stoer Extrapolation Cycles:
    EPS =    0.000010000000000
      PEZero:  N= 2 I= 1 D=  1.23D-03 Err=  4.77D-02
      PEZero:  N= 3 I= 2 D=  1.23D-03 Err=  1.21D-02
      PEZero:  N= 3 I= 1 D=  2.45D-03 Err=  2.95D-02
      PEZero:  N= 4 I= 3 D=  6.13D-04 Err=  8.80D-05
      PEZero:  N= 4 I= 2 D=  1.84D-03 Err=  1.21D-02
      PEZero:  N= 5 I= 4 D=  6.13D-04 Err=  5.85D-05
      PEZero:  N= 5 I= 3 D=  1.23D-03 Err=  1.95D-07
      PEZero:  N= 5 I= 2 D=  2.45D-03 Err=  6.07D-03
 Maximum DWI energy   std dev =  0.000006201 at pt   148
 Maximum DWI gradient std dev =  0.737965411 at pt   104
 CORRECTOR INTEGRATION CONVERGENCE:
   Recorrection delta-x convergence threshold:    0.010000
   Delta-x Convergence NOT Met
 IRC-IRC-IRC-IRC-IRC-IRC-IRC-IRC-IRC-IRC-IRC-IRC-IRC-IRC-IRC-IRC-IRC-IRC
                          Input orientation:                          
 ---------------------------------------------------------------------
 Center     Atomic      Atomic             Coordinates (Angstroms)
 Number     Number       Type             X           Y           Z
 ---------------------------------------------------------------------
      1         14           0        0.242558    0.276929   -0.223355
      2          8           0        0.949544   -0.166795    1.232371
      3          8           0       -0.351826    1.759323   -0.296381
      4          1           0       -1.255619    1.521723    0.256719
      5          8           0        1.653722    0.151663   -1.125127
      6          8           0       -0.691256   -0.929368   -0.832864
      7          6           0       -1.938876   -1.328450   -0.305786
      8          1           0       -1.768274   -1.950765    0.582400
      9          1           0       -2.440452   -1.938860   -1.066982
     10          6           0       -2.795319   -0.126971    0.095461
     11          1           0       -3.097586    0.385378   -0.844650
     12          1           0       -3.734102   -0.537263    0.527040
     13          8           0       -2.124401    0.688213    0.956438
     14          6           0        2.753530   -0.074922   -0.288049
     15          1           0        3.481516   -0.722669   -0.788041
     16          1           0        3.250690    0.875434   -0.048791
     17          6           0        2.214053   -0.723214    0.995092
     18          1           0        2.133942   -1.811117    0.860739
     19          1           0        2.871547   -0.533304    1.849393
 ---------------------------------------------------------------------
                    Distance matrix (angstroms):
                    1          2          3          4          5
     1  Si   0.000000
     2  O    1.678052   0.000000
[...]
 HarFok:  IExCor= 4639 AccDes= 0.00D+00 IRadAn=         5 IDoV= 1 UseB2=F ITyADJ=14
 ICtDFT=  3500011 ScaDFX=  1.000000  1.000000  1.000000  1.000000
 FoFCou: FMM=F IPFlag=           0 FMFlag=      100000 FMFlg1=           0
         NFxFlg=           0 DoJE=T BraDBF=F KetDBF=T FulRan=T
         wScrn=  0.000000 ICntrl=       500 IOpCl=  0 I1Cent=   200000004 NGrid=           0
         NMat0=    1 NMatS0=      1 NMatT0=    0 NMatD0=    1 NMtDS0=    0 NMtDT0=    0
 Symmetry not used in FoFCou.
 Requested convergence on RMS density matrix=1.00D-08 within 128 cycles.
 Requested convergence on MAX density matrix=1.00D-06.
 Requested convergence on             energy=1.00D-06.
 No special actions if energy rises.
 Integral accuracy reduced to 1.0D-05 until final iterations.
 Initial convergence to 1.0D-05 achieved.  Increase integral accuracy.
 SCF Done:  E(RwB97XD) =  -823.738666283     A.U. after    9 cycles
            NFock=  9  Conv=0.77D-08     -V/T= 2.0035
 DoSCS=F DFT=T ScalE2(SS,OS)=  1.000000  1.000000
 Range of M.O.s used for correlation:     1   447
 NBasis=   447 NAE=    44 NBE=    44 NFC=     0 NFV=     0
 NROrb=    447 NOA=    44 NOB=    44 NVA=   403 NVB=   403

 **** Warning!!: The largest alpha MO coefficient is  0.12655169D+02

 Symmetrizing basis deriv contribution to polar:
 IMax=3 JMax=2 DiffMx= 0.00D+00
   1 Symmetry operations used in ECPInt.
 ECPInt:  NShTT=   14028 NPrTT=   39320 LenC2=   13264 LenP2D=   28995.
 LDataN:  DoStor=T MaxTD1= 7 Len=  274
 Calling FoFJK, ICntrl=      2127 FMM=F ISym2X=0 I1Cent= 0 IOpClX= 0 NMat=1 NMatS=1 NMatT=0.
 -------------------------------------------------------------------
 Center     Atomic                   Forces (Hartrees/Bohr)
 Number     Number              X              Y              Z
 -------------------------------------------------------------------
      1       14           0.001706100    0.000533432   -0.001011645
      2        8           0.001008580    0.000365278   -0.000551007
      3        8          -0.000899052   -0.000680474    0.001094513
      4        1           0.001453247    0.001229034   -0.000573508
      5        8           0.001098087   -0.000266758   -0.000472277
      6        8           0.000633512    0.000279864    0.000023154
      7        6           0.000818835    0.000588553    0.001252839
      8        1           0.000094923    0.000174122    0.000138214
      9        1           0.000066747   -0.000091937    0.000176221
     10        6          -0.000591528    0.000070295   -0.000780384
     11        1           0.000076735   -0.000019270   -0.000050429
     12        1          -0.000084793   -0.000027367   -0.000144386
     13        8          -0.006601911   -0.000573900    0.001630488
     14        6           0.000770056   -0.000792104   -0.000274623
     15        1           0.000000726   -0.000061877   -0.000020413
     16        1           0.000076157   -0.000067641   -0.000017183
     17        6           0.000366044   -0.000562595   -0.000363970
     18        1          -0.000023038   -0.000027228   -0.000033255
     19        1           0.000030573   -0.000069426   -0.000022349
 -------------------------------------------------------------------
 Cartesian Forces:  Max     0.006601911 RMS     0.001078007
 IRC-IRC-IRC-IRC-IRC-IRC-IRC-IRC-IRC-IRC-IRC-IRC-IRC-IRC-IRC-IRC-IRC-IRC
 Error in corrector energy =          -0.0000153568
 Magnitude of corrector gradient =     0.0065169288
 Magnitude of analytic gradient =      0.0081387735
 Magnitude of difference =             0.0032656490
 Angle between gradients (degrees)=   22.4424
 Pt 15 Step number  10 out of a maximum of 100
 Modified Bulirsch-Stoer Extrapolation Cycles:
    EPS =    0.000010000000000
      PEZero:  N= 2 I= 1 D=  1.23D-03 Err=  1.01D-04
      PEZero:  N= 3 I= 2 D=  1.23D-03 Err=  6.74D-05
      PEZero:  N= 3 I= 1 D=  2.45D-03 Err=  1.97D-07
 Maximum DWI energy   std dev =  0.000002544 at pt    70
 Maximum DWI gradient std dev =  0.295536509 at pt    29
 CORRECTOR INTEGRATION CONVERGENCE:
   Recorrection delta-x convergence threshold:    0.010000
   Delta-x Convergence NOT Met
 IRC-IRC-IRC-IRC-IRC-IRC-IRC-IRC-IRC-IRC-IRC-IRC-IRC-IRC-IRC-IRC-IRC-IRC
                          Input orientation:                          
 ---------------------------------------------------------------------
 Center     Atomic      Atomic             Coordinates (Angstroms)
 Number     Number       Type             X           Y           Z
 ---------------------------------------------------------------------
      1         14           0        0.298871    0.325258   -0.275200
      2          8           0        0.966615   -0.170880    1.201185
      3          8           0       -0.364111    1.728264   -0.284761
      4          1           0       -1.637138    1.279731    0.632616
      5          8           0        1.714665    0.100770   -1.157274
      6          8           0       -0.665557   -0.924541   -0.816102
      7          6           0       -1.897171   -1.293892   -0.264989
      8          1           0       -1.736303   -1.866243    0.659704
      9          1           0       -2.402194   -1.953869   -0.983272
     10          6           0       -2.828626   -0.129129    0.055521
     11          1           0       -3.020911    0.429046   -0.871731
     12          1           0       -3.782943   -0.554378    0.393570
     13          8           0       -2.343888    0.710422    1.058872
     14          6           0        2.791944   -0.102793   -0.285713
     15          1           0        3.543144   -0.745292   -0.758142
     16          1           0        3.270071    0.856161   -0.039287
     17          6           0        2.223330   -0.743078    0.988593
     18          1           0        2.136518   -1.831398    0.850816
     19          1           0        2.874254   -0.562022    1.851557
 ---------------------------------------------------------------------
                    Distance matrix (angstroms):
                    1          2          3          4          5
     1  Si   0.000000
     2  O    1.694623   0.000000
     3  O    1.551793   2.754199   0.000000
     4  H    2.341641   3.034316   1.631980   0.000000
     5  O    1.683128   2.489116   2.780526   3.978471   0.000000
     6  O    1.668741   2.702117   2.722236   2.810973   2.614024
     7  C    2.728434   3.407652   3.388818   2.738038   3.973237
     8  H    3.133473   3.236235   3.961742   3.147653   4.368034
     9  H    3.604378   4.393151   4.266122   3.694940   4.604383
    10  C    3.177591   3.964612   3.104759   1.933280   4.707995
    11  H    3.374548   4.534011   3.015143   2.213946   4.755521
    12  H    4.228737   4.832972   4.166413   2.832946   5.749611
    13  O    2.985343   3.428757   2.600166   1.002648   4.664206
    14  C    2.529575   2.355276   3.648761   4.729848   1.400567
    15  H    3.450307   3.287463   4.648571   5.733258   2.053890
    16  H    3.027465   2.810604   3.745411   4.971073   2.059078
    17  C    2.538121   1.397118   3.797869   4.372835   2.361264
    18  H    3.048938   2.061250   4.495984   4.895632   2.818450
    19  H    3.455859   2.053062   4.505139   5.023000   3.291961
                    6          7          8          9         10
     6  O    0.000000
     7  C    1.398934   0.000000
     8  H    2.052145   1.099327   0.000000
     9  H    2.025677   1.098430   1.774953   0.000000
    10  C    2.463996   1.525454   2.139106   2.142571   0.000000
    11  H    2.717164   2.144631   3.043659   2.464454   1.099240
    12  H    3.364286   2.129957   2.445517   2.400153   1.098105
    13  O    3.000904   2.443243   2.677255   3.357409   1.395181
    14  C    3.593174   4.838072   4.950614   5.558070   5.630981
    15  H    4.212915   5.490099   5.580266   6.071111   6.452996
    16  H    4.389023   5.601255   5.741416   6.400154   6.178503
    17  C    3.411088   4.342049   4.128965   5.172014   5.173956
    18  H    3.384174   4.219548   3.877690   4.896814   5.308755
    19  H    4.447257   5.270854   4.937483   6.149341   5.994664
                   11         12         13         14         15
    11  H    0.000000
    12  H    1.774486   0.000000
    13  O    2.065130   2.028109   0.000000
    14  C    5.866477   6.625292   5.370846   0.000000
    15  H    6.669242   7.418520   6.330701   1.095580   0.000000
    16  H    6.360177   7.205692   5.722214   1.099512   1.776506
    17  C    5.686540   6.038623   4.793441   1.535299   2.189291
    18  H    5.888621   6.072881   5.155402   2.170105   2.397283
    19  H    6.568979   6.814988   5.429224   2.187599   2.700283
                   16         17         18         19
    16  H    0.000000
    17  C    2.170201   0.000000
    18  H    3.049623   1.100436   0.000000
    19  H    2.396499   1.095989   1.776809   0.000000
 Symmetry turned off by external request.
 Stoichiometry    C4H9O5Si(1-)
 Framework group  C1[X(C4H9O5Si)]
 Deg. of freedom    51
 Full point group                 C1      NOp   1
 Rotational constants (GHZ):           2.3939354           0.8115107           0.7885416
 Standard basis: def2TZVPP (5D, 7F)
   447 basis functions,   681 primitive gaussians,   507 cartesian basis functions
    44 alpha electrons       44 beta electrons
       nuclear repulsion energy       717.5756993624 Hartrees.
 NAtoms=   19 NActive=   19 NUniq=   19 SFac= 1.00D+00 NAtFMM=   60 NAOKFM=F Big=F
 Integral buffers will be    131072 words long.
 Raffenetti 2 integral format.
 Two-electron integral symmetry is turned off.
 Nuclear repulsion after empirical dispersion term =      717.5658311526 Hartrees.
 One-electron integrals computed using PRISM.
   1 Symmetry operations used in ECPInt.
 ECPInt:  NShTT=   14028 NPrTT=   39320 LenC2=   13264 LenP2D=   28993.
 LDataN:  DoStor=T MaxTD1= 6 Len=  172
 NBasis=   447 RedAO= T EigKep=  2.80D-04  NBF=   447
 NBsUse=   447 1.00D-06 EigRej= -1.00D+00 NBFU=   447
 Initial guess from the checkpoint file:  "QbiLmL_to_PbiL2_IRCforward.chk"
 B after Tr=    -0.000084   -0.000069    0.000052
         Rot=    1.000000   -0.000037   -0.000010   -0.000007 Ang=  -0.00 deg.
 ExpMin= 7.01D-02 ExpMax= 4.48D+04 ExpMxC= 1.53D+03 IAcc=3 IRadAn=         5 AccDes= 0.00D+00
 Harris functional with IExCor= 4639 and IRadAn=       5 diagonalized for initial guess.
 HarFok:  IExCor= 4639 AccDes= 0.00D+00 IRadAn=         5 IDoV= 1 UseB2=F ITyADJ=14
 ICtDFT=  3500011 ScaDFX=  1.000000  1.000000  1.000000  1.000000
 FoFCou: FMM=F IPFlag=           0 FMFlag=      100000 FMFlg1=           0
         NFxFlg=           0 DoJE=T BraDBF=F KetDBF=T FulRan=T
         wScrn=  0.000000 ICntrl=       500 IOpCl=  0 I1Cent=   200000004 NGrid=           0
         NMat0=    1 NMatS0=      1 NMatT0=    0 NMatD0=    1 NMtDS0=    0 NMtDT0=    0
 Symmetry not used in FoFCou.
 Requested convergence on RMS density matrix=1.00D-08 within 128 cycles.
 Requested convergence on MAX density matrix=1.00D-06.
 Requested convergence on             energy=1.00D-06.
 No special actions if energy rises.
 Integral accuracy reduced to 1.0D-05 until final iterations.
 Initial convergence to 1.0D-05 achieved.  Increase integral accuracy.
 SCF Done:  E(RwB97XD) =  -823.738667453     A.U. after    9 cycles
            NFock=  9  Conv=0.71D-08     -V/T= 2.0035
 DoSCS=F DFT=T ScalE2(SS,OS)=  1.000000  1.000000
 Range of M.O.s used for correlation:     1   447
 NBasis=   447 NAE=    44 NBE=    44 NFC=     0 NFV=     0
 NROrb=    447 NOA=    44 NOB=    44 NVA=   403 NVB=   403

 **** Warning!!: The largest alpha MO coefficient is  0.12283436D+02

 Symmetrizing basis deriv contribution to polar:
 IMax=3 JMax=2 DiffMx= 0.00D+00
   1 Symmetry operations used in ECPInt.
 ECPInt:  NShTT=   14028 NPrTT=   39320 LenC2=   13264 LenP2D=   28993.
 LDataN:  DoStor=T MaxTD1= 7 Len=  274
 Calling FoFJK, ICntrl=      2127 FMM=F ISym2X=0 I1Cent= 0 IOpClX= 0 NMat=1 NMatS=1 NMatT=0.
 -------------------------------------------------------------------
 Center     Atomic                   Forces (Hartrees/Bohr)
 Number     Number              X              Y              Z
 -------------------------------------------------------------------
      1       14           0.001556955    0.000550246   -0.000933854
      2        8           0.001055901    0.000359926   -0.000545524
      3        8          -0.001037091   -0.000766088    0.001301381
      4        1          -0.001599384   -0.001404963    0.000846412
      5        8           0.001107765   -0.000233911   -0.000500398
      6        8           0.000587761    0.000248290    0.000008173
      7        6           0.000786825    0.000638796    0.001124190
      8        1           0.000090644    0.000195322    0.000191945
      9        1           0.000089900   -0.000084610    0.000194660
     10        6          -0.000543413    0.000074325   -0.000561373
     11        1           0.000090663    0.000029775   -0.000095081
     12        1          -0.000043871   -0.000044358   -0.000242116
     13        8          -0.003398825    0.002021573   -0.000064118
     14        6           0.000730110   -0.000771750   -0.000283438
     15        1           0.000063027   -0.000090196   -0.000014238
     16        1           0.000090445   -0.000072976   -0.000013298
     17        6           0.000348052   -0.000531983   -0.000351511
     18        1          -0.000013167   -0.000039266   -0.000036792
     19        1           0.000037703   -0.000078153   -0.000025020
 -------------------------------------------------------------------
 Cartesian Forces:  Max     0.003398825 RMS     0.000797206
 IRC-IRC-IRC-IRC-IRC-IRC-IRC-IRC-IRC-IRC-IRC-IRC-IRC-IRC-IRC-IRC-IRC-IRC
 Error in corrector energy =          -0.0000142245
 Magnitude of corrector gradient =     0.0065255901
 Magnitude of analytic gradient =      0.0060187700
 Magnitude of difference =             0.0031621511
 Angle between gradients (degrees)=   28.8393
 Pt 15 Step number  11 out of a maximum of 100
 Modified Bulirsch-Stoer Extrapolation Cycles:
    EPS =    0.000010000000000
      PEZero:  N= 2 I= 1 D=  1.23D-03 Err=  1.10D-04
      PEZero:  N= 3 I= 2 D=  1.23D-03 Err=  7.35D-05
      PEZero:  N= 3 I= 1 D=  2.45D-03 Err=  3.27D-07
 Maximum DWI energy   std dev =  0.000003923 at pt    77
 Maximum DWI gradient std dev =  0.462919901 at pt    57
 CORRECTOR INTEGRATION CONVERGENCE:
   Recorrection delta-x convergence threshold:    0.010000
   Delta-x Convergence NOT Met
 IRC-IRC-IRC-IRC-IRC-IRC-IRC-IRC-IRC-IRC-IRC-IRC-IRC-IRC-IRC-IRC-IRC-IRC
                          Input orientation:                          
 ---------------------------------------------------------------------
 Center     Atomic      Atomic             Coordinates (Angstroms)
 Number     Number       Type             X           Y           Z
 ---------------------------------------------------------------------
      1         14           0        0.298766    0.325599   -0.275178
      2          8           0        0.966653   -0.170985    1.201188
      3          8           0       -0.364206    1.728207   -0.285060
      4          1           0       -1.642432    1.276462    0.633697
      5          8           0        1.714775    0.100596   -1.157287
      6          8           0       -0.665576   -0.924736   -0.816154
      7          6           0       -1.896960   -1.293716   -0.264792
      8          1           0       -1.736221   -1.865161    0.660599
      9          1           0       -2.402091   -1.954299   -0.982366
     10          6           0       -2.828355   -0.128962    0.055279
     11          1           0       -3.019516    0.429906   -0.871813
     12          1           0       -3.782970   -0.553721    0.392424
     13          8           0       -2.343292    0.710675    1.058692
     14          6           0        2.791983   -0.102820   -0.285688
     15          1           0        3.543594   -0.745306   -0.757740
     16          1           0        3.270090    0.856153   -0.039182
     17          6           0        2.223340   -0.743102    0.988600
     18          1           0        2.136667   -1.831459    0.850731
     19          1           0        2.874333   -0.562153    1.851556
 ---------------------------------------------------------------------
                    Distance matrix (angstroms):
                    1          2          3          4          5
     1  Si   0.000000
     2  O    1.694794   0.000000
     3  O    1.551431   2.754460   0.000000
     4  H    2.344876   3.037181   1.637697   0.000000
     5  O    1.683397   2.489146   2.780658   3.982603   0.000000
     6  O    1.669116   2.702218   2.722314   2.810976   2.614144
     7  C    2.728279   3.407331   3.388476   2.734572   3.973070
     8  H    3.133095   3.235428   3.960933   3.143138   4.367870
     9  H    3.604536   4.392784   4.266153   3.691416   4.604539
    10  C    3.177218   3.964462   3.104342   1.927744   4.707765
    11  H    3.373106   4.532984   3.013393   2.208976   4.754309
    12  H    4.228412   4.833167   4.165829   2.826603   5.749343
    13  O    2.984621   3.428318   2.599581   0.995962   4.663761
    14  C    2.529780   2.355266   3.648862   4.734103   1.400514
    15  H    3.450886   3.287533   4.648935   5.737466   2.054207
    16  H    3.027531   2.810579   3.745536   4.976173   2.059133
    17  C    2.538354   1.397059   3.798022   4.375933   2.361206
    18  H    3.049336   2.061293   4.496177   4.897740   2.818327
    19  H    3.456103   2.053104   4.505443   5.026416   3.291952
                    6          7          8          9         10
     6  O    0.000000
     7  C    1.398733   0.000000
     8  H    2.052189   1.099425   0.000000
     9  H    2.025613   1.098380   1.775011   0.000000
    10  C    2.463791   1.525318   2.138588   2.142490   0.000000
    11  H    2.716465   2.144640   3.043430   2.465333   1.099261
    12  H    3.363994   2.129920   2.445604   2.399686   1.097896
    13  O    3.000725   2.443033   2.676182   3.357300   1.395390
    14  C    3.593280   4.837858   4.950347   5.558034   5.630733
    15  H    4.213398   5.490299   5.580520   6.071515   6.453110
    16  H    4.389159   5.601004   5.740940   6.400146   6.178221
    17  C    3.411153   4.341779   4.128526   5.171684   5.173769
    18  H    3.384261   4.219444   3.877698   4.896495   5.308737
    19  H    4.447371   5.270613   4.936944   6.148971   5.994575
                   11         12         13         14         15
    11  H    0.000000
    12  H    1.774452   0.000000
    13  O    2.064693   2.028617   0.000000
    14  C    5.865225   6.625192   5.370306   0.000000
    15  H    6.668474   7.418769   6.330461   1.095692   0.000000
    16  H    6.358781   7.205532   5.721586   1.099536   1.776458
    17  C    5.685474   6.038796   4.792965   1.535293   2.189242
    18  H    5.887881   6.073283   5.155165   2.170042   2.397155
    19  H    6.567981   6.815338   5.428843   2.187597   2.699978
                   16         17         18         19
    16  H    0.000000
    17  C    2.170169   0.000000
    18  H    3.049566   1.100473   0.000000
    19  H    2.396478   1.096005   1.776778   0.000000
 Symmetry turned off by external request.
 Stoichiometry    C4H9O5Si(1-)
 Framework group  C1[X(C4H9O5Si)]
 Deg. of freedom    51
 Full point group                 C1      NOp   1
 Rotational constants (GHZ):           2.3939990           0.8115743           0.7886097
 Internal input file was deleted!
 Error termination via Lnk1e at Tue Feb 27 07:40:45 2024.
