 Entering Gaussian System, Link 0=/opt/software/gaussian/g16.c01/g16
 Initial command:
 /opt/software/gaussian/g16.c01/l1.exe "/scratch/arhender/17056669/Gau-98719.inp" -scrdir="/scratch/arhender/17056669/"
 Entering Link 1 = /opt/software/gaussian/g16.c01/l1.exe PID=     98722.
  
 Copyright (c) 1988-2019, Gaussian, Inc.  All Rights Reserved.
  
 This is part of the Gaussian(R) 16 program.  It is based on
 the Gaussian(R) 09 system (copyright 2009, Gaussian, Inc.),
 the Gaussian(R) 03 system (copyright 2003, Gaussian, Inc.),
 the Gaussian(R) 98 system (copyright 1998, Gaussian, Inc.),
 the Gaussian(R) 94 system (copyright 1995, Gaussian, Inc.),
 the Gaussian 92(TM) system (copyright 1992, Gaussian, Inc.),
 the Gaussian 90(TM) system (copyright 1990, Gaussian, Inc.),
 the Gaussian 88(TM) system (copyright 1988, Gaussian, Inc.),
 the Gaussian 86(TM) system (copyright 1986, Carnegie Mellon
 University), and the Gaussian 82(TM) system (copyright 1983,
 Carnegie Mellon University). Gaussian is a federally registered
 trademark of Gaussian, Inc.
  
 This software contains proprietary and confidential information,
 including trade secrets, belonging to Gaussian, Inc.
  
 This software is provided under written license and may be
 used, copied, transmitted, or stored only in accord with that
 written license.
  
 The following legend is applicable only to US Government
 contracts under FAR:
  
                    RESTRICTED RIGHTS LEGEND
  
 Use, reproduction and disclosure by the US Government is
 subject to restrictions as set forth in subparagraphs (a)
 and (c) of the Commercial Computer Software - Restricted
 Rights clause in FAR 52.227-19.
  
 Gaussian, Inc.
 340 Quinnipiac St., Bldg. 40, Wallingford CT 06492
  
  
 ---------------------------------------------------------------
 Warning -- This program may not be used in any manner that
 competes with the business of Gaussian, Inc. or will provide
 assistance to any competitor of Gaussian, Inc.  The licensee
 of this program is prohibited from giving any competitor of
 Gaussian, Inc. access to this program.  By using this program,
 the user acknowledges that Gaussian, Inc. is engaged in the
 business of creating and licensing software in the field of
 computational chemistry and represents and warrants to the
 licensee that it is not a competitor of Gaussian, Inc. and that
 it will not use this program in any manner prohibited above.
 ---------------------------------------------------------------
  

 Cite this work as:
 Gaussian 16, Revision C.01,
 M. J. Frisch, G. W. Trucks, H. B. Schlegel, G. E. Scuseria, 
 M. A. Robb, J. R. Cheeseman, G. Scalmani, V. Barone, 
 G. A. Petersson, H. Nakatsuji, X. Li, M. Caricato, A. V. Marenich, 
 J. Bloino, B. G. Janesko, R. Gomperts, B. Mennucci, H. P. Hratchian, 
 J. V. Ortiz, A. F. Izmaylov, J. L. Sonnenberg, D. Williams-Young, 
 F. Ding, F. Lipparini, F. Egidi, J. Goings, B. Peng, A. Petrone, 
 T. Henderson, D. Ranasinghe, V. G. Zakrzewski, J. Gao, N. Rega, 
 G. Zheng, W. Liang, M. Hada, M. Ehara, K. Toyota, R. Fukuda, 
 J. Hasegawa, M. Ishida, T. Nakajima, Y. Honda, O. Kitao, H. Nakai, 
 T. Vreven, K. Throssell, J. A. Montgomery, Jr., J. E. Peralta, 
 F. Ogliaro, M. J. Bearpark, J. J. Heyd, E. N. Brothers, K. N. Kudin, 
 V. N. Staroverov, T. A. Keith, R. Kobayashi, J. Normand, 
 K. Raghavachari, A. P. Rendell, J. C. Burant, S. S. Iyengar, 
 J. Tomasi, M. Cossi, J. M. Millam, M. Klene, C. Adamo, R. Cammi, 
 J. W. Ochterski, R. L. Martin, K. Morokuma, O. Farkas, 
 J. B. Foresman, and D. J. Fox, Gaussian, Inc., Wallingford CT, 2019.
 
 ******************************************
 Gaussian 16:  ES64L-G16RevC.01  3-Jul-2019
                 1-Nov-2023 
 ******************************************
 %chk=OptOfSN1LikeIRCProduct_EGAtt1Q0.chk
 %mem=8GB
 %nprocs=16
 Will use up to   16 processors via shared memory.
 ---------------------------------------------
 # opt freq wb97xd/Def2TZVPP geom=connectivity
 ---------------------------------------------
 1/18=20,19=15,26=3,38=1,57=2/1,3;
 2/9=110,12=2,17=6,18=5,40=1/2;
 3/5=44,7=202,11=2,25=1,30=1,71=1,74=-58/1,2,3;
 4//1;
 5/5=2,38=5/2;
 6/7=2,8=2,9=2,10=2,28=1/1;
 7//1,2,3,16;
 1/18=20,19=15,26=3/3(2);
 2/9=110/2;
 99//99;
 2/9=110/2;
 3/5=44,7=202,11=2,25=1,30=1,71=1,74=-58/1,2,3;
 4/5=5,16=3,69=1/1;
 5/5=2,38=5/2;
 7//1,2,3,16;
 1/18=20,19=15,26=3/3(-5);
 2/9=110/2;
 6/7=2,8=2,9=2,10=2,19=2,28=1/1;
 99/9=1/99;
 ----------------------------------------------------------------------
 Opt to a minimum of SN1 intermediate like product from IRC of EGOH att
 ack on 1Q0
 ----------------------------------------------------------------------
 Symbolic Z-matrix:
 Charge = -1 Multiplicity = 1
 Si                    0.89776   0.11222   0. 
 O                     1.69506  -1.03541  -0.62799 
 O                     2.19027   2.38817   0.53334 
 H                     3.04297   2.2622    0.12468 
 O                     0.45094   1.4426   -0.8196 
 H                     1.40772   2.1406   -0.20112 
 O                     0.85325   0.3971    1.63384 
 H                     1.39824   1.19364   1.72328 
 C                    -2.00055  -0.10501   0.86117 
 H                    -1.6865   -0.29497   1.8846 
 H                    -2.91678  -0.66057   0.64467 
 C                    -2.19515   1.38647   0.61166 
 H                    -1.38852   1.93454   1.10383 
 H                    -3.14796   1.68976   1.05768 
 O                    -0.97016  -0.65413   0.02744 
 O                    -2.21886   1.66752  -0.76235 
 H                    -1.25563   1.73742  -0.99413 
 H                    -1.23553  -0.5248   -0.88948 
 
 Add virtual bond connecting atoms H6         and O3         Dist= 2.08D+00.
 Add virtual bond connecting atoms H6         and O5         Dist= 2.52D+00.
 Add virtual bond connecting atoms H17        and O5         Dist= 3.29D+00.

 GradGradGradGradGradGradGradGradGradGradGradGradGradGradGradGradGradGrad
 Berny optimization.
 Initialization pass.
                           ----------------------------
                           !    Initial Parameters    !
                           ! (Angstroms and Degrees)  !
 --------------------------                            --------------------------
 ! Name  Definition              Value          Derivative Info.                !
 --------------------------------------------------------------------------------
 ! R1    R(1,2)                  1.532          estimate D2E/DX2                !
 ! R2    R(1,5)                  1.6252         estimate D2E/DX2                !
 ! R3    R(1,7)                  1.6591         estimate D2E/DX2                !
 ! R4    R(3,4)                  0.9539         estimate D2E/DX2                !
 ! R5    R(3,6)                  1.1014         estimate D2E/DX2                !
 ! R6    R(5,6)                  1.3361         estimate D2E/DX2                !
 ! R7    R(5,17)                 1.7406         estimate D2E/DX2                !
 ! R8    R(7,8)                  0.9693         estimate D2E/DX2                !
 ! R9    R(9,10)                 1.0873         estimate D2E/DX2                !
 ! R10   R(9,11)                 1.0932         estimate D2E/DX2                !
 ! R11   R(9,12)                 1.5247         estimate D2E/DX2                !
 ! R12   R(9,15)                 1.4347         estimate D2E/DX2                !
 ! R13   R(12,13)                1.0924         estimate D2E/DX2                !
 ! R14   R(12,14)                1.0949         estimate D2E/DX2                !
 ! R15   R(12,16)                1.4027         estimate D2E/DX2                !
 ! R16   R(15,18)                0.9633         estimate D2E/DX2                !
 ! R17   R(16,17)                0.9932         estimate D2E/DX2                !
 ! A1    A(2,1,5)              123.3368         estimate D2E/DX2                !
 ! A2    A(2,1,7)              123.1105         estimate D2E/DX2                !
 ! A3    A(5,1,7)              110.4074         estimate D2E/DX2                !
 ! A4    A(4,3,6)              108.6481         estimate D2E/DX2                !
 ! A5    A(1,5,6)               89.847          estimate D2E/DX2                !
 ! A6    A(1,5,17)             117.3071         estimate D2E/DX2                !
 ! A7    A(6,5,17)             131.3017         estimate D2E/DX2                !
 ! A8    A(3,6,5)              159.211          estimate D2E/DX2                !
 ! A9    A(1,7,8)              102.5272         estimate D2E/DX2                !
 ! A10   A(10,9,11)            109.8607         estimate D2E/DX2                !
 ! A11   A(10,9,12)            111.212          estimate D2E/DX2                !
 ! A12   A(10,9,15)            105.8242         estimate D2E/DX2                !
 ! A13   A(11,9,12)            110.9629         estimate D2E/DX2                !
 ! A14   A(11,9,15)            106.9988         estimate D2E/DX2                !
 ! A15   A(12,9,15)            111.7754         estimate D2E/DX2                !
 ! A16   A(9,12,13)            108.8334         estimate D2E/DX2                !
 ! A17   A(9,12,14)            108.3839         estimate D2E/DX2                !
 ! A18   A(9,12,16)            111.0065         estimate D2E/DX2                !
 ! A19   A(13,12,14)           108.6679         estimate D2E/DX2                !
 ! A20   A(13,12,16)           110.6896         estimate D2E/DX2                !
 ! A21   A(14,12,16)           109.198          estimate D2E/DX2                !
 ! A22   A(9,15,18)            107.6929         estimate D2E/DX2                !
 ! A23   A(12,16,17)           103.0802         estimate D2E/DX2                !
 ! A24   A(5,17,16)            156.2833         estimate D2E/DX2                !
 ! D1    D(2,1,5,6)           -104.5493         estimate D2E/DX2                !
 ! D2    D(2,1,5,17)           117.5977         estimate D2E/DX2                !
 ! D3    D(7,1,5,6)             55.9021         estimate D2E/DX2                !
 ! D4    D(7,1,5,17)           -81.9509         estimate D2E/DX2                !
 ! D5    D(2,1,7,8)            107.2387         estimate D2E/DX2                !
 ! D6    D(5,1,7,8)            -53.2653         estimate D2E/DX2                !
 ! D7    D(4,3,6,5)            102.6919         estimate D2E/DX2                !
 ! D8    D(1,5,6,3)            -13.4948         estimate D2E/DX2                !
 ! D9    D(17,5,6,3)           113.9735         estimate D2E/DX2                !
 ! D10   D(1,5,17,16)           23.1208         estimate D2E/DX2                !
 ! D11   D(6,5,17,16)          -93.5975         estimate D2E/DX2                !
 ! D12   D(10,9,12,13)          40.9366         estimate D2E/DX2                !
 ! D13   D(10,9,12,14)         -77.0802         estimate D2E/DX2                !
 ! D14   D(10,9,12,16)         162.9987         estimate D2E/DX2                !
 ! D15   D(11,9,12,13)         163.5488         estimate D2E/DX2                !
 ! D16   D(11,9,12,14)          45.532          estimate D2E/DX2                !
 ! D17   D(11,9,12,16)         -74.389          estimate D2E/DX2                !
 ! D18   D(15,9,12,13)         -77.0991         estimate D2E/DX2                !
 ! D19   D(15,9,12,14)         164.8841         estimate D2E/DX2                !
 ! D20   D(15,9,12,16)          44.9631         estimate D2E/DX2                !
 ! D21   D(10,9,15,18)         178.2414         estimate D2E/DX2                !
 ! D22   D(11,9,15,18)          61.1189         estimate D2E/DX2                !
 ! D23   D(12,9,15,18)         -60.5477         estimate D2E/DX2                !
 ! D24   D(9,12,16,17)         -83.8213         estimate D2E/DX2                !
 ! D25   D(13,12,16,17)         37.1534         estimate D2E/DX2                !
 ! D26   D(14,12,16,17)        156.7438         estimate D2E/DX2                !
 ! D27   D(12,16,17,5)          24.7016         estimate D2E/DX2                !
 --------------------------------------------------------------------------------
 Trust Radius=3.00D-01 FncErr=1.00D-07 GrdErr=1.00D-06 EigMax=2.50D+02 EigMin=1.00D-04
 Number of steps in this run=     78 maximum allowed number of steps=    108.
 GradGradGradGradGradGradGradGradGradGradGradGradGradGradGradGradGradGrad

                          Input orientation:                          
 ---------------------------------------------------------------------
 Center     Atomic      Atomic             Coordinates (Angstroms)
 Number     Number       Type             X           Y           Z
 ---------------------------------------------------------------------
      1         14           0        0.897756    0.112219    0.000000
      2          8           0        1.695061   -1.035410   -0.627989
      3          8           0        2.190268    2.388166    0.533340
      4          1           0        3.042967    2.262199    0.124684
      5          8           0        0.450945    1.442602   -0.819598
      6          1           0        1.407719    2.140598   -0.201119
      7          8           0        0.853249    0.397101    1.633838
      8          1           0        1.398238    1.193641    1.723283
      9          6           0       -2.000554   -0.105013    0.861173
     10          1           0       -1.686500   -0.294969    1.884604
     11          1           0       -2.916779   -0.660571    0.644671
     12          6           0       -2.195152    1.386467    0.611657
     13          1           0       -1.388518    1.934535    1.103833
     14          1           0       -3.147960    1.689760    1.057676
     15          8           0       -0.970158   -0.654126    0.027443
     16          8           0       -2.218860    1.667516   -0.762346
     17          1           0       -1.255633    1.737417   -0.994127
     18          1           0       -1.235532   -0.524800   -0.889480
 ---------------------------------------------------------------------
                    Distance matrix (angstroms):
                    1          2          3          4          5
     1  Si   0.000000
     2  O    1.532031   0.000000
     3  O    2.671137   3.648943   0.000000
     4  H    3.039719   3.641098   0.953920   0.000000
     5  O    1.625208   2.779403   2.397869   2.877844   0.000000
     6  H    2.101150   3.217423   1.101409   1.671817   1.336088
     7  O    1.659086   2.806527   2.638760   3.248230   2.697085
     8  H    2.095152   3.253498   1.862838   2.530310   2.724993
     9  C    3.031338   4.091554   4.887372   5.619894   3.351112
    10  H    3.224269   4.277421   4.904534   5.657233   3.860121
    11  H    3.945058   4.798879   5.948876   6.658194   4.231901
    12  C    3.400575   4.747206   4.499049   5.333099   3.008899
    13  H    3.125113   4.618251   3.652253   4.550182   2.706512
    14  H    4.469355   5.807140   5.409194   6.286950   4.066616
    15  O    2.019193   2.770986   4.415854   4.961812   2.670820
    16  O    3.565588   4.758428   4.651725   5.369105   2.679874
    17  H    2.875177   4.065615   3.825031   4.472706   1.740628
    18  H    2.397475   2.986214   4.716555   5.205905   2.592250
                    6          7          8          9         10
     6  H    0.000000
     7  O    2.591194   0.000000
     8  H    2.144794   0.969273   0.000000
     9  C    4.217530   2.998887   3.739187   0.000000
    10  H    4.456054   2.644271   3.428935   1.087255   0.000000
    11  H    5.221417   4.038593   4.818805   1.093154   1.784569
    12  C    3.769615   3.363993   3.766344   1.524677   2.169412
    13  H    3.092621   2.769500   2.949348   2.143182   2.380984
    14  H    4.747845   4.244126   4.621372   2.139244   2.599774
    15  O    3.676550   2.647715   3.449553   1.434694   2.022668
    16  O    3.700116   4.097988   4.414330   2.413572   3.337828
    17  H    2.807999   3.626297   3.837061   2.718749   3.550117
    18  H    3.816407   3.402946   4.088559   1.956084   2.819882
                   11         12         13         14         15
    11  H    0.000000
    12  C    2.170760   0.000000
    13  H    3.046471   1.092371   0.000000
    14  H    2.397514   1.094880   1.776987   0.000000
    15  O    2.042142   2.450701   2.834573   3.361250   0.000000
    16  O    2.808341   1.402653   2.059949   2.043576   2.751917
    17  H    3.345954   1.893252   2.111386   2.791607   2.616215
    18  H    2.280054   2.612896   3.169390   3.514694   0.963274
                   16         17         18
    16  O    0.000000
    17  H    0.993184   0.000000
    18  H    2.406106   2.264725   0.000000
 Stoichiometry    C2H9O6Si(1-)
 Framework group  C1[X(C2H9O6Si)]
 Deg. of freedom    48
 Full point group                 C1      NOp   1
 Largest Abelian subgroup         C1      NOp   1
 Largest concise Abelian subgroup C1      NOp   1
                         Standard orientation:                         
 ---------------------------------------------------------------------
 Center     Atomic      Atomic             Coordinates (Angstroms)
 Number     Number       Type             X           Y           Z
 ---------------------------------------------------------------------
      1         14           0        0.920411   -0.532917   -0.147121
      2          8           0        1.705636   -1.699406   -0.755269
      3          8           0        2.239732    1.733612    0.360041
      4          1           0        3.092520    1.590988   -0.042915
      5          8           0        0.494331    0.791367   -0.987375
      6          1           0        1.457285    1.485729   -0.374421
      7          8           0        0.872423   -0.224446    1.482329
      8          1           0        1.427212    0.566240    1.563045
      9          6           0       -1.984192   -0.700870    0.703810
     10          1           0       -1.677086   -0.880357    1.731231
     11          1           0       -2.906528   -1.247662    0.490971
     12          6           0       -2.158505    0.789306    0.432459
     13          1           0       -1.347052    1.333905    0.920548
     14          1           0       -3.109277    1.111032    0.869823
     15          8           0       -0.957303   -1.274838   -0.117413
     16          8           0       -2.172586    1.051205   -0.945455
     17          1           0       -1.207536    1.105497   -1.173805
     18          1           0       -1.216978   -1.155089   -1.037263
 ---------------------------------------------------------------------
 Rotational constants (GHZ):           1.8187578           1.0213578           0.8676231
 Standard basis: def2TZVPP (5D, 7F)
 There are   471 symmetry adapted cartesian basis functions of A   symmetry.
 There are   416 symmetry adapted basis functions of A   symmetry.
   416 basis functions,   630 primitive gaussians,   471 cartesian basis functions
    42 alpha electrons       42 beta electrons
       nuclear repulsion energy       641.2755110958 Hartrees.
 NAtoms=   18 NActive=   18 NUniq=   18 SFac= 1.00D+00 NAtFMM=   60 NAOKFM=F Big=F
 Integral buffers will be    131072 words long.
 Raffenetti 2 integral format.
 Two-electron integral symmetry is turned on.
 Nuclear repulsion after empirical dispersion term =      641.2651415115 Hartrees.
 One-electron integrals computed using PRISM.
   1 Symmetry operations used in ECPInt.
 ECPInt:  NShTT=   12246 NPrTT=   33908 LenC2=   11759 LenP2D=   25579.
 LDataN:  DoStor=T MaxTD1= 6 Len=  172
 NBasis=   416 RedAO= T EigKep=  2.06D-04  NBF=   416
 NBsUse=   416 1.00D-06 EigRej= -1.00D+00 NBFU=   416
 ExpMin= 7.01D-02 ExpMax= 4.48D+04 ExpMxC= 1.53D+03 IAcc=3 IRadAn=         5 AccDes= 0.00D+00
 Harris functional with IExCor= 4639 and IRadAn=       5 diagonalized for initial guess.
 HarFok:  IExCor= 4639 AccDes= 0.00D+00 IRadAn=         5 IDoV= 1 UseB2=F ITyADJ=14
 ICtDFT=  3500011 ScaDFX=  1.000000  1.000000  1.000000  1.000000
 FoFCou: FMM=F IPFlag=           0 FMFlag=      100000 FMFlg1=           0
         NFxFlg=           0 DoJE=T BraDBF=F KetDBF=T FulRan=T
         wScrn=  0.000000 ICntrl=       500 IOpCl=  0 I1Cent=   200000004 NGrid=           0
         NMat0=    1 NMatS0=      1 NMatT0=    0 NMatD0=    1 NMtDS0=    0 NMtDT0=    0
 Petite list used in FoFCou.
 Requested convergence on RMS density matrix=1.00D-08 within 128 cycles.
 Requested convergence on MAX density matrix=1.00D-06.
 Requested convergence on             energy=1.00D-06.
 No special actions if energy rises.
 Integral accuracy reduced to 1.0D-05 until final iterations.
 Initial convergence to 1.0D-05 achieved.  Increase integral accuracy.
 SCF Done:  E(RwB97XD) =  -822.736039776     A.U. after   14 cycles
            NFock= 14  Conv=0.90D-08     -V/T= 2.0033

 **********************************************************************

            Population analysis using the SCF Density.

 **********************************************************************

 Orbital symmetries:
       Occupied  (A) (A) (A) (A) (A) (A) (A) (A) (A) (A) (A) (A)
                 (A) (A) (A) (A) (A) (A) (A) (A) (A) (A) (A) (A)
                 (A) (A) (A) (A) (A) (A) (A) (A) (A) (A) (A) (A)
                 (A) (A) (A) (A) (A) (A)
       Virtual   (A) (A) (A) (A) (A) (A) (A) (A) (A) (A) (A) (A)
                 (A) (A) (A) (A) (A) (A) (A) (A) (A) (A) (A) (A)
                 (A) (A) (A) (A) (A) (A) (A) (A) (A) (A) (A) (A)
                 (A) (A) (A) (A) (A) (A) (A) (A) (A) (A) (A) (A)
                 (A) (A) (A) (A) (A) (A) (A) (A) (A) (A) (A) (A)
                 (A) (A) (A) (A) (A) (A) (A) (A) (A) (A) (A) (A)
                 (A) (A) (A) (A) (A) (A) (A) (A) (A) (A) (A) (A)
                 (A) (A) (A) (A) (A) (A) (A) (A) (A) (A) (A) (A)
                 (A) (A) (A) (A) (A) (A) (A) (A) (A) (A) (A) (A)
                 (A) (A) (A) (A) (A) (A) (A) (A) (A) (A) (A) (A)
                 (A) (A) (A) (A) (A) (A) (A) (A) (A) (A) (A) (A)
                 (A) (A) (A) (A) (A) (A) (A) (A) (A) (A) (A) (A)
                 (A) (A) (A) (A) (A) (A) (A) (A) (A) (A) (A) (A)
                 (A) (A) (A) (A) (A) (A) (A) (A) (A) (A) (A) (A)
                 (A) (A) (A) (A) (A) (A) (A) (A) (A) (A) (A) (A)
                 (A) (A) (A) (A) (A) (A) (A) (A) (A) (A) (A) (A)
                 (A) (A) (A) (A) (A) (A) (A) (A) (A) (A) (A) (A)
                 (A) (A) (A) (A) (A) (A) (A) (A) (A) (A) (A) (A)
                 (A) (A) (A) (A) (A) (A) (A) (A) (A) (A) (A) (A)
                 (A) (A) (A) (A) (A) (A) (A) (A) (A) (A) (A) (A)
                 (A) (A) (A) (A) (A) (A) (A) (A) (A) (A) (A) (A)
                 (A) (A) (A) (A) (A) (A) (A) (A) (A) (A) (A) (A)
                 (A) (A) (A) (A) (A) (A) (A) (A) (A) (A) (A) (A)
                 (A) (A) (A) (A) (A) (A) (A) (A) (A) (A) (A) (A)
                 (A) (A) (A) (A) (A) (A) (A) (A) (A) (A) (A) (A)
                 (A) (A) (A) (A) (A) (A) (A) (A) (A) (A) (A) (A)
                 (A) (A) (A) (A) (A) (A) (A) (A) (A) (A) (A) (A)
                 (A) (A) (A) (A) (A) (A) (A) (A) (A) (A) (A) (A)
                 (A) (A) (A) (A) (A) (A) (A) (A) (A) (A) (A) (A)
                 (A) (A) (A) (A) (A) (A) (A) (A) (A) (A) (A) (A)
                 (A) (A) (A) (A) (A) (A) (A) (A) (A) (A) (A) (A)
                 (A) (A)
 The electronic state is 1-A.
 Alpha  occ. eigenvalues --  -66.09626 -19.18277 -19.10782 -19.06837 -19.05501
 Alpha  occ. eigenvalues --  -19.01356 -18.97834 -10.22814 -10.20766  -5.21589
 Alpha  occ. eigenvalues --   -3.56534  -3.55921  -3.55667  -1.05839  -0.98664
 Alpha  occ. eigenvalues --   -0.93800  -0.90730  -0.83818  -0.79256  -0.72925
 Alpha  occ. eigenvalues --   -0.60794  -0.52383  -0.48243  -0.46227  -0.44584
 Alpha  occ. eigenvalues --   -0.42958  -0.40295  -0.37929  -0.36554  -0.34624
 Alpha  occ. eigenvalues --   -0.31974  -0.30278  -0.29351  -0.26827  -0.26534
 Alpha  occ. eigenvalues --   -0.23368  -0.22277  -0.21466  -0.19982  -0.18811
 Alpha  occ. eigenvalues --   -0.16777  -0.15208
 Alpha virt. eigenvalues --    0.22265   0.24121   0.25400   0.27866   0.28258
 Alpha virt. eigenvalues --    0.30893   0.31453   0.32867   0.33536   0.35577
 Alpha virt. eigenvalues --    0.36536   0.38469   0.39552   0.39973   0.41186
 Alpha virt. eigenvalues --    0.43545   0.44131   0.45119   0.46546   0.49785
 Alpha virt. eigenvalues --    0.50221   0.51311   0.53723   0.55002   0.55608
 Alpha virt. eigenvalues --    0.56300   0.57836   0.58795   0.58902   0.60200
 Alpha virt. eigenvalues --    0.60754   0.60945   0.62855   0.63653   0.64215
 Alpha virt. eigenvalues --    0.65935   0.67280   0.67907   0.68935   0.70076
 Alpha virt. eigenvalues --    0.70439   0.72348   0.73520   0.75355   0.76333
 Alpha virt. eigenvalues --    0.78558   0.79541   0.80822   0.81500   0.81941
 Alpha virt. eigenvalues --    0.82745   0.84865   0.85659   0.86817   0.88765
 Alpha virt. eigenvalues --    0.90723   0.91981   0.92729   0.93293   0.96506
 Alpha virt. eigenvalues --    0.96872   0.99979   1.00502   1.02040   1.02924
 Alpha virt. eigenvalues --    1.05251   1.06775   1.07606   1.08137   1.09017
 Alpha virt. eigenvalues --    1.10391   1.12183   1.15221   1.16675   1.18553
 Alpha virt. eigenvalues --    1.19713   1.20517   1.21931   1.23317   1.24506
 Alpha virt. eigenvalues --    1.26273   1.27459   1.28035   1.30676   1.33021
 Alpha virt. eigenvalues --    1.34049   1.35560   1.36181   1.37617   1.38721
 Alpha virt. eigenvalues --    1.40833   1.42906   1.44052   1.44574   1.48004
 Alpha virt. eigenvalues --    1.49539   1.50365   1.50618   1.51896   1.53650
 Alpha virt. eigenvalues --    1.57023   1.58716   1.58906   1.61631   1.61967
 Alpha virt. eigenvalues --    1.64208   1.66535   1.68638   1.70254   1.71223
 Alpha virt. eigenvalues --    1.73624   1.75544   1.76991   1.78212   1.80518
 Alpha virt. eigenvalues --    1.81953   1.84028   1.91456   1.92555   1.97130
 Alpha virt. eigenvalues --    1.98445   2.01142   2.03869   2.04401   2.05591
 Alpha virt. eigenvalues --    2.08645   2.10856   2.11370   2.12672   2.13642
 Alpha virt. eigenvalues --    2.16858   2.19430   2.19761   2.20689   2.22758
 Alpha virt. eigenvalues --    2.24148   2.25214   2.26330   2.30021   2.31990
 Alpha virt. eigenvalues --    2.33685   2.36154   2.36638   2.40753   2.42955
 Alpha virt. eigenvalues --    2.43674   2.45566   2.48877   2.50826   2.52850
 Alpha virt. eigenvalues --    2.54618   2.55388   2.57225   2.59994   2.64140
 Alpha virt. eigenvalues --    2.66216   2.70617   2.73844   2.76865   2.78654
 Alpha virt. eigenvalues --    2.83174   2.84805   2.89152   2.90141   2.91391
 Alpha virt. eigenvalues --    2.96307   2.97193   2.99038   3.00996   3.02358
 Alpha virt. eigenvalues --    3.05392   3.07353   3.11412   3.11502   3.13276
 Alpha virt. eigenvalues --    3.15722   3.18930   3.20891   3.21375   3.23021
 Alpha virt. eigenvalues --    3.24436   3.25708   3.27888   3.31559   3.32384
 Alpha virt. eigenvalues --    3.34908   3.35838   3.37770   3.38140   3.38883
 Alpha virt. eigenvalues --    3.42401   3.43895   3.46569   3.48462   3.50846
 Alpha virt. eigenvalues --    3.52097   3.53310   3.54593   3.58085   3.59276
 Alpha virt. eigenvalues --    3.60926   3.61921   3.63855   3.64345   3.69185
 Alpha virt. eigenvalues --    3.70298   3.70860   3.72975   3.74646   3.75919
 Alpha virt. eigenvalues --    3.77252   3.78924   3.82470   3.83986   3.85237
 Alpha virt. eigenvalues --    3.86666   3.89239   3.90996   3.92852   3.95365
 Alpha virt. eigenvalues --    3.97386   3.97954   3.98893   4.01230   4.03090
 Alpha virt. eigenvalues --    4.05150   4.06586   4.07355   4.11338   4.12870
 Alpha virt. eigenvalues --    4.13864   4.17699   4.20499   4.21266   4.22823
 Alpha virt. eigenvalues --    4.25623   4.25661   4.27375   4.31355   4.32203
 Alpha virt. eigenvalues --    4.32825   4.34206   4.35365   4.35935   4.37578
 Alpha virt. eigenvalues --    4.41477   4.43737   4.45617   4.46979   4.49874
 Alpha virt. eigenvalues --    4.52672   4.53952   4.54814   4.56810   4.59145
 Alpha virt. eigenvalues --    4.61056   4.62519   4.67396   4.70892   4.77104
 Alpha virt. eigenvalues --    4.79949   4.82293   4.84748   4.85826   4.87619
 Alpha virt. eigenvalues --    4.90594   4.93126   4.96710   5.01370   5.03430
 Alpha virt. eigenvalues --    5.06389   5.10027   5.10902   5.15709   5.17659
 Alpha virt. eigenvalues --    5.19257   5.20388   5.21250   5.22465   5.24635
 Alpha virt. eigenvalues --    5.27125   5.33207   5.37299   5.45732   5.49697
 Alpha virt. eigenvalues --    5.50035   5.50497   5.51489   5.54391   5.56344
 Alpha virt. eigenvalues --    5.58016   5.59197   5.61428   5.63150   5.63887
 Alpha virt. eigenvalues --    5.67083   5.68613   5.70121   5.72004   5.74619
 Alpha virt. eigenvalues --    5.75675   5.78678   5.81190   5.83773   5.84719
 Alpha virt. eigenvalues --    5.87668   5.88080   5.91258   5.93406   5.99186
 Alpha virt. eigenvalues --    6.03146   6.04741   6.10671   6.18707   6.26296
 Alpha virt. eigenvalues --    6.28470   6.33971   6.38727   6.64260   6.65645
 Alpha virt. eigenvalues --    6.66183   6.68797   6.70447   6.72169   6.77360
 Alpha virt. eigenvalues --    6.78005   6.79892   6.85378   6.86013   6.86639
 Alpha virt. eigenvalues --    6.89545   6.90975   6.92746   6.93118   6.93748
 Alpha virt. eigenvalues --    6.95498   6.98269   6.99416   7.00790   7.03393
 Alpha virt. eigenvalues --    7.04753   7.07168   7.09459   7.12874   7.13944
 Alpha virt. eigenvalues --    7.16062   7.18883   7.24107   7.26657   7.27718
 Alpha virt. eigenvalues --    7.31457   7.32479   7.36763   7.42004   7.51033
 Alpha virt. eigenvalues --    7.56641   7.63079   7.64758   7.67934   7.74050
 Alpha virt. eigenvalues --    7.77103   7.81961   7.89656   7.97219   8.05814
 Alpha virt. eigenvalues --   12.72816  23.52723  23.61444  43.98911  44.01783
 Alpha virt. eigenvalues --   44.13914  44.22343  44.32854  44.35830
          Condensed to atoms (all electrons):
               1          2          3          4          5          6
     1  Si  11.744881   0.776374   0.032801   0.003047   0.393941  -0.037914
     2  O    0.776374   8.056303  -0.004330   0.000034  -0.044728  -0.003215
     3  O    0.032801  -0.004330   8.143562   0.299119  -0.136797   0.245668
     4  H    0.003047   0.000034   0.299119   0.554199   0.009704  -0.021918
     5  O    0.393941  -0.044728  -0.136797   0.009704   8.337235   0.152292
     6  H   -0.037914  -0.003215   0.245668  -0.021918   0.152292   0.377791
     7  O    0.337977  -0.036948  -0.049781   0.002134  -0.031282   0.006561
     8  H   -0.039240  -0.002737   0.048896  -0.004209   0.004478  -0.003957
     9  C   -0.009896  -0.000572   0.000151  -0.000023  -0.012150   0.000336
    10  H   -0.006800   0.000322   0.000036  -0.000001   0.000036  -0.000059
    11  H    0.000909  -0.000227   0.000004  -0.000000  -0.000319  -0.000019
    12  C   -0.002475  -0.000035  -0.000729   0.000106   0.016485  -0.001129
    13  H   -0.003772  -0.000206   0.000698  -0.000055   0.004446   0.000061
    14  H    0.000810  -0.000001  -0.000021   0.000002   0.000738   0.000010
    15  O    0.122822  -0.029327  -0.000302   0.000014  -0.021971   0.001342
    16  O   -0.001692  -0.000015  -0.000147   0.000013  -0.047804   0.000531
    17  H   -0.008693  -0.000409   0.001029  -0.000142   0.081250   0.000464
    18  H   -0.008505   0.000826   0.000251  -0.000022   0.003946  -0.000541
               7          8          9         10         11         12
     1  Si   0.337977  -0.039240  -0.009896  -0.006800   0.000909  -0.002475
     2  O   -0.036948  -0.002737  -0.000572   0.000322  -0.000227  -0.000035
     3  O   -0.049781   0.048896   0.000151   0.000036   0.000004  -0.000729
     4  H    0.002134  -0.004209  -0.000023  -0.000001  -0.000000   0.000106
     5  O   -0.031282   0.004478  -0.012150   0.000036  -0.000319   0.016485
     6  H    0.006561  -0.003957   0.000336  -0.000059  -0.000019  -0.001129
     7  O    7.940472   0.334007   0.015667   0.008440   0.000987  -0.027618
     8  H    0.334007   0.444862  -0.001711  -0.000141  -0.000007   0.000926
     9  C    0.015667  -0.001711   4.965862   0.390517   0.402756   0.237347
    10  H    0.008440  -0.000141   0.390517   0.582941  -0.027021  -0.017388
    11  H    0.000987  -0.000007   0.402756  -0.027021   0.620008  -0.036405
    12  C   -0.027618   0.000926   0.237347  -0.017388  -0.036405   4.752293
    13  H    0.016930   0.000391  -0.068229  -0.000883   0.008741   0.446608
    14  H    0.000117   0.000007  -0.040620   0.005697  -0.011419   0.394867
    15  O   -0.020076   0.001708   0.204991  -0.028057  -0.031596  -0.041361
    16  O    0.000451   0.000055  -0.079449   0.005967   0.004272   0.279864
    17  H    0.000712  -0.000220   0.006614  -0.000937  -0.000509  -0.048506
    18  H    0.000792  -0.000207  -0.033158   0.010803  -0.008184  -0.005649
              13         14         15         16         17         18
     1  Si  -0.003772   0.000810   0.122822  -0.001692  -0.008693  -0.008505
     2  O   -0.000206  -0.000001  -0.029327  -0.000015  -0.000409   0.000826
     3  O    0.000698  -0.000021  -0.000302  -0.000147   0.001029   0.000251
     4  H   -0.000055   0.000002   0.000014   0.000013  -0.000142  -0.000022
     5  O    0.004446   0.000738  -0.021971  -0.047804   0.081250   0.003946
     6  H    0.000061   0.000010   0.001342   0.000531   0.000464  -0.000541
     7  O    0.016930   0.000117  -0.020076   0.000451   0.000712   0.000792
     8  H    0.000391   0.000007   0.001708   0.000055  -0.000220  -0.000207
     9  C   -0.068229  -0.040620   0.204991  -0.079449   0.006614  -0.033158
    10  H   -0.000883   0.005697  -0.028057   0.005967  -0.000937   0.010803
    11  H    0.008741  -0.011419  -0.031596   0.004272  -0.000509  -0.008184
    12  C    0.446608   0.394867  -0.041361   0.279864  -0.048506  -0.005649
    13  H    0.592920  -0.032521   0.001730  -0.043639  -0.009230   0.001132
    14  H   -0.032521   0.658949   0.004342  -0.030627   0.005068   0.000634
    15  O    0.001730   0.004342   7.711820  -0.003753   0.001511   0.306027
    16  O   -0.043639  -0.030627  -0.003753   8.026552   0.332239   0.027611
    17  H   -0.009230   0.005068   0.001511   0.332239   0.391202  -0.000224
    18  H    0.001132   0.000634   0.306027   0.027611  -0.000224   0.524697
 Mulliken charges:
               1
     1  Si   0.705426
     2  O   -0.711106
     3  O   -0.580108
     4  H    0.157998
     5  O   -0.709499
     6  H    0.283697
     7  O   -0.499541
     8  H    0.217099
     9  C    0.021567
    10  H    0.076529
    11  H    0.078030
    12  C    0.052797
    13  H    0.084878
    14  H    0.043970
    15  O   -0.179864
    16  O   -0.470428
    17  H    0.248783
    18  H    0.179772
 Sum of Mulliken charges =  -1.00000
 Mulliken charges with hydrogens summed into heavy atoms:
               1
     1  Si   0.705426
     2  O   -0.711106
     3  O   -0.138413
     5  O   -0.709499
     7  O   -0.282441
     9  C    0.176126
    12  C    0.181645
    15  O   -0.000093
    16  O   -0.221645
 Electronic spatial extent (au):  <R**2>=           1488.1961
 Charge=             -1.0000 electrons
 Dipole moment (field-independent basis, Debye):
    X=             -5.9916    Y=              0.7697    Z=              2.4082  Tot=              6.5032
 Quadrupole moment (field-independent basis, Debye-Ang):
   XX=            -74.0903   YY=            -80.6826   ZZ=            -70.0679
   XY=             10.8662   XZ=             -2.0513   YZ=             -0.4495
 Traceless Quadrupole moment (field-independent basis, Debye-Ang):
   XX=              0.8566   YY=             -5.7357   ZZ=              4.8791
   XY=             10.8662   XZ=             -2.0513   YZ=             -0.4495
 Octapole moment (field-independent basis, Debye-Ang**2):
  XXX=              9.0297  YYY=              7.6798  ZZZ=             -1.1488  XYY=            -26.1557
  XXY=              4.0167  XXZ=             12.6756  XZZ=             -6.8558  YZZ=              0.6550
  YYZ=              4.9340  XYZ=            -17.1443
 Hexadecapole moment (field-independent basis, Debye-Ang**3):
 XXXX=          -1055.3155 YYYY=           -583.6044 ZZZZ=           -309.6732 XXXY=             80.2705
 XXXZ=            -24.7746 YYYX=             19.9368 YYYZ=            -21.1543 ZZZX=             12.8883
 ZZZY=              5.5512 XXYY=           -322.5276 XXZZ=           -246.3138 YYZZ=           -141.7479
 XXYZ=            -10.9247 YYXZ=              3.5990 ZZXY=             19.5234
 N-N= 6.412651415115D+02 E-N=-3.245495023119D+03  KE= 8.200182233512D+02
   1 Symmetry operations used in ECPInt.
 ECPInt:  NShTT=   12246 NPrTT=   33908 LenC2=   11759 LenP2D=   25579.
 LDataN:  DoStor=T MaxTD1= 7 Len=  274
 Calling FoFJK, ICntrl=      2127 FMM=F ISym2X=0 I1Cent= 0 IOpClX= 0 NMat=1 NMatS=1 NMatT=0.
 ***** Axes restored to original set *****
 -------------------------------------------------------------------
 Center     Atomic                   Forces (Hartrees/Bohr)
 Number     Number              X              Y              Z
 -------------------------------------------------------------------
      1       14          -0.013308536    0.002526034   -0.014359098
      2        8           0.002044956   -0.002287924    0.003190637
      3        8           0.002258471    0.011652575   -0.001473389
      4        1          -0.000374257   -0.000473528   -0.001824377
      5        8          -0.003836789   -0.011358336    0.002285788
      6        1           0.010578766    0.007226689    0.007088395
      7        8           0.001312025   -0.004097744    0.001794005
      8        1          -0.000916927   -0.000386806    0.001821839
      9        6           0.000000077   -0.000211349    0.000096389
     10        1          -0.000061913   -0.000010618    0.000036734
     11        1          -0.000091978    0.000063574    0.000060325
     12        6           0.000043420    0.000158178   -0.000614533
     13        1           0.000015606   -0.000016799   -0.000036684
     14        1          -0.000045249   -0.000044030    0.000009274
     15        8          -0.002320665   -0.002969951    0.001366615
     16        8           0.003522772    0.000173124    0.000253379
     17        1           0.000748039   -0.000896893    0.000260916
     18        1           0.000432182    0.000953805    0.000043785
 -------------------------------------------------------------------
 Cartesian Forces:  Max     0.014359098 RMS     0.004253535

 GradGradGradGradGradGradGradGradGradGradGradGradGradGradGradGradGradGrad
 Berny optimization.
 FormGI is forming the generalized inverse of G from B-inverse, IUseBI=4.
 Internal  Forces:  Max     0.029618377 RMS     0.006724131
 Search for a local minimum.
 Step number   1 out of a maximum of   78
 All quantities printed in internal units (Hartrees-Bohrs-Radians)
 Mixed Optimization -- RFO/linear search
 Second derivative matrix not updated -- first step.
 ITU=  0
     Eigenvalues ---    0.00230   0.00230   0.00230   0.00440   0.01119
     Eigenvalues ---    0.01233   0.01657   0.03302   0.03558   0.04006
     Eigenvalues ---    0.04348   0.04981   0.05127   0.05582   0.06068
     Eigenvalues ---    0.06842   0.11426   0.11733   0.11919   0.13867
     Eigenvalues ---    0.13881   0.15026   0.16000   0.16000   0.16000
     Eigenvalues ---    0.16000   0.16903   0.22081   0.22095   0.24262
     Eigenvalues ---    0.25000   0.25000   0.25000   0.29921   0.33527
     Eigenvalues ---    0.34255   0.34451   0.34540   0.35132   0.40322
     Eigenvalues ---    0.41302   0.45184   0.46637   0.48907   0.53526
     Eigenvalues ---    0.54775   0.56802   0.66977
 RFO step:  Lambda=-2.03056262D-02 EMin= 2.30000000D-03
 Linear search not attempted -- first point.
 Iteration  1 RMS(Cart)=  0.26329723 RMS(Int)=  0.01330019
 Iteration  2 RMS(Cart)=  0.02793678 RMS(Int)=  0.00166207
 Iteration  3 RMS(Cart)=  0.00055893 RMS(Int)=  0.00164832
 Iteration  4 RMS(Cart)=  0.00000073 RMS(Int)=  0.00164832
 Variable       Old X    -DE/DX   Delta X   Delta X   Delta X     New X
                                 (Linear)    (Quad)   (Total)
    R1        2.89512   0.00147   0.00000   0.00213   0.00213   2.89725
    R2        3.07120  -0.00333   0.00000  -0.00683  -0.00683   3.06436
    R3        3.13522   0.00278   0.00000   0.00641   0.00641   3.14162
    R4        1.80265   0.00051   0.00000   0.00087   0.00087   1.80351
    R5        2.08136   0.00165   0.00000   0.00463   0.00463   2.08600
    R6        2.52484   0.02029   0.00000   0.10717   0.10717   2.63201
    R7        3.28931  -0.00282   0.00000  -0.03184  -0.03184   3.25747
    R8        1.83166  -0.00066   0.00000  -0.00120  -0.00120   1.83046
    R9        2.05461   0.00002   0.00000   0.00006   0.00006   2.05467
   R10        2.06576   0.00003   0.00000   0.00009   0.00009   2.06585
   R11        2.88122   0.00213   0.00000   0.00668   0.00668   2.88790
   R12        2.71118  -0.00141   0.00000  -0.00332  -0.00332   2.70786
   R13        2.06428  -0.00001   0.00000  -0.00003  -0.00003   2.06425
   R14        2.06902   0.00003   0.00000   0.00009   0.00009   2.06911
   R15        2.65063   0.00134   0.00000   0.00284   0.00284   2.65347
   R16        1.82032  -0.00003   0.00000  -0.00006  -0.00006   1.82027
   R17        1.87685  -0.00103   0.00000  -0.00202  -0.00202   1.87482
    A1        2.15263   0.00174   0.00000   0.01045   0.01018   2.16281
    A2        2.14868  -0.00905   0.00000  -0.03060  -0.03107   2.11762
    A3        1.92697   0.00848   0.00000   0.03472   0.03436   1.96133
    A4        1.89627  -0.00334   0.00000  -0.01852  -0.01852   1.87775
    A5        1.56813   0.02962   0.00000   0.22227   0.21997   1.78810
    A6        2.04740  -0.01364   0.00000  -0.02982  -0.03312   2.01428
    A7        2.29165  -0.01046   0.00000  -0.04162  -0.04928   2.24236
    A8        2.77876   0.02496   0.00000   0.09235   0.09235   2.87111
    A9        1.78944   0.00355   0.00000   0.01971   0.01971   1.80915
   A10        1.91743   0.00044   0.00000  -0.00257  -0.00261   1.91482
   A11        1.94101  -0.00060   0.00000  -0.00023  -0.00030   1.94071
   A12        1.84698  -0.00144   0.00000  -0.00160  -0.00169   1.84529
   A13        1.93667  -0.00159   0.00000  -0.00944  -0.00942   1.92725
   A14        1.86748  -0.00164   0.00000  -0.00743  -0.00738   1.86010
   A15        1.95085   0.00481   0.00000   0.02130   0.02129   1.97214
   A16        1.89950   0.00146   0.00000   0.01800   0.01775   1.91725
   A17        1.89166  -0.00395   0.00000  -0.02806  -0.02791   1.86375
   A18        1.93743   0.00494   0.00000   0.02175   0.02154   1.95896
   A19        1.89661   0.00048   0.00000  -0.00229  -0.00216   1.89445
   A20        1.93190  -0.00180   0.00000   0.00196   0.00145   1.93335
   A21        1.90586  -0.00126   0.00000  -0.01243  -0.01229   1.89358
   A22        1.87960  -0.00014   0.00000  -0.00076  -0.00076   1.87884
   A23        1.79909   0.00998   0.00000   0.05534   0.05534   1.85443
   A24        2.72766   0.00982   0.00000   0.03634   0.03634   2.76400
    D1       -1.82473   0.00248   0.00000   0.07246   0.07645  -1.74828
    D2        2.05247   0.00068   0.00000  -0.02856  -0.03307   2.01940
    D3        0.97568   0.00425   0.00000   0.11024   0.11475   1.09042
    D4       -1.43031   0.00245   0.00000   0.00921   0.00523  -1.42508
    D5        1.87167   0.00240   0.00000   0.02842   0.02798   1.89965
    D6       -0.92965  -0.00186   0.00000  -0.01874  -0.01830  -0.94796
    D7        1.79231   0.00021   0.00000   0.00931   0.00931   1.80163
    D8       -0.23553  -0.00255   0.00000  -0.08016  -0.08072  -0.31625
    D9        1.98921   0.00285   0.00000   0.09310   0.09365   2.08287
   D10        0.40353   0.01165   0.00000   0.17424   0.17002   0.57356
   D11       -1.63358  -0.01040   0.00000  -0.11900  -0.11478  -1.74836
   D12        0.71448  -0.00039   0.00000  -0.00955  -0.00970   0.70477
   D13       -1.34530   0.00045   0.00000  -0.00105  -0.00103  -1.34634
   D14        2.84486   0.00152   0.00000   0.01889   0.01906   2.86393
   D15        2.85447  -0.00137   0.00000  -0.01967  -0.01982   2.83465
   D16        0.79468  -0.00053   0.00000  -0.01117  -0.01114   0.78354
   D17       -1.29833   0.00054   0.00000   0.00877   0.00895  -1.28938
   D18       -1.34563  -0.00132   0.00000  -0.02128  -0.02148  -1.36711
   D19        2.87777  -0.00048   0.00000  -0.01278  -0.01281   2.86496
   D20        0.78475   0.00059   0.00000   0.00716   0.00729   0.79204
   D21        3.11090  -0.00009   0.00000   0.01244   0.01243   3.12333
   D22        1.06673   0.00089   0.00000   0.01971   0.01969   1.08642
   D23       -1.05676   0.00102   0.00000   0.02336   0.02338  -1.03338
   D24       -1.46296  -0.00641   0.00000  -0.13679  -0.13683  -1.59978
   D25        0.64845  -0.00245   0.00000  -0.09811  -0.09810   0.55035
   D26        2.73569  -0.00377   0.00000  -0.10759  -0.10757   2.62812
   D27        0.43112  -0.00127   0.00000  -0.04045  -0.04045   0.39067
         Item               Value     Threshold  Converged?
 Maximum Force            0.029618     0.000450     NO 
 RMS     Force            0.006724     0.000300     NO 
 Maximum Displacement     0.930940     0.001800     NO 
 RMS     Displacement     0.280539     0.001200     NO 
 Predicted change in Energy=-1.220996D-02
 GradGradGradGradGradGradGradGradGradGradGradGradGradGradGradGradGradGrad

                          Input orientation:                          
 ---------------------------------------------------------------------
 Center     Atomic      Atomic             Coordinates (Angstroms)
 Number     Number       Type             X           Y           Z
 ---------------------------------------------------------------------
      1         14           0        1.028811    0.053065   -0.056971
      2          8           0        1.849657   -1.030512   -0.765947
      3          8           0        2.319775    2.828523    0.402568
      4          1           0        3.147880    2.754832   -0.066101
      5          8           0        0.605037    1.460509   -0.741861
      6          1           0        1.542870    2.345243   -0.214983
      7          8           0        0.892089    0.088792    1.599488
      8          1           0        1.422003    0.857929    1.856165
      9          6           0       -2.225045   -0.128366    0.903702
     10          1           0       -2.035977   -0.324177    1.956365
     11          1           0       -3.195497   -0.543986    0.619851
     12          6           0       -2.177784    1.369245    0.603115
     13          1           0       -1.358880    1.833186    1.157543
     14          1           0       -3.122838    1.793009    0.958306
     15          8           0       -1.234817   -0.874928    0.185786
     16          8           0       -2.060456    1.632018   -0.771235
     17          1           0       -1.088534    1.696859   -0.959523
     18          1           0       -1.387744   -0.733901   -0.754725
 ---------------------------------------------------------------------
                    Distance matrix (angstroms):
                    1          2          3          4          5
     1  Si   0.000000
     2  O    1.533158   0.000000
     3  O    3.095307   4.059382   0.000000
     4  H    3.433669   4.062510   0.954379   0.000000
     5  O    1.621591   2.784752   2.474168   2.932230   0.000000
     6  H    2.354422   3.434152   1.103861   1.663125   1.392798
     7  O    1.662476   2.786586   3.313160   3.869180   2.728722
     8  H    2.112462   3.259535   2.608099   3.204997   2.789315
     9  C    3.397557   4.494974   5.445155   6.174275   3.638924
    10  H    3.686293   4.796670   5.596997   6.359484   4.176180
    11  H    4.319645   5.254590   6.468327   7.182699   4.507362
    12  C    3.528497   4.883999   4.732626   5.543500   3.092148
    13  H    3.216356   4.711188   3.884995   4.760003   2.757461
    14  H    4.614583   5.972522   5.568049   6.426229   4.110739
    15  O    2.458478   3.231715   5.137866   5.696195   3.114459
    16  O    3.542151   4.730547   4.689974   5.374448   2.671166
    17  H    2.828393   4.013600   3.840901   4.456984   1.723780
    18  H    2.635511   3.250980   5.270283   5.763449   2.964250
                    6          7          8          9         10
     6  H    0.000000
     7  O    2.967726   0.000000
     8  H    2.552718   0.968640   0.000000
     9  C    4.644070   3.201219   3.896270   0.000000
    10  H    4.964746   2.978502   3.655822   1.087285   0.000000
    11  H    5.612193   4.250700   4.981480   1.093201   1.782996
    12  C    3.932572   3.472238   3.845782   1.528210   2.172343
    13  H    3.250567   2.881855   3.028615   2.159251   2.398081
    14  H    4.842561   4.408526   4.726108   2.121485   2.580672
    15  O    4.271494   2.729659   3.584920   1.432938   2.019934
    16  O    3.715113   4.088936   4.430571   2.435458   3.356650
    17  H    2.810521   3.613487   3.864544   2.845121   3.672144
    18  H    4.284968   3.378873   4.152752   1.954003   2.817462
                   11         12         13         14         15
    11  H    0.000000
    12  C    2.167135   0.000000
    13  H    3.051757   1.092353   0.000000
    14  H    2.362494   1.094926   1.775628   0.000000
    15  O    2.035239   2.469749   2.879859   3.358467   0.000000
    16  O    2.821069   1.404155   2.062246   2.036144   2.807551
    17  H    3.457615   1.932779   2.138607   2.797447   2.819082
    18  H    2.278924   2.625093   3.201177   3.511453   0.963243
                   16         17         18
    16  O    0.000000
    17  H    0.992114   0.000000
    18  H    2.459753   2.457654   0.000000
 Stoichiometry    C2H9O6Si(1-)
 Framework group  C1[X(C2H9O6Si)]
 Deg. of freedom    48
 Full point group                 C1      NOp   1
 Largest Abelian subgroup         C1      NOp   1
 Largest concise Abelian subgroup C1      NOp   1
                         Standard orientation:                         
 ---------------------------------------------------------------------
 Center     Atomic      Atomic             Coordinates (Angstroms)
 Number     Number       Type             X           Y           Z
 ---------------------------------------------------------------------
      1         14           0        0.938901   -0.693540   -0.162211
      2          8           0        1.641172   -1.862368   -0.863090
      3          8           0        2.580991    1.848529    0.487678
      4          1           0        3.419238    1.669732    0.067901
      5          8           0        0.767633    0.781373   -0.814020
      6          1           0        1.785546    1.503139   -0.195318
      7          8           0        0.699096   -0.690189    1.482875
      8          1           0        1.315571   -0.014855    1.802478
      9          6           0       -2.363863   -0.429135    0.589606
     10          1           0       -2.275088   -0.683273    1.643039
     11          1           0       -3.362870   -0.689884    0.230326
     12          6           0       -2.082586    1.054297    0.353518
     13          1           0       -1.244253    1.376425    0.975343
     14          1           0       -2.978605    1.599848    0.667186
     15          8           0       -1.445436   -1.289097   -0.096153
     16          8           0       -1.837866    1.340102   -0.999287
     17          1           0       -0.856356    1.268563   -1.125024
     18          1           0       -1.513819   -1.097908   -1.037751
 ---------------------------------------------------------------------
 Rotational constants (GHZ):           1.5859383           0.9380228           0.7544635
 Standard basis: def2TZVPP (5D, 7F)
 There are   471 symmetry adapted cartesian basis functions of A   symmetry.
 There are   416 symmetry adapted basis functions of A   symmetry.
   416 basis functions,   630 primitive gaussians,   471 cartesian basis functions
    42 alpha electrons       42 beta electrons
       nuclear repulsion energy       613.0746135801 Hartrees.
 NAtoms=   18 NActive=   18 NUniq=   18 SFac= 1.00D+00 NAtFMM=   60 NAOKFM=F Big=F
 Integral buffers will be    131072 words long.
 Raffenetti 2 integral format.
 Two-electron integral symmetry is turned on.
 Nuclear repulsion after empirical dispersion term =      613.0644614800 Hartrees.
 One-electron integrals computed using PRISM.
   1 Symmetry operations used in ECPInt.
 ECPInt:  NShTT=   12246 NPrTT=   33908 LenC2=   11613 LenP2D=   25016.
 LDataN:  DoStor=T MaxTD1= 6 Len=  172
 NBasis=   416 RedAO= T EigKep=  2.35D-04  NBF=   416
 NBsUse=   416 1.00D-06 EigRej= -1.00D+00 NBFU=   416
 Initial guess from the checkpoint file:  "OptOfSN1LikeIRCProduct_EGAtt1Q0.chk"
 B after Tr=     0.000000    0.000000    0.000000
         Rot=    0.997342   -0.028390    0.025951    0.061877 Ang=  -8.36 deg.
 ExpMin= 7.01D-02 ExpMax= 4.48D+04 ExpMxC= 1.53D+03 IAcc=3 IRadAn=         5 AccDes= 0.00D+00
 Harris functional with IExCor= 4639 and IRadAn=       5 diagonalized for initial guess.
 HarFok:  IExCor= 4639 AccDes= 0.00D+00 IRadAn=         5 IDoV= 1 UseB2=F ITyADJ=14
 ICtDFT=  3500011 ScaDFX=  1.000000  1.000000  1.000000  1.000000
 FoFCou: FMM=F IPFlag=           0 FMFlag=      100000 FMFlg1=           0
         NFxFlg=           0 DoJE=T BraDBF=F KetDBF=T FulRan=T
         wScrn=  0.000000 ICntrl=       500 IOpCl=  0 I1Cent=   200000004 NGrid=           0
         NMat0=    1 NMatS0=      1 NMatT0=    0 NMatD0=    1 NMtDS0=    0 NMtDT0=    0
 Petite list used in FoFCou.
 Requested convergence on RMS density matrix=1.00D-08 within 128 cycles.
 Requested convergence on MAX density matrix=1.00D-06.
 Requested convergence on             energy=1.00D-06.
 No special actions if energy rises.
 Integral accuracy reduced to 1.0D-05 until final iterations.
 Initial convergence to 1.0D-05 achieved.  Increase integral accuracy.
 SCF Done:  E(RwB97XD) =  -822.732525202     A.U. after   14 cycles
            NFock= 14  Conv=0.42D-08     -V/T= 2.0036
   1 Symmetry operations used in ECPInt.
 ECPInt:  NShTT=   12246 NPrTT=   33908 LenC2=   11613 LenP2D=   25016.
 LDataN:  DoStor=T MaxTD1= 7 Len=  274
 Calling FoFJK, ICntrl=      2127 FMM=F ISym2X=0 I1Cent= 0 IOpClX= 0 NMat=1 NMatS=1 NMatT=0.
 ***** Axes restored to original set *****
 -------------------------------------------------------------------
 Center     Atomic                   Forces (Hartrees/Bohr)
 Number     Number              X              Y              Z
 -------------------------------------------------------------------
      1       14          -0.004611064    0.017904714   -0.016099856
      2        8          -0.008319409   -0.002215210    0.005465434
      3        8          -0.018857949   -0.007429261   -0.009745015
      4        1          -0.001653978   -0.001895552   -0.002576888
      5        8          -0.005748283   -0.029308861    0.009675410
      6        1           0.025646262    0.013763440    0.019742143
      7        8           0.012774193    0.010482598   -0.002337847
      8        1          -0.005941721   -0.002771101    0.003197794
      9        6           0.006236432   -0.004360946   -0.009426785
     10        1          -0.000423168    0.000671581    0.001085953
     11        1          -0.002641424    0.001134768    0.001915210
     12        6          -0.000147835    0.000201065   -0.002538424
     13        1           0.000993260   -0.000798180   -0.000456484
     14        1           0.000134556    0.001970091    0.000946477
     15        8           0.006509832    0.005705812   -0.006066551
     16        8           0.000767880   -0.001386433    0.000236729
     17        1          -0.001324436   -0.002545226    0.004818058
     18        1          -0.003393149    0.000876703    0.002164643
 -------------------------------------------------------------------
 Cartesian Forces:  Max     0.029308861 RMS     0.008728918

 GradGradGradGradGradGradGradGradGradGradGradGradGradGradGradGradGradGrad
 Berny optimization.
 Using GEDIIS/GDIIS optimizer.
 FormGI is forming the generalized inverse of G from B-inverse, IUseBI=4.
 Internal  Forces:  Max     0.039240225 RMS     0.011238662
 Search for a local minimum.
 Step number   2 out of a maximum of   78
 All quantities printed in internal units (Hartrees-Bohrs-Radians)
 Mixed Optimization -- RFO/linear search
 Update second derivatives using D2CorX and points    2    1
 DE=  3.51D-03 DEPred=-1.22D-02 R=-2.88D-01
 Trust test=-2.88D-01 RLast= 4.54D-01 DXMaxT set to 1.50D-01
 ITU= -1  0
 Use linear search instead of GDIIS.
     Eigenvalues ---    0.00216   0.00230   0.00230   0.00437   0.00900
     Eigenvalues ---    0.01236   0.01824   0.03326   0.03560   0.04172
     Eigenvalues ---    0.04506   0.04846   0.05499   0.05668   0.06107
     Eigenvalues ---    0.06706   0.10198   0.11563   0.11870   0.13765
     Eigenvalues ---    0.13967   0.14006   0.15951   0.16000   0.16000
     Eigenvalues ---    0.16470   0.18504   0.22088   0.23115   0.23848
     Eigenvalues ---    0.24668   0.25000   0.29782   0.31702   0.34254
     Eigenvalues ---    0.34449   0.34540   0.35131   0.40299   0.41267
     Eigenvalues ---    0.41620   0.45560   0.48668   0.53401   0.54759
     Eigenvalues ---    0.56800   0.62348   0.68083
 RFO step:  Lambda=-1.46836071D-02 EMin= 2.15777226D-03
 Quartic linear search produced a step of -0.71127.
 Maximum step size (   0.150) exceeded in Quadratic search.
    -- Step size scaled by   0.399
 Iteration  1 RMS(Cart)=  0.23300791 RMS(Int)=  0.01308238
 Iteration  2 RMS(Cart)=  0.03474763 RMS(Int)=  0.00070852
 Iteration  3 RMS(Cart)=  0.00060489 RMS(Int)=  0.00065470
 Iteration  4 RMS(Cart)=  0.00000045 RMS(Int)=  0.00065470
 Variable       Old X    -DE/DX   Delta X   Delta X   Delta X     New X
                                 (Linear)    (Quad)   (Total)
    R1        2.89725  -0.00542  -0.00152   0.00065  -0.00086   2.89639
    R2        3.06436  -0.02604   0.00486  -0.01001  -0.00515   3.05921
    R3        3.14162   0.00046  -0.00456   0.00432  -0.00023   3.14139
    R4        1.80351  -0.00002  -0.00062   0.00058  -0.00004   1.80348
    R5        2.08600  -0.02542  -0.00330  -0.00435  -0.00764   2.07835
    R6        2.63201   0.00908  -0.07622   0.06686  -0.00936   2.62265
    R7        3.25747  -0.00547   0.02264  -0.01957   0.00308   3.26055
    R8        1.83046  -0.00460   0.00085  -0.00165  -0.00080   1.82967
    R9        2.05467   0.00086  -0.00004   0.00027   0.00023   2.05490
   R10        2.06585   0.00142  -0.00006   0.00045   0.00039   2.06624
   R11        2.88790  -0.00617  -0.00475   0.00226  -0.00249   2.88541
   R12        2.70786   0.00068   0.00236  -0.00202   0.00034   2.70820
   R13        2.06425   0.00017   0.00002   0.00003   0.00005   2.06430
   R14        2.06911   0.00095  -0.00006   0.00033   0.00026   2.06937
   R15        2.65347  -0.01372  -0.00202  -0.00109  -0.00311   2.65036
   R16        1.82027  -0.00145   0.00004  -0.00030  -0.00026   1.82001
   R17        1.87482  -0.01044   0.00144  -0.00344  -0.00200   1.87282
    A1        2.16281   0.01507  -0.00724   0.01021   0.00307   2.16588
    A2        2.11762  -0.00170   0.02210  -0.02175   0.00060   2.11822
    A3        1.96133  -0.01401  -0.02444   0.01418  -0.01009   1.95124
    A4        1.87775  -0.00649   0.01317  -0.01431  -0.00114   1.87661
    A5        1.78810  -0.00694  -0.15646   0.08926  -0.06825   1.71984
    A6        2.01428  -0.00381   0.02355  -0.05090  -0.02750   1.98678
    A7        2.24236   0.00561   0.03505  -0.03850  -0.00159   2.24077
    A8        2.87111   0.00212  -0.06568   0.05813  -0.00755   2.86355
    A9        1.80915   0.00885  -0.01402   0.01635   0.00233   1.81148
   A10        1.91482  -0.00174   0.00185   0.00010   0.00198   1.91680
   A11        1.94071   0.00258   0.00022  -0.00003   0.00023   1.94094
   A12        1.84529   0.00736   0.00120   0.00078   0.00202   1.84731
   A13        1.92725   0.00268   0.00670  -0.00412   0.00257   1.92982
   A14        1.86010   0.00628   0.00525  -0.00172   0.00349   1.86359
   A15        1.97214  -0.01677  -0.01514   0.00509  -0.01005   1.96209
   A16        1.91725   0.00261  -0.01262   0.00424  -0.00839   1.90886
   A17        1.86375   0.01325   0.01985  -0.00355   0.01626   1.88001
   A18        1.95896  -0.03062  -0.01532  -0.00140  -0.01668   1.94229
   A19        1.89445  -0.00304   0.00154   0.00186   0.00335   1.89779
   A20        1.93335   0.00831  -0.00103  -0.00492  -0.00583   1.92751
   A21        1.89358   0.01047   0.00874   0.00395   0.01268   1.90625
   A22        1.87884  -0.00659   0.00054  -0.00424  -0.00370   1.87514
   A23        1.85443  -0.03924  -0.03936   0.00886  -0.03050   1.82393
   A24        2.76400  -0.02669  -0.02585   0.01238  -0.01347   2.75053
    D1       -1.74828  -0.00788  -0.05437  -0.01298  -0.06876  -1.81704
    D2        2.01940  -0.00469   0.02352  -0.00167   0.02363   2.04303
    D3        1.09042  -0.01103  -0.08162  -0.00744  -0.09083   0.99959
    D4       -1.42508  -0.00784  -0.00372   0.00387   0.00156  -1.42352
    D5        1.89965   0.00277  -0.01990   0.01194  -0.00764   1.89201
    D6       -0.94796   0.00244   0.01302   0.00049   0.01318  -0.93478
    D7        1.80163  -0.00030  -0.00663  -0.00939  -0.01602   1.78561
    D8       -0.31625   0.00457   0.05741  -0.00298   0.05493  -0.26132
    D9        2.08287  -0.00523  -0.06661  -0.01145  -0.07855   2.00432
   D10        0.57356  -0.02195  -0.12093  -0.10129  -0.21962   0.35393
   D11       -1.74836  -0.01081   0.08164  -0.13841  -0.05937  -1.80773
   D12        0.70477   0.00303   0.00690   0.00106   0.00801   0.71279
   D13       -1.34634  -0.00222   0.00073  -0.00138  -0.00066  -1.34700
   D14        2.86393  -0.00597  -0.01356  -0.00316  -0.01677   2.84716
   D15        2.83465   0.00442   0.01409  -0.00167   0.01247   2.84712
   D16        0.78354  -0.00083   0.00793  -0.00411   0.00379   0.78733
   D17       -1.28938  -0.00458  -0.00637  -0.00589  -0.01231  -1.30170
   D18       -1.36711   0.00314   0.01528  -0.00334   0.01201  -1.35510
   D19        2.86496  -0.00211   0.00911  -0.00578   0.00333   2.86829
   D20        0.79204  -0.00586  -0.00518  -0.00757  -0.01277   0.77927
   D21        3.12333   0.00131  -0.00884  -0.00869  -0.01752   3.10580
   D22        1.08642  -0.00311  -0.01401  -0.00838  -0.02239   1.06404
   D23       -1.03338  -0.00051  -0.01663  -0.00518  -0.02183  -1.05520
   D24       -1.59978   0.01161   0.09732   0.03058   0.12786  -1.47192
   D25        0.55035  -0.00095   0.06977   0.03146   0.10128   0.65163
   D26        2.62812   0.00675   0.07651   0.03327   0.10977   2.73789
   D27        0.39067  -0.02932   0.02877  -0.10281  -0.07404   0.31663
         Item               Value     Threshold  Converged?
 Maximum Force            0.039240     0.000450     NO 
 RMS     Force            0.011239     0.000300     NO 
 Maximum Displacement     0.693423     0.001800     NO 
 RMS     Displacement     0.255342     0.001200     NO 
 Predicted change in Energy=-3.345890D-03
 GradGradGradGradGradGradGradGradGradGradGradGradGradGradGradGradGradGrad

                          Input orientation:                          
 ---------------------------------------------------------------------
 Center     Atomic      Atomic             Coordinates (Angstroms)
 Number     Number       Type             X           Y           Z
 ---------------------------------------------------------------------
      1         14           0        0.846016    0.110474    0.140097
      2          8           0        1.529068   -1.151265   -0.399003
      3          8           0        2.350992    2.687631    0.305283
      4          1           0        3.170373    2.490585   -0.142591
      5          8           0        0.522999    1.420322   -0.754715
      6          1           0        1.535845    2.245158   -0.285776
      7          8           0        0.819714    0.452276    1.766718
      8          1           0        1.430105    1.198576    1.855630
      9          6           0       -2.096033   -0.194890    0.776822
     10          1           0       -1.824150   -0.508472    1.781911
     11          1           0       -3.056349   -0.636842    0.497516
     12          6           0       -2.154554    1.327133    0.669918
     13          1           0       -1.319511    1.761634    1.224178
     14          1           0       -3.091851    1.657688    1.129676
     15          8           0       -1.109527   -0.766277   -0.091600
     16          8           0       -2.124284    1.745032   -0.668546
     17          1           0       -1.160845    1.767688   -0.899760
     18          1           0       -1.347461   -0.529110   -0.994215
 ---------------------------------------------------------------------
                    Distance matrix (angstroms):
                    1          2          3          4          5
     1  Si   0.000000
     2  O    1.532701   0.000000
     3  O    2.988976   3.988571   0.000000
     4  H    3.338784   4.002837   0.954360   0.000000
     5  O    1.618867   2.784199   2.463986   2.920402   0.000000
     6  H    2.283442   3.398317   1.099817   1.659042   1.387845
     7  O    1.662353   2.786553   3.078541   3.650447   2.717126
     8  H    2.113807   3.258054   2.338566   2.948000   2.772347
     9  C    3.025611   3.929195   5.320461   5.982652   3.437127
    10  H    3.195065   4.051376   5.461440   6.135415   3.957755
    11  H    3.989322   4.700471   6.350466   6.997329   4.314133
    12  C    3.280914   4.566631   4.720579   5.510775   3.034395
    13  H    2.931053   4.385670   3.895437   4.749578   2.725317
    14  H    4.345105   5.619606   5.600442   6.444209   4.083431
    15  O    2.155580   2.684194   4.905322   5.378410   2.808216
    16  O    3.485451   4.669922   4.675995   5.372697   2.668514
    17  H    2.802704   4.000834   3.825105   4.455933   1.725408
    18  H    2.550896   3.002627   5.070964   5.500422   2.712244
                    6          7          8          9         10
     6  H    0.000000
     7  O    2.817801   0.000000
     8  H    2.385819   0.968218   0.000000
     9  C    4.502609   3.146474   3.941982   0.000000
    10  H    4.811172   2.813057   3.675544   1.087408   0.000000
    11  H    5.477930   4.221483   5.034035   1.093408   1.784506
    12  C    3.921118   3.288559   3.777859   1.526895   2.171438
    13  H    3.266009   2.566136   2.876830   2.151999   2.391466
    14  H    4.874853   4.142364   4.602812   2.132652   2.593208
    15  O    4.013033   2.942820   3.755274   1.433120   2.021681
    16  O    3.713917   4.033466   4.393604   2.419336   3.342619
    17  H    2.806615   3.572538   3.824798   2.745399   3.579419
    18  H    4.063484   3.644519   4.338362   1.951573   2.816831
                   11         12         13         14         15
    11  H    0.000000
    12  C    2.167984   0.000000
    13  H    3.049153   1.092380   0.000000
    14  H    2.380285   1.095066   1.777899   0.000000
    15  O    2.038119   2.460560   2.857569   3.361061   0.000000
    16  O    2.811009   1.402512   2.056779   2.043873   2.769344
    17  H    3.365573   1.909302   2.129865   2.803479   2.660212
    18  H    2.270940   2.620377   3.188975   3.512249   0.963107
                   16         17         18
    16  O    0.000000
    17  H    0.991054   0.000000
    18  H    2.425126   2.306301   0.000000
 Stoichiometry    C2H9O6Si(1-)
 Framework group  C1[X(C2H9O6Si)]
 Deg. of freedom    48
 Full point group                 C1      NOp   1
 Largest Abelian subgroup         C1      NOp   1
 Largest concise Abelian subgroup C1      NOp   1
                         Standard orientation:                         
 ---------------------------------------------------------------------
 Center     Atomic      Atomic             Coordinates (Angstroms)
 Number     Number       Type             X           Y           Z
 ---------------------------------------------------------------------
      1         14           0        0.788103   -0.662666   -0.084076
      2          8           0        1.256014   -1.990119   -0.690790
      3          8           0        2.697524    1.617958    0.210613
      4          1           0        3.475415    1.311766   -0.249750
      5          8           0        0.690814    0.727441   -0.908010
      6          1           0        1.823585    1.347824   -0.400007
      7          8           0        0.810057   -0.406558    1.558284
      8          1           0        1.534946    0.222859    1.684045
      9          6           0       -2.167276   -0.510106    0.545828
     10          1           0       -1.956301   -0.916337    1.532197
     11          1           0       -3.185949   -0.771987    0.247054
     12          6           0       -1.972809    1.004114    0.518918
     13          1           0       -1.080371    1.265028    1.092305
     14          1           0       -2.844983    1.460673    0.998538
     15          8           0       -1.284220   -1.190664   -0.354665
     16          8           0       -1.866782    1.480509   -0.795938
     17          1           0       -0.911644    1.355564   -1.028935
     18          1           0       -1.474890   -0.870652   -1.242815
 ---------------------------------------------------------------------
 Rotational constants (GHZ):           1.6708376           1.0178196           0.8158150
 Standard basis: def2TZVPP (5D, 7F)
 There are   471 symmetry adapted cartesian basis functions of A   symmetry.
 There are   416 symmetry adapted basis functions of A   symmetry.
   416 basis functions,   630 primitive gaussians,   471 cartesian basis functions
    42 alpha electrons       42 beta electrons
       nuclear repulsion energy       629.6634879707 Hartrees.
 NAtoms=   18 NActive=   18 NUniq=   18 SFac= 1.00D+00 NAtFMM=   60 NAOKFM=F Big=F
 Integral buffers will be    131072 words long.
 Raffenetti 2 integral format.
 Two-electron integral symmetry is turned on.
 Nuclear repulsion after empirical dispersion term =      629.6531988008 Hartrees.
 One-electron integrals computed using PRISM.
   1 Symmetry operations used in ECPInt.
 ECPInt:  NShTT=   12246 NPrTT=   33908 LenC2=   11687 LenP2D=   25305.
 LDataN:  DoStor=T MaxTD1= 6 Len=  172
 NBasis=   416 RedAO= T EigKep=  2.18D-04  NBF=   416
 NBsUse=   416 1.00D-06 EigRej= -1.00D+00 NBFU=   416
 Lowest energy guess from the checkpoint file:  "OptOfSN1LikeIRCProduct_EGAtt1Q0.chk"
 B after Tr=     0.000000    0.000000   -0.000000
         Rot=    0.996612   -0.016891    0.000628    0.080489 Ang=  -9.44 deg.
 B after Tr=     0.000000   -0.000000   -0.000000
         Rot=    0.999473    0.011280   -0.024443    0.018122 Ang=   3.72 deg.
 Requested convergence on RMS density matrix=1.00D-08 within 128 cycles.
 Requested convergence on MAX density matrix=1.00D-06.
 Requested convergence on             energy=1.00D-06.
 No special actions if energy rises.
 Integral accuracy reduced to 1.0D-05 until final iterations.
 Initial convergence to 1.0D-05 achieved.  Increase integral accuracy.
 SCF Done:  E(RwB97XD) =  -822.734722047     A.U. after   13 cycles
            NFock= 13  Conv=0.50D-08     -V/T= 2.0035
   1 Symmetry operations used in ECPInt.
 ECPInt:  NShTT=   12246 NPrTT=   33908 LenC2=   11687 LenP2D=   25305.
 LDataN:  DoStor=T MaxTD1= 7 Len=  274
 Calling FoFJK, ICntrl=      2127 FMM=F ISym2X=0 I1Cent= 0 IOpClX= 0 NMat=1 NMatS=1 NMatT=0.
 ***** Axes restored to original set *****
 -------------------------------------------------------------------
 Center     Atomic                   Forces (Hartrees/Bohr)
 Number     Number              X              Y              Z
 -------------------------------------------------------------------
      1       14          -0.003783624   -0.003587444   -0.033874213
      2        8           0.007718902    0.001049306    0.005713007
      3        8          -0.014542706   -0.003368862   -0.006025010
      4        1          -0.001522844   -0.001865733   -0.001974051
      5        8          -0.005352806   -0.016296193    0.012147618
      6        1           0.021252177    0.011273686    0.014151696
      7        8           0.004226494    0.001457352   -0.003666442
      8        1          -0.005388128    0.000722676    0.001873499
      9        6          -0.004509362   -0.002861632   -0.004645898
     10        1          -0.000717694   -0.000045210    0.000910047
     11        1          -0.001553913    0.000570311    0.002057475
     12        6           0.000149792    0.000802768   -0.001953744
     13        1          -0.000746332   -0.000214959    0.000602696
     14        1           0.000365546    0.000897644   -0.000147872
     15        8           0.000002880    0.010227035    0.012747337
     16        8          -0.001294191   -0.001289222   -0.000756585
     17        1           0.001790672    0.000000466    0.002165331
     18        1           0.003905137    0.002528009    0.000675111
 -------------------------------------------------------------------
 Cartesian Forces:  Max     0.033874213 RMS     0.007685882

 GradGradGradGradGradGradGradGradGradGradGradGradGradGradGradGradGradGrad
 Berny optimization.
 Using GEDIIS/GDIIS optimizer.
 FormGI is forming the generalized inverse of G from B-inverse, IUseBI=4.
 Internal  Forces:  Max     0.066689176 RMS     0.014528626
 Search for a local minimum.
 Step number   3 out of a maximum of   78
 All quantities printed in internal units (Hartrees-Bohrs-Radians)
 Mixed Optimization -- RFO/linear search
 Update second derivatives using D2CorX and points    2    3    1
 DE=  1.32D-03 DEPred=-3.35D-03 R=-3.94D-01
 Trust test=-3.94D-01 RLast= 3.16D-01 DXMaxT set to 7.50D-02
 ITU= -1 -1  0
 Use linear search instead of GDIIS.
 Energy rises -- skip Quadratic/GDIIS search.
 Quartic linear search produced a step of -0.61004.
 Iteration  1 RMS(Cart)=  0.12438574 RMS(Int)=  0.00454332
 Iteration  2 RMS(Cart)=  0.00770641 RMS(Int)=  0.00003884
 Iteration  3 RMS(Cart)=  0.00003139 RMS(Int)=  0.00003508
 Iteration  4 RMS(Cart)=  0.00000000 RMS(Int)=  0.00003508
 Variable       Old X    -DE/DX   Delta X   Delta X   Delta X     New X
                                 (Linear)    (Quad)   (Total)
    R1        2.89639   0.00057  -0.00077   0.00000  -0.00077   2.89561
    R2        3.05921  -0.01572   0.00731   0.00000   0.00731   3.06652
    R3        3.14139  -0.00129  -0.00377   0.00000  -0.00377   3.13763
    R4        1.80348   0.00000  -0.00051   0.00000  -0.00051   1.80297
    R5        2.07835  -0.01831   0.00184   0.00000   0.00184   2.08019
    R6        2.62265   0.00945  -0.05967   0.00000  -0.05967   2.56298
    R7        3.26055   0.00370   0.01755   0.00000   0.01755   3.27809
    R8        1.82967  -0.00267   0.00122   0.00000   0.00122   1.83088
    R9        2.05490   0.00068  -0.00018   0.00000  -0.00018   2.05473
   R10        2.06624   0.00061  -0.00029   0.00000  -0.00029   2.06595
   R11        2.88541  -0.00967  -0.00256   0.00000  -0.00256   2.88286
   R12        2.70820  -0.01053   0.00181   0.00000   0.00181   2.71002
   R13        2.06430  -0.00035  -0.00001   0.00000  -0.00001   2.06429
   R14        2.06937  -0.00010  -0.00021   0.00000  -0.00021   2.06916
   R15        2.65036   0.00631   0.00016   0.00000   0.00016   2.65053
   R16        1.82001  -0.00097   0.00019   0.00000   0.00019   1.82020
   R17        1.87282   0.00625   0.00246   0.00000   0.00246   1.87528
    A1        2.16588   0.00962  -0.00808   0.00000  -0.00807   2.15781
    A2        2.11822  -0.00211   0.01859   0.00000   0.01862   2.13684
    A3        1.95124  -0.00930  -0.01481   0.00000  -0.01478   1.93646
    A4        1.87661  -0.00556   0.01199   0.00000   0.01199   1.88860
    A5        1.71984   0.00320  -0.09255   0.00000  -0.09270   1.62715
    A6        1.98678   0.02429   0.03698   0.00000   0.03683   2.02361
    A7        2.24077  -0.01717   0.03103   0.00000   0.03100   2.27178
    A8        2.86355   0.00151  -0.05173   0.00000  -0.05173   2.81182
    A9        1.81148   0.00509  -0.01345   0.00000  -0.01345   1.79803
   A10        1.91680  -0.00195   0.00039   0.00000   0.00039   1.91719
   A11        1.94094   0.00335   0.00004   0.00000   0.00005   1.94099
   A12        1.84731   0.00015  -0.00020   0.00000  -0.00020   1.84712
   A13        1.92982   0.00232   0.00418   0.00000   0.00418   1.93400
   A14        1.86359   0.01206   0.00237   0.00000   0.00237   1.86596
   A15        1.96209  -0.01568  -0.00686   0.00000  -0.00686   1.95523
   A16        1.90886  -0.00962  -0.00571   0.00000  -0.00571   1.90315
   A17        1.88001   0.00056   0.00711   0.00000   0.00710   1.88711
   A18        1.94229   0.01987  -0.00296   0.00000  -0.00296   1.93933
   A19        1.89779   0.00120  -0.00072   0.00000  -0.00073   1.89707
   A20        1.92751  -0.00045   0.00267   0.00000   0.00268   1.93020
   A21        1.90625  -0.01190  -0.00024   0.00000  -0.00024   1.90602
   A22        1.87514   0.00298   0.00272   0.00000   0.00272   1.87786
   A23        1.82393   0.04374  -0.01516   0.00000  -0.01516   1.80878
   A24        2.75053   0.03810  -0.01395   0.00000  -0.01395   2.73658
    D1       -1.81704   0.00984  -0.00469   0.00000  -0.00469  -1.82174
    D2        2.04303   0.01194   0.00576   0.00000   0.00583   2.04886
    D3        0.99959   0.00312  -0.01459   0.00000  -0.01466   0.98493
    D4       -1.42352   0.00522  -0.00414   0.00000  -0.00414  -1.42766
    D5        1.89201   0.00181  -0.01241   0.00000  -0.01235   1.87966
    D6       -0.93478   0.00577   0.00312   0.00000   0.00306  -0.93171
    D7        1.78561  -0.00073   0.00409   0.00000   0.00409   1.78970
    D8       -0.26132  -0.01383   0.01574   0.00000   0.01567  -0.24565
    D9        2.00432   0.01249  -0.00921   0.00000  -0.00915   1.99517
   D10        0.35393   0.04019   0.03026   0.00000   0.03034   0.38427
   D11       -1.80773   0.02276   0.10624   0.00000   0.10616  -1.70157
   D12        0.71279  -0.00222   0.00103   0.00000   0.00104   0.71382
   D13       -1.34700   0.00130   0.00103   0.00000   0.00103  -1.34597
   D14        2.84716   0.00380  -0.00140   0.00000  -0.00140   2.84576
   D15        2.84712  -0.00077   0.00448   0.00000   0.00449   2.85160
   D16        0.78733   0.00275   0.00449   0.00000   0.00448   0.79181
   D17       -1.30170   0.00525   0.00205   0.00000   0.00205  -1.29965
   D18       -1.35510   0.00574   0.00578   0.00000   0.00579  -1.34932
[...]
 0322817,0.0147601,0.004207,0.0093251,-0.0971973,-0.2323768,-0.0803002,
 0.065406,-0.0602964,-0.0400374,-0.0116466,0.0124802,-0.0307846,0.03077
 57,0.3119049,-0.054915,-0.0648801,-0.0195929,0.2776609,-0.0683976,-0.1
 350399,-0.0088633,0.6488628,0.0136573,-0.0704501,-0.0824346,-0.0474973
 ,-0.0093005,-0.004886,-0.0387248,-0.0046859,-0.0473454,-0.1660155,0.12
 89259,0.1288779,0.0987048,-0.0232178,-0.0478195,0.0788117,-0.0273595,-
 0.0106488,-1.0596905,0.0495164,0.2906305,0.0403738,-0.6612026,-0.11326
 91,0.41456,-0.1224676,-0.5074438,-0.8769757,0.1336493,0.0763899,0.0868
 264,-0.5865897,0.056878,0.1507132,0.0819671,-0.8805835,0.9742248,-0.21
 25025,-0.0756423,-0.1459134,0.2726201,-0.0293908,-0.0596711,-0.0257364
 ,0.2168339,0.2805597,0.0357205,0.0138289,0.0467412,0.3793263,0.0362489
 ,-0.0109332,0.005987,0.2394599\Polar=83.330188,-2.2133322,80.2361315,-
 2.5259193,4.0745721,71.9976192\Quadrupole=5.9300046,-8.4399645,2.50995
 98,10.3623604,-0.5749006,-2.3697465\PG=C01 [X(C2H9O6Si1)]\NImag=0\\0.1
 7006867,-0.15352050,0.80036149,0.03719214,0.11357260,0.49484917,-0.066
 91935,0.09709184,0.04671174,0.05840200,0.09404629,-0.40157525,-0.18120
 158,-0.10690965,0.42062515,0.04481613,-0.17942419,-0.13943780,-0.05428
 405,0.19716395,0.14077014,-0.00341838,0.00384756,-0.00618253,0.0010403
 8,-0.00177103,0.00085548,0.58725343,0.00128989,0.00869466,-0.00039579,
 0.00054209,-0.00346663,-0.00094266,0.14604285,0.17401198,-0.00507430,0
 .01084221,-0.01711819,0.00161985,-0.00355662,0.00265067,-0.03274110,0.
 16594700,0.28013378,-0.00014748,-0.00074683,-0.00026711,-0.00008014,0.
 00021898,0.00010412,-0.51313454,-0.09652991,0.07950863,0.53015422,-0.0
 0161238,-0.00087505,-0.00143801,0.00024863,0.00023159,0.00037035,-0.07
 004891,-0.02612872,-0.00578986,0.09647133,0.03018958,0.00031823,-0.000
 58191,0.00084923,-0.00003143,0.00005759,-0.00017861,0.11881750,0.00581
 915,-0.04897493,-0.08817833,0.00009807,0.04318934,-0.05900806,0.046935
 95,-0.02286252,0.01188256,0.01012853,-0.00125937,0.00319476,-0.0131273
 2,-0.01259690,0.00131782,0.00183057,0.00097177,0.08023703,0.05608484,-
 0.30119540,0.10820244,0.00623481,-0.02237898,0.00807586,-0.01634829,-0
 .02172912,-0.03537155,0.00056811,-0.00162893,-0.00128269,-0.05465898,0
 .35084392,-0.02750970,0.11414316,-0.10927750,0.00281367,-0.00693868,0.
 01238842,-0.00939435,-0.02041995,-0.01113004,-0.00004398,-0.00114365,-
 0.00236783,0.03072061,-0.12687779,0.13597547,0.00434864,-0.00516257,0.
 00831664,-0.00111599,0.00265456,-0.00130455,-0.07429344,-0.03788456,-0
 .03208204,-0.01793349,-0.02612571,-0.03279694,-0.01112982,0.01202859,0
 .00329521,0.10426176,0.00170888,-0.02245926,0.01090117,-0.00139831,0.0
 0498301,-0.00131505,-0.06134391,-0.12479835,-0.12849971,-0.00002782,-0
 .00172292,-0.00441997,0.00853813,0.01287190,0.01182843,0.05364755,0.12
 551109,0.00496585,-0.01183346,0.02000357,-0.00191784,0.00479329,-0.002
 66342,-0.07359089,-0.14634111,-0.21298605,0.00862432,0.00711355,0.0082
 2086,0.00535368,0.02401351,-0.00641272,0.05906578,0.11480040,0.2076221
 0,-0.04883969,0.00004938,-0.04658494,0.00823314,0.00085042,0.00151556,
 0.00404840,-0.00218797,0.00288669,0.00001542,0.00176541,-0.00099743,0.
 00954642,0.00399908,-0.01012454,-0.00264587,-0.00211472,-0.00247052,0.
 05188281,-0.00483353,-0.05817045,-0.03582153,-0.00346865,-0.00159853,-
 0.02250941,0.00033057,-0.00931891,0.00456077,0.00096039,0.00020395,0.0
 0011237,0.00759941,0.00407967,0.02086305,-0.00165734,-0.00050274,-0.00
 343015,0.02475843,0.55284758,-0.04279391,-0.01244198,-0.21546014,-0.00
 431595,-0.00836698,-0.00900925,0.00211582,0.00020378,0.00830042,-0.000
 03152,0.00020271,-0.00068096,-0.01364931,0.01596823,-0.02065414,-0.003
 37943,-0.00693639,-0.00820362,0.07499976,0.12600618,0.29430566,0.00214
 963,-0.00709475,-0.00414122,0.00111192,0.00066159,0.00028984,-0.005516
 22,0.00171808,-0.00205225,-0.00020759,-0.00277595,0.00184835,-0.002183
 27,-0.00049883,0.00183080,0.00239287,0.00215303,-0.00015898,-0.0128008
 9,-0.01573266,-0.00864197,0.01783334,-0.00344795,-0.00416711,-0.010471
 93,0.00042856,0.00160353,0.00252374,-0.00088222,0.00461685,-0.00661950
 ,-0.00107715,-0.00032532,0.00010962,0.00092177,-0.00737625,0.00315595,
 0.00347709,0.00300344,0.00893633,-0.02252584,-0.48823629,-0.11221840,0
 .02168425,0.49014966,-0.00300024,-0.03006613,-0.01368608,-0.00083135,0
 .00002031,-0.00378305,-0.00000562,-0.00430943,-0.00231659,0.00035732,0
 .00062576,0.00013989,0.00276770,0.00107096,0.00480917,-0.00089681,0.00
 515283,-0.00323051,-0.00928760,-0.08677395,-0.04753191,0.01203102,0.11
 365329,0.06560352,-0.01245913,0.00466599,0.00662727,-0.00009581,-0.000
 37878,0.00007847,-0.00041278,0.00124391,0.00062398,-0.00023501,-0.0001
 0025,0.00003186,0.00228254,0.00356732,-0.00199844,0.00003188,-0.001710
 16,-0.00120877,0.00258557,0.00059363,0.00152471,-0.00024179,-0.0008326
 7,-0.00044128,0.56756837,0.01572906,0.00828766,0.00000123,-0.00383859,
 0.00097658,0.00114135,0.00037594,-0.00076786,-0.00056454,0.00007790,0.
 00011772,-0.00007720,0.00032776,-0.00574448,0.00038341,-0.00022908,0.0
 0084874,0.00102345,-0.00131695,-0.00198939,-0.00206838,-0.00078178,0.0
 0050859,-0.00000951,0.04991337,0.45541122,0.01979193,0.00585885,-0.000
 94648,-0.00428591,0.00074306,0.00186678,-0.00021132,-0.00080228,-0.000
 98506,0.00002376,0.00011607,0.00002837,-0.00148599,-0.00497483,0.00139
 680,0.00040314,0.00116681,0.00112789,-0.00099417,-0.00182020,-0.004401
 07,-0.00099708,0.00009401,0.00066737,0.05930451,-0.00482046,0.59816644
 ,0.00092976,0.00032460,0.00195323,-0.00025157,-0.00021912,-0.00041044,
 0.00001206,0.00018830,-0.00008760,-0.00000844,-0.00003252,-0.00000706,
 -0.00029718,-0.00006409,-0.00036109,0.00001490,-0.00004413,0.00009012,
 0.00049807,0.00000731,-0.00092408,-0.00027805,-0.00029995,0.00006400,-
 0.09338123,0.00726927,-0.10576166,0.09363785,-0.00094252,-0.00022484,0
 .00040409,0.00019218,-0.00004268,0.00003821,0.00005658,0.00003664,-0.0
 0015191,0.00000191,-0.00000160,-0.00001983,-0.00051464,0.00053560,-0.0
 0039055,0.00006995,0.00004829,0.00015349,0.00029006,-0.00035273,-0.000
 21795,-0.00038223,-0.00003079,0.00019627,0.00974476,-0.05263762,0.0280
 6736,-0.01168185,0.05751788,-0.00192411,-0.00053276,-0.00180906,0.0005
 7363,0.00000487,0.00030276,0.00004030,0.00001564,0.00025789,-0.0000063
 0,0.00000352,-0.00001196,0.00077729,0.00027547,0.00044706,-0.00009982,
 -0.00017390,-0.00029844,-0.00076794,0.00025240,0.00115085,0.00037277,0
 .00016911,-0.00013155,-0.09159657,0.02055833,-0.27515208,0.09814985,-0
 .01799845,0.30582251,0.00511125,0.00173361,-0.00073869,-0.00127019,0.0
 0052668,0.00061821,-0.00010397,-0.00035580,-0.00017254,0.00001761,0.00
 005351,0.00001649,-0.00033359,-0.00119370,0.00034829,0.00011606,0.0003
 4801,0.00023213,-0.00060401,-0.00023965,-0.00030576,0.00012759,0.00018
 564,0.00000425,-0.25970235,-0.09369167,-0.01320923,-0.00898388,-0.0054
 4152,-0.00067559,0.29032933,-0.00283503,-0.00212365,-0.00008471,0.0008
 9514,-0.00007533,-0.00034516,-0.00032777,0.00015368,0.00013009,-0.0000
 6714,-0.00000131,0.00003958,-0.00002782,0.00125732,0.00008425,0.000209
 44,-0.00030944,-0.00036107,0.00008030,0.00046811,0.00038407,0.00019691
 ,-0.00018205,0.00006025,-0.09778909,-0.08843876,-0.00261972,0.00278496
 ,0.00160513,0.00070354,0.09389089,0.09941771,-0.00341971,-0.00201704,-
 0.00080334,0.00104122,-0.00010041,-0.00025626,0.00001519,0.00004403,0.
 00015462,0.00001367,-0.00000545,0.00000040,0.00006299,0.00084161,0.000
 03414,-0.00004594,-0.00011420,-0.00017398,-0.00033636,0.00045030,0.001
 09535,0.00033979,0.00010229,-0.00010259,-0.01885639,-0.00147659,-0.055
 51187,-0.02675504,-0.01175517,0.00202479,0.00512159,0.00889142,0.05333
 772,0.00036708,0.00410786,0.00064890,-0.00068945,-0.00070673,0.0001233
 7,0.00096172,-0.00014198,-0.00028048,0.00040546,0.00002230,-0.00010138
 ,-0.00178026,0.00020103,-0.00157919,-0.00117996,0.00059628,0.00082239,
 0.00027404,-0.00106117,-0.00036625,-0.00063504,0.00051724,-0.00008442,
 -0.08464598,-0.01810223,0.00291800,0.00114796,0.00954004,-0.00500325,0
 .00001356,-0.02999078,0.01035133,0.63474093,0.00358614,0.00239768,-0.0
 0174657,-0.00068810,-0.00040650,0.00040990,0.00063316,-0.00037373,-0.0
 0020732,0.00021159,0.00023575,-0.00014998,0.00143328,-0.00269851,-0.00
 102215,-0.00077262,0.00029308,0.00073107,-0.00072543,-0.00097482,0.000
 48709,-0.00041318,0.00070395,-0.00024430,-0.01282410,-0.17258026,0.014
 46438,-0.00284820,0.00426762,-0.00051652,0.00083171,-0.01480544,0.0045
 9674,0.00571443,0.49367923,-0.00276266,-0.00568637,0.00637617,0.000826
 71,0.00144989,-0.00124611,0.00100814,-0.00075839,-0.00196313,0.0005122
 9,0.00009217,-0.00004851,-0.01143953,0.00474901,-0.00629477,0.00017791
 ,0.00203196,0.00316968,0.00107544,0.00007432,-0.00282555,-0.00090979,0
 .00038586,0.00051819,-0.00473555,0.03166591,-0.07634707,0.00210016,0.0
 2721206,-0.00639137,-0.00269424,-0.00596294,0.00199157,-0.01737571,0.0
 5518034,0.51114659,-0.00005113,0.00071039,-0.00015467,0.00002336,-0.00
 024923,-0.00002376,0.00034565,0.00027069,0.00017350,-0.00020624,0.0000
 0790,-0.00006831,-0.00007666,-0.00060335,0.00113609,-0.00179290,-0.000
 08085,0.00101173,-0.00013177,-0.00011132,0.00027833,-0.00011338,0.0002
 4825,-0.00026694,0.00113778,0.00119175,0.00105101,0.00066329,-0.000638
 49,0.00053295,0.00162803,0.00077441,0.00015285,-0.22029980,-0.09956893
 ,-0.07384330,0.23178161,-0.00040577,-0.00187045,-0.00099235,0.00027775
 ,0.00035324,0.00011276,-0.00015757,-0.00038283,0.00007310,-0.00006512,
 -0.00031085,0.00005383,-0.00029866,0.00026256,0.00091219,0.00031550,0.
 00099141,0.00005575,-0.00060733,0.00050716,0.00042727,0.00097320,0.000
 09732,0.00009943,-0.02914031,-0.01713918,-0.00687912,0.00022827,0.0010
 7836,-0.00004354,-0.00007003,-0.00549372,0.00184791,-0.09614655,-0.112
 57156,-0.04415826,0.10779134,0.11832536,0.00019483,-0.00108013,0.00025
 972,0.00000638,0.00028645,0.00000289,-0.00067718,0.00004919,0.00000541
 ,-0.00020283,0.00001438,-0.00021901,0.00036682,0.00105104,0.00107483,0
 .00173573,-0.00016165,-0.00028938,-0.00000354,0.00017035,-0.00030420,-
 0.00009434,-0.00012865,0.00021692,0.00872005,0.00611398,0.00335103,0.0
 0042294,0.00011783,0.00073610,0.00004842,0.00267573,0.00016118,-0.0662
 9804,-0.04247446,-0.07773381,0.08089996,0.04426198,0.10202507,0.000582
 30,-0.00164342,0.00018902,-0.00005327,0.00045528,-0.00000591,-0.000447
 33,-0.00049667,-0.00026707,-0.00004240,0.00002714,0.00006848,-0.001220
 95,0.00064528,0.00063433,0.00062957,0.00047644,0.00009278,-0.00035598,
 0.00030884,-0.00027735,0.00031636,-0.00003166,0.00020040,-0.00152806,-
 0.00317627,0.00000364,0.00011781,0.00077327,0.00003163,0.00146853,0.00
 035139,-0.00024566,-0.22836623,0.09533551,0.06250093,-0.01967008,0.012
 98353,0.00742751,0.24142816,-0.00187829,-0.00112218,0.00031722,0.00055
 658,0.00008360,-0.00020986,-0.00016550,0.00008640,0.00012491,-0.000050
 41,-0.00004279,0.00001643,0.00004802,0.00080789,0.00029949,0.00018477,
 -0.00014976,-0.00026994,0.00021006,0.00030845,0.00023552,0.00010562,-0
 .00015228,0.00001126,0.02719802,-0.01223604,-0.01067452,-0.00016660,-0
 .00046334,0.00117328,-0.00063854,0.00084073,-0.00100638,0.09293261,-0.
 10218369,-0.03515082,-0.01233869,0.00853203,0.00532494,-0.10339959,0.1
 0876351,0.00054375,0.00098442,-0.00074580,-0.00011700,-0.00026631,0.00
 010993,-0.00003043,0.00014648,0.00021121,-0.00003374,-0.00004035,-0.00
 000301,0.00193752,-0.00073462,0.00144061,-0.00001328,-0.00023504,-0.00
 033470,-0.00016347,-0.00008514,0.00034300,0.00010516,-0.00002380,-0.00
 004750,-0.00547692,0.00094173,0.00559901,0.00024943,-0.00121254,-0.000
 52143,-0.00008932,-0.00005146,0.00073742,0.05587315,-0.03117947,-0.067
 19701,-0.00782100,0.00562012,0.00539274,-0.07525295,0.03791223,0.08813
 069,0.01696325,0.00311665,-0.00112565,-0.01326981,0.00334811,0.0061733
 5,0.00019021,-0.00278115,-0.00199235,0.00026602,0.00043412,0.00002646,
 -0.00610386,-0.01573191,0.00563085,0.00017491,0.00324495,0.00319492,-0
 .00880765,-0.00554905,-0.00766595,-0.00191693,0.00170981,0.00021558,-0
 .13320317,0.03971402,0.01585958,0.00766253,-0.00450908,-0.00302594,-0.
 02771613,0.03022758,0.03201201,-0.00507289,0.01101001,0.00682902,0.000
 34282,0.00176649,-0.00035902,0.00169733,0.00189102,-0.00092065,0.27663
 517,0.00163734,-0.02555041,-0.00358024,0.01109534,0.00248582,-0.003719
 69,-0.00058479,-0.00036730,-0.00097331,0.00006050,0.00006457,0.0001626
 3,-0.01313376,-0.00409390,0.00606459,0.00043399,0.00084869,0.00117879,
 -0.00263127,0.00275528,-0.00063449,0.00019908,-0.00023185,0.00053794,0
 .05090882,-0.11190903,-0.03153840,0.00191764,-0.00161022,-0.00374250,0
 .00329140,0.00516433,0.00011257,0.03227851,-0.02824560,-0.02302385,-0.
 00063236,0.00129422,-0.00015175,-0.00059836,-0.00819495,0.00251406,-0.
 10463342,0.18989101,-0.01439785,-0.00872322,-0.02141070,0.01250926,-0.
 00158450,-0.00043575,0.00026570,0.00113894,0.00216439,-0.00012568,-0.0
 0007474,-0.00011223,0.00668575,0.00986253,0.00124861,-0.00046670,-0.00
 215746,-0.00281119,-0.00940523,-0.00249893,0.00082523,-0.00048944,0.00
 060472,-0.00049042,0.05053550,-0.06144477,-0.13023720,0.02684531,-0.02
 756314,-0.02506424,0.01096043,-0.00552816,-0.00493075,0.00174252,-0.00
 016079,-0.00492014,-0.00026357,-0.00051125,0.00047610,-0.00055089,0.00
 043090,0.00071558,0.09514272,0.05146469,0.62017742,-0.00727710,-0.0174
 5093,0.01027022,0.00129887,0.00492586,-0.00069193,-0.00056253,-0.00282
 290,-0.00277788,0.00019020,0.00033526,0.00014702,-0.04545118,0.0205778
 0,-0.00998490,0.00121680,0.00428941,0.00383369,0.00075225,0.00202259,-
 0.00500687,-0.00009713,0.00028907,0.00127326,0.00203900,0.00779313,0.0
 0460828,0.00105239,-0.00095131,0.00047444,0.00069344,0.00168087,-0.001
 03722,-0.09688774,-0.00114746,0.02002194,0.00659176,0.00342527,-0.0263
 5109,0.00337676,-0.00397866,0.03645009,0.00661914,-0.00047040,-0.00480
 008,0.46361313,-0.00445294,-0.00024995,-0.00051167,0.00119506,-0.00002
 389,-0.00026087,-0.00052564,0.00163913,0.00058409,-0.00008266,-0.00018
 140,0.00009949,0.00863463,0.00582828,0.00104984,0.00058510,-0.00213356
 ,-0.00110963,0.00082214,0.00082787,0.00081842,0.00016816,-0.00070950,-
 0.00009187,0.00618594,-0.00460725,0.03580168,-0.00024202,-0.00652882,0
 .00196560,0.00017823,0.00201208,-0.00075850,0.00103601,-0.06642830,0.0
 0113342,0.00168564,0.00536605,-0.01763364,-0.00233658,0.00471761,-0.01
 322115,0.00125188,0.00126104,0.00886100,-0.04785263,0.08156506,0.00316
 315,0.00620800,-0.00695505,-0.00056233,-0.00137895,0.00147609,-0.00077
 942,0.00081513,0.00212032,-0.00034562,-0.00008231,0.00010953,0.0105235
 5,-0.00601905,0.01029063,-0.00031892,-0.00219537,-0.00302884,-0.001396
 24,-0.00038992,0.00379312,0.00098130,-0.00029807,-0.00079984,0.0010015
 7,0.01106080,-0.04070984,0.00101003,0.00463316,-0.00072112,0.00126466,
 0.00137403,0.00121249,-0.02427142,0.00560565,-0.25217286,-0.00329228,-
 0.00011188,-0.03551870,0.00586940,-0.00016878,-0.02716760,-0.00186994,
 -0.00396553,0.00630547,-0.06615662,-0.01291989,0.40791841,0.00842450,0
 .02549643,-0.01517795,-0.00171738,-0.00708076,0.00119502,0.00063885,0.
 00437582,0.00444111,-0.00033304,-0.00045276,-0.00002688,0.01788823,-0.
 01829514,0.01315989,-0.00284370,-0.00719653,-0.00681572,-0.00102570,-0
 .00301432,0.00783104,0.00037003,-0.00060257,-0.00195954,0.00170889,-0.
 00337179,-0.00426431,-0.00006726,0.00145657,-0.00059376,-0.00038795,0.
 00035168,0.00052606,0.00156800,-0.00036077,0.01751045,-0.00015218,-0.0
 0065429,-0.00554070,0.00220102,-0.00066789,-0.00518765,-0.00889956,0.0
 0056561,0.00259244,-0.33427596,0.03540623,0.07581891,0.31414809,0.0051
 1951,-0.00711349,0.00497891,-0.00065137,0.00090623,-0.00029235,0.00048
 084,-0.00221646,-0.00116500,0.00010079,0.00019657,0.00003469,-0.008793
 56,-0.00881301,-0.00312136,-0.00137029,0.00327154,0.00123148,-0.000112
 60,0.00008912,-0.00184599,-0.00012706,0.00051387,0.00040013,-0.0031274
 6,0.00187961,0.00402196,0.00037261,-0.00048709,-0.00017497,0.00026336,
 -0.00015296,-0.00036133,-0.00072734,0.00089775,-0.00309504,0.00140533,
 0.00093345,0.00078354,0.00071491,-0.00007261,-0.00175259,0.00167236,-0
 .00083191,-0.00127619,0.02931154,-0.02763084,-0.00497218,-0.02237437,0
 .04275393,-0.00298712,0.00108530,0.00025930,0.00000545,-0.00046912,-0.
 00042373,0.00048340,-0.00024806,-0.00036131,0.00008483,-0.00003241,0.0
 0005434,0.00247020,-0.00001949,-0.01073090,-0.00161338,0.00023427,0.00
 014475,0.00041164,0.00043226,-0.00107941,-0.00026558,0.00020154,0.0001
 4222,0.00102540,0.00007256,-0.00163961,-0.00005477,-0.00004808,0.00008
 938,-0.00013008,-0.00031487,0.00000467,0.04447751,-0.00411288,-0.02794
 695,0.00043548,-0.00081033,0.00089916,-0.00044930,0.00090325,-0.006036
 61,0.00039076,0.00032103,0.00032367,0.04015243,-0.00381559,-0.06428127
 ,-0.08422357,0.00568827,0.10965365,-0.01082478,-0.00246126,-0.01467389
 ,0.00347073,-0.00050100,0.00221047,0.00020370,0.00065662,0.00087073,-0
 .00003835,-0.00004769,-0.00003839,0.00123547,0.00348743,0.00142645,-0.
 00025222,-0.00108626,-0.00112468,-0.00262456,-0.00091349,0.00060868,-0
 .00031146,0.00023833,-0.00013972,0.00855129,0.00211617,0.02724583,-0.0
 0246902,0.00293631,0.00274042,-0.00040334,-0.00040595,0.00105962,0.000
 07861,0.00059298,0.00119777,-0.00002016,-0.00021574,-0.00029591,-0.000
 13355,0.00015745,-0.00005271,-0.10556140,0.02029610,-0.17678020,-0.002
 89211,-0.00165654,-0.00063978,0.00275510,-0.00215720,-0.00021330,0.109
 23604,-0.00527305,0.00695601,-0.00213330,-0.00180332,-0.00268094,-0.00
 081687,0.00038811,0.00031059,0.00063715,-0.00002446,-0.00002084,-0.000
 07185,0.00415669,-0.00082854,0.00112975,-0.00040437,-0.00059514,-0.000
 68577,-0.00060315,-0.00094332,-0.00000270,-0.00005349,0.00021423,-0.00
 033325,-0.00811896,0.00001975,-0.02620465,0.00250551,-0.00270978,-0.00
 193911,0.00032786,0.00066358,0.00070821,-0.00006955,-0.00120663,-0.006
 13927,0.00013752,0.00002743,0.00078088,-0.00038903,0.00047740,0.000683
 43,0.03381761,-0.02272977,0.03916039,0.00002349,0.00527641,0.00280515,
 -0.00358117,-0.00412370,0.00093233,-0.02103626,0.02189327,-0.00711642,
 -0.00030737,0.00505298,0.00023794,-0.00065626,-0.00213369,0.00001132,0
 .00003834,-0.00016340,0.00000618,-0.00002979,0.00000509,0.00065575,0.0
 0116937,-0.00223785,0.00002340,0.00009287,0.00014400,0.00164288,0.0004
 0722,0.00033663,-0.00004840,-0.00017609,0.00002278,-0.00515942,-0.0025
 0131,-0.02627343,0.00347667,-0.00146485,-0.00073009,-0.00059903,0.0009
 2512,0.00102445,-0.00159704,0.00033925,0.00188507,0.00006192,0.0000424
 0,-0.00053605,0.00003101,0.00073089,-0.00062652,-0.14851574,0.00897346
 ,-0.44182385,-0.00042478,0.00000926,-0.00187095,0.00071515,0.00091800,
 0.00092862,0.15659862,-0.00851050,0.46699620\\-0.00000051,0.00000377,-
 0.00000836,-0.00000297,0.00000837,0.00000942,0.00000706,0.00000579,0.0
 0000549,-0.00000295,-0.00000012,0.00000347,-0.00000630,0.00000511,0.00
 002151,-0.00001038,-0.00001733,-0.00000722,-0.00000338,0.00000089,-0.0
 0001613,-0.00000199,-0.00000061,0.00000403,0.00001156,-0.00001007,-0.0
 0001644,-0.00000453,0.00000121,0.00000236,-0.00000487,0.00000235,-0.00
 000091,-0.00000164,-0.00000714,0.00000361,0.00000080,0.00000106,-0.000
 00203,0.00000032,0.00000142,-0.00000188,0.00000813,0.00000072,0.000015
 42,-0.00001099,0.00000159,0.00000914,0.00002852,-0.00001572,-0.0000152
 4,-0.00000589,0.00001870,-0.00000624\\\@
 The archive entry for this job was punched.


 There ain't no surer way to find out whether you
 like people or hate them than to travel with them.
                                     -- Mark Twain
 Job cpu time:       0 days  3 hours  0 minutes 13.0 seconds.
 Elapsed time:       0 days  0 hours 11 minutes 19.8 seconds.
 File lengths (MBytes):  RWF=    267 Int=      0 D2E=      0 Chk=     15 Scr=      1
 Normal termination of Gaussian 16 at Wed Nov  1 11:45:14 2023.
