 Entering Gaussian System, Link 0=/opt/software/gaussian/g16.c01/g16
 Initial command:
 /opt/software/gaussian/g16.c01/l1.exe "/scratch/arhender/17972276/Gau-11702.inp" -scrdir="/scratch/arhender/17972276/"
 Entering Link 1 = /opt/software/gaussian/g16.c01/l1.exe PID=     11703.
  
 Copyright (c) 1988-2019, Gaussian, Inc.  All Rights Reserved.
  
 This is part of the Gaussian(R) 16 program.  It is based on
 the Gaussian(R) 09 system (copyright 2009, Gaussian, Inc.),
 the Gaussian(R) 03 system (copyright 2003, Gaussian, Inc.),
 the Gaussian(R) 98 system (copyright 1998, Gaussian, Inc.),
 the Gaussian(R) 94 system (copyright 1995, Gaussian, Inc.),
 the Gaussian 92(TM) system (copyright 1992, Gaussian, Inc.),
 the Gaussian 90(TM) system (copyright 1990, Gaussian, Inc.),
 the Gaussian 88(TM) system (copyright 1988, Gaussian, Inc.),
 the Gaussian 86(TM) system (copyright 1986, Carnegie Mellon
 University), and the Gaussian 82(TM) system (copyright 1983,
 Carnegie Mellon University). Gaussian is a federally registered
 trademark of Gaussian, Inc.
  
 This software contains proprietary and confidential information,
 including trade secrets, belonging to Gaussian, Inc.
  
 This software is provided under written license and may be
 used, copied, transmitted, or stored only in accord with that
 written license.
  
 The following legend is applicable only to US Government
 contracts under FAR:
  
                    RESTRICTED RIGHTS LEGEND
  
 Use, reproduction and disclosure by the US Government is
 subject to restrictions as set forth in subparagraphs (a)
 and (c) of the Commercial Computer Software - Restricted
 Rights clause in FAR 52.227-19.
  
 Gaussian, Inc.
 340 Quinnipiac St., Bldg. 40, Wallingford CT 06492
  
  
 ---------------------------------------------------------------
 Warning -- This program may not be used in any manner that
 competes with the business of Gaussian, Inc. or will provide
 assistance to any competitor of Gaussian, Inc.  The licensee
 of this program is prohibited from giving any competitor of
 Gaussian, Inc. access to this program.  By using this program,
 the user acknowledges that Gaussian, Inc. is engaged in the
 business of creating and licensing software in the field of
 computational chemistry and represents and warrants to the
 licensee that it is not a competitor of Gaussian, Inc. and that
 it will not use this program in any manner prohibited above.
 ---------------------------------------------------------------
  

 Cite this work as:
 Gaussian 16, Revision C.01,
 M. J. Frisch, G. W. Trucks, H. B. Schlegel, G. E. Scuseria, 
 M. A. Robb, J. R. Cheeseman, G. Scalmani, V. Barone, 
 G. A. Petersson, H. Nakatsuji, X. Li, M. Caricato, A. V. Marenich, 
 J. Bloino, B. G. Janesko, R. Gomperts, B. Mennucci, H. P. Hratchian, 
 J. V. Ortiz, A. F. Izmaylov, J. L. Sonnenberg, D. Williams-Young, 
 F. Ding, F. Lipparini, F. Egidi, J. Goings, B. Peng, A. Petrone, 
 T. Henderson, D. Ranasinghe, V. G. Zakrzewski, J. Gao, N. Rega, 
 G. Zheng, W. Liang, M. Hada, M. Ehara, K. Toyota, R. Fukuda, 
 J. Hasegawa, M. Ishida, T. Nakajima, Y. Honda, O. Kitao, H. Nakai, 
 T. Vreven, K. Throssell, J. A. Montgomery, Jr., J. E. Peralta, 
 F. Ogliaro, M. J. Bearpark, J. J. Heyd, E. N. Brothers, K. N. Kudin, 
 V. N. Staroverov, T. A. Keith, R. Kobayashi, J. Normand, 
 K. Raghavachari, A. P. Rendell, J. C. Burant, S. S. Iyengar, 
 J. Tomasi, M. Cossi, J. M. Millam, M. Klene, C. Adamo, R. Cammi, 
 J. W. Ochterski, R. L. Martin, K. Morokuma, O. Farkas, 
 J. B. Foresman, and D. J. Fox, Gaussian, Inc., Wallingford CT, 2019.
 
 ******************************************
 Gaussian 16:  ES64L-G16RevC.01  3-Jul-2019
                20-Mar-2024 
 ******************************************
 %chk=IRC_EGdepattackQbiL_ReactantOpt.chk
 %mem=1600MB
 %nprocs=4
 Will use up to    4 processors via shared memory.
 ---------------------------------------------
 # opt freq wb97xd/def2tzvpp geom=connectivity
 ---------------------------------------------
 1/18=20,19=15,26=3,38=1,57=2/1,3;
 2/9=110,12=2,17=6,18=5,40=1/2;
 3/5=44,7=202,11=2,25=1,30=1,71=1,74=-58/1,2,3;
 4//1;
 5/5=2,38=5/2;
 6/7=2,8=2,9=2,10=2,28=1/1;
 7//1,2,3,16;
 1/18=20,19=15,26=3/3(2);
 2/9=110/2;
 99//99;
 2/9=110/2;
 3/5=44,7=202,11=2,25=1,30=1,71=1,74=-58/1,2,3;
 4/5=5,16=3,69=1/1;
 5/5=2,38=5/2;
 7//1,2,3,16;
 1/18=20,19=15,26=3/3(-5);
 2/9=110/2;
 6/7=2,8=2,9=2,10=2,19=2,28=1/1;
 99/9=1/99;
 ----------------------------
 IRC for EGOdep attack on QL2
 ----------------------------
 Symbolic Z-matrix:
 Charge = -1 Multiplicity = 1
 Si                    1.25012   0.58812   0.08706 
 O                     1.82966  -0.6473   -0.85849 
 O                     2.51118   1.39836   0.77272 
 H                     3.05605   0.8344    1.30951 
 O                     0.35321   1.71053  -0.61423 
 O                     0.54929  -0.37992   1.2418 
 C                    -2.34444  -0.7493   -0.87005 
 H                    -2.16963  -1.85337  -0.83835 
 H                    -3.20526  -0.61641  -1.56545 
 C                    -2.84111  -0.35494   0.52575 
 H                    -2.12067  -0.69109   1.28344 
 H                    -3.81215  -0.81693   0.73794 
 O                    -1.24835  -0.0565   -1.26206 
 H                    -0.44577   1.16093  -0.95844 
 O                    -3.00345   1.04634   0.61573 
 H                    -2.27094   1.39102   0.09253 
 C                     0.5562   -1.73329   0.84653 
 H                    -0.45455  -2.14267   0.90947 
 H                     1.2009   -2.29644   1.53337 
 C                     1.08299  -1.82219  -0.60645 
 H                     1.73446  -2.69174  -0.73489 
 H                     0.24509  -1.86789  -1.30352 
 
 Add virtual bond connecting atoms H14        and O5         Dist= 1.94D+00.
 Add virtual bond connecting atoms H14        and O13        Dist= 2.81D+00.

 GradGradGradGradGradGradGradGradGradGradGradGradGradGradGradGradGradGrad
 Berny optimization.
 Initialization pass.
                           ----------------------------
                           !    Initial Parameters    !
                           ! (Angstroms and Degrees)  !
 --------------------------                            --------------------------
 ! Name  Definition              Value          Derivative Info.                !
 --------------------------------------------------------------------------------
 ! R1    R(1,2)                  1.6602         estimate D2E/DX2                !
 ! R2    R(1,3)                  1.6483         estimate D2E/DX2                !
 ! R3    R(1,5)                  1.5988         estimate D2E/DX2                !
 ! R4    R(1,6)                  1.6618         estimate D2E/DX2                !
 ! R5    R(2,20)                 1.4147         estimate D2E/DX2                !
 ! R6    R(3,4)                  0.9503         estimate D2E/DX2                !
 ! R7    R(5,14)                 1.029          estimate D2E/DX2                !
 ! R8    R(6,17)                 1.4099         estimate D2E/DX2                !
 ! R9    R(7,8)                  1.1183         estimate D2E/DX2                !
 ! R10   R(7,9)                  1.1146         estimate D2E/DX2                !
 ! R11   R(7,10)                 1.5331         estimate D2E/DX2                !
 ! R12   R(7,13)                 1.3546         estimate D2E/DX2                !
 ! R13   R(10,11)                1.0982         estimate D2E/DX2                !
 ! R14   R(10,12)                1.0961         estimate D2E/DX2                !
 ! R15   R(10,15)                1.4135         estimate D2E/DX2                !
 ! R16   R(13,14)                1.4894         estimate D2E/DX2                !
 ! R17   R(15,16)                0.9639         estimate D2E/DX2                !
 ! R18   R(17,18)                1.0923         estimate D2E/DX2                !
 ! R19   R(17,19)                1.0975         estimate D2E/DX2                !
 ! R20   R(17,20)                1.5481         estimate D2E/DX2                !
 ! R21   R(20,21)                1.0941         estimate D2E/DX2                !
 ! R22   R(20,22)                1.0909         estimate D2E/DX2                !
 ! A1    A(2,1,3)              109.6117         estimate D2E/DX2                !
 ! A2    A(2,1,5)              117.9327         estimate D2E/DX2                !
 ! A3    A(2,1,6)               96.2862         estimate D2E/DX2                !
 ! A4    A(3,1,5)              105.4605         estimate D2E/DX2                !
 ! A5    A(3,1,6)              108.6592         estimate D2E/DX2                !
 ! A6    A(5,1,6)              118.5            estimate D2E/DX2                !
 ! A7    A(1,2,20)             109.4077         estimate D2E/DX2                !
 ! A8    A(1,3,4)              112.4521         estimate D2E/DX2                !
 ! A9    A(1,5,14)             101.9672         estimate D2E/DX2                !
 ! A10   A(1,6,17)             111.2401         estimate D2E/DX2                !
 ! A11   A(8,7,9)              104.8411         estimate D2E/DX2                !
 ! A12   A(8,7,10)             106.1888         estimate D2E/DX2                !
 ! A13   A(8,7,13)             112.7458         estimate D2E/DX2                !
 ! A14   A(9,7,10)             106.688          estimate D2E/DX2                !
 ! A15   A(9,7,13)             112.544          estimate D2E/DX2                !
 ! A16   A(10,7,13)            113.2059         estimate D2E/DX2                !
 ! A17   A(7,10,11)            109.6864         estimate D2E/DX2                !
 ! A18   A(7,10,12)            110.7832         estimate D2E/DX2                !
 ! A19   A(7,10,15)            110.4974         estimate D2E/DX2                !
 ! A20   A(11,10,12)           108.577          estimate D2E/DX2                !
 ! A21   A(11,10,15)           109.5637         estimate D2E/DX2                !
 ! A22   A(12,10,15)           107.685          estimate D2E/DX2                !
 ! A23   A(7,13,14)            142.658          estimate D2E/DX2                !
 ! A24   A(5,14,13)            157.3863         estimate D2E/DX2                !
 ! A25   A(10,15,16)           103.454          estimate D2E/DX2                !
 ! A26   A(6,17,18)            109.8192         estimate D2E/DX2                !
 ! A27   A(6,17,19)            108.6608         estimate D2E/DX2                !
 ! A28   A(6,17,20)            108.658          estimate D2E/DX2                !
 ! A29   A(18,17,19)           108.372          estimate D2E/DX2                !
 ! A30   A(18,17,20)           110.3302         estimate D2E/DX2                !
 ! A31   A(19,17,20)           110.9786         estimate D2E/DX2                !
 ! A32   A(2,20,17)            107.4046         estimate D2E/DX2                !
 ! A33   A(2,20,21)            108.957          estimate D2E/DX2                !
 ! A34   A(2,20,22)            109.0463         estimate D2E/DX2                !
 ! A35   A(17,20,21)           111.0046         estimate D2E/DX2                !
 ! A36   A(17,20,22)           109.9236         estimate D2E/DX2                !
 ! A37   A(21,20,22)           110.4294         estimate D2E/DX2                !
 ! D1    D(3,1,2,20)           134.8314         estimate D2E/DX2                !
 ! D2    D(5,1,2,20)          -104.5564         estimate D2E/DX2                !
 ! D3    D(6,1,2,20)            22.4391         estimate D2E/DX2                !
 ! D4    D(2,1,3,4)            -59.0104         estimate D2E/DX2                !
 ! D5    D(5,1,3,4)            173.0739         estimate D2E/DX2                !
 ! D6    D(6,1,3,4)             45.0539         estimate D2E/DX2                !
 ! D7    D(2,1,5,14)            61.3762         estimate D2E/DX2                !
 ! D8    D(3,1,5,14)          -175.8849         estimate D2E/DX2                !
 ! D9    D(6,1,5,14)           -54.0216         estimate D2E/DX2                !
 ! D10   D(2,1,6,17)            -8.8856         estimate D2E/DX2                !
 ! D11   D(3,1,6,17)          -122.0647         estimate D2E/DX2                !
 ! D12   D(5,1,6,17)           117.7028         estimate D2E/DX2                !
 ! D13   D(1,2,20,17)          -27.8878         estimate D2E/DX2                !
 ! D14   D(1,2,20,21)         -148.2096         estimate D2E/DX2                !
 ! D15   D(1,2,20,22)           91.1914         estimate D2E/DX2                !
 ! D16   D(1,5,14,13)           -6.7811         estimate D2E/DX2                !
 ! D17   D(1,6,17,18)         -126.8398         estimate D2E/DX2                !
 ! D18   D(1,6,17,19)          114.779          estimate D2E/DX2                !
 ! D19   D(1,6,17,20)           -6.077          estimate D2E/DX2                !
 ! D20   D(8,7,10,11)           55.0323         estimate D2E/DX2                !
 ! D21   D(8,7,10,12)          -64.8152         estimate D2E/DX2                !
 ! D22   D(8,7,10,15)          175.925          estimate D2E/DX2                !
 ! D23   D(9,7,10,11)          166.469          estimate D2E/DX2                !
 ! D24   D(9,7,10,12)           46.6215         estimate D2E/DX2                !
 ! D25   D(9,7,10,15)          -72.6382         estimate D2E/DX2                !
 ! D26   D(13,7,10,11)         -69.1975         estimate D2E/DX2                !
 ! D27   D(13,7,10,12)         170.955          estimate D2E/DX2                !
 ! D28   D(13,7,10,15)          51.6952         estimate D2E/DX2                !
 ! D29   D(8,7,13,14)         -137.0699         estimate D2E/DX2                !
 ! D30   D(9,7,13,14)          104.5868         estimate D2E/DX2                !
 ! D31   D(10,7,13,14)         -16.4947         estimate D2E/DX2                !
 ! D32   D(7,10,15,16)         -36.7582         estimate D2E/DX2                !
 ! D33   D(11,10,15,16)         84.2075         estimate D2E/DX2                !
 ! D34   D(12,10,15,16)       -157.8764         estimate D2E/DX2                !
 ! D35   D(7,13,14,5)          107.6421         estimate D2E/DX2                !
 ! D36   D(6,17,20,2)           21.6438         estimate D2E/DX2                !
 ! D37   D(6,17,20,21)         140.6586         estimate D2E/DX2                !
 ! D38   D(6,17,20,22)         -96.8707         estimate D2E/DX2                !
 ! D39   D(18,17,20,2)         142.0909         estimate D2E/DX2                !
 ! D40   D(18,17,20,21)        -98.8943         estimate D2E/DX2                !
 ! D41   D(18,17,20,22)         23.5764         estimate D2E/DX2                !
 ! D42   D(19,17,20,2)         -97.7732         estimate D2E/DX2                !
 ! D43   D(19,17,20,21)         21.2416         estimate D2E/DX2                !
 ! D44   D(19,17,20,22)        143.7124         estimate D2E/DX2                !
 --------------------------------------------------------------------------------
 Trust Radius=3.00D-01 FncErr=1.00D-07 GrdErr=1.00D-06 EigMax=2.50D+02 EigMin=1.00D-04
 Number of steps in this run=    113 maximum allowed number of steps=    132.
 GradGradGradGradGradGradGradGradGradGradGradGradGradGradGradGradGradGrad

                          Input orientation:                          
 ---------------------------------------------------------------------
 Center     Atomic      Atomic             Coordinates (Angstroms)
 Number     Number       Type             X           Y           Z
 ---------------------------------------------------------------------
      1         14           0        1.250119    0.588120    0.087061
      2          8           0        1.829663   -0.647301   -0.858492
      3          8           0        2.511177    1.398362    0.772724
      4          1           0        3.056050    0.834397    1.309505
      5          8           0        0.353207    1.710525   -0.614228
      6          8           0        0.549289   -0.379919    1.241797
      7          6           0       -2.344442   -0.749303   -0.870049
      8          1           0       -2.169629   -1.853372   -0.838354
      9          1           0       -3.205260   -0.616409   -1.565448
     10          6           0       -2.841110   -0.354935    0.525746
     11          1           0       -2.120672   -0.691090    1.283443
     12          1           0       -3.812149   -0.816934    0.737940
     13          8           0       -1.248348   -0.056503   -1.262064
     14          1           0       -0.445769    1.160926   -0.958438
     15          8           0       -3.003447    1.046340    0.615725
     16          1           0       -2.270937    1.391023    0.092526
     17          6           0        0.556202   -1.733289    0.846527
     18          1           0       -0.454547   -2.142667    0.909466
     19          1           0        1.200895   -2.296437    1.533370
     20          6           0        1.082990   -1.822193   -0.606451
     21          1           0        1.734460   -2.691743   -0.734886
     22          1           0        0.245085   -1.867885   -1.303520
 ---------------------------------------------------------------------
                    Distance matrix (angstroms):
                    1          2          3          4          5
     1  Si   0.000000
     2  O    1.660183   0.000000
     3  O    1.648300   2.703713   0.000000
     4  H    2.194632   2.898218   0.950304   0.000000
     5  O    1.598765   2.792657   2.584166   3.431284   0.000000
     6  O    1.661830   2.474281   2.689111   2.786216   2.802362
     7  C    3.952927   4.175367   5.557716   6.035220   3.659714
     8  H    4.302552   4.177242   5.922777   6.256606   4.372219
     9  H    4.902252   5.084407   6.496461   7.040895   4.356848
    10  C    4.221368   4.880339   5.637555   6.066736   3.971061
    11  H    3.798676   4.493879   5.106924   5.396873   3.935605
    12  H    5.293806   5.865783   6.700239   7.087012   5.056342
    13  O    2.911703   3.160073   4.515642   5.092594   2.471246
    14  H    2.072972   2.908138   3.434651   4.184844   1.029030
    15  O    4.310716   5.329230   5.528078   6.102766   3.636076
    16  H    3.611443   4.676978   4.830252   5.492510   2.736369
    17  C    2.539143   2.389176   3.692508   3.613392   3.746314
    18  H    3.322564   3.252601   4.620942   4.620307   4.221516
    19  H    3.227213   2.972541   3.993365   3.646071   4.624554
    20  C    2.513663   1.414714   3.783360   3.823784   3.607318
    21  H    3.415799   2.050387   4.427769   4.284833   4.615450
    22  H    2.995959   2.049088   4.484900   4.693799   3.645796
                    6          7          8          9         10
     6  O    0.000000
     7  C    3.601391   0.000000
     8  H    3.727010   1.118272   0.000000
     9  H    4.693953   1.114562   1.769541   0.000000
    10  C    3.465279   1.533117   2.134706   2.138707   0.000000
    11  H    2.688355   2.165869   2.419777   3.049277   1.098242
    12  H    4.412142   2.178157   2.501355   2.390423   1.096078
    13  O    3.099261   1.354647   2.063256   2.057922   2.412927
    14  H    2.864503   2.694763   3.474494   3.337989   3.199734
    15  O    3.879190   2.422013   3.349318   2.750087   1.413514
    16  H    3.522887   2.347967   3.376818   2.766156   1.887100
    17  C    1.409928   3.511210   3.206774   4.605827   3.680284
    18  H    2.055580   2.946157   2.465780   4.002635   3.006478
    19  H    2.045152   4.554060   4.145095   5.642638   4.595927
    20  C    2.404373   3.601092   3.261025   4.556608   4.339732
    21  H    3.264420   4.519821   3.994431   5.421963   5.290152
    22  H    2.963987   2.853905   2.459153   3.679630   3.893563
                   11         12         13         14         15
    11  H    0.000000
    12  H    1.781714   0.000000
    13  O    2.764644   3.339363   0.000000
    14  H    3.355785   4.257011   1.489448   0.000000
    15  O    2.060049   2.034877   2.796914   3.005468   0.000000
    16  H    2.403343   2.768929   2.230680   2.118657   0.963906
    17  C    2.905637   4.464749   3.242556   3.555042   4.522246
    18  H    2.241184   3.613929   3.114120   3.795111   4.093036
    19  H    3.697622   5.286989   4.339418   4.568804   5.449103
    20  C    3.887743   5.174970   2.997103   3.370460   5.140152
    21  H    4.789395   6.037300   4.014916   4.432430   6.184269
    22  H    3.697841   4.661889   2.348013   3.125709   4.767512
                   16         17         18         19         20
    16  H    0.000000
    17  C    4.280486   0.000000
    18  H    4.056307   1.092321   0.000000
    19  H    5.265644   1.097505   1.775779   0.000000
    20  C    4.697037   1.548081   2.182826   2.194913   0.000000
    21  H    5.778996   2.192668   2.792334   2.363460   1.094087
    22  H    4.347389   2.176606   2.337156   3.024099   1.090907
                   21         22
    21  H    0.000000
    22  H    1.794526   0.000000
 Stoichiometry    C4H11O6Si(1-)
 Framework group  C1[X(C4H11O6Si)]
 Deg. of freedom    60
 Full point group                 C1      NOp   1
 Largest Abelian subgroup         C1      NOp   1
 Largest concise Abelian subgroup C1      NOp   1
                         Standard orientation:                         
 ---------------------------------------------------------------------
 Center     Atomic      Atomic             Coordinates (Angstroms)
 Number     Number       Type             X           Y           Z
 ---------------------------------------------------------------------
      1         14           0       -1.322443   -0.575420   -0.054012
      2          8           0       -1.794920    0.792274   -0.867883
      3          8           0       -2.653209   -1.396026    0.468062
      4          1           0       -3.199446   -0.873058    1.043567
      5          8           0       -0.441661   -1.650483   -0.844272
      6          8           0       -0.640168    0.210393    1.241626
      7          6           0        2.374350    0.680587   -0.671910
      8          1           0        2.248299    1.780456   -0.514013
      9          1           0        3.263634    0.587775   -1.337348
     10          6           0        2.778573    0.097231    0.687041
     11          1           0        2.035261    0.376926    1.445588
     12          1           0        3.757040    0.480108    0.999120
     13          8           0        1.270129    0.096784   -1.196258
     14          1           0        0.398380   -1.105409   -1.081188
     15          8           0        2.872319   -1.311223    0.612949
     16          1           0        2.153471   -1.552844    0.017978
     17          6           0       -0.564984    1.599867    1.014460
     18          1           0        0.458562    1.946374    1.173999
     19          1           0       -1.218727    2.109209    1.733979
     20          6           0       -1.010083    1.888737   -0.439843
     21          1           0       -1.613845    2.799682   -0.491570
     22          1           0       -0.135480    1.974368   -1.086228
 ---------------------------------------------------------------------
 Rotational constants (GHZ):           1.4468364           0.6924477           0.6016477
 Standard basis: def2TZVPP (5D, 7F)
 There are   573 symmetry adapted cartesian basis functions of A   symmetry.
 There are   506 symmetry adapted basis functions of A   symmetry.
   506 basis functions,   766 primitive gaussians,   573 cartesian basis functions
    49 alpha electrons       49 beta electrons
       nuclear repulsion energy       844.4675118508 Hartrees.
 NAtoms=   22 NActive=   22 NUniq=   22 SFac= 1.00D+00 NAtFMM=   60 NAOKFM=F Big=F
 Integral buffers will be    131072 words long.
 Raffenetti 2 integral format.
 Two-electron integral symmetry is turned on.
 Nuclear repulsion after empirical dispersion term =      844.4526792774 Hartrees.
 One-electron integrals computed using PRISM.
   1 Symmetry operations used in ECPInt.
 ECPInt:  NShTT=   18145 NPrTT=   50058 LenC2=   17180 LenP2D=   36705.
 LDataN:  DoStor=T MaxTD1= 6 Len=  172
 NBasis=   506 RedAO= T EigKep=  2.07D-04  NBF=   506
 NBsUse=   506 1.00D-06 EigRej= -1.00D+00 NBFU=   506
 ExpMin= 7.01D-02 ExpMax= 4.48D+04 ExpMxC= 1.53D+03 IAcc=3 IRadAn=         5 AccDes= 0.00D+00
 Harris functional with IExCor= 4639 and IRadAn=       5 diagonalized for initial guess.
 HarFok:  IExCor= 4639 AccDes= 0.00D+00 IRadAn=         5 IDoV= 1 UseB2=F ITyADJ=14
 ICtDFT=  3500011 ScaDFX=  1.000000  1.000000  1.000000  1.000000
 FoFCou: FMM=F IPFlag=           0 FMFlag=      100000 FMFlg1=           0
         NFxFlg=           0 DoJE=T BraDBF=F KetDBF=T FulRan=T
         wScrn=  0.000000 ICntrl=       500 IOpCl=  0 I1Cent=   200000004 NGrid=           0
         NMat0=    1 NMatS0=      1 NMatT0=    0 NMatD0=    1 NMtDS0=    0 NMtDT0=    0
 Petite list used in FoFCou.
 Requested convergence on RMS density matrix=1.00D-08 within 128 cycles.
 Requested convergence on MAX density matrix=1.00D-06.
 Requested convergence on             energy=1.00D-06.
 No special actions if energy rises.
 Integral accuracy reduced to 1.0D-05 until final iterations.
 Initial convergence to 1.0D-05 achieved.  Increase integral accuracy.
 SCF Done:  E(RwB97XD) =  -900.182764671     A.U. after   15 cycles
            NFock= 15  Conv=0.32D-08     -V/T= 2.0035

 **********************************************************************

            Population analysis using the SCF Density.

 **********************************************************************

 Orbital symmetries:
       Occupied  (A) (A) (A) (A) (A) (A) (A) (A) (A) (A) (A) (A)
                 (A) (A) (A) (A) (A) (A) (A) (A) (A) (A) (A) (A)
                 (A) (A) (A) (A) (A) (A) (A) (A) (A) (A) (A) (A)
                 (A) (A) (A) (A) (A) (A) (A) (A) (A) (A) (A) (A)
                 (A)
       Virtual   (A) (A) (A) (A) (A) (A) (A) (A) (A) (A) (A) (A)
                 (A) (A) (A) (A) (A) (A) (A) (A) (A) (A) (A) (A)
                 (A) (A) (A) (A) (A) (A) (A) (A) (A) (A) (A) (A)
                 (A) (A) (A) (A) (A) (A) (A) (A) (A) (A) (A) (A)
                 (A) (A) (A) (A) (A) (A) (A) (A) (A) (A) (A) (A)
                 (A) (A) (A) (A) (A) (A) (A) (A) (A) (A) (A) (A)
                 (A) (A) (A) (A) (A) (A) (A) (A) (A) (A) (A) (A)
                 (A) (A) (A) (A) (A) (A) (A) (A) (A) (A) (A) (A)
                 (A) (A) (A) (A) (A) (A) (A) (A) (A) (A) (A) (A)
                 (A) (A) (A) (A) (A) (A) (A) (A) (A) (A) (A) (A)
                 (A) (A) (A) (A) (A) (A) (A) (A) (A) (A) (A) (A)
                 (A) (A) (A) (A) (A) (A) (A) (A) (A) (A) (A) (A)
                 (A) (A) (A) (A) (A) (A) (A) (A) (A) (A) (A) (A)
                 (A) (A) (A) (A) (A) (A) (A) (A) (A) (A) (A) (A)
                 (A) (A) (A) (A) (A) (A) (A) (A) (A) (A) (A) (A)
                 (A) (A) (A) (A) (A) (A) (A) (A) (A) (A) (A) (A)
                 (A) (A) (A) (A) (A) (A) (A) (A) (A) (A) (A) (A)
                 (A) (A) (A) (A) (A) (A) (A) (A) (A) (A) (A) (A)
                 (A) (A) (A) (A) (A) (A) (A) (A) (A) (A) (A) (A)
                 (A) (A) (A) (A) (A) (A) (A) (A) (A) (A) (A) (A)
                 (A) (A) (A) (A) (A) (A) (A) (A) (A) (A) (A) (A)
                 (A) (A) (A) (A) (A) (A) (A) (A) (A) (A) (A) (A)
                 (A) (A) (A) (A) (A) (A) (A) (A) (A) (A) (A) (A)
                 (A) (A) (A) (A) (A) (A) (A) (A) (A) (A) (A) (A)
                 (A) (A) (A) (A) (A) (A) (A) (A) (A) (A) (A) (A)
                 (A) (A) (A) (A) (A) (A) (A) (A) (A) (A) (A) (A)
                 (A) (A) (A) (A) (A) (A) (A) (A) (A) (A) (A) (A)
                 (A) (A) (A) (A) (A) (A) (A) (A) (A) (A) (A) (A)
                 (A) (A) (A) (A) (A) (A) (A) (A) (A) (A) (A) (A)
                 (A) (A) (A) (A) (A) (A) (A) (A) (A) (A) (A) (A)
                 (A) (A) (A) (A) (A) (A) (A) (A) (A) (A) (A) (A)
                 (A) (A) (A) (A) (A) (A) (A) (A) (A) (A) (A) (A)
                 (A) (A) (A) (A) (A) (A) (A) (A) (A) (A) (A) (A)
                 (A) (A) (A) (A) (A) (A) (A) (A) (A) (A) (A) (A)
                 (A) (A) (A) (A) (A) (A) (A) (A) (A) (A) (A) (A)
                 (A) (A) (A) (A) (A) (A) (A) (A) (A) (A) (A) (A)
                 (A) (A) (A) (A) (A) (A) (A) (A) (A) (A) (A) (A)
                 (A) (A) (A) (A) (A) (A) (A) (A) (A) (A) (A) (A)
                 (A)
 The electronic state is 1-A.
 Alpha  occ. eigenvalues --  -66.15117 -19.11338 -19.10455 -19.10306 -19.08635
 Alpha  occ. eigenvalues --  -19.06728 -18.99304 -10.20536 -10.19704 -10.16374
 Alpha  occ. eigenvalues --  -10.15217  -5.26935  -3.61536  -3.61461  -3.61251
 Alpha  occ. eigenvalues --   -1.01117  -0.97003  -0.96730  -0.94986  -0.92368
 Alpha  occ. eigenvalues --   -0.86386  -0.69491  -0.64877  -0.57628  -0.52804
 Alpha  occ. eigenvalues --   -0.50767  -0.46267  -0.45406  -0.43402  -0.42660
 Alpha  occ. eigenvalues --   -0.40680  -0.38602  -0.38273  -0.36862  -0.36007
 Alpha  occ. eigenvalues --   -0.33519  -0.32527  -0.31725  -0.29311  -0.28157
 Alpha  occ. eigenvalues --   -0.27893  -0.26322  -0.26217  -0.25245  -0.24559
 Alpha  occ. eigenvalues --   -0.21274  -0.20577  -0.13869  -0.13030
 Alpha virt. eigenvalues --    0.22183   0.23954   0.26147   0.27716   0.27888
 Alpha virt. eigenvalues --    0.29379   0.29876   0.31054   0.32127   0.32958
 Alpha virt. eigenvalues --    0.34215   0.36718   0.37007   0.37583   0.38652
 Alpha virt. eigenvalues --    0.39823   0.40126   0.40932   0.41509   0.41613
 Alpha virt. eigenvalues --    0.42680   0.43635   0.44734   0.46268   0.47279
 Alpha virt. eigenvalues --    0.49545   0.51011   0.51799   0.53133   0.53992
 Alpha virt. eigenvalues --    0.54940   0.56497   0.57103   0.57423   0.58056
 Alpha virt. eigenvalues --    0.58474   0.59483   0.59628   0.60922   0.62120
 Alpha virt. eigenvalues --    0.63249   0.63814   0.64875   0.65656   0.65810
 Alpha virt. eigenvalues --    0.67401   0.67778   0.68294   0.68599   0.69962
 Alpha virt. eigenvalues --    0.70866   0.71875   0.72190   0.72554   0.74026
 Alpha virt. eigenvalues --    0.75582   0.75885   0.76328   0.78473   0.79459
 Alpha virt. eigenvalues --    0.80188   0.80825   0.83348   0.83602   0.84585
 Alpha virt. eigenvalues --    0.87682   0.88252   0.89327   0.90245   0.91382
 Alpha virt. eigenvalues --    0.92379   0.92878   0.93306   0.96359   0.97601
 Alpha virt. eigenvalues --    0.98318   1.00490   1.01400   1.02338   1.03411
 Alpha virt. eigenvalues --    1.04182   1.05007   1.06440   1.07971   1.09184
 Alpha virt. eigenvalues --    1.10194   1.11125   1.11945   1.12698   1.14217
 Alpha virt. eigenvalues --    1.15198   1.16892   1.18116   1.19525   1.20301
 Alpha virt. eigenvalues --    1.22309   1.23655   1.24102   1.24828   1.26535
 Alpha virt. eigenvalues --    1.26903   1.27279   1.28854   1.30294   1.31119
 Alpha virt. eigenvalues --    1.32374   1.33694   1.34169   1.35616   1.36818
 Alpha virt. eigenvalues --    1.38619   1.38864   1.40202   1.41640   1.42662
 Alpha virt. eigenvalues --    1.44491   1.46020   1.46779   1.47524   1.48886
 Alpha virt. eigenvalues --    1.50255   1.50962   1.51747   1.53986   1.54354
 Alpha virt. eigenvalues --    1.55337   1.55903   1.58819   1.60216   1.60942
 Alpha virt. eigenvalues --    1.62627   1.64074   1.65023   1.65793   1.66643
 Alpha virt. eigenvalues --    1.68920   1.69229   1.73678   1.74295   1.75706
 Alpha virt. eigenvalues --    1.75864   1.77554   1.78358   1.79419   1.83190
 Alpha virt. eigenvalues --    1.83530   1.85608   1.88012   1.90677   1.92339
 Alpha virt. eigenvalues --    1.93390   1.97077   1.99034   1.99803   2.01804
 Alpha virt. eigenvalues --    2.06023   2.06091   2.09009   2.10518   2.13353
 Alpha virt. eigenvalues --    2.13751   2.14311   2.15633   2.17199   2.19338
 Alpha virt. eigenvalues --    2.20235   2.20652   2.23234   2.23358   2.26351
 Alpha virt. eigenvalues --    2.27733   2.29227   2.30361   2.31730   2.32515
 Alpha virt. eigenvalues --    2.35573   2.36962   2.40403   2.42784   2.43926
 Alpha virt. eigenvalues --    2.46145   2.46591   2.47787   2.49119   2.51083
 Alpha virt. eigenvalues --    2.54572   2.56899   2.59050   2.60729   2.61647
 Alpha virt. eigenvalues --    2.63174   2.69681   2.70925   2.72647   2.77019
 Alpha virt. eigenvalues --    2.78951   2.82246   2.84110   2.84571   2.84822
 Alpha virt. eigenvalues --    2.88457   2.89834   2.91090   2.92982   2.93670
 Alpha virt. eigenvalues --    2.94112   2.95945   2.97732   2.98288   3.00510
 Alpha virt. eigenvalues --    3.03014   3.04354   3.04878   3.07840   3.09851
 Alpha virt. eigenvalues --    3.10294   3.11376   3.11665   3.13141   3.15295
 Alpha virt. eigenvalues --    3.17474   3.18666   3.19647   3.20675   3.22344
 Alpha virt. eigenvalues --    3.24618   3.25544   3.26147   3.26384   3.31786
 Alpha virt. eigenvalues --    3.32156   3.33698   3.36122   3.36511   3.37223
 Alpha virt. eigenvalues --    3.38549   3.38968   3.40878   3.41652   3.43348
 Alpha virt. eigenvalues --    3.44081   3.45552   3.46257   3.48025   3.49678
 Alpha virt. eigenvalues --    3.51427   3.53116   3.55318   3.56254   3.56709
 Alpha virt. eigenvalues --    3.58788   3.60121   3.60809   3.62704   3.62949
 Alpha virt. eigenvalues --    3.64037   3.67133   3.67988   3.71178   3.73666
 Alpha virt. eigenvalues --    3.75660   3.76136   3.79447   3.80337   3.80636
 Alpha virt. eigenvalues --    3.82829   3.84861   3.85733   3.86556   3.87415
 Alpha virt. eigenvalues --    3.87745   3.88825   3.89273   3.91045   3.92105
 Alpha virt. eigenvalues --    3.93112   3.95039   3.95828   3.98034   3.99505
 Alpha virt. eigenvalues --    4.02089   4.03595   4.03655   4.04409   4.05830
 Alpha virt. eigenvalues --    4.07245   4.08334   4.11934   4.12437   4.14857
 Alpha virt. eigenvalues --    4.16181   4.16683   4.19635   4.20572   4.24323
 Alpha virt. eigenvalues --    4.25543   4.26459   4.27043   4.29764   4.30963
 Alpha virt. eigenvalues --    4.31594   4.32424   4.34968   4.35740   4.36241
 Alpha virt. eigenvalues --    4.38089   4.38518   4.40626   4.42454   4.42945
 Alpha virt. eigenvalues --    4.45651   4.47107   4.48584   4.49846   4.52971
 Alpha virt. eigenvalues --    4.54512   4.56465   4.56961   4.59469   4.62314
 Alpha virt. eigenvalues --    4.63621   4.64812   4.65815   4.71323   4.73346
 Alpha virt. eigenvalues --    4.74308   4.77353   4.78037   4.82859   4.83853
 Alpha virt. eigenvalues --    4.86461   4.88451   4.89400   4.91882   4.92835
 Alpha virt. eigenvalues --    4.97709   4.99632   5.00438   5.01879   5.04634
 Alpha virt. eigenvalues --    5.06342   5.09789   5.11263   5.12757   5.13072
 Alpha virt. eigenvalues --    5.16798   5.17284   5.17575   5.18298   5.21031
 Alpha virt. eigenvalues --    5.22221   5.25876   5.28227   5.30240   5.32444
 Alpha virt. eigenvalues --    5.33567   5.35391   5.37997   5.38813   5.44478
 Alpha virt. eigenvalues --    5.46662   5.47271   5.48925   5.51455   5.52516
 Alpha virt. eigenvalues --    5.53669   5.56449   5.58486   5.59384   5.62359
 Alpha virt. eigenvalues --    5.62470   5.66339   5.67423   5.68706   5.68853
 Alpha virt. eigenvalues --    5.71006   5.72324   5.72846   5.75355   5.77258
 Alpha virt. eigenvalues --    5.78601   5.83681   5.84547   5.85583   5.86191
 Alpha virt. eigenvalues --    5.86872   5.89396   5.95351   5.95448   5.98904
 Alpha virt. eigenvalues --    6.03395   6.11046   6.14532   6.16503   6.17570
 Alpha virt. eigenvalues --    6.17981   6.24748   6.29065   6.33255   6.34972
 Alpha virt. eigenvalues --    6.37089   6.45064   6.46692   6.51458   6.65071
 Alpha virt. eigenvalues --    6.70386   6.73895   6.80845   6.82840   6.83832
 Alpha virt. eigenvalues --    6.85774   6.86969   6.87945   6.89601   6.90386
 Alpha virt. eigenvalues --    6.92041   6.93330   6.93519   6.95632   6.97260
 Alpha virt. eigenvalues --    6.99510   7.01681   7.02637   7.04692   7.05354
 Alpha virt. eigenvalues --    7.13320   7.15361   7.16401   7.21403   7.26369
 Alpha virt. eigenvalues --    7.28242   7.32219   7.34940   7.36279   7.40132
 Alpha virt. eigenvalues --    7.42140   7.48652   7.53343   7.56757   7.61323
 Alpha virt. eigenvalues --    7.64049   7.70582   7.74960   7.82654   7.94089
 Alpha virt. eigenvalues --    8.16498  12.53705  23.46242  23.55158  23.59613
 Alpha virt. eigenvalues --   23.70659  43.98341  44.12598  44.26078  44.34449
 Alpha virt. eigenvalues --   44.50361  44.56720
          Condensed to atoms (all electrons):
               1          2          3          4          5          6
     1  Si  11.559892   0.408249   0.456810  -0.020209   0.504476   0.381116
     2  O    0.408249   7.941824  -0.031350  -0.000593  -0.020579  -0.021419
     3  O    0.456810  -0.031350   7.741698   0.314782  -0.026839  -0.031874
     4  H   -0.020209  -0.000593   0.314782   0.554684   0.001941   0.000235
     5  O    0.504476  -0.020579  -0.026839   0.001941   7.854822  -0.018892
     6  O    0.381116  -0.021419  -0.031874   0.000235  -0.018892   7.973307
     7  C    0.001502   0.001454   0.000068  -0.000005   0.004580  -0.000687
     8  H   -0.008887   0.000372   0.000007  -0.000003  -0.000867   0.001069
     9  H    0.001141  -0.000042  -0.000002   0.000000  -0.000082  -0.000184
    10  C    0.003322  -0.000603  -0.000096  -0.000003   0.001310  -0.003819
    11  H   -0.004733   0.000105   0.000017  -0.000006  -0.000072   0.010827
    12  H    0.000261  -0.000000  -0.000001   0.000000  -0.000042   0.000305
    13  O    0.035635  -0.004778  -0.000327   0.000054  -0.084424  -0.007217
    14  H   -0.037692  -0.001009   0.001783  -0.000213   0.289681   0.002518
    15  O    0.003598  -0.000003  -0.000001   0.000002  -0.000763  -0.000261
    16  H   -0.001587   0.000079  -0.000042  -0.000005   0.005801   0.000495
    17  C   -0.037972  -0.076416   0.000829  -0.000595  -0.002611   0.274051
    18  H    0.000647   0.005766  -0.000206   0.000027  -0.000137  -0.049346
    19  H    0.000070   0.006709   0.000203   0.000004  -0.000166  -0.044474
    20  C   -0.053812   0.293565  -0.002501  -0.001171  -0.001008  -0.055053
    21  H    0.001663  -0.042855   0.000012   0.000093  -0.000264   0.004028
    22  H   -0.001299  -0.041485  -0.000217   0.000002   0.000927   0.004321
               7          8          9         10         11         12
     1  Si   0.001502  -0.008887   0.001141   0.003322  -0.004733   0.000261
     2  O    0.001454   0.000372  -0.000042  -0.000603   0.000105  -0.000000
     3  O    0.000068   0.000007  -0.000002  -0.000096   0.000017  -0.000001
     4  H   -0.000005  -0.000003   0.000000  -0.000003  -0.000006   0.000000
     5  O    0.004580  -0.000867  -0.000082   0.001310  -0.000072  -0.000042
     6  O   -0.000687   0.001069  -0.000184  -0.003819   0.010827   0.000305
     7  C    4.619555   0.337511   0.364748   0.365391  -0.053898  -0.012468
     8  H    0.337511   0.988482  -0.085149  -0.106811  -0.008135   0.009238
     9  H    0.364748  -0.085149   0.833912  -0.080790   0.016240  -0.003770
    10  C    0.365391  -0.106811  -0.080790   4.892795   0.409481   0.349117
    11  H   -0.053898  -0.008135   0.016240   0.409481   0.711552  -0.054484
    12  H   -0.012468   0.009238  -0.003770   0.349117  -0.054484   0.706726
    13  O    0.353197  -0.084060  -0.044649  -0.121320   0.002808   0.010206
    14  H   -0.006635   0.008315  -0.003734  -0.007083  -0.000115  -0.000041
    15  O   -0.057486   0.008518   0.007267   0.287505  -0.055148  -0.037861
    16  H   -0.011453   0.004402   0.001459  -0.078594   0.001684   0.012130
    17  C    0.002572  -0.013803   0.000743  -0.000696  -0.005281   0.000191
    18  H    0.000349   0.007045  -0.000266   0.000457  -0.006751  -0.000674
    19  H   -0.000222   0.000133   0.000012   0.000137   0.000612   0.000022
    20  C   -0.010402   0.019116  -0.000165  -0.003969   0.000772   0.000339
    21  H    0.000886  -0.001619   0.000048   0.000019   0.000008  -0.000005
    22  H   -0.004413  -0.016148   0.000362   0.005226  -0.000239  -0.000233
              13         14         15         16         17         18
     1  Si   0.035635  -0.037692   0.003598  -0.001587  -0.037972   0.000647
     2  O   -0.004778  -0.001009  -0.000003   0.000079  -0.076416   0.005766
     3  O   -0.000327   0.001783  -0.000001  -0.000042   0.000829  -0.000206
     4  H    0.000054  -0.000213   0.000002  -0.000005  -0.000595   0.000027
     5  O   -0.084424   0.289681  -0.000763   0.005801  -0.002611  -0.000137
     6  O   -0.007217   0.002518  -0.000261   0.000495   0.274051  -0.049346
     7  C    0.353197  -0.006635  -0.057486  -0.011453   0.002572   0.000349
     8  H   -0.084060   0.008315   0.008518   0.004402  -0.013803   0.007045
     9  H   -0.044649  -0.003734   0.007267   0.001459   0.000743  -0.000266
    10  C   -0.121320  -0.007083   0.287505  -0.078594  -0.000696   0.000457
    11  H    0.002808  -0.000115  -0.055148   0.001684  -0.005281  -0.006751
    12  H    0.010206  -0.000041  -0.037861   0.012130   0.000191  -0.000674
    13  O    8.503184   0.118834  -0.011896   0.034534   0.014917  -0.003629
    14  H    0.118834   0.383890  -0.000986   0.007798  -0.002613   0.000775
    15  O   -0.011896  -0.000986   7.938795   0.347019   0.000223  -0.000109
    16  H    0.034534   0.007798   0.347019   0.475193  -0.000492   0.000030
    17  C    0.014917  -0.002613   0.000223  -0.000492   4.755573   0.413575
    18  H   -0.003629   0.000775  -0.000109   0.000030   0.413575   0.704114
    19  H    0.000356  -0.000008  -0.000013   0.000004   0.400467  -0.058971
    20  C   -0.020519   0.003292  -0.000163   0.000467   0.273529  -0.043361
    21  H    0.002516  -0.000349   0.000002  -0.000009  -0.011243   0.007579
    22  H    0.025512  -0.001002   0.000065  -0.000360  -0.050198  -0.012779
              19         20         21         22
     1  Si   0.000070  -0.053812   0.001663  -0.001299
     2  O    0.006709   0.293565  -0.042855  -0.041485
     3  O    0.000203  -0.002501   0.000012  -0.000217
     4  H    0.000004  -0.001171   0.000093   0.000002
     5  O   -0.000166  -0.001008  -0.000264   0.000927
     6  O   -0.044474  -0.055053   0.004028   0.004321
     7  C   -0.000222  -0.010402   0.000886  -0.004413
     8  H    0.000133   0.019116  -0.001619  -0.016148
     9  H    0.000012  -0.000165   0.000048   0.000362
    10  C    0.000137  -0.003969   0.000019   0.005226
    11  H    0.000612   0.000772   0.000008  -0.000239
    12  H    0.000022   0.000339  -0.000005  -0.000233
    13  O    0.000356  -0.020519   0.002516   0.025512
    14  H   -0.000008   0.003292  -0.000349  -0.001002
    15  O   -0.000013  -0.000163   0.000002   0.000065
    16  H    0.000004   0.000467  -0.000009  -0.000360
    17  C    0.400467   0.273529  -0.011243  -0.050198
    18  H   -0.058971  -0.043361   0.007579  -0.012779
    19  H    0.688977  -0.027656  -0.021273   0.011171
    20  C   -0.027656   4.763251   0.367247   0.436230
    21  H   -0.021273   0.367247   0.713650  -0.054704
    22  H    0.011171   0.436230  -0.054704   0.617685
 Mulliken charges:
               1
     1  Si   0.807809
     2  O   -0.416989
     3  O   -0.422752
     4  H    0.150978
     5  O   -0.506792
     6  O   -0.419045
     7  C    0.105858
     8  H   -0.058725
     9  H   -0.007100
    10  C    0.089025
    11  H    0.034757
    12  H    0.021042
    13  O   -0.718934
    14  H    0.244594
    15  O   -0.428304
    16  H    0.201446
    17  C    0.065249
    18  H    0.035864
    19  H    0.043905
    20  C    0.061971
    21  H    0.034568
    22  H    0.081574
 Sum of Mulliken charges =  -1.00000
 Mulliken charges with hydrogens summed into heavy atoms:
               1
     1  Si   0.807809
     2  O   -0.416989
     3  O   -0.271774
     5  O   -0.262198
     6  O   -0.419045
     7  C    0.040034
    10  C    0.144824
    13  O   -0.718934
    15  O   -0.226858
    17  C    0.145019
    20  C    0.178113
 Electronic spatial extent (au):  <R**2>=           2079.0143
 Charge=             -1.0000 electrons
 Dipole moment (field-independent basis, Debye):
    X=             -3.2818    Y=              4.2550    Z=              2.8817  Tot=              6.0975
 Quadrupole moment (field-independent basis, Debye-Ang):
   XX=            -95.2475   YY=            -84.0846   ZZ=            -84.3330
   XY=              0.0806   XZ=             -3.9854   YZ=              2.3295
 Traceless Quadrupole moment (field-independent basis, Debye-Ang):
   XX=             -7.3591   YY=              3.8038   ZZ=              3.5553
   XY=              0.0806   XZ=             -3.9854   YZ=              2.3295
 Octapole moment (field-independent basis, Debye-Ang**2):
  XXX=            -62.3957  YYY=              6.3694  ZZZ=              5.7521  XYY=             -2.6182
  XXY=             19.3450  XXZ=             11.5284  XZZ=            -14.3864  YZZ=             -3.6022
  YYZ=              0.9704  XYZ=              6.4983
 Hexadecapole moment (field-independent basis, Debye-Ang**3):
 XXXX=          -1760.1377 YYYY=           -718.3297 ZZZZ=           -405.2918 XXXY=             34.6493
 XXXZ=            -63.1066 YYYX=            -30.7230 YYYZ=             -2.8047 ZZZX=             -0.7193
 ZZZY=             -0.4269 XXYY=           -451.3535 XXZZ=           -344.0539 YYZZ=           -185.7542
 XXYZ=             26.0352 YYXZ=            -10.3966 ZZXY=              4.8958
 N-N= 8.444526792774D+02 E-N=-3.832440074440D+03  KE= 8.970221984364D+02
   1 Symmetry operations used in ECPInt.
 ECPInt:  NShTT=   18145 NPrTT=   50058 LenC2=   17180 LenP2D=   36705.
 LDataN:  DoStor=T MaxTD1= 7 Len=  274
 Calling FoFJK, ICntrl=      2127 FMM=F ISym2X=0 I1Cent= 0 IOpClX= 0 NMat=1 NMatS=1 NMatT=0.
 ***** Axes restored to original set *****
 -------------------------------------------------------------------
 Center     Atomic                   Forces (Hartrees/Bohr)
 Number     Number              X              Y              Z
 -------------------------------------------------------------------
      1       14           0.001790187    0.000257648    0.001099410
      2        8           0.001397280   -0.000084787    0.000867172
      3        8          -0.001244792    0.002802821   -0.002450205
      4        1           0.002455712   -0.002030864    0.001910697
      5        8          -0.001518085   -0.002334687    0.001236493
      6        8           0.000956292   -0.000212420    0.000471886
      7        6          -0.001489474    0.000296376   -0.000453551
      8        1          -0.000073684    0.000036458   -0.000007283
      9        1           0.000017980    0.000025114    0.000078890
     10        6          -0.000002375    0.000365333   -0.000085375
     11        1          -0.000011986    0.000063116   -0.000102447
     12        1           0.000114488    0.000032690    0.000043899
     13        8          -0.002107354   -0.000180155   -0.002412287
     14        1          -0.000013553   -0.000129414    0.000016362
     15        8          -0.000719399    0.000530468   -0.000048252
     16        1          -0.000073956    0.000060137    0.000006780
     17        6           0.000446891   -0.000030724    0.000038058
     18        1          -0.000007365    0.000019979   -0.000030954
     19        1           0.000032109   -0.000014024   -0.000006667
     20        6           0.000051850    0.000376230   -0.000192891
     21        1          -0.000070851    0.000053013   -0.000037835
     22        1           0.000070084    0.000097690    0.000058102
 -------------------------------------------------------------------
 Cartesian Forces:  Max     0.002802821 RMS     0.000962190

 GradGradGradGradGradGradGradGradGradGradGradGradGradGradGradGradGradGrad
 Berny optimization.
 FormGI is forming the generalized inverse of G from B-inverse, IUseBI=4.
 Internal  Forces:  Max     0.024345023 RMS     0.003161543
 Search for a local minimum.
 Step number   1 out of a maximum of  113
 All quantities printed in internal units (Hartrees-Bohrs-Radians)
 Mixed Optimization -- RFO/linear search
 Second derivative matrix not updated -- first step.
 ITU=  0
     Eigenvalues ---    0.00230   0.00328   0.00644   0.00743   0.01513
     Eigenvalues ---    0.02292   0.02867   0.03700   0.04356   0.04642
     Eigenvalues ---    0.04858   0.04905   0.05055   0.05744   0.05779
     Eigenvalues ---    0.06084   0.06282   0.10497   0.10606   0.11258
     Eigenvalues ---    0.11342   0.11407   0.11525   0.11610   0.11630
     Eigenvalues ---    0.13076   0.13831   0.14098   0.14856   0.16000
     Eigenvalues ---    0.16000   0.16000   0.16000   0.16284   0.21992
     Eigenvalues ---    0.22041   0.22111   0.22306   0.25000   0.27055
     Eigenvalues ---    0.29137   0.31740   0.32122   0.33877   0.33960
     Eigenvalues ---    0.34120   0.34345   0.34546   0.34708   0.38699
     Eigenvalues ---    0.39015   0.42032   0.42908   0.42928   0.43396
     Eigenvalues ---    0.43452   0.51457   0.54044   0.54642   0.57612
 RFO step:  Lambda=-1.02693107D-02 EMin= 2.30000000D-03
 Linear search not attempted -- first point.
 Iteration  1 RMS(Cart)=  0.31788257 RMS(Int)=  0.04467168
 Iteration  2 RMS(Cart)=  0.25266686 RMS(Int)=  0.02836495
 Iteration  3 RMS(Cart)=  0.17544712 RMS(Int)=  0.00912909
 Iteration  4 RMS(Cart)=  0.02625019 RMS(Int)=  0.00019410
 Iteration  5 RMS(Cart)=  0.00055449 RMS(Int)=  0.00002596
 Iteration  6 RMS(Cart)=  0.00000008 RMS(Int)=  0.00002596
 Variable       Old X    -DE/DX   Delta X   Delta X   Delta X     New X
                                 (Linear)    (Quad)   (Total)
    R1        3.13729  -0.00009   0.00000  -0.00068  -0.00066   3.13663
    R2        3.11484   0.00108   0.00000   0.00246   0.00246   3.11730
    R3        3.02123   0.00318   0.00000   0.00605   0.00605   3.02728
    R4        3.14040  -0.00004   0.00000  -0.00030  -0.00028   3.14012
    R5        2.67342  -0.00056   0.00000  -0.00134  -0.00134   2.67208
    R6        1.79581   0.00369   0.00000   0.00629   0.00629   1.80210
    R7        1.94458   0.00380   0.00000   0.00864   0.00864   1.95322
    R8        2.66438  -0.00004   0.00000   0.00025   0.00024   2.66462
    R9        2.11323  -0.00005   0.00000  -0.00014  -0.00014   2.11309
   R10        2.10622  -0.00006   0.00000  -0.00018  -0.00018   2.10603
   R11        2.89717   0.00033   0.00000   0.00109   0.00109   2.89826
   R12        2.55991   0.00094   0.00000   0.00170   0.00170   2.56161
   R13        2.07538  -0.00010   0.00000  -0.00028  -0.00028   2.07510
   R14        2.07129  -0.00011   0.00000  -0.00030  -0.00030   2.07098
   R15        2.67115   0.00067   0.00000   0.00151   0.00151   2.67266
   R16        2.81465   0.00196   0.00000   0.01547   0.01547   2.83012
   R17        1.82152  -0.00004   0.00000  -0.00007  -0.00007   1.82145
   R18        2.06419  -0.00000   0.00000  -0.00001  -0.00001   2.06418
   R19        2.07398   0.00002   0.00000   0.00006   0.00006   2.07405
   R20        2.92545  -0.00013   0.00000   0.00021   0.00018   2.92563
   R21        2.06752  -0.00008   0.00000  -0.00023  -0.00023   2.06730
   R22        2.06152  -0.00010   0.00000  -0.00027  -0.00027   2.06125
    A1        1.91308  -0.00110   0.00000  -0.01092  -0.01093   1.90216
    A2        2.05831   0.00093   0.00000   0.00627   0.00609   2.06441
    A3        1.68051  -0.00021   0.00000   0.00057   0.00051   1.68102
    A4        1.84063  -0.00207   0.00000  -0.01320  -0.01319   1.82744
    A5        1.89646   0.00033   0.00000   0.00080   0.00082   1.89728
    A6        2.06822   0.00216   0.00000   0.01614   0.01609   2.08430
    A7        1.90952   0.00011   0.00000  -0.00189  -0.00187   1.90765
    A8        1.96266   0.00052   0.00000   0.00304   0.00304   1.96570
    A9        1.77966   0.02435   0.00000   0.14298   0.14298   1.92264
   A10        1.94151  -0.00013   0.00000  -0.00190  -0.00187   1.93964
   A11        1.82982   0.00000   0.00000  -0.00012  -0.00010   1.82972
   A12        1.85335   0.00072   0.00000   0.00607   0.00607   1.85942
   A13        1.96779  -0.00027   0.00000   0.00027   0.00025   1.96804
   A14        1.86206  -0.00083   0.00000  -0.00678  -0.00678   1.85528
   A15        1.96426   0.00030   0.00000   0.00017   0.00016   1.96442
   A16        1.97582   0.00007   0.00000   0.00031   0.00030   1.97612
   A17        1.91439  -0.00010   0.00000   0.00073   0.00073   1.91512
   A18        1.93353  -0.00005   0.00000  -0.00133  -0.00133   1.93220
   A19        1.92854   0.00035   0.00000   0.00159   0.00159   1.93013
   A20        1.89503   0.00003   0.00000  -0.00021  -0.00021   1.89482
   A21        1.91225   0.00016   0.00000   0.00325   0.00325   1.91549
   A22        1.87946  -0.00040   0.00000  -0.00408  -0.00408   1.87537
   A23        2.48985  -0.00222   0.00000  -0.01301  -0.01301   2.47684
   A24        2.74691   0.01671   0.00000   0.06421   0.06421   2.81112
   A25        1.80561   0.00014   0.00000   0.00084   0.00084   1.80646
   A26        1.91671  -0.00008   0.00000  -0.00058  -0.00058   1.91613
   A27        1.89649   0.00004   0.00000   0.00051   0.00052   1.89701
   A28        1.89644   0.00008   0.00000   0.00032   0.00030   1.89674
   A29        1.89145   0.00003   0.00000   0.00020   0.00020   1.89165
   A30        1.92562   0.00017   0.00000  -0.00016  -0.00015   1.92548
   A31        1.93694  -0.00025   0.00000  -0.00029  -0.00029   1.93665
   A32        1.87456  -0.00019   0.00000  -0.00076  -0.00078   1.87379
   A33        1.90166   0.00005   0.00000  -0.00030  -0.00030   1.90136
   A34        1.90322   0.00003   0.00000   0.00015   0.00015   1.90337
   A35        1.93740  -0.00020   0.00000  -0.00033  -0.00033   1.93706
   A36        1.91853   0.00032   0.00000   0.00098   0.00099   1.91952
   A37        1.92736  -0.00002   0.00000   0.00024   0.00023   1.92759
    D1        2.35325   0.00084   0.00000   0.00577   0.00580   2.35905
    D2       -1.82485  -0.00219   0.00000  -0.01646  -0.01647  -1.84132
    D3        0.39164   0.00086   0.00000   0.00756   0.00757   0.39920
    D4       -1.02993   0.00005   0.00000   0.00211   0.00217  -1.02776
    D5        3.02071   0.00098   0.00000   0.01004   0.00998   3.03069
    D6        0.78634  -0.00053   0.00000  -0.00165  -0.00164   0.78470
    D7        1.07122   0.00147   0.00000   0.01103   0.01111   1.08232
    D8       -3.06977  -0.00103   0.00000  -0.00980  -0.00977  -3.07954
    D9       -0.94285  -0.00085   0.00000  -0.00875  -0.00885  -0.95171
   D10       -0.15508  -0.00073   0.00000  -0.00551  -0.00552  -0.16060
   D11       -2.13043   0.00047   0.00000   0.00593   0.00594  -2.12449
   D12        2.05430   0.00144   0.00000   0.01154   0.01158   2.06588
   D13       -0.48673  -0.00065   0.00000  -0.00683  -0.00684  -0.49357
   D14       -2.58674  -0.00032   0.00000  -0.00582  -0.00582  -2.59257
   D15        1.59159  -0.00035   0.00000  -0.00601  -0.00602   1.58557
   D16       -0.11835   0.00565   0.00000   0.33828   0.33828   0.21992
   D17       -2.21377   0.00027   0.00000   0.00237   0.00238  -2.21140
   D18        2.00327   0.00025   0.00000   0.00216   0.00216   2.00543
   D19       -0.10606   0.00049   0.00000   0.00202   0.00203  -0.10404
   D20        0.96049   0.00018   0.00000   0.01692   0.01693   0.97742
   D21       -1.13124   0.00023   0.00000   0.01755   0.01755  -1.11369
   D22        3.07047   0.00054   0.00000   0.02247   0.02247   3.09294
   D23        2.90543   0.00014   0.00000   0.01653   0.01652   2.92195
   D24        0.81370   0.00020   0.00000   0.01715   0.01715   0.83084
   D25       -1.26778   0.00050   0.00000   0.02207   0.02207  -1.24571
   D26       -1.20772  -0.00004   0.00000   0.01204   0.01204  -1.19569
   D27        2.98373   0.00002   0.00000   0.01266   0.01266   2.99639
   D28        0.90225   0.00033   0.00000   0.01758   0.01758   0.91983
   D29       -2.39232   0.00101   0.00000   0.03535   0.03536  -2.35697
   D30        1.82538   0.00098   0.00000   0.03520   0.03520   1.86058
   D31       -0.28789   0.00180   0.00000   0.04377   0.04377  -0.24411
   D32       -0.64155  -0.00008   0.00000  -0.00157  -0.00157  -0.64313
   D33        1.46970   0.00012   0.00000   0.00247   0.00247   1.47217
   D34       -2.75546   0.00003   0.00000   0.00167   0.00167  -2.75379
   D35        1.87871   0.00639   0.00000   0.50838   0.50838   2.38709
   D36        0.37776   0.00008   0.00000   0.00338   0.00337   0.38113
   D37        2.45496  -0.00009   0.00000   0.00236   0.00235   2.45730
   D38       -1.69071  -0.00002   0.00000   0.00310   0.00310  -1.68761
   D39        2.47995   0.00015   0.00000   0.00277   0.00276   2.48272
   D40       -1.72603  -0.00002   0.00000   0.00174   0.00174  -1.72429
   D41        0.41149   0.00004   0.00000   0.00249   0.00249   0.41397
   D42       -1.70646   0.00014   0.00000   0.00273   0.00273  -1.70374
   D43        0.37074  -0.00003   0.00000   0.00170   0.00170   0.37244
   D44        2.50825   0.00003   0.00000   0.00245   0.00245   2.51071
         Item               Value     Threshold  Converged?
 Maximum Force            0.024345     0.000450     NO 
 RMS     Force            0.003162     0.000300     NO 
 Maximum Displacement     2.416987     0.001800     NO 
 RMS     Displacement     0.730332     0.001200     NO 
 Predicted change in Energy=-7.225371D-03
 GradGradGradGradGradGradGradGradGradGradGradGradGradGradGradGradGradGrad

                          Input orientation:                          
 ---------------------------------------------------------------------
 Center     Atomic      Atomic             Coordinates (Angstroms)
 Number     Number       Type             X           Y           Z
 ---------------------------------------------------------------------
      1         14           0        1.408919    0.395624    0.293905
      2          8           0        2.040732   -0.524019   -0.934961
      3          8           0        2.585970    1.393307    0.877316
      4          1           0        3.343203    0.915033    1.204832
      5          8           0        0.180428    1.367992   -0.040181
      6          8           0        1.191531   -0.855665    1.365445
      7          6           0       -2.829070   -0.735071   -0.576581
      8          1           0       -2.950455   -1.763217   -0.154031
      9          1           0       -3.316480   -0.778693   -1.577860
     10          6           0       -3.693981    0.195099    0.283032
     11          1           0       -3.399687    0.105739    1.337177
     12          1           0       -4.753927   -0.068472    0.193133
     13          8           0       -1.532308   -0.346372   -0.646087
     14          1           0       -0.633440    0.816800   -0.359768
     15          8           0       -3.553276    1.537208   -0.140317
     16          1           0       -2.622718    1.600091   -0.383521
     17          6           0        1.409865   -2.101850    0.742863
     18          1           0        0.546958   -2.751912    0.903987
     19          1           0        2.289033   -2.574017    1.199714
     20          6           0        1.631173   -1.867489   -0.771387
     21          1           0        2.412981   -2.526828   -1.159733
     22          1           0        0.697376   -2.023576   -1.313079
 ---------------------------------------------------------------------
                    Distance matrix (angstroms):
                    1          2          3          4          5
     1  Si   0.000000
     2  O    1.659832   0.000000
     3  O    1.649602   2.694025   0.000000
     4  H    2.200233   2.888947   0.953633   0.000000
     5  O    1.601969   2.800190   2.574698   3.429048   0.000000
     6  O    1.661679   2.474470   2.690837   2.791211   2.818291
     7  C    4.471774   4.887530   5.997204   6.632739   3.710481
     8  H    4.885221   5.201674   6.455952   6.973497   4.429431
     9  H    5.216505   5.401657   6.751621   7.413734   4.381903
    10  C    5.106850   5.906570   6.420799   7.133721   4.060935
    11  H    4.929010   5.929364   6.139819   6.792572   4.038269
    12  H    6.181117   6.902717   7.515250   8.219144   5.144485
    13  O    3.175683   3.589097   4.723076   5.365412   2.497925
    14  H    2.185385   3.046283   3.496761   4.274495   1.033600
    15  O    5.110298   6.014403   6.224678   7.053932   3.738878
    16  H    4.261894   5.153997   5.363105   6.211632   2.833616
    17  C    2.537506   2.388019   3.690179   3.612865   3.763572
    18  H    3.319964   3.252169   4.619646   4.621253   4.242571
    19  H    3.227051   2.970014   3.991463   3.644828   4.639287
    20  C    2.511160   1.414005   3.776592   3.818235   3.620450
    21  H    3.414956   2.049472   4.421193   4.278187   4.626803
    22  H    2.990187   2.048475   4.476572   4.687824   3.659267
                    6          7          8          9         10
     6  O    0.000000
     7  C    4.466681   0.000000
     8  H    4.504277   1.118198   0.000000
     9  H    5.384342   1.114465   1.769336   0.000000
    10  C    5.113116   1.533696   2.139826   2.133939   0.000000
    11  H    4.690883   2.166802   2.432797   3.047389   1.098096
    12  H    6.110848   2.177588   2.499038   2.388950   1.095918
    13  O    3.424171   1.355548   2.064149   2.058731   2.414391
    14  H    3.017287   2.697425   3.473812   3.350828   3.188513
    15  O    5.523257   2.424470   3.355054   2.736055   1.414313
    16  H    4.861905   2.352198   3.387022   2.750703   1.888360
    17  C    1.410055   4.645168   4.464469   5.429073   5.615752
    18  H    2.055279   4.202058   3.785343   4.997931   5.201541
    19  H    2.045656   5.721182   5.471952   6.508447   6.656183
    20  C    2.404813   4.605875   4.624210   5.129829   5.807180
    21  H    3.265157   5.570418   5.510081   6.004793   6.839989
    22  H    2.963561   3.826029   3.836386   4.210806   5.172438
                   11         12         13         14         15
    11  H    0.000000
    12  H    1.781334   0.000000
    13  O    2.761312   3.340711   0.000000
    14  H    3.322250   4.250625   1.497635   0.000000
    15  O    2.062931   2.032477   2.808556   3.015392   0.000000
    16  H    2.407814   2.767433   2.246475   2.138068   0.963868
    17  C    5.325265   6.513767   3.696927   3.729532   6.217357
    18  H    4.891812   5.983773   3.537330   3.965618   6.024869
    19  H    6.289795   7.542827   4.792915   4.740303   7.268455
    20  C    5.800795   6.703452   3.512423   3.536003   6.234479
    21  H    6.852158   7.696644   4.536907   4.593525   7.290530
    22  H    5.323886   5.983963   2.868690   3.278355   5.667680
                   16         17         18         19         20
    16  H    0.000000
    17  C    5.588813   0.000000
    18  H    5.535744   1.092315   0.000000
    19  H    6.637402   1.097539   1.775930   0.000000
    20  C    5.501831   1.548178   2.182797   2.194812   0.000000
    21  H    6.556846   2.192423   2.791352   2.363172   1.093967
    22  H    5.001806   2.177306   2.338478   3.024977   1.090766
                   21         22
    21  H    0.000000
    22  H    1.794457   0.000000
 Stoichiometry    C4H11O6Si(1-)
 Framework group  C1[X(C4H11O6Si)]
 Deg. of freedom    60
 Full point group                 C1      NOp   1
 Largest Abelian subgroup         C1      NOp   1
 Largest concise Abelian subgroup C1      NOp   1
                         Standard orientation:                         
 ---------------------------------------------------------------------
 Center     Atomic      Atomic             Coordinates (Angstroms)
 Number     Number       Type             X           Y           Z
 ---------------------------------------------------------------------
      1         14           0       -1.357296   -0.715028   -0.014990
      2          8           0       -2.009002    0.321544   -1.135632
      3          8           0       -2.419920   -1.946783    0.258501
      4          1           0       -3.265187   -1.638699    0.574767
      5          8           0        0.025941   -1.442061   -0.367669
      6          8           0       -1.421533    0.338973    1.268027
      7          6           0        2.726096    1.097759   -0.205967
      8          1           0        2.656747    2.039267    0.393299
      9          1           0        3.286880    1.385228   -1.125159
     10          6           0        3.641108    0.148218    0.577199
     11          1           0        3.246292    0.005997    1.591945
     12          1           0        4.654119    0.559720    0.651431
     13          8           0        1.512168    0.562259   -0.483683
     14          1           0        0.773926   -0.740703   -0.497838
     15          8           0        3.737969   -1.101708   -0.077464
     16          1           0        2.851682   -1.240372   -0.430038
     17          6           0       -1.766954    1.637988    0.841999
     18          1           0       -1.027094    2.355055    1.204730
     19          1           0       -2.742687    1.900785    1.270338
     20          6           0       -1.818614    1.654927   -0.705223
     21          1           0       -2.652645    2.265957   -1.062712
     22          1           0       -0.874683    2.027025   -1.105606
 ---------------------------------------------------------------------
 Rotational constants (GHZ):           1.5392073           0.5069657           0.4359939
 Standard basis: def2TZVPP (5D, 7F)
 There are   573 symmetry adapted cartesian basis functions of A   symmetry.
 There are   506 symmetry adapted basis functions of A   symmetry.
   506 basis functions,   766 primitive gaussians,   573 cartesian basis functions
    49 alpha electrons       49 beta electrons
       nuclear repulsion energy       802.5074547589 Hartrees.
 NAtoms=   22 NActive=   22 NUniq=   22 SFac= 1.00D+00 NAtFMM=   60 NAOKFM=F Big=F
 Integral buffers will be    131072 words long.
 Raffenetti 2 integral format.
 Two-electron integral symmetry is turned on.
 Nuclear repulsion after empirical dispersion term =      802.4963669891 Hartrees.
 One-electron integrals computed using PRISM.
   1 Symmetry operations used in ECPInt.
 ECPInt:  NShTT=   18145 NPrTT=   50058 LenC2=   16494 LenP2D=   34608.
 LDataN:  DoStor=T MaxTD1= 6 Len=  172
 NBasis=   506 RedAO= T EigKep=  3.16D-04  NBF=   506
 NBsUse=   506 1.00D-06 EigRej= -1.00D+00 NBFU=   506
 Initial guess from the checkpoint file:  "IRC_EGdepattackQbiL_ReactantOpt.chk"
 B after Tr=     0.000000   -0.000000    0.000000
         Rot=    0.995785   -0.010520    0.021692   -0.088490 Ang= -10.52 deg.
 ExpMin= 7.01D-02 ExpMax= 4.48D+04 ExpMxC= 1.53D+03 IAcc=3 IRadAn=         5 AccDes= 0.00D+00
 Harris functional with IExCor= 4639 and IRadAn=       5 diagonalized for initial guess.
 HarFok:  IExCor= 4639 AccDes= 0.00D+00 IRadAn=         5 IDoV= 1 UseB2=F ITyADJ=14
 ICtDFT=  3500011 ScaDFX=  1.000000  1.000000  1.000000  1.000000
 FoFCou: FMM=F IPFlag=           0 FMFlag=      100000 FMFlg1=           0
         NFxFlg=           0 DoJE=T BraDBF=F KetDBF=T FulRan=T
         wScrn=  0.000000 ICntrl=       500 IOpCl=  0 I1Cent=   200000004 NGrid=           0
         NMat0=    1 NMatS0=      1 NMatT0=    0 NMatD0=    1 NMtDS0=    0 NMtDT0=    0
 Petite list used in FoFCou.
 Requested convergence on RMS density matrix=1.00D-08 within 128 cycles.
 Requested convergence on MAX density matrix=1.00D-06.
 Requested convergence on             energy=1.00D-06.
 No special actions if energy rises.
 Integral accuracy reduced to 1.0D-05 until final iterations.
 Initial convergence to 1.0D-05 achieved.  Increase integral accuracy.
 SCF Done:  E(RwB97XD) =  -900.180777256     A.U. after   16 cycles
            NFock= 16  Conv=0.33D-08     -V/T= 2.0036
   1 Symmetry operations used in ECPInt.
 ECPInt:  NShTT=   18145 NPrTT=   50058 LenC2=   16494 LenP2D=   34608.
 LDataN:  DoStor=T MaxTD1= 7 Len=  274
 Calling FoFJK, ICntrl=      2127 FMM=F ISym2X=0 I1Cent= 0 IOpClX= 0 NMat=1 NMatS=1 NMatT=0.
 ***** Axes restored to original set *****
 -------------------------------------------------------------------
 Center     Atomic                   Forces (Hartrees/Bohr)
 Number     Number              X              Y              Z
 -------------------------------------------------------------------
      1       14          -0.002509329    0.012676669    0.002072255
      2        8          -0.000459113   -0.001456964   -0.000667118
      3        8           0.000073151   -0.000163488   -0.000097523
      4        1           0.000289941    0.000161012   -0.000198053
      5        8           0.004307218   -0.008472529   -0.001520044
      6        8          -0.001575607   -0.000666118   -0.003135948
      7        6           0.001284637   -0.001976764    0.000681819
      8        1          -0.000507905    0.001988034    0.000027072
      9        1          -0.000666612    0.000419213   -0.000818841
     10        6           0.000656559   -0.000279328   -0.001881759
     11        1           0.000773547   -0.000839298    0.000833678
     12        1          -0.000032385   -0.000123136    0.000526457
     13        8           0.002012712    0.002711840   -0.001621665
     14        1          -0.000011806   -0.005024482    0.005111598
     15        8          -0.000132248    0.000870782    0.000234787
     16        1          -0.000067758   -0.000460934   -0.000807056
     17        6          -0.000519018   -0.000777067    0.001415033
     18        1          -0.000098265    0.000205259    0.000110098
     19        1           0.000043326    0.000042180   -0.000349225
     20        6          -0.000280582    0.002501414    0.001471003
     21        1          -0.001579333   -0.000309212   -0.000624279
     22        1          -0.001001129   -0.001027083   -0.000762288
 -------------------------------------------------------------------
 Cartesian Forces:  Max     0.012676669 RMS     0.002405239

 GradGradGradGradGradGradGradGradGradGradGradGradGradGradGradGradGradGrad
 Berny optimization.
 Using GEDIIS/GDIIS optimizer.
 FormGI is forming the generalized inverse of G from B-inverse, IUseBI=4.
 Internal  Forces:  Max     0.012788320 RMS     0.002158268
 Search for a local minimum.
 Step number   2 out of a maximum of  113
 All quantities printed in internal units (Hartrees-Bohrs-Radians)
 Mixed Optimization -- RFO/linear search
 Update second derivatives using D2CorX and points    2    1
 DE=  1.99D-03 DEPred=-7.23D-03 R=-2.75D-01
 Trust test=-2.75D-01 RLast= 6.38D-01 DXMaxT set to 1.50D-01
 ITU= -1  0
 Use linear search instead of GDIIS.
     Eigenvalues ---    0.00313   0.00327   0.00742   0.01029   0.01515
     Eigenvalues ---    0.02285   0.02878   0.03698   0.04340   0.04643
     Eigenvalues ---    0.04862   0.04919   0.05050   0.05744   0.05777
     Eigenvalues ---    0.06082   0.06283   0.10336   0.10596   0.11247
     Eigenvalues ---    0.11398   0.11416   0.11532   0.11605   0.11664
     Eigenvalues ---    0.12782   0.13770   0.14104   0.14928   0.15600
     Eigenvalues ---    0.16000   0.16000   0.16251   0.17127   0.22017
     Eigenvalues ---    0.22045   0.22286   0.22702   0.23226   0.27059
     Eigenvalues ---    0.29188   0.31778   0.32137   0.33892   0.33960
     Eigenvalues ---    0.34120   0.34350   0.34546   0.34733   0.38690
     Eigenvalues ---    0.39039   0.42025   0.42886   0.42946   0.43399
     Eigenvalues ---    0.43450   0.53539   0.54180   0.54642   0.57522
 RFO step:  Lambda=-5.34355149D-03 EMin= 3.13182197D-03
 Quartic linear search produced a step of -0.72789.
 Maximum step size (   0.150) exceeded in Quadratic search.
    -- Step size scaled by   0.828
 Iteration  1 RMS(Cart)=  0.16146771 RMS(Int)=  0.06938846
 Iteration  2 RMS(Cart)=  0.19786873 RMS(Int)=  0.05302843
 Iteration  3 RMS(Cart)=  0.22414047 RMS(Int)=  0.03275541
 Iteration  4 RMS(Cart)=  0.16189902 RMS(Int)=  0.01190616
 Iteration  5 RMS(Cart)=  0.08799450 RMS(Int)=  0.00165873
 Iteration  6 RMS(Cart)=  0.00265265 RMS(Int)=  0.00001373
 Iteration  7 RMS(Cart)=  0.00000236 RMS(Int)=  0.00001365
 Iteration  8 RMS(Cart)=  0.00000000 RMS(Int)=  0.00001365
 Variable       Old X    -DE/DX   Delta X   Delta X   Delta X     New X
                                 (Linear)    (Quad)   (Total)
    R1        3.13663   0.00021   0.00048  -0.00020   0.00028   3.13691
    R2        3.11730   0.00015  -0.00179   0.00267   0.00088   3.11817
    R3        3.02728  -0.01279  -0.00441  -0.00143  -0.00583   3.02145
    R4        3.14012  -0.00086   0.00021  -0.00056  -0.00035   3.13977
    R5        2.67208   0.00075   0.00098  -0.00099  -0.00002   2.67206
    R6        1.80210   0.00008  -0.00458   0.00663   0.00205   1.80416
    R7        1.95322  -0.00187  -0.00629   0.00762   0.00133   1.95455
    R8        2.66462  -0.00129  -0.00017  -0.00081  -0.00098   2.66364
    R9        2.11309  -0.00176   0.00010  -0.00186  -0.00176   2.11133
   R10        2.10603   0.00101   0.00013   0.00079   0.00092   2.10695
   R11        2.89826  -0.00179  -0.00080  -0.00078  -0.00158   2.89669
   R12        2.56161  -0.00120  -0.00124   0.00109  -0.00015   2.56146
   R13        2.07510   0.00108   0.00020   0.00070   0.00090   2.07600
   R14        2.07098   0.00002   0.00022  -0.00030  -0.00008   2.07091
   R15        2.67266   0.00054  -0.00110   0.00196   0.00086   2.67352
   R16        2.83012  -0.00325  -0.01126   0.00635  -0.00491   2.82521
   R17        1.82145   0.00011   0.00005  -0.00001   0.00004   1.82149
   R18        2.06418  -0.00003   0.00001  -0.00004  -0.00003   2.06415
   R19        2.07405  -0.00013  -0.00005  -0.00005  -0.00010   2.07395
   R20        2.92563   0.00002  -0.00013  -0.00055  -0.00067   2.92496
   R21        2.06730  -0.00072   0.00016  -0.00088  -0.00072   2.06658
   R22        2.06125   0.00138   0.00019   0.00096   0.00116   2.06240
    A1        1.90216   0.00180   0.00796  -0.00416   0.00381   1.90596
    A2        2.06441  -0.00394  -0.00444  -0.00369  -0.00803   2.05637
    A3        1.68102   0.00035  -0.00037  -0.00111  -0.00146   1.67955
    A4        1.82744   0.00440   0.00960  -0.00317   0.00644   1.83388
    A5        1.89728   0.00139  -0.00060   0.00581   0.00520   1.90248
    A6        2.08430  -0.00373  -0.01171   0.00658  -0.00515   2.07915
    A7        1.90765  -0.00135   0.00136  -0.00355  -0.00219   1.90546
    A8        1.96570   0.00039  -0.00222   0.00375   0.00154   1.96724
    A9        1.92264  -0.00880  -0.10407   0.12430   0.02023   1.94287
   A10        1.93964   0.00119   0.00136   0.00048   0.00183   1.94147
   A11        1.82972   0.00017   0.00007   0.00174   0.00180   1.83152
   A12        1.85942  -0.00030  -0.00442   0.00338  -0.00104   1.85838
   A13        1.96804   0.00129  -0.00018   0.00101   0.00083   1.96886
   A14        1.85528   0.00053   0.00493  -0.00553  -0.00060   1.85468
   A15        1.96442   0.00133  -0.00011   0.00369   0.00358   1.96800
   A16        1.97612  -0.00291  -0.00022  -0.00421  -0.00442   1.97170
   A17        1.91512  -0.00130  -0.00053  -0.00306  -0.00358   1.91153
   A18        1.93220   0.00086   0.00097   0.00094   0.00191   1.93411
   A19        1.93013  -0.00040  -0.00115   0.00115  -0.00000   1.93013
   A20        1.89482   0.00000   0.00015  -0.00043  -0.00028   1.89454
   A21        1.91549   0.00098  -0.00236   0.00452   0.00216   1.91765
   A22        1.87537  -0.00010   0.00297  -0.00306  -0.00009   1.87529
   A23        2.47684  -0.00151   0.00947  -0.01571  -0.00624   2.47060
   A24        2.81112   0.00137  -0.04674   0.06694   0.02020   2.83132
   A25        1.80646  -0.00043  -0.00061   0.00002  -0.00059   1.80586
   A26        1.91613  -0.00009   0.00042  -0.00166  -0.00125   1.91488
   A27        1.89701   0.00094  -0.00038   0.00277   0.00239   1.89940
   A28        1.89674  -0.00126  -0.00022  -0.00253  -0.00275   1.89399
   A29        1.89165   0.00001  -0.00015   0.00107   0.00093   1.89258
   A30        1.92548  -0.00009   0.00011   0.00032   0.00042   1.92590
   A31        1.93665   0.00051   0.00021   0.00006   0.00027   1.93692
   A32        1.87379   0.00125   0.00056   0.00005   0.00061   1.87440
   A33        1.90136  -0.00035   0.00021   0.00064   0.00085   1.90222
   A34        1.90337   0.00014  -0.00011   0.00216   0.00205   1.90542
   A35        1.93706   0.00029   0.00024  -0.00039  -0.00015   1.93692
   A36        1.91952  -0.00065  -0.00072   0.00088   0.00016   1.91968
   A37        1.92759  -0.00064  -0.00017  -0.00319  -0.00336   1.92423
    D1        2.35905   0.00087  -0.00422   0.01589   0.01164   2.37070
    D2       -1.84132   0.00544   0.01199   0.00571   0.01768  -1.82364
    D3        0.39920  -0.00126  -0.00551   0.01111   0.00559   0.40480
    D4       -1.02776  -0.00073  -0.00158   0.00105  -0.00057  -1.02833
    D5        3.03069   0.00019  -0.00726   0.01001   0.00280   3.03349
    D6        0.78470   0.00105   0.00120   0.00052   0.00171   0.78641
    D7        1.08232  -0.00538  -0.00808  -0.01215  -0.02025   1.06207
    D8       -3.07954  -0.00206   0.00711  -0.02245  -0.01536  -3.09490
    D9       -0.95171   0.00096   0.00644  -0.01304  -0.00655  -0.95826
   D10       -0.16060   0.00123   0.00402  -0.00641  -0.00239  -0.16299
   D11       -2.12449  -0.00123  -0.00433  -0.00294  -0.00729  -2.13177
   D12        2.06588  -0.00569  -0.00843  -0.00825  -0.01670   2.04918
   D13       -0.49357   0.00031   0.00498  -0.01272  -0.00775  -0.50132
   D14       -2.59257  -0.00057   0.00424  -0.01264  -0.00841  -2.60097
   D15        1.58557   0.00033   0.00438  -0.01045  -0.00607   1.57950
   D16        0.21992  -0.00337  -0.24623  -0.12837  -0.37460  -0.15468
   D17       -2.21140  -0.00029  -0.00173   0.00210   0.00037  -2.21103
   D18        2.00543  -0.00080  -0.00157   0.00013  -0.00145   2.00398
   D19       -0.10404  -0.00123  -0.00148  -0.00008  -0.00156  -0.10560
   D20        0.97742  -0.00013  -0.01232  -0.00222  -0.01454   0.96288
   D21       -1.11369   0.00015  -0.01278  -0.00031  -0.01309  -1.12678
   D22        3.09294  -0.00002  -0.01636   0.00216  -0.01420   3.07875
   D23        2.92195   0.00015  -0.01203  -0.00119  -0.01322   2.90874
   D24        0.83084   0.00044  -0.01248   0.00071  -0.01177   0.81908
   D25       -1.24571   0.00027  -0.01606   0.00319  -0.01287  -1.25858
   D26       -1.19569   0.00034  -0.00876  -0.00319  -0.01196  -1.20764
   D27        2.99639   0.00063  -0.00922  -0.00129  -0.01051   2.98588
   D28        0.91983   0.00046  -0.01280   0.00119  -0.01161   0.90822
   D29       -2.35697   0.00125  -0.02574   0.02355  -0.00219  -2.35915
   D30        1.86058  -0.00080  -0.02562   0.01801  -0.00762   1.85297
[...]
 001019,-0.07979571,0.08427470,-0.19716430,-0.00896285,0.01218332,-0.01
 751064,0.09937095,-0.08568600,0.21718351,0.01063749,-0.00133855,-0.003
 92934,-0.00067186,-0.00005271,0.00134893,-0.00291366,-0.00127051,0.000
 27166,-0.00022092,0.00003230,0.00005232,-0.01528364,-0.01932982,-0.009
 25132,-0.00170776,0.00098546,0.00017222,-0.09117719,0.02338585,-0.0462
 0508,-0.00727675,0.01798205,-0.02524110,0.01560704,-0.01080271,0.01403
 193,-0.00833285,0.01431443,-0.02235212,0.00255988,-0.00240705,-0.00186
 000,-0.00133357,0.00577836,0.00054877,0.27042039,0.00705068,-0.0062717
 4,-0.00528195,-0.00092284,0.00278800,0.00171069,-0.00214632,0.00017904
 ,0.00067791,-0.00030584,-0.00032971,0.00001450,-0.01955913,-0.00600473
 ,-0.00782480,-0.00085313,0.00262467,0.00080349,0.00536896,-0.14728469,
 0.05774270,-0.00022835,0.01271591,-0.00750387,0.00396408,-0.01071365,0
 .01981883,0.01613656,-0.02400648,0.03602803,-0.00181419,0.00272194,-0.
 00008053,0.00418678,-0.00674169,-0.00105965,0.10862255,0.33418285,0.01
 049051,-0.00347178,-0.00791776,-0.00043670,0.00132999,0.00371880,-0.00
 310094,-0.00072917,0.00097706,-0.00045207,-0.00014450,-0.00018330,-0.0
 1905517,-0.01571904,-0.00007288,-0.00205362,0.00143421,0.00175393,-0.0
 3844717,0.09087510,-0.17602973,-0.01352283,0.01914338,-0.02766994,-0.0
 0686721,0.02390405,-0.02800380,-0.00447544,0.00281993,-0.00090744,-0.0
 0230853,0.00016152,0.00293554,0.00064055,-0.00102205,0.00144685,0.2161
 3981,-0.01154954,0.37326756,-0.02048224,0.00016082,0.00586873,0.001956
 27,-0.00174147,-0.00344538,0.00368699,0.00117052,-0.00052098,0.0003350
 3,0.00004780,0.00003681,0.00404568,0.01277639,0.00187735,0.00317150,-0
 .00249933,-0.00102529,-0.00895461,0.00131486,-0.01483957,0.00205907,0.
 00035871,0.00166527,0.00074691,-0.00119076,0.00249920,0.00129708,0.001
 78436,0.00144466,-0.00081296,0.00014476,-0.00002695,0.00040504,-0.0012
 1710,0.00035160,-0.17047066,-0.11780800,-0.13757931,0.18085769,-0.0145
 8352,0.00785678,0.00777192,0.00182271,-0.00281419,-0.00346658,0.004157
 00,0.00055834,-0.00101714,0.00050983,0.00039934,0.00001729,0.01428254,
 -0.00039744,0.00133926,0.00179094,-0.00375974,-0.00116940,0.01922016,0
 .01666701,0.01561305,0.00280392,-0.00283757,0.00582562,-0.00073095,-0.
 00110869,0.00218892,0.00445540,0.00231679,0.00418838,-0.00031809,-0.00
 020482,-0.00013650,-0.00021865,-0.00077659,-0.00052913,-0.14016833,-0.
 15557027,-0.11218333,0.10669706,0.14550477,-0.00896205,0.00527683,0.00
 813210,0.00029384,-0.00187902,-0.00318878,0.00312085,0.00035820,-0.000
 76753,0.00046599,0.00019229,0.00025507,0.00917205,0.00601316,-0.010989
 66,0.00189394,-0.00200293,-0.00166138,-0.02424919,-0.00858905,-0.02937
 943,0.00004940,0.00276948,-0.00146894,-0.00022327,-0.00202630,0.001528
 29,0.00051733,0.00164541,0.00349601,-0.00004713,0.00003895,-0.00013763
 ,0.00041370,-0.00092117,-0.00013047,-0.12559326,-0.08187855,-0.1439830
 7,0.14175118,0.08190280,0.17651771,0.01195074,-0.00262041,-0.00614720,
 -0.00133495,0.00210564,0.00244926,-0.00251398,-0.00069191,0.00016718,-
 0.00000891,-0.00008385,0.00004525,-0.02171411,0.01872040,-0.01029754,-
 0.00288853,0.00326371,0.00155474,0.00662432,0.00559189,0.00056004,0.00
 039833,0.00320072,0.00137372,0.00351822,-0.00127080,-0.00176849,-0.146
 96719,-0.08603127,-0.05483318,-0.02341152,-0.02838938,-0.01266663,-0.0
 2052073,-0.02112268,-0.01778843,0.00642102,-0.00121979,0.00436303,-0.0
 0494955,-0.00453712,-0.00249717,0.41186998,-0.00348605,-0.00189590,0.0
 0229730,0.00062051,0.00045349,-0.00025134,0.00110529,0.00124347,-0.000
 17907,0.00006684,-0.00002201,-0.00002059,0.01337192,-0.00055163,0.0056
 9228,0.00075973,-0.00039699,-0.00034698,-0.02999448,-0.02874663,-0.021
 28953,0.00282694,-0.00677235,-0.00281694,-0.00046150,0.00275440,0.0014
 8605,-0.04823697,-0.17276906,-0.02849032,-0.02052624,-0.01511418,-0.00
 600006,0.00132149,0.00919259,-0.00327758,0.00180706,0.00310450,0.00234
 747,-0.00069907,-0.00031684,-0.00026679,-0.02064416,0.34442541,0.00650
 493,-0.00087012,-0.00588625,-0.00048933,0.00071496,0.00242705,-0.00160
 759,-0.00046193,0.00060799,-0.00013296,-0.00007657,-0.00008146,-0.0167
 3992,0.01195886,-0.00022487,-0.00201530,0.00207966,0.00139033,-0.01418
 623,-0.01408599,-0.00983993,0.00109318,-0.00428703,0.00001709,-0.00156
 072,0.00222290,0.00098782,-0.04897822,-0.04838597,-0.09964673,0.003369
 33,0.00598751,0.01692602,-0.02419946,-0.02493287,-0.01076120,0.0045406
 6,-0.00077605,0.00610671,-0.00281404,-0.00355489,-0.00268914,0.2464896
 5,-0.02764346,0.22632803,-0.01836058,0.00393151,0.00745411,0.00181330,
 -0.00209792,-0.00344041,0.00337356,0.00128316,-0.00029071,0.00010913,-
 0.00002229,0.00006335,0.00786189,-0.01249011,0.00247455,0.00378203,-0.
 00376566,-0.00189248,0.00557646,-0.00122734,0.00185116,-0.00063041,0.0
 0141059,0.00041661,-0.00007677,-0.00012757,0.00024412,-0.02451820,-0.0
 0075245,-0.01567580,0.00077851,0.00130914,-0.00061656,0.00169259,-0.00
 034848,0.00302324,-0.00559450,-0.00004569,-0.00346758,0.00724045,0.004
 02830,0.00314030,-0.21606359,0.10233651,-0.14893169,0.23256673,0.00885
 930,0.00027708,-0.00517905,-0.00132898,0.00066671,0.00194455,-0.002529
 20,-0.00165261,0.00048531,-0.00016558,-0.00012801,0.00002903,-0.009993
 92,-0.00212449,-0.00140489,-0.00203128,0.00199170,0.00119529,-0.003122
 68,0.00129583,-0.00453929,0.00055967,-0.00018868,0.00036062,0.00031008
 ,-0.00021374,-0.00016586,-0.02518551,0.01455109,-0.01996680,-0.0021093
 3,-0.00161143,-0.00001612,-0.00462752,-0.00375077,-0.00352475,0.002807
 70,0.00064780,0.00365487,-0.00152662,-0.00711024,-0.00131259,0.1351565
 4,-0.13463806,0.10265448,-0.09495918,0.13269086,-0.00629048,-0.0005298
 3,0.00628323,0.00067017,-0.00039494,-0.00268783,0.00195382,0.00086199,
 -0.00061438,0.00019013,0.00002755,0.00009269,0.00784404,-0.00568415,-0
 .00902521,0.00259291,-0.00227323,-0.00131958,0.00124824,-0.00083973,0.
 00314877,0.00026553,0.00143184,0.00031768,0.00042265,-0.00048610,-0.00
 077517,-0.01486820,0.00006330,-0.01287501,0.00231893,0.00185152,0.0004
 5831,-0.00163484,-0.00196593,-0.00005561,-0.00268880,-0.00028626,-0.00
 367745,0.00320321,0.00262272,0.00367766,-0.14987662,0.07868032,-0.1249
 3895,0.15439176,-0.07358643,0.14125821,-0.00833623,0.01987921,0.003488
 90,0.00294173,0.00815833,0.00142381,-0.00087386,-0.00500869,0.00102599
 ,0.00066718,-0.00018327,-0.00047348,0.00029439,0.00031348,-0.00118418,
 -0.08246987,0.02711310,0.03342577,-0.00001418,0.00031635,-0.00055537,0
 .00010349,0.00000771,0.00008534,-0.00003328,-0.00021681,0.00008002,-0.
 00014580,-0.00016424,0.00002936,0.00000127,0.00005624,-0.00000480,0.00
 004895,-0.00005502,0.00005242,0.00063080,-0.00014468,0.00079986,-0.000
 84818,0.00007920,-0.00028849,0.00025521,-0.00005357,0.00013358,-0.0003
 4252,0.00020564,-0.00016018,0.55699669,0.01865073,-0.03806020,-0.00229
 927,0.02386485,-0.04776584,0.01294563,-0.00056242,0.00162512,0.0002778
 4,-0.00054904,-0.00104417,0.00041155,-0.00341988,0.00315210,-0.0011124
 3,0.03259568,-0.12307286,-0.06058773,0.00022739,-0.00009388,0.00020092
 ,-0.00010253,-0.00002559,-0.00010358,-0.00001368,-0.00008778,0.0000247
 7,0.00024976,0.00023254,0.00019031,-0.00006910,-0.00003594,0.00003877,
 -0.00006659,0.00000429,-0.00009401,-0.00070315,-0.00051121,-0.00047721
 ,0.00116286,0.00059775,0.00062056,-0.00076114,0.00017149,-0.00054602,0
 .00097326,-0.00051271,0.00063770,0.01557226,0.60348891,0.01190320,-0.0
 2432950,0.01617198,0.00107420,0.00637611,-0.01572347,0.00054029,0.0068
 4103,-0.00233746,-0.00059616,-0.00073045,0.00086587,-0.00706833,0.0048
 1438,-0.00281108,0.04140279,-0.08100537,-0.17609950,-0.00017465,-0.000
 31285,0.00060553,-0.00013545,-0.00004556,-0.00014691,0.00003471,0.0003
 0452,-0.00014043,0.00053846,0.00068310,0.00027340,-0.00002828,-0.00013
 996,-0.00001937,-0.00012060,-0.00001339,-0.00013158,-0.00044805,-0.000
 85115,-0.00158167,0.00167089,0.00111700,0.00146768,-0.00139295,0.00018
 642,-0.00108711,0.00171400,-0.00091235,0.00118669,-0.01937391,-0.01161
 731,0.42627558,0.00013078,0.00056852,-0.00024752,-0.00087785,0.0036195
 2,-0.00208662,0.00023358,0.00075041,0.00006726,-0.00013058,0.00014913,
 0.00007505,-0.00035852,-0.00007816,0.00007176,0.00520518,0.01388447,0.
 00000624,-0.00001216,0.00006503,-0.00014019,0.00000253,-0.00000076,0.0
 0000971,0.00000044,-0.00000585,0.00002796,0.00003329,0.00002085,0.0000
 3319,-0.00000656,-0.00000155,0.00000050,0.00000387,-0.00001786,0.00000
 230,0.00011717,-0.00020025,0.00006751,0.00003141,0.00016182,0.00005043
 ,-0.00005210,-0.00002077,-0.00002212,0.00004858,-0.00001118,0.00001790
 ,-0.06783277,-0.06307308,0.01052777,0.06746146,-0.00372873,0.00315683,
 -0.00160586,0.00169140,-0.00064815,0.00190580,-0.00017436,-0.00195145,
 -0.00005485,0.00023201,0.00023087,-0.00003784,0.00160321,-0.00039123,-
 0.00003038,0.00491979,-0.02252710,-0.01056621,-0.00008587,-0.00002930,
 0.00005855,0.00005876,0.00002221,0.00002688,-0.00001628,0.00000015,-0.
 00005957,-0.00017963,-0.00014197,-0.00010482,0.00004614,0.00002484,-0.
 00002161,0.00002634,0.00001185,0.00003816,0.00020961,0.00038250,0.0001
 1923,-0.00042985,-0.00043948,-0.00024354,0.00039211,-0.00002660,0.0002
 0159,-0.00042855,0.00021548,-0.00020625,-0.05748740,-0.27375007,0.0444
 6246,0.05937922,0.30728900,-0.00235050,0.00140665,-0.00596600,-0.00393
 954,0.00516716,-0.00153748,-0.00001267,-0.00152714,0.00079232,0.000026
 34,0.00002162,-0.00017197,0.00066497,-0.00030773,0.00062059,0.00041881
 ,-0.03886453,-0.00358319,0.00003954,0.00004517,-0.00009020,-0.00002239
 ,-0.00000432,0.00000998,0.00000941,0.00000008,0.00003943,-0.00001412,-
 0.00003326,-0.00000299,-0.00000658,0.00000635,0.00000564,0.00000797,0.
 00000162,0.00000377,0.00003410,0.00001090,0.00006969,-0.00005847,-0.00
 007874,-0.00008058,0.00005789,-0.00003559,0.00008892,-0.00009690,0.000
 07803,-0.00011362,0.00953013,0.04854745,-0.05654614,-0.01246574,-0.038
 08747,0.06231582,0.00033886,-0.00591112,0.00241876,0.00170071,0.001662
 07,-0.00022137,0.00068528,0.00139851,-0.00003668,-0.00031565,0.0001487
 6,0.00019288,-0.00109581,0.00129123,-0.00022975,-0.00645304,0.01337315
 ,0.01500053,0.00019088,-0.00013841,0.00022775,-0.00005185,-0.00001816,
 -0.00004465,0.00002211,-0.00003568,0.00001749,0.00008778,0.00003347,0.
 00002946,-0.00003482,-0.00000857,0.00002614,-0.00004390,0.00003083,-0.
 00005219,-0.00045152,0.00014336,-0.00016426,0.00032745,0.00002482,0.00
 006109,-0.00029670,0.00016487,-0.00015601,0.00038441,-0.00025469,0.000
 19946,-0.27590780,-0.02836023,0.01933630,-0.00814682,-0.00221967,-0.00
 045885,0.30492649,0.00146540,0.00236395,-0.00236873,-0.00137533,0.0013
 5007,0.00037271,-0.00039060,0.00009970,0.00006851,-0.00003305,-0.00021
 197,0.00001073,0.00067421,-0.00093924,0.00042419,0.02435135,-0.0013349
 8,-0.01141829,-0.00001716,0.00000071,0.00000158,0.00000988,0.00000332,
 0.00000934,0.00000401,0.00001619,-0.00000904,-0.00004497,-0.00004934,-
 0.00004204,0.00001066,0.00000658,-0.00000079,0.00000839,0.00000677,0.0
 0001238,0.00006703,0.00011706,0.00003523,-0.00014530,-0.00014034,-0.00
 009766,0.00014772,-0.00003779,0.00011804,-0.00017769,0.00010160,-0.000
 13319,-0.02987229,-0.05839267,0.00753001,-0.03056264,-0.00257681,0.002
 99082,0.02298313,0.05688822,0.00008384,0.00548911,-0.00402291,0.001617
 63,0.00032426,0.00182182,-0.00040495,-0.00063816,0.00012302,0.00009113
 ,-0.00006710,-0.00000915,0.00153553,-0.00146960,0.00071774,0.03351526,
 -0.01295472,-0.01351551,0.00008971,0.00005538,-0.00010376,0.00002594,0
 .00000862,0.00002678,0.00000021,-0.00010830,0.00003845,-0.00014467,-0.
 00018714,-0.00006311,0.00000535,0.00004137,0.00001035,0.00002675,0.000
 01031,0.00002738,-0.00000166,0.00024119,0.00038528,-0.00036753,-0.0003
 0583,-0.00038058,0.00035953,-0.00004129,0.00026871,-0.00043185,0.00022
 165,-0.00028915,0.02108053,0.00743105,-0.04833875,0.00654855,0.0024371
 6,0.00164270,-0.03283808,0.00256386,0.06339698,0.00328788,0.00301406,0
 .00700400,-0.06932643,0.00922238,0.00762167,-0.00047998,-0.00062579,-0
 .00351880,0.00062920,-0.00012778,0.00045697,-0.00201589,-0.00155084,0.
 00076884,0.00780803,0.00448393,0.00965146,-0.00068798,0.00008396,-0.00
 003364,0.00007885,0.00002073,0.00001454,-0.00022888,0.00054540,-0.0001
 9054,0.00024605,0.00055432,0.00010974,0.00008196,-0.00011094,-0.000094
 74,0.00003840,-0.00010608,0.00004682,0.00070028,-0.00103961,-0.0007171
 0,-0.00001638,0.00100628,0.00123623,-0.00035809,-0.00034277,-0.0003272
 0,0.00039190,-0.00003474,0.00021877,-0.11625333,0.01174914,-0.04630435
 ,0.00345734,-0.00531270,0.00852681,-0.01684032,0.01194616,-0.02822210,
 0.56961968,0.00221802,-0.00917303,-0.04674129,0.00951191,-0.23013021,-
 0.03721935,0.00252497,0.00200302,0.00570465,-0.00131076,-0.00040968,-0
 .00115396,-0.00563832,-0.00072066,0.00745839,-0.00032390,-0.01566019,-
 0.01086559,-0.00003104,0.00077570,-0.00126253,-0.00053391,-0.00018018,
 0.00003305,0.00009474,0.00053893,0.00062287,0.00097596,0.00078875,0.00
 055428,-0.00021559,-0.00015882,0.00006350,-0.00007995,-0.00011108,-0.0
 0014038,0.00091118,-0.00268022,-0.00130590,0.00193488,0.00262381,0.001
 43343,-0.00175660,-0.00024599,-0.00065039,0.00175050,-0.00068719,0.000
 47702,0.01552620,-0.07527197,0.03990012,0.01528307,-0.00912253,0.02187
 132,-0.00607394,0.00222711,-0.00542186,0.03555600,0.46228669,0.0027281
 2,-0.02371760,-0.02162814,0.00134902,-0.01906413,-0.07959415,-0.000966
 16,-0.00043433,-0.00176758,-0.00009333,-0.00030591,-0.00022259,-0.0006
 7708,0.00124436,0.00027536,-0.00640172,-0.00650016,-0.04977616,0.00001
 935,0.00031822,-0.00050020,-0.00007979,-0.00005329,0.00001360,0.000010
 45,0.00004260,0.00018877,0.00023968,0.00010040,0.00021055,-0.00007649,
 -0.00000520,0.00002968,-0.00002627,-0.00003788,-0.00004436,0.00093150,
 -0.00068441,-0.00045596,0.00047660,0.00059854,0.00040724,-0.00045375,-
 0.00002796,-0.00012960,0.00040037,-0.00013107,0.00007497,-0.03856286,0
 .01788771,-0.12517615,-0.00233026,0.00097991,0.00210362,0.00078692,-0.
 00067317,0.00063808,-0.05483131,0.05638860,0.56708559,-0.00099226,0.00
 028106,-0.00322124,0.00314608,0.00676461,0.00195252,0.00018538,0.00004
 957,0.00029666,-0.00006245,-0.00004196,-0.00007998,0.00003753,0.000125
 59,0.00047805,0.00018177,-0.00046951,-0.00436082,0.00026006,-0.0004209
 5,0.00056385,-0.00009439,-0.00002728,-0.00005085,0.00015148,-0.0000116
 2,0.00001480,0.00003530,0.00002584,-0.00004041,-0.00000439,-0.00001152
 ,0.00000494,-0.00004319,0.00006066,-0.00003914,-0.00096980,0.00051720,
 -0.00005011,0.00022291,-0.00026559,-0.00031103,-0.00010366,0.00007970,
 -0.00004628,0.00013043,-0.00011116,0.00003925,0.00755725,-0.00370806,-
 0.01373791,0.00001915,0.00071398,0.00023468,0.00118456,-0.00051366,0.0
 0027468,-0.11691106,0.01465446,0.10949626,0.11923244,0.00176350,-0.004
 04125,0.00512283,0.01804349,-0.02240122,-0.03751351,-0.00079062,-0.000
 44581,-0.00117414,0.00015265,-0.00000663,0.00003719,0.00115646,0.00045
 024,-0.00161612,0.00099887,0.00177916,0.00304849,0.00001501,-0.0000583
 7,0.00011481,0.00002459,0.00001724,0.00000007,-0.00001317,-0.00004598,
 -0.00004111,-0.00013445,-0.00008950,-0.00008180,0.00002303,0.00002108,
 -0.00000327,0.00001759,0.00001193,0.00002203,-0.00014687,0.00032148,0.
 00018032,-0.00020890,-0.00041156,-0.00026873,0.00023625,-0.00000589,0.
 00012272,-0.00028809,0.00013483,-0.00010760,-0.00813554,0.00507047,0.0
 0663649,-0.00009831,-0.00062310,-0.00080780,-0.00008697,0.00070756,-0.
 00037090,0.01262505,-0.04919966,-0.02049297,-0.02062849,0.06467490,-0.
 00069994,0.00214102,0.00159396,0.00038807,-0.00842588,-0.00122757,-0.0
 0034700,-0.00084549,-0.00032467,0.00017946,0.00012098,-0.00003651,0.00
 108155,-0.00043156,-0.00039965,-0.00244573,0.00011152,-0.00508775,-0.0
 0007963,0.00009429,-0.00016312,0.00006733,0.00002466,0.00003374,-0.000
 04966,-0.00003199,-0.00001987,-0.00012364,-0.00011292,-0.00006507,0.00
 002174,0.00002195,-0.00000919,0.00003528,-0.00001278,0.00004237,0.0002
 4870,0.00007780,0.00028974,-0.00035901,-0.00021421,-0.00017707,0.00029
 839,-0.00005232,0.00017477,-0.00035173,0.00019620,-0.00017349,0.015951
 44,-0.00492745,-0.01629194,-0.00077365,0.00100541,-0.00084581,-0.00098
 950,-0.00068405,0.00118286,0.10621850,-0.02655635,-0.23348887,-0.11765
 328,0.03742815,0.25297977,-0.00019680,-0.00017737,0.00188042,0.0117814
 2,-0.00318720,-0.00154265,-0.00006778,-0.00011363,-0.00009720,0.000042
 92,0.00006593,0.00003910,0.00049181,0.00002384,-0.00063176,0.00159575,
 -0.00038693,-0.00053210,-0.00041464,0.00021548,-0.00010542,0.00013015,
 0.00002776,0.00003312,0.00001873,-0.00006610,-0.00014617,-0.00002502,-
 0.00007649,0.00002467,0.00000634,0.00002707,-0.00000705,0.00002977,-0.
 00002631,0.00002501,-0.00068941,0.00029765,0.00019678,0.00015111,-0.00
 021770,0.00000524,0.00014580,0.00000471,0.00007573,-0.00016341,0.00009
 266,-0.00005763,-0.01643916,-0.00365704,0.00063803,0.00067259,0.000790
 48,-0.00012488,-0.00021030,0.00146476,-0.00284380,-0.26322122,-0.08497
 789,-0.01193927,-0.01316313,-0.00452506,-0.00061770,0.27952449,-0.0041
 6040,-0.00253194,0.00684182,-0.02819450,-0.03591361,-0.01101489,-0.000
 13280,-0.00076757,-0.00215013,0.00054860,0.00016007,0.00036765,0.00137
 699,0.00061067,-0.00028906,-0.00096207,0.00147925,-0.00051534,0.000648
 11,-0.00002524,-0.00013859,-0.00008464,-0.00000807,0.00000616,0.000090
 39,-0.00050598,0.00022074,-0.00026320,-0.00039358,-0.00004596,-0.00003
 234,0.00010133,0.00005671,-0.00000355,0.00004039,-0.00000601,-0.000683
 91,0.00032864,0.00059723,-0.00008662,-0.00063681,-0.00076477,0.0003141
 6,0.00019458,0.00021059,-0.00029195,0.00004494,-0.00016032,0.01409379,
 0.00428224,0.00110626,0.00018837,0.00089406,-0.00040057,0.00185327,-0.
 00020568,0.00274094,-0.08155619,-0.07749257,-0.00543228,0.00293713,0.0
 0414008,0.00107306,0.09440135,0.10620480,-0.00211426,-0.00115877,0.000
 41189,-0.00553344,-0.00731279,0.00316888,0.00018036,-0.00020553,-0.000
 41813,0.00010888,0.00010183,0.00005340,0.00045755,0.00050050,0.0003290
 2,0.00198836,0.00037598,0.00137727,0.00006385,-0.00066473,0.00109481,-
 0.00010106,-0.00000737,-0.00008346,0.00019484,0.00022044,-0.00016816,-
 0.00000246,0.00012872,-0.00019755,0.00005415,-0.00005316,-0.00002730,-
 0.00004232,0.00008918,-0.00002129,-0.00074986,0.00065072,-0.00046817,0
 .00019106,-0.00052974,-0.00044749,0.00000329,0.00004998,-0.00003819,0.
 00002214,-0.00008083,0.00004724,-0.02650391,-0.00744923,-0.00041513,0.
 00055996,-0.00021675,0.00124550,-0.00310547,0.00128959,-0.00355722,-0.
 00763457,-0.00318963,-0.05824369,0.02623537,0.00976484,0.00201336,0.01
 572756,0.00769677,0.05434442\\-0.00000027,0.00000214,0.00000961,0.0000
 0115,-0.00000329,-0.00000500,-0.00000122,-0.00000348,-0.00000185,-0.00
 000107,0.00000145,0.00000156,0.00000417,-0.00000080,-0.00000032,-0.000
 00083,0.00000111,-0.00000424,-0.00000355,0.00000365,0.00000058,-0.0000
 0028,0.00000069,0.00000039,0.00000065,-0.00000032,-0.00000077,0.000003
 21,-0.00000269,0.00000088,-0.00000063,-0.00000089,0.00000092,-0.000001
 03,-0.00000084,0.00000112,0.00000043,-0.00000309,0.00000006,0.00000002
 ,-0.00000079,0.00000003,-0.00000098,-0.00000159,0.00000274,-0.00000239
 ,-0.00000024,0.00000080,0.00000195,-0.00000054,-0.00000005,0.00000106,
 0.00000066,-0.00000186,-0.00000010,0.00000118,-0.00000124,-0.00000028,
 0.00000574,-0.00000026,-0.00000003,0.00000152,-0.00000140,0.00000002,0
 .00000042,-0.00000169\\\@
 The archive entry for this job was punched.


 THE MOST BEAUTIFUL EXPERIENCE WE CAN HAVE IS THE MYSTERIOUS.
 IT IS THE FUNDAMENTAL EMOTION WHICH STANDS AT AT THE CRADLE 
 OF TRUE ART AND TRUE SCIENCE.

                                    -- ALBERT EINSTEIN
 Job cpu time:       0 days  5 hours  8 minutes 51.3 seconds.
 Elapsed time:       0 days  1 hours 17 minutes 14.8 seconds.
 File lengths (MBytes):  RWF=    456 Int=      0 D2E=      0 Chk=     21 Scr=      1
 Normal termination of Gaussian 16 at Wed Mar 20 20:12:57 2024.
