 Entering Gaussian System, Link 0=/opt/software/gaussian/g16.c01/g16
 Initial command:
 /opt/software/gaussian/g16.c01/l1.exe "/scratch/arhender/27730897/Gau-66877.inp" -scrdir="/scratch/arhender/27730897/"
 Entering Link 1 = /opt/software/gaussian/g16.c01/l1.exe PID=     66880.
  
 Copyright (c) 1988-2019, Gaussian, Inc.  All Rights Reserved.
  
 This is part of the Gaussian(R) 16 program.  It is based on
 the Gaussian(R) 09 system (copyright 2009, Gaussian, Inc.),
 the Gaussian(R) 03 system (copyright 2003, Gaussian, Inc.),
 the Gaussian(R) 98 system (copyright 1998, Gaussian, Inc.),
 the Gaussian(R) 94 system (copyright 1995, Gaussian, Inc.),
 the Gaussian 92(TM) system (copyright 1992, Gaussian, Inc.),
 the Gaussian 90(TM) system (copyright 1990, Gaussian, Inc.),
 the Gaussian 88(TM) system (copyright 1988, Gaussian, Inc.),
 the Gaussian 86(TM) system (copyright 1986, Carnegie Mellon
 University), and the Gaussian 82(TM) system (copyright 1983,
 Carnegie Mellon University). Gaussian is a federally registered
 trademark of Gaussian, Inc.
  
 This software contains proprietary and confidential information,
 including trade secrets, belonging to Gaussian, Inc.
  
 This software is provided under written license and may be
 used, copied, transmitted, or stored only in accord with that
 written license.
  
 The following legend is applicable only to US Government
 contracts under FAR:
  
                    RESTRICTED RIGHTS LEGEND
  
 Use, reproduction and disclosure by the US Government is
 subject to restrictions as set forth in subparagraphs (a)
 and (c) of the Commercial Computer Software - Restricted
 Rights clause in FAR 52.227-19.
  
 Gaussian, Inc.
 340 Quinnipiac St., Bldg. 40, Wallingford CT 06492
  
  
 ---------------------------------------------------------------
 Warning -- This program may not be used in any manner that
 competes with the business of Gaussian, Inc. or will provide
 assistance to any competitor of Gaussian, Inc.  The licensee
 of this program is prohibited from giving any competitor of
 Gaussian, Inc. access to this program.  By using this program,
 the user acknowledges that Gaussian, Inc. is engaged in the
 business of creating and licensing software in the field of
 computational chemistry and represents and warrants to the
 licensee that it is not a competitor of Gaussian, Inc. and that
 it will not use this program in any manner prohibited above.
 ---------------------------------------------------------------
  

 Cite this work as:
 Gaussian 16, Revision C.01,
 M. J. Frisch, G. W. Trucks, H. B. Schlegel, G. E. Scuseria, 
 M. A. Robb, J. R. Cheeseman, G. Scalmani, V. Barone, 
 G. A. Petersson, H. Nakatsuji, X. Li, M. Caricato, A. V. Marenich, 
 J. Bloino, B. G. Janesko, R. Gomperts, B. Mennucci, H. P. Hratchian, 
 J. V. Ortiz, A. F. Izmaylov, J. L. Sonnenberg, D. Williams-Young, 
 F. Ding, F. Lipparini, F. Egidi, J. Goings, B. Peng, A. Petrone, 
 T. Henderson, D. Ranasinghe, V. G. Zakrzewski, J. Gao, N. Rega, 
 G. Zheng, W. Liang, M. Hada, M. Ehara, K. Toyota, R. Fukuda, 
 J. Hasegawa, M. Ishida, T. Nakajima, Y. Honda, O. Kitao, H. Nakai, 
 T. Vreven, K. Throssell, J. A. Montgomery, Jr., J. E. Peralta, 
 F. Ogliaro, M. J. Bearpark, J. J. Heyd, E. N. Brothers, K. N. Kudin, 
 V. N. Staroverov, T. A. Keith, R. Kobayashi, J. Normand, 
 K. Raghavachari, A. P. Rendell, J. C. Burant, S. S. Iyengar, 
 J. Tomasi, M. Cossi, J. M. Millam, M. Klene, C. Adamo, R. Cammi, 
 J. W. Ochterski, R. L. Martin, K. Morokuma, O. Farkas, 
 J. B. Foresman, and D. J. Fox, Gaussian, Inc., Wallingford CT, 2019.
 
 ******************************************
 Gaussian 16:  ES64L-G16RevC.01  3-Jul-2019
                25-Mar-2024 
 ******************************************
 %chk=QL_MonoToBi_DeprotonatedLigandAttacking_IRC_forward_reactantOpt.chk
 %mem=1600MB
 %nprocs=4
 Will use up to    4 processors via shared memory.
 ---------------------------------------------
 # opt freq wb97xd/def2tzvpp geom=connectivity
 ---------------------------------------------
 1/18=20,19=15,26=3,38=1,57=2/1,3;
 2/9=110,12=2,17=6,18=5,40=1/2;
 3/5=44,7=202,11=2,25=1,30=1,71=1,74=-58/1,2,3;
 4//1;
 5/5=2,38=5/2;
 6/7=2,8=2,9=2,10=2,28=1/1;
 7//1,2,3,16;
 1/18=20,19=15,26=3/3(2);
 2/9=110/2;
 99//99;
 2/9=110/2;
 3/5=44,7=202,11=2,25=1,30=1,71=1,74=-58/1,2,3;
 4/5=5,16=3,69=1/1;
 5/5=2,38=5/2;
 7//1,2,3,16;
 1/18=20,19=15,26=3/3(-5);
 2/9=110/2;
 6/7=2,8=2,9=2,10=2,19=2,28=1/1;
 99/9=1/99;
 ----------------------------------------------------------------------
 TS opt of scan peak max corresponding to proton transfer from ethylene
  glycol to ligand
 ----------------------------------------------------------------------
 Symbolic Z-matrix:
 Charge = -1 Multiplicity = 1
 Si                    0.86091   0.01463  -0.06197 
 O                     1.04684  -0.06401   1.60104 
 H                     1.97094  -0.06351   1.84685 
 O                     0.5389    1.41169  -0.68176 
 H                    -0.94139   1.50395  -0.01619 
 O                     2.29904  -0.62389  -0.63884 
 H                     2.57778  -0.08234  -1.37429 
 O                    -0.26802  -1.17264  -0.39406 
 C                    -1.59645  -1.14487   0.03754 
 H                    -1.64914  -1.32015   1.1216 
 H                    -2.13027  -1.96568  -0.4612 
 C                    -2.3241    0.16026  -0.27222 
 H                    -2.29685   0.32012  -1.36043 
 H                    -3.37538   0.03192   0.01849 
 O                    -1.81421   1.26098   0.41464 
 

 GradGradGradGradGradGradGradGradGradGradGradGradGradGradGradGradGradGrad
 Berny optimization.
 Initialization pass.
                           ----------------------------
                           !    Initial Parameters    !
                           ! (Angstroms and Degrees)  !
 --------------------------                            --------------------------
 ! Name  Definition              Value          Derivative Info.                !
 --------------------------------------------------------------------------------
 ! R1    R(1,2)                  1.6752         estimate D2E/DX2                !
 ! R2    R(1,4)                  1.5619         estimate D2E/DX2                !
 ! R3    R(1,6)                  1.6759         estimate D2E/DX2                !
 ! R4    R(1,8)                  1.6716         estimate D2E/DX2                !
 ! R5    R(2,3)                  0.9562         estimate D2E/DX2                !
 ! R6    R(5,15)                 1.0032         estimate D2E/DX2                !
 ! R7    R(6,7)                  0.9549         estimate D2E/DX2                !
 ! R8    R(8,9)                  1.3971         estimate D2E/DX2                !
 ! R9    R(9,10)                 1.0994         estimate D2E/DX2                !
 ! R10   R(9,11)                 1.0988         estimate D2E/DX2                !
 ! R11   R(9,12)                 1.526          estimate D2E/DX2                !
 ! R12   R(12,13)                1.1002         estimate D2E/DX2                !
 ! R13   R(12,14)                1.0983         estimate D2E/DX2                !
 ! R14   R(12,15)                1.394          estimate D2E/DX2                !
 ! A1    A(2,1,4)              117.3087         estimate D2E/DX2                !
 ! A2    A(2,1,6)              103.2135         estimate D2E/DX2                !
 ! A3    A(2,1,8)              103.8177         estimate D2E/DX2                !
 ! A4    A(4,1,6)              112.4023         estimate D2E/DX2                !
 ! A5    A(4,1,8)              114.6586         estimate D2E/DX2                !
 ! A6    A(6,1,8)              103.9184         estimate D2E/DX2                !
 ! A7    A(1,2,3)              111.2487         estimate D2E/DX2                !
 ! A8    A(1,6,7)              107.4287         estimate D2E/DX2                !
 ! A9    A(1,8,9)              124.519          estimate D2E/DX2                !
 ! A10   A(8,9,10)             110.3058         estimate D2E/DX2                !
 ! A11   A(8,9,11)             107.8716         estimate D2E/DX2                !
 ! A12   A(8,9,12)             114.06           estimate D2E/DX2                !
 ! A13   A(10,9,11)            107.7677         estimate D2E/DX2                !
 ! A14   A(10,9,12)            108.2792         estimate D2E/DX2                !
 ! A15   A(11,9,12)            108.3653         estimate D2E/DX2                !
 ! A16   A(9,12,13)            108.254          estimate D2E/DX2                !
 ! A17   A(9,12,14)            107.6236         estimate D2E/DX2                !
 ! A18   A(9,12,15)            113.6328         estimate D2E/DX2                !
 ! A19   A(13,12,14)           107.6076         estimate D2E/DX2                !
 ! A20   A(13,12,15)           111.3178         estimate D2E/DX2                !
 ! A21   A(14,12,15)           108.1773         estimate D2E/DX2                !
 ! A22   A(5,15,12)            107.3285         estimate D2E/DX2                !
 ! D1    D(4,1,2,3)            -99.347          estimate D2E/DX2                !
 ! D2    D(6,1,2,3)             24.8338         estimate D2E/DX2                !
 ! D3    D(8,1,2,3)            133.0254         estimate D2E/DX2                !
 ! D4    D(2,1,6,7)           -138.0055         estimate D2E/DX2                !
 ! D5    D(4,1,6,7)            -10.6674         estimate D2E/DX2                !
 ! D6    D(8,1,6,7)            113.8788         estimate D2E/DX2                !
 ! D7    D(2,1,8,9)             65.2037         estimate D2E/DX2                !
 ! D8    D(4,1,8,9)            -64.0513         estimate D2E/DX2                !
 ! D9    D(6,1,8,9)            172.8695         estimate D2E/DX2                !
 ! D10   D(1,8,9,10)           -71.3632         estimate D2E/DX2                !
 ! D11   D(1,8,9,11)           171.1729         estimate D2E/DX2                !
 ! D12   D(1,8,9,12)            50.7411         estimate D2E/DX2                !
 ! D13   D(8,9,12,13)           58.4363         estimate D2E/DX2                !
 ! D14   D(8,9,12,14)          174.4755         estimate D2E/DX2                !
 ! D15   D(8,9,12,15)          -65.7698         estimate D2E/DX2                !
 ! D16   D(10,9,12,13)        -178.3525         estimate D2E/DX2                !
 ! D17   D(10,9,12,14)         -62.3133         estimate D2E/DX2                !
 ! D18   D(10,9,12,15)          57.4414         estimate D2E/DX2                !
 ! D19   D(11,9,12,13)         -61.7191         estimate D2E/DX2                !
 ! D20   D(11,9,12,14)          54.3202         estimate D2E/DX2                !
 ! D21   D(11,9,12,15)         174.0749         estimate D2E/DX2                !
 ! D22   D(9,12,15,5)           74.0755         estimate D2E/DX2                !
 ! D23   D(13,12,15,5)         -48.4567         estimate D2E/DX2                !
 ! D24   D(14,12,15,5)        -166.4846         estimate D2E/DX2                !
 --------------------------------------------------------------------------------
 Trust Radius=3.00D-01 FncErr=1.00D-07 GrdErr=1.00D-06 EigMax=2.50D+02 EigMin=1.00D-04
 Number of steps in this run=     70 maximum allowed number of steps=    100.
 GradGradGradGradGradGradGradGradGradGradGradGradGradGradGradGradGradGrad

                          Input orientation:                          
 ---------------------------------------------------------------------
 Center     Atomic      Atomic             Coordinates (Angstroms)
 Number     Number       Type             X           Y           Z
 ---------------------------------------------------------------------
      1         14           0        0.860909    0.014625   -0.061967
      2          8           0        1.046839   -0.064008    1.601042
      3          1           0        1.970940   -0.063510    1.846847
      4          8           0        0.538895    1.411690   -0.681755
      5          1           0       -0.941388    1.503945   -0.016192
      6          8           0        2.299036   -0.623894   -0.638841
      7          1           0        2.577781   -0.082338   -1.374290
      8          8           0       -0.268019   -1.172635   -0.394060
      9          6           0       -1.596445   -1.144867    0.037536
     10          1           0       -1.649143   -1.320148    1.121604
     11          1           0       -2.130274   -1.965680   -0.461195
     12          6           0       -2.324096    0.160255   -0.272223
     13          1           0       -2.296853    0.320122   -1.360427
     14          1           0       -3.375381    0.031921    0.018494
     15          8           0       -1.814206    1.260983    0.414639
 ---------------------------------------------------------------------
                    Distance matrix (angstroms):
                    1          2          3          4          5
     1  Si   0.000000
     2  O    1.675217   0.000000
     3  H    2.209490   0.956234   0.000000
     4  O    1.561929   2.765295   3.258956   0.000000
     5  H    2.338470   3.004491   3.795983   1.625645   0.000000
     6  O    1.675917   2.626508   2.569109   2.691383   3.926288
     7  H    2.163156   3.346150   3.277855   2.620836   4.092099
     8  O    1.671631   2.634072   3.356302   2.722612   2.785730
     9  C    2.718991   3.255727   4.143570   3.407791   2.729137
    10  H    3.079419   3.012651   3.900015   3.937328   3.125860
    11  H    3.609455   4.238304   5.075950   4.310422   3.694560
    12  C    3.195258   3.862981   4.794566   3.151273   1.944977
    13  H    3.427942   4.483094   5.352367   3.113452   2.246261
    14  H    4.237089   4.697839   5.651118   4.208998   2.844711
    15  O    2.989448   3.368788   4.258266   2.600361   1.003223
                    6          7          8          9         10
     6  O    0.000000
     7  H    0.954917   0.000000
     8  O    2.636438   3.201277   0.000000
     9  C    3.987941   4.532812   1.397055   0.000000
    10  H    4.378590   5.062465   2.055846   1.099411   0.000000
    11  H    4.631494   5.152330   2.025197   1.098836   1.775796
    12  C    4.703472   5.030090   2.453343   1.526031   2.142407
    13  H    4.747004   4.891239   2.697843   2.142677   3.044748
    14  H    5.749886   6.114985   3.358103   2.133027   2.454555
    15  O    4.645572   4.928928   2.994526   2.444942   2.681284
                   11         12         13         14         15
    11  H    0.000000
    12  C    2.143100   0.000000
    13  H    2.461962   1.100222   0.000000
    14  H    2.402250   1.098265   1.774177   0.000000
    15  O    3.358324   1.394048   2.066162   2.026029   0.000000
 Stoichiometry    C2H7O5Si(1-)
 Framework group  C1[X(C2H7O5Si)]
 Deg. of freedom    39
 Full point group                 C1      NOp   1
 Largest Abelian subgroup         C1      NOp   1
 Largest concise Abelian subgroup C1      NOp   1
                         Standard orientation:                         
 ---------------------------------------------------------------------
 Center     Atomic      Atomic             Coordinates (Angstroms)
 Number     Number       Type             X           Y           Z
 ---------------------------------------------------------------------
      1         14           0        0.896437    0.093416   -0.054837
      2          8           0        1.069083    0.105345    1.611417
      3          1           0        1.987457    0.189817    1.864076
      4          8           0        0.473009    1.431150   -0.740984
      5          1           0       -1.017405    1.436652   -0.091862
      6          8           0        2.386619   -0.455375   -0.590454
      7          1           0        2.630402    0.072469   -1.347962
      8          8           0       -0.132165   -1.192958   -0.340442
      9          6           0       -1.463493   -1.250346    0.079124
     10          1           0       -1.514588   -1.379779    1.169693
     11          1           0       -1.925683   -2.132482   -0.385264
     12          6           0       -2.287597   -0.022040   -0.296223
     13          1           0       -2.260623    0.089849   -1.390408
     14          1           0       -3.328826   -0.219453   -0.008026
     15          8           0       -1.873335    1.145516    0.342971
 ---------------------------------------------------------------------
 Rotational constants (GHZ):           2.8529947           1.3149720           1.1969428
 Standard basis: def2TZVPP (5D, 7F)
 There are   405 symmetry adapted cartesian basis functions of A   symmetry.
 There are   357 symmetry adapted basis functions of A   symmetry.
   357 basis functions,   545 primitive gaussians,   405 cartesian basis functions
    37 alpha electrons       37 beta electrons
       nuclear repulsion energy       523.9356796922 Hartrees.
 NAtoms=   15 NActive=   15 NUniq=   15 SFac= 1.00D+00 NAtFMM=   60 NAOKFM=F Big=F
 Integral buffers will be    131072 words long.
 Raffenetti 2 integral format.
 Two-electron integral symmetry is turned on.
 Nuclear repulsion after empirical dispersion term =      523.9287808094 Hartrees.
 One-electron integrals computed using PRISM.
   1 Symmetry operations used in ECPInt.
 ECPInt:  NShTT=    8911 NPrTT=   25186 LenC2=    8621 LenP2D=   19367.
 LDataN:  DoStor=T MaxTD1= 6 Len=  172
 NBasis=   357 RedAO= T EigKep=  3.06D-04  NBF=   357
 NBsUse=   357 1.00D-06 EigRej= -1.00D+00 NBFU=   357
 ExpMin= 7.01D-02 ExpMax= 4.48D+04 ExpMxC= 1.53D+03 IAcc=3 IRadAn=         5 AccDes= 0.00D+00
 Harris functional with IExCor= 4639 and IRadAn=       5 diagonalized for initial guess.
 HarFok:  IExCor= 4639 AccDes= 0.00D+00 IRadAn=         5 IDoV= 1 UseB2=F ITyADJ=14
 ICtDFT=  3500011 ScaDFX=  1.000000  1.000000  1.000000  1.000000
 FoFCou: FMM=F IPFlag=           0 FMFlag=      100000 FMFlg1=           0
         NFxFlg=           0 DoJE=T BraDBF=F KetDBF=T FulRan=T
         wScrn=  0.000000 ICntrl=       500 IOpCl=  0 I1Cent=   200000004 NGrid=           0
         NMat0=    1 NMatS0=      1 NMatT0=    0 NMatD0=    1 NMtDS0=    0 NMtDT0=    0
 Petite list used in FoFCou.
 Requested convergence on RMS density matrix=1.00D-08 within 128 cycles.
 Requested convergence on MAX density matrix=1.00D-06.
 Requested convergence on             energy=1.00D-06.
 No special actions if energy rises.
 Integral accuracy reduced to 1.0D-05 until final iterations.
 Initial convergence to 1.0D-05 achieved.  Increase integral accuracy.
 SCF Done:  E(RwB97XD) =  -746.350241821     A.U. after   14 cycles
            NFock= 14  Conv=0.55D-08     -V/T= 2.0033

 **********************************************************************

            Population analysis using the SCF Density.

 **********************************************************************

 Orbital symmetries:
       Occupied  (A) (A) (A) (A) (A) (A) (A) (A) (A) (A) (A) (A)
                 (A) (A) (A) (A) (A) (A) (A) (A) (A) (A) (A) (A)
                 (A) (A) (A) (A) (A) (A) (A) (A) (A) (A) (A) (A)
                 (A)
       Virtual   (A) (A) (A) (A) (A) (A) (A) (A) (A) (A) (A) (A)
                 (A) (A) (A) (A) (A) (A) (A) (A) (A) (A) (A) (A)
                 (A) (A) (A) (A) (A) (A) (A) (A) (A) (A) (A) (A)
                 (A) (A) (A) (A) (A) (A) (A) (A) (A) (A) (A) (A)
                 (A) (A) (A) (A) (A) (A) (A) (A) (A) (A) (A) (A)
                 (A) (A) (A) (A) (A) (A) (A) (A) (A) (A) (A) (A)
                 (A) (A) (A) (A) (A) (A) (A) (A) (A) (A) (A) (A)
                 (A) (A) (A) (A) (A) (A) (A) (A) (A) (A) (A) (A)
                 (A) (A) (A) (A) (A) (A) (A) (A) (A) (A) (A) (A)
                 (A) (A) (A) (A) (A) (A) (A) (A) (A) (A) (A) (A)
                 (A) (A) (A) (A) (A) (A) (A) (A) (A) (A) (A) (A)
                 (A) (A) (A) (A) (A) (A) (A) (A) (A) (A) (A) (A)
                 (A) (A) (A) (A) (A) (A) (A) (A) (A) (A) (A) (A)
                 (A) (A) (A) (A) (A) (A) (A) (A) (A) (A) (A) (A)
                 (A) (A) (A) (A) (A) (A) (A) (A) (A) (A) (A) (A)
                 (A) (A) (A) (A) (A) (A) (A) (A) (A) (A) (A) (A)
                 (A) (A) (A) (A) (A) (A) (A) (A) (A) (A) (A) (A)
                 (A) (A) (A) (A) (A) (A) (A) (A) (A) (A) (A) (A)
                 (A) (A) (A) (A) (A) (A) (A) (A) (A) (A) (A) (A)
                 (A) (A) (A) (A) (A) (A) (A) (A) (A) (A) (A) (A)
                 (A) (A) (A) (A) (A) (A) (A) (A) (A) (A) (A) (A)
                 (A) (A) (A) (A) (A) (A) (A) (A) (A) (A) (A) (A)
                 (A) (A) (A) (A) (A) (A) (A) (A) (A) (A) (A) (A)
                 (A) (A) (A) (A) (A) (A) (A) (A) (A) (A) (A) (A)
                 (A) (A) (A) (A) (A) (A) (A) (A) (A) (A) (A) (A)
                 (A) (A) (A) (A) (A) (A) (A) (A) (A) (A) (A) (A)
                 (A) (A) (A) (A) (A) (A) (A) (A)
 The electronic state is 1-A.
 Alpha  occ. eigenvalues --  -66.09616 -19.07372 -19.06819 -19.06736 -19.05743
 Alpha  occ. eigenvalues --  -18.97684 -10.17715 -10.17029  -5.21426  -3.56042
 Alpha  occ. eigenvalues --   -3.55969  -3.55697  -0.96030  -0.93973  -0.92525
 Alpha  occ. eigenvalues --   -0.91489  -0.79842  -0.67080  -0.55335  -0.46655
 Alpha  occ. eigenvalues --   -0.43699  -0.42693  -0.40071  -0.39535  -0.35259
 Alpha  occ. eigenvalues --   -0.33413  -0.31998  -0.29005  -0.26865  -0.25831
 Alpha  occ. eigenvalues --   -0.24422  -0.24084  -0.21973  -0.21118  -0.18155
 Alpha  occ. eigenvalues --   -0.15991  -0.15150
 Alpha virt. eigenvalues --    0.25007   0.26194   0.28404   0.29942   0.31166
 Alpha virt. eigenvalues --    0.32982   0.33590   0.35137   0.37562   0.38197
 Alpha virt. eigenvalues --    0.39261   0.42632   0.42916   0.43925   0.45117
 Alpha virt. eigenvalues --    0.47768   0.49796   0.50957   0.53203   0.54234
 Alpha virt. eigenvalues --    0.56893   0.57548   0.58987   0.59259   0.60074
 Alpha virt. eigenvalues --    0.60315   0.62711   0.63357   0.65300   0.65838
 Alpha virt. eigenvalues --    0.66473   0.67196   0.68510   0.69721   0.70043
 Alpha virt. eigenvalues --    0.71711   0.72842   0.73041   0.75537   0.76431
 Alpha virt. eigenvalues --    0.76949   0.80029   0.81117   0.83255   0.85013
 Alpha virt. eigenvalues --    0.87561   0.88327   0.89591   0.91127   0.93943
 Alpha virt. eigenvalues --    0.94738   0.96391   0.97912   0.98847   0.99695
 Alpha virt. eigenvalues --    1.01660   1.03884   1.05624   1.05885   1.07692
 Alpha virt. eigenvalues --    1.10198   1.11084   1.12969   1.14620   1.18653
 Alpha virt. eigenvalues --    1.19562   1.20228   1.22026   1.23224   1.24820
 Alpha virt. eigenvalues --    1.27656   1.29517   1.31098   1.32967   1.34592
 Alpha virt. eigenvalues --    1.35403   1.36865   1.37561   1.40208   1.42934
 Alpha virt. eigenvalues --    1.45153   1.46266   1.47094   1.48645   1.50885
 Alpha virt. eigenvalues --    1.51039   1.54122   1.57118   1.58207   1.59997
 Alpha virt. eigenvalues --    1.62041   1.63122   1.64557   1.67068   1.69320
 Alpha virt. eigenvalues --    1.71587   1.72867   1.74312   1.76644   1.77130
 Alpha virt. eigenvalues --    1.80420   1.83666   1.87168   1.92686   1.96888
 Alpha virt. eigenvalues --    1.98091   2.01406   2.03044   2.06381   2.08800
 Alpha virt. eigenvalues --    2.10575   2.11807   2.13974   2.15672   2.18251
 Alpha virt. eigenvalues --    2.19076   2.22319   2.23366   2.28368   2.29592
 Alpha virt. eigenvalues --    2.31208   2.33554   2.35887   2.39412   2.40804
 Alpha virt. eigenvalues --    2.41635   2.42523   2.44259   2.46998   2.49079
 Alpha virt. eigenvalues --    2.51402   2.54147   2.56714   2.60485   2.65638
 Alpha virt. eigenvalues --    2.67621   2.71893   2.77117   2.77301   2.82808
 Alpha virt. eigenvalues --    2.85458   2.88021   2.91470   2.96911   2.98933
 Alpha virt. eigenvalues --    3.01163   3.01895   3.04412   3.05412   3.07260
 Alpha virt. eigenvalues --    3.13724   3.16328   3.17130   3.19049   3.19912
 Alpha virt. eigenvalues --    3.21989   3.25449   3.25652   3.28154   3.29589
 Alpha virt. eigenvalues --    3.31269   3.33360   3.35206   3.38260   3.40354
 Alpha virt. eigenvalues --    3.41916   3.44086   3.46498   3.49827   3.51411
 Alpha virt. eigenvalues --    3.52051   3.54929   3.56792   3.57522   3.59659
 Alpha virt. eigenvalues --    3.60207   3.62019   3.64503   3.67399   3.69721
 Alpha virt. eigenvalues --    3.75672   3.76822   3.77639   3.81205   3.84741
 Alpha virt. eigenvalues --    3.86000   3.89546   3.90533   3.91808   3.93755
 Alpha virt. eigenvalues --    3.95491   3.97833   4.00144   4.02466   4.06251
 Alpha virt. eigenvalues --    4.06974   4.08533   4.13502   4.16404   4.17868
 Alpha virt. eigenvalues --    4.19221   4.21201   4.23999   4.25761   4.27342
 Alpha virt. eigenvalues --    4.29555   4.29887   4.33239   4.34502   4.37413
 Alpha virt. eigenvalues --    4.38450   4.39558   4.42312   4.47148   4.48451
 Alpha virt. eigenvalues --    4.51724   4.52272   4.54138   4.58091   4.58919
 Alpha virt. eigenvalues --    4.66567   4.72161   4.76618   4.79628   4.84285
 Alpha virt. eigenvalues --    4.88423   4.89491   4.95089   4.98631   5.00799
 Alpha virt. eigenvalues --    5.06194   5.08944   5.12174   5.13090   5.15361
 Alpha virt. eigenvalues --    5.17411   5.19825   5.20332   5.22620   5.26181
 Alpha virt. eigenvalues --    5.31305   5.35033   5.41771   5.43351   5.46587
 Alpha virt. eigenvalues --    5.50367   5.52567   5.56207   5.57257   5.59027
 Alpha virt. eigenvalues --    5.60362   5.62377   5.63306   5.65080   5.66690
 Alpha virt. eigenvalues --    5.68424   5.70081   5.71839   5.74328   5.74832
 Alpha virt. eigenvalues --    5.80649   5.84055   5.86443   5.86873   5.91833
 Alpha virt. eigenvalues --    5.96414   6.02070   6.06449   6.09677   6.11060
 Alpha virt. eigenvalues --    6.18388   6.26051   6.34294   6.35820   6.47379
 Alpha virt. eigenvalues --    6.64838   6.69322   6.70908   6.75656   6.78489
 Alpha virt. eigenvalues --    6.82978   6.84571   6.86608   6.87567   6.88717
 Alpha virt. eigenvalues --    6.90270   6.92260   6.93988   6.95628   6.99702
 Alpha virt. eigenvalues --    7.00775   7.01924   7.03297   7.04118   7.07937
 Alpha virt. eigenvalues --    7.12179   7.16687   7.20725   7.24650   7.28567
 Alpha virt. eigenvalues --    7.31338   7.37348   7.43032   7.46895   7.49311
 Alpha virt. eigenvalues --    7.54569   7.59629   7.73798   7.79406   7.85141
 Alpha virt. eigenvalues --    7.91509   7.95886  12.46782  23.57809  23.65941
 Alpha virt. eigenvalues --   43.97784  44.03812  44.13570  44.32795  44.41395
          Condensed to atoms (all electrons):
               1          2          3          4          5          6
     1  Si  11.508231   0.410981  -0.031214   0.648867  -0.015709   0.413805
     2  O    0.410981   7.806539   0.325705  -0.034503  -0.000881  -0.039712
     3  H   -0.031214   0.325705   0.554422  -0.001038  -0.000081   0.001457
     4  O    0.648867  -0.034503  -0.001038   8.165709   0.099172  -0.044625
     5  H   -0.015709  -0.000881  -0.000081   0.099172   0.398342   0.000747
     6  O    0.413805  -0.039712   0.001457  -0.044625   0.000747   7.882196
     7  H   -0.026076   0.001600  -0.000517   0.003869  -0.000343   0.316130
     8  O    0.398132  -0.030150   0.002091  -0.034819  -0.000811  -0.028575
     9  C   -0.080530  -0.006781  -0.000445  -0.015640   0.017928  -0.000384
    10  H   -0.005223   0.006929  -0.000103  -0.000291  -0.002341  -0.000104
    11  H    0.006836  -0.000171   0.000042  -0.000368  -0.001157  -0.000023
    12  C    0.011307  -0.000608   0.000127   0.019980  -0.042286  -0.000438
    13  H    0.006703   0.000064   0.000016   0.003594  -0.013743  -0.000086
    14  H    0.000252   0.000104   0.000009  -0.000382   0.006180  -0.000010
    15  O    0.018410  -0.001804   0.000263  -0.071582   0.314751  -0.000191
               7          8          9         10         11         12
     1  Si  -0.026076   0.398132  -0.080530  -0.005223   0.006836   0.011307
     2  O    0.001600  -0.030150  -0.006781   0.006929  -0.000171  -0.000608
     3  H   -0.000517   0.002091  -0.000445  -0.000103   0.000042   0.000127
     4  O    0.003869  -0.034819  -0.015640  -0.000291  -0.000368   0.019980
     5  H   -0.000343  -0.000811   0.017928  -0.002341  -0.001157  -0.042286
     6  O    0.316130  -0.028575  -0.000384  -0.000104  -0.000023  -0.000438
     7  H    0.538922  -0.000122  -0.000423  -0.000026   0.000040   0.000127
     8  O   -0.000122   7.948657   0.317839  -0.051672  -0.046384  -0.077607
     9  C   -0.000423   0.317839   4.905013   0.408213   0.342586   0.232207
    10  H   -0.000026  -0.051672   0.408213   0.711281  -0.055304  -0.067084
    11  H    0.000040  -0.046384   0.342586  -0.055304   0.740672  -0.012820
    12  C    0.000127  -0.077607   0.232207  -0.067084  -0.012820   4.764368
    13  H   -0.000006   0.007342  -0.083450   0.016096  -0.003242   0.421976
    14  H   -0.000001   0.006449  -0.032850  -0.004584   0.004122   0.368691
    15  O    0.000058   0.004888  -0.099539   0.009912   0.007674   0.322789
              13         14         15
     1  Si   0.006703   0.000252   0.018410
     2  O    0.000064   0.000104  -0.001804
     3  H    0.000016   0.000009   0.000263
     4  O    0.003594  -0.000382  -0.071582
     5  H   -0.013743   0.006180   0.314751
     6  O   -0.000086  -0.000010  -0.000191
     7  H   -0.000006  -0.000001   0.000058
     8  O    0.007342   0.006449   0.004888
     9  C   -0.083450  -0.032850  -0.099539
    10  H    0.016096  -0.004584   0.009912
    11  H   -0.003242   0.004122   0.007674
    12  C    0.421976   0.368691   0.322789
    13  H    0.716419  -0.050317  -0.052308
    14  H   -0.050317   0.722653  -0.038503
    15  O   -0.052308  -0.038503   8.042431
 Mulliken charges:
               1
     1  Si   0.735227
     2  O   -0.437312
     3  H    0.149266
     4  O   -0.737943
     5  H    0.240232
     6  O   -0.500187
     7  H    0.166767
     8  O   -0.415258
     9  C    0.096257
    10  H    0.034301
    11  H    0.017497
    12  C    0.059272
    13  H    0.030941
    14  H    0.018187
    15  O   -0.457247
 Sum of Mulliken charges =  -1.00000
 Mulliken charges with hydrogens summed into heavy atoms:
               1
     1  Si   0.735227
     2  O   -0.288047
     4  O   -0.737943
     6  O   -0.333419
     8  O   -0.415258
     9  C    0.148055
    12  C    0.108400
    15  O   -0.217015
 Electronic spatial extent (au):  <R**2>=           1111.4963
 Charge=             -1.0000 electrons
 Dipole moment (field-independent basis, Debye):
    X=              0.0110    Y=             -2.6563    Z=              0.0347  Tot=              2.6566
 Quadrupole moment (field-independent basis, Debye-Ang):
   XX=            -62.3025   YY=            -68.5990   ZZ=            -59.4191
   XY=              6.1814   XZ=              2.5581   YZ=              0.5671
 Traceless Quadrupole moment (field-independent basis, Debye-Ang):
   XX=              1.1377   YY=             -5.1588   ZZ=              4.0211
   XY=              6.1814   XZ=              2.5581   YZ=              0.5671
 Octapole moment (field-independent basis, Debye-Ang**2):
  XXX=             20.2589  YYY=             -7.0161  ZZZ=             -4.0930  XYY=              2.0627
  XXY=              0.9068  XXZ=             -0.0014  XZZ=             12.7675  YZZ=             -2.0025
  YYZ=              6.6933  XYZ=              2.5549
 Hexadecapole moment (field-independent basis, Debye-Ang**3):
 XXXX=           -901.1810 YYYY=           -356.1893 ZZZZ=           -231.7164 XXXY=             40.2562
 XXXZ=              5.9763 YYYX=             -6.9873 YYYZ=              9.2418 ZZZX=             -3.0557
 ZZZY=              4.2499 XXYY=           -221.5128 XXZZ=           -152.7375 YYZZ=           -101.3693
 XXYZ=             -8.7982 YYXZ=              8.7095 ZZXY=              1.2732
 N-N= 5.239287808094D+02 E-N=-2.829636920015D+03  KE= 7.438973910065D+02
   1 Symmetry operations used in ECPInt.
 ECPInt:  NShTT=    8911 NPrTT=   25186 LenC2=    8621 LenP2D=   19367.
 LDataN:  DoStor=T MaxTD1= 7 Len=  274
 Calling FoFJK, ICntrl=      2127 FMM=F ISym2X=0 I1Cent= 0 IOpClX= 0 NMat=1 NMatS=1 NMatT=0.
 ***** Axes restored to original set *****
 -------------------------------------------------------------------
 Center     Atomic                   Forces (Hartrees/Bohr)
 Number     Number              X              Y              Z
 -------------------------------------------------------------------
      1       14           0.002390795   -0.000763219   -0.000808416
      2        8           0.004142903   -0.001647961    0.000576257
      3        1          -0.003240320    0.000342775   -0.000923534
      4        8          -0.000455653    0.000018781    0.001598944
      5        1          -0.000962382   -0.000557699    0.000458239
      6        8           0.001022955   -0.001101575   -0.000677251
      7        1           0.000076031   -0.000111664   -0.000099837
      8        8           0.000661104    0.000261161    0.000139852
      9        6           0.000795379    0.001092919    0.001147456
     10        1           0.000104280    0.000243982    0.000160155
     11        1           0.000016049   -0.000044431    0.000225275
     12        6          -0.000255378    0.000025927   -0.000736332
     13        1           0.000106865   -0.000053491   -0.000158401
     14        1          -0.000120318   -0.000105570   -0.000178577
     15        8          -0.004282310    0.002400068   -0.000723829
 -------------------------------------------------------------------
 Cartesian Forces:  Max     0.004282310 RMS     0.001288730

 GradGradGradGradGradGradGradGradGradGradGradGradGradGradGradGradGradGrad
 Berny optimization.
 FormGI is forming the generalized inverse of G from B-inverse, IUseBI=4.
 Internal  Forces:  Max     0.015538558 RMS     0.003576951
 Search for a local minimum.
 Step number   1 out of a maximum of   70
 All quantities printed in internal units (Hartrees-Bohrs-Radians)
 Mixed Optimization -- RFO/linear search
 Second derivative matrix not updated -- first step.
 ITU=  0
     Eigenvalues ---    0.00422   0.01731   0.01771   0.03335   0.03344
     Eigenvalues ---    0.03392   0.04778   0.04824   0.06022   0.06098
     Eigenvalues ---    0.11718   0.11805   0.12867   0.13725   0.14074
     Eigenvalues ---    0.14100   0.14825   0.16000   0.16000   0.16000
     Eigenvalues ---    0.21446   0.21561   0.22092   0.22100   0.25000
     Eigenvalues ---    0.29793   0.33658   0.33747   0.33811   0.33875
     Eigenvalues ---    0.38952   0.39046   0.39533   0.46112   0.46621
     Eigenvalues ---    0.47126   0.56291   0.56581   0.59346
 RFO step:  Lambda=-7.07509164D-03 EMin= 4.21609737D-03
 Linear search not attempted -- first point.
 Iteration  1 RMS(Cart)=  0.21532910 RMS(Int)=  0.01056630
 Iteration  2 RMS(Cart)=  0.02394366 RMS(Int)=  0.00049932
 Iteration  3 RMS(Cart)=  0.00031093 RMS(Int)=  0.00048363
 Iteration  4 RMS(Cart)=  0.00000026 RMS(Int)=  0.00048363
 Variable       Old X    -DE/DX   Delta X   Delta X   Delta X     New X
                                 (Linear)    (Quad)   (Total)
    R1        3.16570  -0.00018   0.00000  -0.00046  -0.00046   3.16524
    R2        2.95162  -0.00052   0.00000  -0.00087  -0.00087   2.95075
    R3        3.16703   0.00167   0.00000   0.00421   0.00421   3.17124
    R4        3.15892   0.00028   0.00000   0.00069   0.00069   3.15962
    R5        1.80702  -0.00337   0.00000  -0.00591  -0.00591   1.80111
    R6        1.89582  -0.00117   0.00000  -0.00245  -0.00245   1.89337
    R7        1.80453   0.00004   0.00000   0.00006   0.00006   1.80460
    R8        2.64005   0.00449   0.00000   0.00959   0.00959   2.64964
    R9        2.07759   0.00011   0.00000   0.00033   0.00033   2.07791
   R10        2.07650  -0.00008   0.00000  -0.00022  -0.00022   2.07628
   R11        2.88378   0.00436   0.00000   0.01430   0.01430   2.89808
   R12        2.07912   0.00015   0.00000   0.00044   0.00044   2.07956
   R13        2.07542   0.00008   0.00000   0.00023   0.00023   2.07565
   R14        2.63437  -0.00059   0.00000  -0.00126  -0.00126   2.63311
    A1        2.04742   0.00005   0.00000   0.00090   0.00091   2.04833
    A2        1.80142  -0.00087   0.00000  -0.00574  -0.00576   1.79565
    A3        1.81196  -0.00049   0.00000  -0.00391  -0.00394   1.80802
    A4        1.96179   0.00112   0.00000   0.00665   0.00665   1.96844
    A5        2.00117   0.00085   0.00000   0.00552   0.00553   2.00669
    A6        1.81372  -0.00103   0.00000  -0.00568  -0.00570   1.80802
    A7        1.94166  -0.00014   0.00000  -0.00083  -0.00083   1.94083
    A8        1.87498   0.00025   0.00000   0.00148   0.00148   1.87646
    A9        2.17327   0.01554   0.00000   0.06044   0.06044   2.23371
   A10        1.92520  -0.00311   0.00000   0.01345   0.01118   1.93638
   A11        1.88271  -0.00457   0.00000  -0.04038  -0.03943   1.84328
   A12        1.99072   0.01219   0.00000   0.05714   0.05615   2.04687
   A13        1.88090   0.00109   0.00000  -0.00849  -0.00827   1.87263
   A14        1.88983  -0.00039   0.00000   0.02060   0.01887   1.90870
   A15        1.89133  -0.00578   0.00000  -0.04706  -0.04626   1.84508
   A16        1.88939  -0.00237   0.00000  -0.00475  -0.00516   1.88422
   A17        1.87839  -0.00228   0.00000  -0.01519  -0.01502   1.86337
   A18        1.98327   0.00890   0.00000   0.04173   0.04161   2.02487
   A19        1.87811   0.00076   0.00000  -0.00662  -0.00675   1.87136
   A20        1.94286  -0.00190   0.00000   0.00374   0.00335   1.94622
   A21        1.88805  -0.00347   0.00000  -0.02193  -0.02170   1.86635
   A22        1.87324  -0.00043   0.00000  -0.00259  -0.00259   1.87065
    D1       -1.73393   0.00018   0.00000   0.00473   0.00473  -1.72920
    D2        0.43343   0.00098   0.00000   0.00939   0.00938   0.44281
    D3        2.32173  -0.00058   0.00000   0.00004   0.00005   2.32178
    D4       -2.40865  -0.00048   0.00000  -0.00431  -0.00429  -2.41294
    D5       -0.18618  -0.00034   0.00000  -0.00314  -0.00314  -0.18932
    D6        1.98756   0.00067   0.00000   0.00373   0.00371   1.99127
    D7        1.13802   0.00353   0.00000   0.07590   0.07589   1.21391
    D8       -1.11791   0.00326   0.00000   0.07401   0.07401  -1.04390
    D9        3.01714   0.00208   0.00000   0.06644   0.06645   3.08359
   D10       -1.24552   0.00147   0.00000   0.14798   0.14758  -1.09794
   D11        2.98753   0.00456   0.00000   0.17433   0.17414  -3.12152
   D12        0.88560   0.00735   0.00000   0.22613   0.22671   1.11231
   D13        1.01991  -0.00167   0.00000  -0.09361  -0.09425   0.92566
   D14        3.04517  -0.00319   0.00000  -0.11175  -0.11234   2.93283
   D15       -1.14790  -0.00362   0.00000  -0.12394  -0.12471  -1.27261
   D16       -3.11284   0.00240   0.00000  -0.02151  -0.02097  -3.13381
   D17       -1.08757   0.00088   0.00000  -0.03965  -0.03906  -1.12663
   D18        1.00254   0.00045   0.00000  -0.05184  -0.05143   0.95111
   D19       -1.07720   0.00038   0.00000  -0.04571  -0.04553  -1.12273
   D20        0.94807  -0.00114   0.00000  -0.06385  -0.06362   0.88445
   D21        3.03818  -0.00157   0.00000  -0.07604  -0.07599   2.96219
   D22        1.29286   0.00047   0.00000   0.00782   0.00807   1.30093
   D23       -0.84573  -0.00155   0.00000  -0.01975  -0.01989  -0.86562
   D24       -2.90570   0.00077   0.00000  -0.00032  -0.00043  -2.90614
         Item               Value     Threshold  Converged?
 Maximum Force            0.015539     0.000450     NO 
 RMS     Force            0.003577     0.000300     NO 
 Maximum Displacement     0.671188     0.001800     NO 
 RMS     Displacement     0.231002     0.001200     NO 
 Predicted change in Energy=-4.234650D-03
 GradGradGradGradGradGradGradGradGradGradGradGradGradGradGradGradGradGrad

                          Input orientation:                          
 ---------------------------------------------------------------------
 Center     Atomic      Atomic             Coordinates (Angstroms)
 Number     Number       Type             X           Y           Z
 ---------------------------------------------------------------------
      1         14           0        0.982779    0.002709    0.026461
      2          8           0        1.285760   -0.267013    1.651573
      3          1           0        2.220660   -0.345582    1.819497
      4          8           0        0.713965    1.475034   -0.418715
      5          1           0       -1.296565    1.706241   -0.139908
      6          8           0        2.327724   -0.666972   -0.721088
      7          1           0        2.592880   -0.073573   -1.420731
      8          8           0       -0.242992   -1.077347   -0.329260
      9          6           0       -1.576382   -1.042230    0.102953
     10          1           0       -1.637679   -1.136740    1.196752
     11          1           0       -2.050842   -1.934109   -0.329045
     12          6           0       -2.432106    0.145774   -0.353448
     13          1           0       -2.360765    0.214095   -1.449460
     14          1           0       -3.474085   -0.102385   -0.110235
     15          8           0       -2.153755    1.368560    0.253867
 ---------------------------------------------------------------------
                    Distance matrix (angstroms):
                    1          2          3          4          5
     1  Si   0.000000
     2  O    1.674974   0.000000
     3  H    2.206499   0.953106   0.000000
     4  O    1.561467   2.765460   3.254899   0.000000
     5  H    2.850457   3.711002   4.518863   2.042896   0.000000
     6  O    1.678148   2.622056   2.563069   2.698858   4.370970
     7  H    2.166243   3.344404   3.272860   2.632971   4.464978
     8  O    1.671997   2.630100   3.349958   2.727346   2.982320
     9  C    2.765330   3.345301   4.224852   3.443028   2.773332
    10  H    3.087835   3.083793   3.987547   3.867987   3.159993
    11  H    3.616698   4.223147   5.038391   4.390268   3.722479
    12  C    3.438929   4.244176   5.158620   3.415985   1.941677
    13  H    3.660917   4.810927   5.655863   3.479421   2.252543
    14  H    4.460198   5.078109   6.017735   4.485886   2.830830
    15  O    3.428572   4.056963   4.952272   2.947461   1.001929
                    6          7          8          9         10
     6  O    0.000000
     7  H    0.954951   0.000000
     8  O    2.632588   3.200163   0.000000
     9  C    4.007730   4.543418   1.402130   0.000000
    10  H    4.429809   5.087158   2.068186   1.099585   0.000000
    11  H    4.575060   5.120305   2.000590   1.098719   1.770468
    12  C    4.842695   5.141760   2.507754   1.533597   2.163117
    13  H    4.825841   4.962074   2.721697   2.145599   3.057785
    14  H    5.861134   6.206956   3.382083   2.128388   2.480018
    15  O    5.017727   5.235893   3.158087   2.483555   2.726150
                   11         12         13         14         15
    11  H    0.000000
    12  C    2.114680   0.000000
    13  H    2.442573   1.100455   0.000000
    14  H    2.329959   1.098388   1.770075   0.000000
    15  O    3.355294   1.393383   2.068083   2.009856   0.000000
 Stoichiometry    C2H7O5Si(1-)
 Framework group  C1[X(C2H7O5Si)]
 Deg. of freedom    39
 Full point group                 C1      NOp   1
 Largest Abelian subgroup         C1      NOp   1
 Largest concise Abelian subgroup C1      NOp   1
                         Standard orientation:                         
 ---------------------------------------------------------------------
 Center     Atomic      Atomic             Coordinates (Angstroms)
 Number     Number       Type             X           Y           Z
 ---------------------------------------------------------------------
      1         14           0        0.985089    0.134257   -0.024189
      2          8           0        1.371390   -0.182048    1.574642
      3          1           0        2.313630   -0.149760    1.714474
      4          8           0        0.518993    1.582188   -0.376937
      5          1           0       -1.494704    1.539820   -0.035393
      6          8           0        2.379052   -0.317145   -0.842287
      7          1           0        2.544908    0.342140   -1.512933
      8          8           0       -0.105714   -1.072430   -0.411008
      9          6           0       -1.418419   -1.230971    0.055510
     10          1           0       -1.432346   -1.391480    1.143227
     11          1           0       -1.790399   -2.151402   -0.415258
     12          6           0       -2.431025   -0.138830   -0.310246
     13          1           0       -2.403914   -0.002858   -1.401932
     14          1           0       -3.425169   -0.530563   -0.055926
     15          8           0       -2.289544    1.074850    0.359440
 ---------------------------------------------------------------------
 Rotational constants (GHZ):           2.8845517           1.1587774           1.0628611
 Standard basis: def2TZVPP (5D, 7F)
 There are   405 symmetry adapted cartesian basis functions of A   symmetry.
 There are   357 symmetry adapted basis functions of A   symmetry.
   357 basis functions,   545 primitive gaussians,   405 cartesian basis functions
    37 alpha electrons       37 beta electrons
       nuclear repulsion energy       511.0175355821 Hartrees.
 NAtoms=   15 NActive=   15 NUniq=   15 SFac= 1.00D+00 NAtFMM=   60 NAOKFM=F Big=F
 Integral buffers will be    131072 words long.
 Raffenetti 2 integral format.
 Two-electron integral symmetry is turned on.
 Nuclear repulsion after empirical dispersion term =      511.0107033468 Hartrees.
 One-electron integrals computed using PRISM.
   1 Symmetry operations used in ECPInt.
 ECPInt:  NShTT=    8911 NPrTT=   25186 LenC2=    8557 LenP2D=   19087.
 LDataN:  DoStor=T MaxTD1= 6 Len=  172
 NBasis=   357 RedAO= T EigKep=  3.16D-04  NBF=   357
 NBsUse=   357 1.00D-06 EigRej= -1.00D+00 NBFU=   357
 Initial guess from the checkpoint file:  "QL_MonoToBi_DeprotonatedLigandAttacking_IRC_forward_reactantOpt.chk"
 B after Tr=     0.000000    0.000000   -0.000000
         Rot=    0.997496   -0.066162   -0.016203   -0.019015 Ang=  -8.11 deg.
 ExpMin= 7.01D-02 ExpMax= 4.48D+04 ExpMxC= 1.53D+03 IAcc=3 IRadAn=         5 AccDes= 0.00D+00
 Harris functional with IExCor= 4639 and IRadAn=       5 diagonalized for initial guess.
 HarFok:  IExCor= 4639 AccDes= 0.00D+00 IRadAn=         5 IDoV= 1 UseB2=F ITyADJ=14
 ICtDFT=  3500011 ScaDFX=  1.000000  1.000000  1.000000  1.000000
 FoFCou: FMM=F IPFlag=           0 FMFlag=      100000 FMFlg1=           0
         NFxFlg=           0 DoJE=T BraDBF=F KetDBF=T FulRan=T
         wScrn=  0.000000 ICntrl=       500 IOpCl=  0 I1Cent=   200000004 NGrid=           0
         NMat0=    1 NMatS0=      1 NMatT0=    0 NMatD0=    1 NMtDS0=    0 NMtDT0=    0
 Petite list used in FoFCou.
 Requested convergence on RMS density matrix=1.00D-08 within 128 cycles.
 Requested convergence on MAX density matrix=1.00D-06.
 Requested convergence on             energy=1.00D-06.
 No special actions if energy rises.
 Integral accuracy reduced to 1.0D-05 until final iterations.
 Initial convergence to 1.0D-05 achieved.  Increase integral accuracy.
 SCF Done:  E(RwB97XD) =  -746.346245344     A.U. after   13 cycles
            NFock= 13  Conv=0.68D-08     -V/T= 2.0035
   1 Symmetry operations used in ECPInt.
 ECPInt:  NShTT=    8911 NPrTT=   25186 LenC2=    8557 LenP2D=   19087.
 LDataN:  DoStor=T MaxTD1= 7 Len=  274
 Calling FoFJK, ICntrl=      2127 FMM=F ISym2X=0 I1Cent= 0 IOpClX= 0 NMat=1 NMatS=1 NMatT=0.
 ***** Axes restored to original set *****
 -------------------------------------------------------------------
 Center     Atomic                   Forces (Hartrees/Bohr)
 Number     Number              X              Y              Z
 -------------------------------------------------------------------
      1       14          -0.004828445    0.010763645   -0.002417273
      2        8           0.000376725   -0.002340785    0.001280683
      3        1          -0.000174730    0.000425551    0.000121551
      4        8          -0.006756180   -0.002986108    0.000773172
      5        1          -0.009827010   -0.012337074    0.014954937
      6        8           0.001370187   -0.002104854   -0.000484363
      7        1          -0.000489971    0.000062839    0.000237068
      8        8          -0.006346365    0.002541113    0.000375851
      9        6           0.004132223   -0.003224072   -0.002535483
     10        1           0.000480281    0.002351882   -0.000292599
     11        1          -0.001946901   -0.000731453    0.001841500
     12        6           0.002829305   -0.005725626   -0.002501659
     13        1           0.000423487    0.000037103    0.000489840
     14        1           0.000844499   -0.000560945    0.000060200
     15        8           0.019912896    0.013828784   -0.011903425
 -------------------------------------------------------------------
 Cartesian Forces:  Max     0.019912896 RMS     0.005886357

 GradGradGradGradGradGradGradGradGradGradGradGradGradGradGradGradGradGrad
 Berny optimization.
 Using GEDIIS/GDIIS optimizer.
 FormGI is forming the generalized inverse of G from B-inverse, IUseBI=4.
 Internal  Forces:  Max     0.040953323 RMS     0.009802299
 Search for a local minimum.
 Step number   2 out of a maximum of   70
 All quantities printed in internal units (Hartrees-Bohrs-Radians)
 Mixed Optimization -- RFO/linear search
 Update second derivatives using D2CorX and points    2    1
 DE=  4.00D-03 DEPred=-4.23D-03 R=-9.44D-01
 Trust test=-9.44D-01 RLast= 4.33D-01 DXMaxT set to 1.50D-01
 ITU= -1  0
 Use linear search instead of GDIIS.
     Eigenvalues ---    0.00425   0.01457   0.02240   0.03047   0.03335
     Eigenvalues ---    0.03344   0.04487   0.05175   0.06095   0.06239
     Eigenvalues ---    0.11979   0.12163   0.12850   0.13681   0.14189
     Eigenvalues ---    0.14401   0.14918   0.15992   0.16000   0.16001
     Eigenvalues ---    0.21413   0.21431   0.22016   0.23876   0.29546
     Eigenvalues ---    0.33657   0.33746   0.33809   0.33873   0.38824
     Eigenvalues ---    0.39016   0.39294   0.42445   0.46352   0.46649
     Eigenvalues ---    0.56148   0.56580   0.59296   0.72935
 RFO step:  Lambda=-1.39094698D-03 EMin= 4.25400970D-03
 Quartic linear search produced a step of -0.74852.
 Iteration  1 RMS(Cart)=  0.13831385 RMS(Int)=  0.00508579
 Iteration  2 RMS(Cart)=  0.00710496 RMS(Int)=  0.00022977
 Iteration  3 RMS(Cart)=  0.00002355 RMS(Int)=  0.00022894
 Iteration  4 RMS(Cart)=  0.00000001 RMS(Int)=  0.00022894
 Variable       Old X    -DE/DX   Delta X   Delta X   Delta X     New X
                                 (Linear)    (Quad)   (Total)
    R1        3.16524   0.00171   0.00034   0.00066   0.00100   3.16624
    R2        2.95075  -0.00187   0.00065  -0.00163  -0.00098   2.94976
    R3        3.17124   0.00163  -0.00315   0.00508   0.00192   3.17316
    R4        3.15962  -0.00534  -0.00052  -0.00273  -0.00324   3.15637
    R5        1.80111  -0.00019   0.00442  -0.00578  -0.00135   1.79976
    R6        1.89337  -0.01844   0.00183  -0.01218  -0.01035   1.88302
    R7        1.80460  -0.00027  -0.00005  -0.00006  -0.00011   1.80449
    R8        2.64964  -0.01615  -0.00718   0.00041  -0.00677   2.64287
    R9        2.07791  -0.00052  -0.00025  -0.00007  -0.00032   2.07759
   R10        2.07628   0.00071   0.00017   0.00032   0.00048   2.07676
   R11        2.89808  -0.01193  -0.01070   0.00351  -0.00719   2.89089
   R12        2.07956  -0.00046  -0.00033   0.00008  -0.00025   2.07931
   R13        2.07565  -0.00066  -0.00017  -0.00027  -0.00044   2.07521
   R14        2.63311   0.00465   0.00094   0.00130   0.00224   2.63535
    A1        2.04833   0.00207  -0.00068   0.00334   0.00262   2.05095
    A2        1.79565  -0.00125   0.00431  -0.00417   0.00015   1.79580
    A3        1.80802   0.00069   0.00295  -0.00442  -0.00146   1.80656
    A4        1.96844   0.00482  -0.00498   0.01399   0.00900   1.97744
    A5        2.00669  -0.00807  -0.00414  -0.00744  -0.01158   1.99511
    A6        1.80802   0.00216   0.00427  -0.00269   0.00160   1.80962
    A7        1.94083   0.00016   0.00062  -0.00050   0.00012   1.94095
    A8        1.87646  -0.00084  -0.00110   0.00005  -0.00105   1.87541
    A9        2.23371  -0.03753  -0.04524   0.01930  -0.02595   2.20776
   A10        1.93638   0.01383  -0.00837   0.00635  -0.00093   1.93545
   A11        1.84328   0.01369   0.02951  -0.00755   0.02155   1.86483
   A12        2.04687  -0.04095  -0.04203   0.00295  -0.03859   2.00828
   A13        1.87263  -0.00328   0.00619   0.00170   0.00770   1.88033
   A14        1.90870   0.00667  -0.01413   0.00984  -0.00350   1.90520
   A15        1.84508   0.01279   0.03462  -0.01541   0.01887   1.86395
   A16        1.88422   0.00133   0.00387  -0.01293  -0.00894   1.87528
   A17        1.86337   0.00834   0.01124   0.00421   0.01540   1.87877
   A18        2.02487  -0.02009  -0.03114   0.01387  -0.01730   2.00757
   A19        1.87136  -0.00134   0.00505   0.00045   0.00563   1.87699
   A20        1.94622   0.00652  -0.00251  -0.00115  -0.00364   1.94257
   A21        1.86635   0.00656   0.01625  -0.00475   0.01142   1.87777
   A22        1.87065  -0.00163   0.00194  -0.00493  -0.00299   1.86765
    D1       -1.72920  -0.00484  -0.00354  -0.00436  -0.00791  -1.73712
    D2        0.44281   0.00171  -0.00702   0.01255   0.00554   0.44835
    D3        2.32178   0.00385  -0.00004   0.00689   0.00685   2.32863
    D4       -2.41294  -0.00127   0.00321  -0.00689  -0.00371  -2.41665
    D5       -0.18932   0.00336   0.00235   0.00285   0.00522  -0.18410
    D6        1.99127  -0.00229  -0.00278   0.00007  -0.00269   1.98858
    D7        1.21391   0.00231  -0.05680   0.07247   0.01570   1.22960
    D8       -1.04390   0.00467  -0.05540   0.07682   0.02139  -1.02250
    D9        3.08359   0.00189  -0.04974   0.06564   0.01590   3.09949
   D10       -1.09794   0.00272  -0.11047   0.00585  -0.10438  -1.20232
   D11       -3.12152  -0.00796  -0.13035   0.00493  -0.12540   3.03627
   D12        1.11231  -0.01026  -0.16970   0.02821  -0.14175   0.97057
   D13        0.92566   0.00113   0.07055   0.04828   0.11921   1.04486
   D14        2.93283   0.00438   0.08409   0.04465   0.12902   3.06185
   D15       -1.27261   0.00640   0.09335   0.05020   0.14388  -1.12873
   D16       -3.13381  -0.00763   0.01569   0.06869   0.08415  -3.04965
   D17       -1.12663  -0.00438   0.02924   0.06505   0.09397  -1.03266
   D18        0.95111  -0.00236   0.03850   0.07060   0.10882   1.05994
   D19       -1.12273  -0.00160   0.03408   0.06732   0.10139  -1.02133
   D20        0.88445   0.00164   0.04762   0.06369   0.11121   0.99566
   D21        2.96219   0.00367   0.05688   0.06924   0.12606   3.08826
   D22        1.30093  -0.01083  -0.00604  -0.09913  -0.10531   1.19563
   D23       -0.86562  -0.00204   0.01489  -0.09157  -0.07661  -0.94223
   D24       -2.90614  -0.00787   0.00032  -0.08866  -0.08827  -2.99441
         Item               Value     Threshold  Converged?
 Maximum Force            0.040953     0.000450     NO 
 RMS     Force            0.009802     0.000300     NO 
 Maximum Displacement     0.519803     0.001800     NO 
 RMS     Displacement     0.138173     0.001200     NO 
 Predicted change in Energy=-2.940238D-04
 GradGradGradGradGradGradGradGradGradGradGradGradGradGradGradGradGradGrad

                          Input orientation:                          
 ---------------------------------------------------------------------
 Center     Atomic      Atomic             Coordinates (Angstroms)
 Number     Number       Type             X           Y           Z
 ---------------------------------------------------------------------
      1         14           0        0.905324    0.017505    0.006712
      2          8           0        1.188069   -0.185276    1.645690
      3          1           0        2.121364   -0.208257    1.834052
      4          8           0        0.557249    1.454935   -0.492488
      5          1           0       -1.021498    1.530215   -0.121967
      6          8           0        2.296257   -0.610226   -0.693899
      7          1           0        2.544060   -0.028559   -1.409497
      8          8           0       -0.260393   -1.129477   -0.332949
      9          6           0       -1.597461   -1.103058    0.076299
     10          1           0       -1.677870   -1.249603    1.162933
     11          1           0       -2.097314   -1.950311   -0.413654
     12          6           0       -2.371561    0.155754   -0.319209
     13          1           0       -2.353237    0.222895   -1.417328
     14          1           0       -3.416723    0.013580   -0.013655
     15          8           0       -1.917670    1.336343    0.268172
 ---------------------------------------------------------------------
                    Distance matrix (angstroms):
                    1          2          3          4          5
     1  Si   0.000000
     2  O    1.675504   0.000000
     3  H    2.206557   0.952391   0.000000
     4  O    1.560948   2.767676   3.259670   0.000000
     5  H    2.453057   3.309033   4.089727   1.623389   0.000000
     6  O    1.679166   2.623421   2.565678   2.707324   3.989497
     7  H    2.166386   3.346258   3.275908   2.643687   4.098867
     8  O    1.670280   2.627655   3.349225   2.715359   2.774483
     9  C    2.743071   3.326333   4.209516   3.392583   2.702808
    10  H    3.100855   3.095069   3.996121   3.879523   3.131961
    11  H    3.614532   4.260280   5.087649   4.318404   3.654658
    12  C    3.295953   4.080207   4.995539   3.208710   1.936677
    13  H    3.562063   4.699950   5.547919   3.293050   2.271691
    14  H    4.322097   4.898681   5.842400   4.254320   2.837079
    15  O    3.126817   3.722699   4.599082   2.591889   0.996453
                    6          7          8          9         10
     6  O    0.000000
     7  H    0.954895   0.000000
     8  O    2.633698   3.199365   0.000000
     9  C    3.999641   4.529275   1.398546   0.000000
    10  H    4.432867   5.092449   2.064300   1.099415   0.000000
    11  H    4.601938   5.121248   2.013593   1.098974   1.775542
    12  C    4.745065   5.038455   2.471646   1.529793   2.157077
    13  H    4.778622   4.903754   2.717495   2.135478   3.046656
    14  H    5.787055   6.122180   3.372083   2.136513   2.450224
    15  O    4.740452   4.958282   3.031201   2.467798   2.746855
                   11         12         13         14         15
    11  H    0.000000
    12  C    2.125945   0.000000
    13  H    2.407421   1.100322   0.000000
    14  H    2.399523   1.098154   1.773447   0.000000
    15  O    3.361436   1.394569   2.066494   2.018982   0.000000
 Stoichiometry    C2H7O5Si(1-)
 Framework group  C1[X(C2H7O5Si)]
 Deg. of freedom    39
 Full point group                 C1      NOp   1
 Largest Abelian subgroup         C1      NOp   1
 Largest concise Abelian subgroup C1      NOp   1
                         Standard orientation:                         
 ---------------------------------------------------------------------
 Center     Atomic      Atomic             Coordinates (Angstroms)
 Number     Number       Type             X           Y           Z
 ---------------------------------------------------------------------
      1         14           0        0.927093    0.115194   -0.033908
      2          8           0        1.274124   -0.121610    1.588069
      3          1           0        2.209867   -0.057059    1.753189
      4          8           0        0.422644    1.528234   -0.464496
      5          1           0       -1.144792    1.428351   -0.053934
      6          8           0        2.354093   -0.340287   -0.792726
      7          1           0        2.522259    0.290997   -1.489162
      8          8           0       -0.126449   -1.130075   -0.393336
      9          6           0       -1.447539   -1.255507    0.048161
     10          1           0       -1.482653   -1.451730    1.129353
     11          1           0       -1.873128   -2.129367   -0.464663
     12          6           0       -2.354870   -0.067316   -0.276213
     13          1           0       -2.373844    0.044118   -1.370713
     14          1           0       -3.371582   -0.326664    0.047792
     15          8           0       -2.005784    1.129436    0.348884
 ---------------------------------------------------------------------
 Rotational constants (GHZ):           2.8664212           1.2595640           1.1441022
 Standard basis: def2TZVPP (5D, 7F)
 There are   405 symmetry adapted cartesian basis functions of A   symmetry.
 There are   357 symmetry adapted basis functions of A   symmetry.
   357 basis functions,   545 primitive gaussians,   405 cartesian basis functions
    37 alpha electrons       37 beta electrons
       nuclear repulsion energy       519.6150380642 Hartrees.
 NAtoms=   15 NActive=   15 NUniq=   15 SFac= 1.00D+00 NAtFMM=   60 NAOKFM=F Big=F
 Integral buffers will be    131072 words long.
 Raffenetti 2 integral format.
 Two-electron integral symmetry is turned on.
 Nuclear repulsion after empirical dispersion term =      519.6082539071 Hartrees.
 One-electron integrals computed using PRISM.
   1 Symmetry operations used in ECPInt.
 ECPInt:  NShTT=    8911 NPrTT=   25186 LenC2=    8601 LenP2D=   19271.
 LDataN:  DoStor=T MaxTD1= 6 Len=  172
 NBasis=   357 RedAO= T EigKep=  3.14D-04  NBF=   357
 NBsUse=   357 1.00D-06 EigRej= -1.00D+00 NBFU=   357
 Lowest energy guess from the checkpoint file:  "QL_MonoToBi_DeprotonatedLigandAttacking_IRC_forward_reactantOpt.chk"
 B after Tr=     0.000000    0.000000   -0.000000
         Rot=    0.998513   -0.051272   -0.016127   -0.009110 Ang=  -6.25 deg.
 B after Tr=    -0.000000   -0.000000    0.000000
         Rot=    0.999844    0.014577    0.000928    0.009897 Ang=   2.02 deg.
 Requested convergence on RMS density matrix=1.00D-08 within 128 cycles.
 Requested convergence on MAX density matrix=1.00D-06.
 Requested convergence on             energy=1.00D-06.
 No special actions if energy rises.
 Integral accuracy reduced to 1.0D-05 until final iterations.
 Initial convergence to 1.0D-05 achieved.  Increase integral accuracy.
 SCF Done:  E(RwB97XD) =  -746.351618428     A.U. after   12 cycles
            NFock= 12  Conv=0.54D-08     -V/T= 2.0033
   1 Symmetry operations used in ECPInt.
 ECPInt:  NShTT=    8911 NPrTT=   25186 LenC2=    8601 LenP2D=   19271.
 LDataN:  DoStor=T MaxTD1= 7 Len=  274
 Calling FoFJK, ICntrl=      2127 FMM=F ISym2X=0 I1Cent= 0 IOpClX= 0 NMat=1 NMatS=1 NMatT=0.
 ***** Axes restored to original set *****
 -------------------------------------------------------------------
 Center     Atomic                   Forces (Hartrees/Bohr)
 Number     Number              X              Y              Z
 -------------------------------------------------------------------
      1       14          -0.001084232    0.000093546    0.000112209
      2        8           0.000121880   -0.000931267   -0.000634020
      3        1           0.000669181    0.000380829    0.000476697
      4        8           0.001643732   -0.000931071   -0.001544177
      5        1           0.005761219    0.000828934    0.004503673
      6        8          -0.000223822    0.000666708   -0.000004824
      7        1           0.000093784   -0.000200773   -0.000322973
      8        8          -0.001517189    0.000723554    0.000033309
      9        6           0.000661426    0.000320402   -0.000931122
     10        1           0.001056122    0.001165240    0.000067308
     11        1          -0.000828698   -0.000756999    0.001740642
     12        6           0.001523530    0.001309692   -0.000001765
     13        1          -0.000251004    0.000387606   -0.000939094
     14        1           0.000071020   -0.001433423   -0.000636104
     15        8          -0.007696950   -0.001622978   -0.001919759
 -------------------------------------------------------------------
 Cartesian Forces:  Max     0.007696950 RMS     0.001814899

 GradGradGradGradGradGradGradGradGradGradGradGradGradGradGradGradGradGrad
 Berny optimization.
 Using GEDIIS/GDIIS optimizer.
 FormGI is forming the generalized inverse of G from B-inverse, IUseBI=4.
 Internal  Forces:  Max     0.010118347 RMS     0.002264314
 Search for a local minimum.
 Step number   3 out of a maximum of   70
 All quantities printed in internal units (Hartrees-Bohrs-Radians)
 Mixed Optimization -- RFO/linear search
 Update second derivatives using D2CorX and points    2    1    3
 DE= -1.38D-03 DEPred=-2.94D-04 R= 4.68D+00
 TightC=F SS=  1.41D+00  RLast= 2.94D-01 DXNew= 2.5227D-01 8.8342D-01
 Trust test= 4.68D+00 RLast= 2.94D-01 DXMaxT set to 2.52D-01
 ITU=  1 -1  0
 Use linear search instead of GDIIS.
     Eigenvalues ---    0.00486   0.00690   0.02168   0.03334   0.03342
     Eigenvalues ---    0.04298   0.05294   0.06021   0.06140   0.06393
     Eigenvalues ---    0.11871   0.11922   0.12963   0.13659   0.13935
     Eigenvalues ---    0.14607   0.14943   0.16000   0.16001   0.18711
     Eigenvalues ---    0.21204   0.21455   0.22137   0.26224   0.29914
     Eigenvalues ---    0.33706   0.33748   0.33807   0.33872   0.38704
     Eigenvalues ---    0.39033   0.39228   0.42235   0.46589   0.47658
     Eigenvalues ---    0.56392   0.56583   0.59292   0.77319
 RFO step:  Lambda=-5.75678567D-03 EMin= 4.85842331D-03
 Quartic linear search produced a step of -0.03321.
 Iteration  1 RMS(Cart)=  0.16707431 RMS(Int)=  0.02351198
 Iteration  2 RMS(Cart)=  0.02365329 RMS(Int)=  0.00132051
 Iteration  3 RMS(Cart)=  0.00130475 RMS(Int)=  0.00020363
 Iteration  4 RMS(Cart)=  0.00000357 RMS(Int)=  0.00020359
 Iteration  5 RMS(Cart)=  0.00000000 RMS(Int)=  0.00020359
 Variable       Old X    -DE/DX   Delta X   Delta X   Delta X     New X
                                 (Linear)    (Quad)   (Total)
    R1        3.16624   0.00005  -0.00002   0.00174   0.00173   3.16797
    R2        2.94976  -0.00073   0.00006  -0.00479  -0.00473   2.94503
    R3        3.17316  -0.00014  -0.00020   0.01205   0.01184   3.18501
    R4        3.15637  -0.00017   0.00008  -0.00710  -0.00701   3.14936
    R5        1.79976   0.00074   0.00024  -0.01308  -0.01284   1.78692
    R6        1.88302   0.00358   0.00042  -0.02522  -0.02480   1.85822
    R7        1.80449   0.00014   0.00000   0.00001   0.00001   1.80450
    R8        2.64287   0.00027  -0.00009   0.00066   0.00056   2.64343
    R9        2.07759  -0.00017  -0.00000  -0.00052  -0.00052   2.07707
   R10        2.07676   0.00018  -0.00001   0.00115   0.00114   2.07790
   R11        2.89089  -0.00039  -0.00024   0.00686   0.00662   2.89751
   R12        2.07931   0.00096  -0.00001   0.00198   0.00197   2.08128
   R13        2.07521  -0.00006   0.00001  -0.00079  -0.00079   2.07442
   R14        2.63535  -0.00021  -0.00003   0.00304   0.00301   2.63836
    A1        2.05095   0.00152  -0.00012   0.01456   0.01435   2.06530
    A2        1.79580  -0.00032   0.00019  -0.01186  -0.01179   1.78401
    A3        1.80656   0.00065   0.00018  -0.00649  -0.00638   1.80018
    A4        1.97744  -0.00177  -0.00052   0.02568   0.02510   2.00254
    A5        1.99511   0.00045   0.00020  -0.01617  -0.01589   1.97922
    A6        1.80962  -0.00068   0.00014  -0.00996  -0.00987   1.79975
    A7        1.94095   0.00051   0.00002   0.00083   0.00085   1.94180
    A8        1.87541   0.00046  -0.00001   0.00187   0.00185   1.87726
    A9        2.20776   0.01012  -0.00115   0.06929   0.06815   2.27591
   A10        1.93545   0.00084  -0.00034   0.02779   0.02668   1.96213
   A11        1.86483  -0.00250   0.00059  -0.03129  -0.03084   1.83400
   A12        2.00828   0.00265  -0.00058   0.01311   0.01182   2.02010
   A13        1.88033   0.00001   0.00002  -0.00007   0.00032   1.88066
   A14        1.90520  -0.00185  -0.00051   0.02096   0.01978   1.92498
   A15        1.86395   0.00070   0.00091  -0.03533  -0.03450   1.82945
   A16        1.87528  -0.00060   0.00047  -0.02703  -0.02674   1.84854
   A17        1.87877   0.00009  -0.00001   0.00333   0.00337   1.88214
   A18        2.00757  -0.00046  -0.00081   0.03094   0.03013   2.03770
   A19        1.87699  -0.00016   0.00004  -0.00125  -0.00122   1.87578
   A20        1.94257   0.00249   0.00001   0.01875   0.01888   1.96145
   A21        1.87777  -0.00142   0.00034  -0.02654  -0.02616   1.85160
   A22        1.86765   0.00675   0.00019   0.01456   0.01474   1.88240
    D1       -1.73712   0.00150   0.00011  -0.00139  -0.00135  -1.73846
    D2        0.44835  -0.00007  -0.00050   0.03195   0.03144   0.47980
    D3        2.32863  -0.00070  -0.00023   0.01532   0.01516   2.34379
    D4       -2.41665  -0.00021   0.00027  -0.01869  -0.01841  -2.43506
    D5       -0.18410   0.00036  -0.00007   0.00706   0.00708  -0.17702
    D6        1.98858  -0.00059  -0.00003  -0.00465  -0.00478   1.98379
    D7        1.22960   0.00027  -0.00304   0.15547   0.15243   1.38203
    D8       -1.02250  -0.00251  -0.00317   0.15267   0.14949  -0.87301
    D9        3.09949  -0.00009  -0.00273   0.13728   0.13456  -3.04913
   D10       -1.20232  -0.00189  -0.00143   0.00015  -0.00168  -1.20400
   D11        3.03627  -0.00090  -0.00162   0.00362   0.00221   3.03848
   D12        0.97057  -0.00162  -0.00282   0.06188   0.05924   1.02981
   D13        1.04486  -0.00223  -0.00083  -0.15145  -0.15247   0.89240
   D14        3.06185  -0.00267  -0.00055  -0.16483  -0.16548   2.89638
   D15       -1.12873  -0.00470  -0.00064  -0.17657  -0.17720  -1.30593
   D16       -3.04965  -0.00062  -0.00210  -0.08708  -0.08907  -3.13872
   D17       -1.03266  -0.00106  -0.00182  -0.10046  -0.10208  -1.13474
   D18        1.05994  -0.00309  -0.00191  -0.11220  -0.11381   0.94613
   D19       -1.02133  -0.00116  -0.00186  -0.09546  -0.09752  -1.11886
   D20        0.99566  -0.00160  -0.00158  -0.10884  -0.11053   0.88512
   D21        3.08826  -0.00364  -0.00166  -0.12058  -0.12226   2.96599
   D22        1.19563  -0.00252   0.00323  -0.26935  -0.26578   0.92984
   D23       -0.94223  -0.00337   0.00320  -0.27168  -0.26876  -1.21099
   D24       -2.99441  -0.00372   0.00295  -0.26462  -0.26173   3.02705
         Item               Value     Threshold  Converged?
 Maximum Force            0.010118     0.000450     NO 
 RMS     Force            0.002264     0.000300     NO 
 Maximum Displacement     0.538576     0.001800     NO 
 RMS     Displacement     0.180418     0.001200     NO 
 Predicted change in Energy=-4.192158D-03
 GradGradGradGradGradGradGradGradGradGradGradGradGradGradGradGradGradGrad

                          Input orientation:                          
 ---------------------------------------------------------------------
 Center     Atomic      Atomic             Coordinates (Angstroms)
 Number     Number       Type             X           Y           Z
 ---------------------------------------------------------------------
      1         14           0        0.969325    0.018721    0.056005
      2          8           0        1.388891   -0.254874    1.655845
      3          1           0        2.327564   -0.298315    1.761481
      4          8           0        0.599833    1.470420   -0.373869
      5          1           0       -1.213331    1.566502    0.163036
      6          8           0        2.273365   -0.652438   -0.774483
      7          1           0        2.481374   -0.070731   -1.502621
      8          8           0       -0.254182   -1.081546   -0.208364
      9          6           0       -1.607460   -1.034262    0.142588
     10          1           0       -1.762164   -1.114243    1.227842
     11          1           0       -2.055799   -1.922055   -0.326331
     12          6           0       -2.400827    0.150232   -0.421805
     13          1           0       -2.197873    0.161308   -1.504252
     14          1           0       -3.468736   -0.066396   -0.288868
     15          8           0       -2.181386    1.394138    0.173009
 ---------------------------------------------------------------------
                    Distance matrix (angstroms):
                    1          2          3          4          5
     1  Si   0.000000
     2  O    1.676417   0.000000
     3  H    2.203173   0.945597   0.000000
     4  O    1.558444   2.778307   3.266986   0.000000
     5  H    2.677886   3.509622   4.309352   1.893427   0.000000
     6  O    1.685433   2.616648   2.561143   2.732714   4.237888
     7  H    2.173387   3.347139   3.275639   2.681310   4.371018
     8  O    1.666568   2.618846   3.340532   2.696158   2.840786
     9  C    2.784975   3.446086   4.318199   3.378210   2.630538
    10  H    3.180855   3.294062   4.204329   3.850323   2.936226
    11  H    3.614439   4.309803   5.119508   4.308542   3.622053
    12  C    3.406395   4.340818   5.227391   3.278591   1.938558
    13  H    3.533536   4.798363   5.599629   3.289179   2.392434
    14  H    4.452254   5.235835   6.152626   4.349975   2.820890
    15  O    3.439832   4.202965   5.071318   2.835502   0.983330
                    6          7          8          9         10
     6  O    0.000000
     7  H    0.954901   0.000000
     8  O    2.625475   3.190629   0.000000
     9  C    4.005947   4.511504   1.398843   0.000000
    10  H    4.528583   5.152859   2.082730   1.099139   0.000000
    11  H    4.533700   5.039544   1.991531   1.099577   1.776017
    12  C    4.755706   5.005285   2.484134   1.533296   2.174425
    13  H    4.602903   4.684997   2.646119   2.118976   3.046508
    14  H    5.792322   6.072645   3.371997   2.141791   2.512127
    15  O    4.993097   5.166711   3.160470   2.495485   2.753252
                   11         12         13         14         15
    11  H    0.000000
    12  C    2.102982   0.000000
    13  H    2.397517   1.101365   0.000000
    14  H    2.332652   1.097738   1.773161   0.000000
    15  O    3.355928   1.396160   2.081670   2.000940   0.000000
 Stoichiometry    C2H7O5Si(1-)
 Framework group  C1[X(C2H7O5Si)]
 Deg. of freedom    39
 Full point group                 C1      NOp   1
 Largest Abelian subgroup         C1      NOp   1
 Largest concise Abelian subgroup C1      NOp   1
                         Standard orientation:                         
 ---------------------------------------------------------------------
 Center     Atomic      Atomic             Coordinates (Angstroms)
 Number     Number       Type             X           Y           Z
 ---------------------------------------------------------------------
      1         14           0        0.982462    0.148146   -0.019880
      2          8           0        1.518959   -0.169195    1.536346
      3          1           0        2.459462   -0.092272    1.597106
      4          8           0        0.402705    1.561416   -0.328580
      5          1           0       -1.376153    1.376943    0.293272
      6          8           0        2.317440   -0.285718   -0.952769
      7          1           0        2.407994    0.364604   -1.646107
      8          8           0       -0.097859   -1.087785   -0.307683
      9          6           0       -1.424965   -1.246402    0.105107
     10          1           0       -1.509800   -1.416550    1.187677
     11          1           0       -1.776837   -2.154388   -0.405597
     12          6           0       -2.396283   -0.145844   -0.337964
     13          1           0       -2.254464   -0.037494   -1.424772
     14          1           0       -3.417771   -0.512781   -0.173805
     15          8           0       -2.311172    1.075203    0.333647
 ---------------------------------------------------------------------
 Rotational constants (GHZ):           2.8988164           1.1610360           1.0662333
 Standard basis: def2TZVPP (5D, 7F)
 There are   405 symmetry adapted cartesian basis functions of A   symmetry.
 There are   357 symmetry adapted basis functions of A   symmetry.
   357 basis functions,   545 primitive gaussians,   405 cartesian basis functions
    37 alpha electrons       37 beta electrons
       nuclear repulsion energy       512.1824440047 Hartrees.
 NAtoms=   15 NActive=   15 NUniq=   15 SFac= 1.00D+00 NAtFMM=   60 NAOKFM=F Big=F
 Integral buffers will be    131072 words long.
 Raffenetti 2 integral format.
 Two-electron integral symmetry is turned on.
 Nuclear repulsion after empirical dispersion term =      512.1756211998 Hartrees.
 One-electron integrals computed using PRISM.
   1 Symmetry operations used in ECPInt.
 ECPInt:  NShTT=    8911 NPrTT=   25186 LenC2=    8559 LenP2D=   19113.
 LDataN:  DoStor=T MaxTD1= 6 Len=  172
 NBasis=   357 RedAO= T EigKep=  3.42D-04  NBF=   357
 NBsUse=   357 1.00D-06 EigRej= -1.00D+00 NBFU=   357
 Initial guess from the checkpoint file:  "QL_MonoToBi_DeprotonatedLigandAttacking_IRC_forward_reactantOpt.chk"
 B after Tr=     0.000000    0.000000    0.000000
         Rot=    0.999719   -0.012613   -0.012425   -0.015788 Ang=  -2.72 deg.
 ExpMin= 7.01D-02 ExpMax= 4.48D+04 ExpMxC= 1.53D+03 IAcc=3 IRadAn=         5 AccDes= 0.00D+00
 Harris functional with IExCor= 4639 and IRadAn=       5 diagonalized for initial guess.
 HarFok:  IExCor= 4639 AccDes= 0.00D+00 IRadAn=         5 IDoV= 1 UseB2=F ITyADJ=14
 ICtDFT=  3500011 ScaDFX=  1.000000  1.000000  1.000000  1.000000
 FoFCou: FMM=F IPFlag=           0 FMFlag=      100000 FMFlg1=           0
         NFxFlg=           0 DoJE=T BraDBF=F KetDBF=T FulRan=T
         wScrn=  0.000000 ICntrl=       500 IOpCl=  0 I1Cent=   200000004 NGrid=           0
         NMat0=    1 NMatS0=      1 NMatT0=    0 NMatD0=    1 NMtDS0=    0 NMtDT0=    0
 Petite list used in FoFCou.
 Requested convergence on RMS density matrix=1.00D-08 within 128 cycles.
 Requested convergence on MAX density matrix=1.00D-06.
 Requested convergence on             energy=1.00D-06.
 No special actions if energy rises.
 Integral accuracy reduced to 1.0D-05 until final iterations.
 Initial convergence to 1.0D-05 achieved.  Increase integral accuracy.
 SCF Done:  E(RwB97XD) =  -746.349278211     A.U. after   13 cycles
            NFock= 13  Conv=0.38D-08     -V/T= 2.0034
   1 Symmetry operations used in ECPInt.
 ECPInt:  NShTT=    8911 NPrTT=   25186 LenC2=    8559 LenP2D=   19113.
 LDataN:  DoStor=T MaxTD1= 7 Len=  274
 Calling FoFJK, ICntrl=      2127 FMM=F ISym2X=0 I1Cent= 0 IOpClX= 0 NMat=1 NMatS=1 NMatT=0.
 ***** Axes restored to original set *****
 -------------------------------------------------------------------
[...]
 ! D24   D(14,12,15,5)         172.9628         -DE/DX =    0.0                 !
 --------------------------------------------------------------------------------
 GradGradGradGradGradGradGradGradGradGradGradGradGradGradGradGradGradGrad


 ----------------------------------------------------------------------

 Electric dipole moment (input orientation):
 (Debye = 10**-18 statcoulomb cm , SI units = C m)
                  (au)            (Debye)         (10**-30 SI)
   Tot        0.800760D+00      0.203533D+01      0.678912D+01
   x         -0.426949D+00     -0.108520D+01     -0.361983D+01
   y         -0.675477D+00     -0.171689D+01     -0.572693D+01
   z         -0.515922D-01     -0.131134D+00     -0.437417D+00

 Dipole polarizability, Alpha (input orientation).
 (esu units = cm**3 , SI units = C**2 m**2 J**-1)
 Alpha(0;0):
               (au)            (10**-24 esu)      (10**-40 SI)
   iso        0.686021D+02      0.101658D+02      0.113110D+02
   aniso      0.142699D+02      0.211458D+01      0.235279D+01
   xx         0.780180D+02      0.115611D+02      0.128634D+02
   yx         0.101157D+01      0.149900D+00      0.166786D+00
   yy         0.644694D+02      0.955338D+01      0.106296D+02
   zx        -0.142625D+00     -0.211348D-01     -0.235156D-01
   zy        -0.930725D-01     -0.137919D-01     -0.153456D-01
   zz         0.633190D+02      0.938291D+01      0.104399D+02

 ----------------------------------------------------------------------

 Dipole orientation:
    14          1.38862976         -0.98059414         -0.80262112
     8          3.96153623          0.85655866         -0.61723050
     1          3.93162344          2.00901294         -2.00446130
     8         -0.54052858         -0.11514879         -2.86325505
     1         -2.59735528          1.67040518         -1.39814394
     8          2.47586048         -3.91970336         -1.15431601
     1          1.42235452         -4.78285133         -2.33625013
     8          0.25918190         -1.01457825          2.14409946
     6         -0.94528869          1.09179229          3.20148296
     1          0.19461148          2.80996814          2.94849274
     1         -1.11434209          0.74876199          5.24113641
     6         -3.59052082          1.58731761          2.15495647
     1         -4.61924433         -0.22416588          2.18693081
     1         -4.55675523          2.86669124          3.47224926
     8         -3.65939730          2.71155190         -0.22768693

 Electric dipole moment (dipole orientation):
 (Debye = 10**-18 statcoulomb cm , SI units = C m)
                  (au)            (Debye)         (10**-30 SI)
   Tot        0.800760D+00      0.203533D+01      0.678912D+01
   x          0.000000D+00      0.000000D+00      0.000000D+00
   y          0.000000D+00      0.000000D+00      0.000000D+00
   z          0.800760D+00      0.203533D+01      0.678912D+01

 Dipole polarizability, Alpha (dipole orientation).
 (esu units = cm**3 , SI units = C**2 m**2 J**-1)
 Alpha(0;0):
               (au)            (10**-24 esu)      (10**-40 SI)
   iso        0.686021D+02      0.101658D+02      0.113110D+02
   aniso      0.142699D+02      0.211458D+01      0.235279D+01
   xx         0.699730D+02      0.103689D+02      0.115370D+02
   yx        -0.467050D+01     -0.692097D+00     -0.770062D+00
   yy         0.666272D+02      0.987313D+01      0.109853D+02
   zx        -0.523812D+01     -0.776209D+00     -0.863649D+00
   zy         0.394374D+01      0.584402D+00      0.650235D+00
   zz         0.692062D+02      0.102553D+02      0.114106D+02

 ----------------------------------------------------------------------
 Unable to Open any file for archive entry.
 1\1\GINC-CDR1850\Freq\RwB97XD\def2TZVPP\C2H7O5Si1(1-)\ARHENDER\26-Mar-
 2024\0\\#N Geom=AllCheck Guess=TCheck SCRF=Check GenChk RwB97XD/def2TZ
 VPP Freq\\TS opt of scan peak max corresponding to proton transfer fro
 m ethylene glycol to ligand\\-1,1\Si,0.9874606645,-0.1192226205,-0.018
 5600689\O,1.4156064885,-0.6237415228,1.5211331706\H,1.5028125357,0.149
 1232003,2.0744282075\O,0.6380298685,1.4010310647,-0.1062879918\H,-0.98
 72788939,1.4965021471,0.0604770911\O,2.2348979224,-0.6112024674,-1.011
 7841884\H,2.3998631633,0.0750390344,-1.6540261309\O,-0.2513701387,-1.1
 515750214,-0.4528667616\C,-1.5292606743,-1.0502870504,0.1114966384\H,-
 1.4750544168,-1.0096459829,1.2087087315\H,-2.079753666,-1.9612131726,-
 0.1588655167\C,-2.3345021398,0.1525802443,-0.3779712006\H,-2.261657094
 5,0.1704925258,-1.4779308692\H,-3.3875803489,-0.0275379745,-0.12441051
 36\O,-1.9736182701,1.3761185959,0.1856714025\\Version=ES64L-G16RevC.01
 \State=1-A\HF=-746.3577387\RMSD=1.783e-09\RMSF=1.170e-05\ZeroPoint=0.1
 095959\Thermal=0.1192192\ETot=-746.2385195\HTot=-746.2375753\GTot=-746
 .2830993\Dipole=-0.4269491,-0.6754769,-0.0515922\DipoleDeriv=2.3816318
 ,0.0086426,-0.1118687,0.0498048,1.8207911,-0.0611534,0.0964283,0.00965
 32,1.93619,-0.8062597,0.0555118,-0.1894453,0.0826573,-0.5870629,0.2687
 442,-0.2725833,0.1666143,-1.1748892,0.2800071,-0.0118975,0.0365593,-0.
 0199069,0.1636987,-0.0626331,0.0341059,-0.0592665,0.3125324,-1.3676708
 ,0.0421047,0.0098321,0.1013318,-1.2006598,0.049628,0.010976,0.0295269,
 -0.8430339,1.1479903,0.0146818,0.0090824,0.0184044,0.2366112,-0.029061
 2,-0.0553889,-0.0349534,0.1952253,-1.1516298,0.0992403,0.3390684,0.199
 3926,-0.6098391,-0.2039044,0.3572944,-0.1429436,-0.871607,0.3283243,-0
 .0046897,-0.0395163,-0.0145516,0.1928845,0.0754487,-0.052067,0.0759487
 ,0.2573648,-1.6744565,-0.2069406,0.0673856,-0.327517,-0.7883495,-0.057
 4772,0.0914475,-0.0510255,-0.6127897,0.979981,0.1644292,-0.1039161,-0.
 0070393,0.2728966,0.0309355,-0.2621886,0.0257089,0.3486646,-0.0227486,
 0.0125809,-0.0134503,0.0226322,0.0268532,-0.0216299,0.0717768,0.039496
 5,-0.2175561,-0.1348949,-0.1363198,-0.0174839,-0.1575712,-0.2009358,-0
 .0328584,-0.0501401,-0.0820499,0.0244356,0.3804681,0.1620937,0.0449276
 ,0.2815478,0.634217,0.1859185,0.0590516,0.1737276,0.4546405,0.0266245,
 -0.0043824,0.0293542,-0.0125832,-0.0381077,-0.0163527,-0.063914,-0.038
 4403,-0.2948935,-0.3022216,-0.0615159,0.0298677,-0.0640182,-0.0045439,
 0.0060465,0.0916537,0.0139284,0.0214242,-1.0651453,-0.1335391,-0.09039
 66,-0.1525836,-0.9184536,-0.1316512,-0.0564523,-0.1259253,-0.5357078\P
 olar=78.0179704,1.0115737,64.4693729,-0.1426246,-0.0930725,63.3190105\
 Quadrupole=-2.6071096,-4.4215381,7.0286477,6.7879422,0.0122936,-0.1217
 344\PG=C01 [X(C2H7O5Si1)]\NImag=0\\0.43893656,-0.05652225,0.63499431,-
 0.02052266,-0.00935712,0.43682465,-0.05340828,0.01863846,-0.04033556,0
 .04881981,0.01134539,-0.06724046,0.03351843,0.02067691,0.42919817,-0.0
 4094820,0.06196089,-0.18627259,0.08837000,0.19564988,0.43314131,0.0025
 6004,-0.00606658,-0.00674742,-0.00638954,-0.03361216,-0.03172992,0.009
 41995,0.00118706,0.00319663,0.00651254,-0.04262667,-0.36507113,-0.2673
 0374,0.04086103,0.36451455,-0.00500275,-0.02423613,-0.02171508,-0.0345
 6046,-0.23599435,-0.20429742,0.03767536,0.25795215,0.22362632,-0.07596
 932,0.07245718,-0.00400774,0.00878006,0.01198621,-0.00825955,-0.001671
 49,-0.00026347,0.00374930,0.08941245,0.08154567,-0.39608182,0.02091610
 ,0.00707787,-0.01046151,0.01204263,-0.00038627,-0.00259950,-0.00136518
 ,-0.09121895,0.44827605,-0.00294545,0.02125383,-0.05656742,-0.00945453
 ,0.02302284,-0.00536763,0.00296048,-0.00062392,0.00590479,0.00336794,-
 0.02418938,0.04389936,0.00193227,0.03853081,-0.00077215,0.00015329,-0.
 00660019,0.00469673,-0.00031744,0.00060708,-0.00225297,0.02066328,-0.0
 1796001,-0.00220032,0.31817385,0.00976270,-0.00216622,-0.00062033,-0.0
 0065750,-0.00048595,0.00008959,0.00008423,0.00007912,-0.00000746,-0.00
 306885,-0.01372778,0.00039292,0.04678689,0.08479455,-0.00092707,-0.003
 31483,0.00237849,0.00057761,0.00116979,-0.00149077,-0.00050696,0.00005
 321,0.00038390,-0.00356004,0.00198773,-0.01273415,-0.03444787,0.013256
 66,0.04758779,-0.14082725,0.05305958,0.07579220,0.00484755,0.00068098,
 0.00568762,-0.00149496,-0.00046248,0.00032268,-0.00444351,0.01198841,0
 .00995457,0.00309768,0.00002826,0.00018650,0.19421404,0.03399864,-0.06
 534215,-0.02064281,-0.00143301,0.00915106,0.00501968,-0.00067128,-0.00
 079469,0.00273543,0.02399681,-0.00929406,-0.01303147,-0.00801210,-0.00
 079563,0.00007742,0.01286200,0.35028389,0.08770532,-0.03927668,-0.1088
 6676,0.01077258,-0.00270819,-0.02006306,0.00155863,0.00191980,-0.00123
 968,0.00913970,-0.00557916,0.00565878,-0.00322134,-0.00006605,0.000053
 81,-0.18346731,-0.22943857,0.37603619,-0.00601679,-0.01470732,0.020090
 53,-0.00014515,0.00130995,-0.00024709,0.00023337,-0.00025333,0.0004221
 4,0.00179201,-0.00113732,-0.00428438,-0.00135607,-0.00006373,0.0000592
 4,-0.02974975,-0.05350075,0.06760663,0.03828177,0.00538164,0.00352823,
 -0.00465516,0.00109894,-0.00040641,-0.00281954,0.00002600,0.00018747,-
 0.00041756,-0.00115155,-0.00228002,0.00078539,0.00074588,0.00000776,-0
 .00005621,-0.07361010,-0.28903244,0.27440892,0.06737352,0.28801185,0.0
 0689425,0.01636968,-0.01416198,0.00129142,-0.00214831,-0.00247404,0.00
 053651,0.00041224,-0.00090266,-0.00539883,0.00122677,0.00267685,0.0019
 7618,0.00003575,0.00005554,0.08094379,0.25195043,-0.25653314,-0.083540
 96,-0.26682684,0.27121956,-0.12711600,-0.07432115,-0.03216841,-0.00655
 093,-0.01121872,-0.01940098,-0.00373965,0.00113984,-0.00147696,0.00953
 066,-0.01325459,-0.00341667,-0.01228089,-0.00053493,0.00122383,-0.0256
 4697,-0.01205471,0.00785899,-0.00308570,0.00069197,-0.00114554,0.47169
 200,-0.06976645,-0.10799975,-0.03164049,-0.00328282,0.00553109,-0.0042
 3474,0.00015294,0.00052858,0.00136025,-0.01535955,-0.02295814,-0.00679
 715,-0.00883067,0.00037083,0.00124160,-0.00197828,0.00500772,0.0010181
 6,0.00088320,-0.00026952,-0.00103567,0.09167106,0.17174975,-0.02472587
 ,-0.02897313,-0.04957557,-0.01452062,-0.01030170,-0.01142852,-0.003610
 08,0.00107009,-0.00125807,-0.00114719,-0.00080990,0.01010448,-0.000159
 44,-0.00011020,-0.00092335,0.01093165,0.00440275,0.00265690,0.00040534
 ,-0.00035800,0.00003310,-0.06277346,0.04386881,0.14709328,-0.04104467,
 -0.01906467,-0.00234266,0.00374054,0.00181077,0.00791724,0.00143977,0.
 00026564,-0.00009447,0.00013476,0.01149918,0.00181818,0.01052844,-0.00
 166468,-0.00039361,0.00520225,0.00055670,-0.00080485,-0.00065036,-0.00
 007910,0.00004741,-0.21790015,-0.00035866,0.06178522,0.49602686,-0.015
 18933,-0.00345971,0.00436380,-0.00006450,-0.00026847,-0.00021528,-0.00
 018849,0.00005119,-0.00008654,0.00163132,-0.00017861,-0.00079288,0.001
 89663,-0.00104936,-0.00074652,-0.00231462,0.00029893,-0.00035265,0.000
 02997,0.00027620,0.00009899,0.01067088,-0.07022672,-0.00957661,0.05676
 862,0.52516978,0.00421716,0.00876536,0.00572390,-0.00086523,-0.0016952
 2,-0.00679130,-0.00153482,-0.00030152,-0.00025257,-0.00087732,-0.00406
 517,-0.00224639,-0.00031264,0.00092458,0.00189009,-0.00206636,-0.00138
 938,0.00234444,-0.00048107,-0.00004816,-0.00000993,0.06590295,-0.00702
 533,-0.10006894,0.02346269,0.03192256,0.56404856,0.00287827,0.00292182
 ,0.00632489,0.00088231,0.00033538,-0.00102166,-0.00006336,-0.00005014,
 -0.00007693,-0.00004087,-0.00069473,-0.00089244,-0.00024837,0.00016200
 ,0.00005378,-0.00101956,-0.00028892,-0.00063452,0.00008166,0.00006146,
 -0.00003147,-0.01442455,0.00072508,0.03982795,-0.05128050,-0.00380713,
 -0.02834689,0.06349032,-0.00145916,0.00014075,0.00060423,0.00037682,-0
 .00038720,0.00024711,-0.00014453,-0.00000926,0.00000400,0.00028952,0.0
 0021019,-0.00027467,-0.00032865,-0.00038031,0.00036721,0.00014825,-0.0
 0006021,-0.00009099,-0.00001777,0.00000761,0.00002846,0.00241359,0.003
 72273,-0.00096602,-0.00314618,-0.05248706,-0.01167134,-0.00040839,0.04
 985864,-0.00325990,-0.00415237,-0.00420820,-0.00030432,0.00017734,0.00
 214653,0.00054573,0.00017425,0.00003327,-0.00001008,0.00101258,0.00094
 691,0.00030249,0.00026132,-0.00038329,0.00102631,0.00041033,0.00019317
 ,-0.00005873,-0.00007700,-0.00000498,0.01777545,0.00135744,-0.01329167
 ,-0.02483187,-0.00775394,-0.28433097,0.01572945,0.01001751,0.31697174,
 0.00295580,0.00281353,0.00274000,-0.00056886,-0.00017574,-0.00109127,-
 0.00004426,0.00004372,-0.00002724,0.00027471,-0.00201613,-0.00047413,-
 0.00133204,0.00033153,-0.00004741,-0.00167335,-0.00024078,0.00059838,-
 0.00006595,0.00004766,-0.00009610,-0.04073006,-0.02590176,0.00150805,-
 0.09160519,-0.09188325,-0.03329543,-0.00015088,-0.00382760,-0.00253785
 ,0.12470400,0.00276834,0.00084105,0.00074741,-0.00030941,0.00016017,-0
 .00046473,0.00003093,-0.00002401,0.00008776,-0.00092058,-0.00009159,0.
 00000181,0.00152042,0.00084742,-0.00022147,-0.00052261,0.00014039,0.00
 023932,0.00005589,-0.00002203,-0.00009956,-0.00427051,0.00768436,0.003
 29945,-0.09347808,-0.22216042,-0.05330661,0.00050016,-0.00023282,-0.00
 042798,0.10551598,0.23870268,0.00115003,-0.00005193,-0.00128311,-0.000
 40650,0.00008576,0.00055249,0.00023561,0.00004909,0.00004038,-0.000133
 50,0.00025888,0.00034998,-0.00011594,0.00011277,-0.00028957,0.00031730
 ,0.00009202,-0.00000203,0.00005392,-0.00001698,-0.00000099,0.01454494,
 0.01357265,0.00597383,-0.03550323,-0.05683496,-0.07152957,-0.01392758,
 -0.02702729,-0.00686734,0.02873908,0.05919868,0.06828079,-0.00183064,0
 .00971012,0.00203149,0.00024098,-0.00126645,-0.00070606,-0.00039035,0.
 00004921,-0.00039796,0.00266669,0.00031896,0.00018663,-0.00949146,-0.0
 4055815,-0.01896517,-0.00010853,-0.00137930,0.00008327,-0.00033654,0.0
 0006092,0.00016960,-0.04026329,0.02629101,-0.00571776,-0.10260388,0.03
 130451,-0.02256551,0.00024612,0.00486109,-0.00338428,0.00719970,-0.015
 65408,0.00501660,0.57919834,0.00333156,0.01534291,0.00140439,-0.000655
 05,-0.00263854,0.00036974,-0.00037819,0.00038262,-0.00065618,0.0125704
 6,-0.00577600,-0.00125318,-0.01795040,-0.01317821,-0.00409572,-0.00031
 010,-0.00280322,-0.00054826,-0.00043647,0.00033290,0.00049897,-0.00433
 513,0.00091265,-0.00189481,0.04547744,-0.13633387,0.03512033,-0.000892
 68,-0.00063399,-0.00261880,0.01214353,-0.01973016,0.01058007,0.0355520
 7,0.47242311,-0.00238096,0.00216754,0.00129926,0.00003606,-0.00080090,
 0.00082013,-0.00012037,0.00016133,-0.00018896,0.00638014,-0.00190103,-
 0.00190472,-0.00845369,0.00214675,0.00094141,0.00069996,-0.00079159,-0
 .00119699,0.00012827,0.00019626,0.00042897,0.01424552,-0.01188272,0.00
 515417,-0.02656273,0.03343830,-0.10113874,-0.01865286,0.02875057,-0.01
 457230,0.00489584,-0.01248882,0.00346183,-0.03308777,0.00181687,0.5522
 5231,-0.00068897,-0.00017776,-0.00078626,-0.00004577,-0.00009244,0.000
 33870,0.00004871,0.00002065,-0.00001928,0.00014146,0.00004895,0.000526
 13,0.00059423,0.00017225,-0.00108437,0.00015029,0.00001147,0.00003836,
 -0.00004289,-0.00000034,-0.00000017,0.00254891,-0.00158068,0.00044197,
 0.00046309,0.00553426,-0.01989749,-0.00138085,0.00262969,-0.00176794,0
 .00004161,-0.00003502,0.00045049,-0.05486646,-0.00184165,0.02415952,0.
 05075273,0.00008112,-0.00082864,0.00031547,0.00018994,0.00023207,-0.00
 027264,0.00001017,-0.00007057,0.00002910,-0.00110864,0.00046300,0.0004
 9677,0.00307425,0.00063973,-0.00057631,-0.00004880,0.00020965,0.000047
 29,0.00003176,-0.00001725,-0.00005556,-0.00164454,0.00176039,-0.002118
 68,-0.00081008,-0.00168828,0.02847312,0.00349874,-0.00381628,0.0015257
 6,-0.00090338,0.00076022,-0.00059062,-0.00243615,-0.04848827,0.0183100
 6,0.00261455,0.06236115,0.00030548,-0.00084465,-0.00114699,-0.00022232
 ,0.00015317,0.00026303,0.00016679,0.00000473,0.00004631,-0.00170649,0.
 00062925,0.00098288,0.00368465,-0.00043403,-0.00030676,-0.00026880,0.0
 0030772,0.00047605,-0.00004531,-0.00005114,-0.00015887,-0.00045059,-0.
 00180250,0.00350545,0.00440552,0.00259750,-0.01665140,-0.00085460,0.00
 234696,0.00010876,-0.00037239,0.00129369,-0.00011882,0.01952087,0.0209
 3527,-0.27299841,-0.01903513,-0.00864156,0.30781682,0.00249731,0.00073
 710,0.00079212,-0.00033502,0.00009867,-0.00073146,-0.00000348,-0.00003
 456,0.00011044,-0.00161199,0.00007408,0.00005393,0.00438559,-0.0015127
 6,-0.00079450,-0.00064871,0.00015035,0.00036545,0.00006780,-0.00002486
 ,-0.00012923,-0.00416331,0.00428037,-0.00212420,-0.01673611,-0.0063129
 6,0.00875682,0.00024502,-0.00014141,-0.00090662,0.00093673,0.00116539,
 0.00047620,-0.26963033,-0.02646440,0.05753489,-0.00213319,0.00083234,0
 .00168913,0.29867131,-0.00113612,-0.00348653,-0.00049667,0.00007792,0.
 00049726,0.00016262,0.00009407,-0.00003220,0.00014146,-0.00248593,0.00
 152898,0.00033498,0.00427506,-0.00460721,-0.00234213,0.00015722,0.0006
 4152,-0.00001475,0.00013257,-0.00003405,-0.00007720,0.00639450,-0.0028
 8841,0.00232849,0.02131065,0.00477203,-0.00850386,-0.00085556,0.000429
 62,0.00065026,0.00017093,0.00043323,-0.00096517,-0.02347513,-0.0484837
 1,0.01035540,-0.00345329,0.00088790,0.00222902,0.03959616,0.06753725,-
 0.00028444,0.00007206,-0.00025659,0.00007202,0.00001759,0.00004725,-0.
 00000624,0.00000784,0.00000156,-0.00056192,0.00035484,0.00035262,0.000
 30992,-0.00273310,-0.00055689,-0.00000191,-0.00000189,0.00013568,-0.00
 006606,-0.00000980,-0.00004267,-0.00134193,0.00144928,0.00081758,-0.01
 148249,-0.00094628,0.00280131,0.00037131,-0.00063121,-0.00010857,0.000
 67606,-0.00078833,0.00048026,0.06276203,0.01120561,-0.06847003,0.03037
 369,0.00320497,-0.00702837,-0.06170357,-0.00445634,0.06647895,-0.00485
 834,-0.02800888,-0.00008838,-0.00002099,0.00472145,-0.00287410,0.00041
 270,-0.00048355,0.00162910,-0.04965890,0.01411487,0.00480006,-0.334502
 38,-0.00926726,0.05862605,-0.00189922,0.00600489,0.00240071,0.00099259
 ,-0.00062206,-0.00151685,0.01212994,0.00305521,-0.00012156,0.00428517,
 0.01192409,0.00790315,0.00078524,-0.00124527,0.00168215,0.00005803,0.0
 0363317,-0.00089745,-0.11003036,-0.05581100,-0.01882181,0.00441709,-0.
 00338128,-0.00681681,-0.01154163,-0.04080307,-0.01911648,0.48943105,-0
 .00532880,-0.01143862,-0.00096980,0.00089211,0.00218983,-0.00023147,0.
 00018812,-0.00033881,0.00045326,-0.00735398,0.01297080,0.00067411,-0.0
 3775501,-0.05034875,-0.00680044,0.00032228,0.00238923,0.00044180,0.000
 29984,-0.00029030,-0.00037815,0.00865244,0.00707445,0.00013944,-0.0190
 8756,-0.04271564,-0.01719937,-0.00120711,0.00363759,-0.00055670,0.0038
 8176,-0.00730850,0.00153701,-0.02337863,-0.21132823,-0.06947802,-0.003
 85064,-0.01240483,-0.01872343,-0.01244352,-0.01719568,-0.00674525,0.09
 616869,0.32510747,0.00072506,-0.00038254,-0.00217201,-0.00045017,-0.00
 014612,0.00121460,0.00057671,-0.00008809,-0.00018210,0.00302558,-0.000
 51898,0.00794365,0.04096639,-0.01324917,-0.03660626,-0.00005821,0.0002
 9992,0.00034664,-0.00004247,-0.00005419,-0.00012477,0.00062284,0.00055
 040,0.00120735,0.00257963,0.00488451,0.00621153,0.00213160,-0.00170454
 ,0.00336694,-0.00121559,0.00292936,0.00095188,-0.00494598,-0.07086430,
 -0.10388793,-0.01373822,-0.04014717,-0.01478968,-0.00338939,0.00065390
 ,0.00534790,-0.02678777,0.11783701,0.13117226\\0.00000288,-0.00003285,
 0.00003760,-0.00002045,0.00000354,-0.00002177,0.00000140,0.00001223,-0
 .00000483,-0.00000036,0.00001826,0.00000358,-0.00000538,-0.00000020,0.
 00000718,0.00000714,0.00000791,-0.00001214,-0.00000064,0.00000267,0.00
 000058,0.00000773,-0.00000725,0.00000110,-0.00001183,0.00001071,0.0000
 1067,0.00000407,0.00000060,-0.00000685,-0.00000024,-0.00000275,-0.0000
 0610,0.00000796,-0.00002584,-0.00001447,-0.00000094,0.00000734,0.00000
 356,0.00000203,-0.00000692,0.00000483,0.00000664,0.00001255,-0.0000029
 6\\\@
 The archive entry for this job was punched.


 THE ATTENTION SPAN OF A COMPUTER IS AS LONG
 AS ITS EXTENSION CORD.
 Job cpu time:       0 days  1 hours 35 minutes 21.1 seconds.
 Elapsed time:       0 days  0 hours 23 minutes 54.4 seconds.
 File lengths (MBytes):  RWF=    176 Int=      0 D2E=      0 Chk=     11 Scr=      1
 Normal termination of Gaussian 16 at Tue Mar 26 02:29:13 2024.
