 Entering Gaussian System, Link 0=/opt/software/gaussian/g16.c01/g16
 Initial command:
 /opt/software/gaussian/g16.c01/l1.exe "/scratch/arhender/23963128/Gau-137105.inp" -scrdir="/scratch/arhender/23963128/"
 Entering Link 1 = /opt/software/gaussian/g16.c01/l1.exe PID=    137106.
  
 Copyright (c) 1988-2019, Gaussian, Inc.  All Rights Reserved.
  
 This is part of the Gaussian(R) 16 program.  It is based on
 the Gaussian(R) 09 system (copyright 2009, Gaussian, Inc.),
 the Gaussian(R) 03 system (copyright 2003, Gaussian, Inc.),
 the Gaussian(R) 98 system (copyright 1998, Gaussian, Inc.),
 the Gaussian(R) 94 system (copyright 1995, Gaussian, Inc.),
 the Gaussian 92(TM) system (copyright 1992, Gaussian, Inc.),
 the Gaussian 90(TM) system (copyright 1990, Gaussian, Inc.),
 the Gaussian 88(TM) system (copyright 1988, Gaussian, Inc.),
 the Gaussian 86(TM) system (copyright 1986, Carnegie Mellon
 University), and the Gaussian 82(TM) system (copyright 1983,
 Carnegie Mellon University). Gaussian is a federally registered
 trademark of Gaussian, Inc.
  
 This software contains proprietary and confidential information,
 including trade secrets, belonging to Gaussian, Inc.
  
 This software is provided under written license and may be
 used, copied, transmitted, or stored only in accord with that
 written license.
  
 The following legend is applicable only to US Government
 contracts under FAR:
  
                    RESTRICTED RIGHTS LEGEND
  
 Use, reproduction and disclosure by the US Government is
 subject to restrictions as set forth in subparagraphs (a)
 and (c) of the Commercial Computer Software - Restricted
 Rights clause in FAR 52.227-19.
  
 Gaussian, Inc.
 340 Quinnipiac St., Bldg. 40, Wallingford CT 06492
  
  
 ---------------------------------------------------------------
 Warning -- This program may not be used in any manner that
 competes with the business of Gaussian, Inc. or will provide
 assistance to any competitor of Gaussian, Inc.  The licensee
 of this program is prohibited from giving any competitor of
 Gaussian, Inc. access to this program.  By using this program,
 the user acknowledges that Gaussian, Inc. is engaged in the
 business of creating and licensing software in the field of
 computational chemistry and represents and warrants to the
 licensee that it is not a competitor of Gaussian, Inc. and that
 it will not use this program in any manner prohibited above.
 ---------------------------------------------------------------
  

 Cite this work as:
 Gaussian 16, Revision C.01,
 M. J. Frisch, G. W. Trucks, H. B. Schlegel, G. E. Scuseria, 
 M. A. Robb, J. R. Cheeseman, G. Scalmani, V. Barone, 
 G. A. Petersson, H. Nakatsuji, X. Li, M. Caricato, A. V. Marenich, 
 J. Bloino, B. G. Janesko, R. Gomperts, B. Mennucci, H. P. Hratchian, 
 J. V. Ortiz, A. F. Izmaylov, J. L. Sonnenberg, D. Williams-Young, 
 F. Ding, F. Lipparini, F. Egidi, J. Goings, B. Peng, A. Petrone, 
 T. Henderson, D. Ranasinghe, V. G. Zakrzewski, J. Gao, N. Rega, 
 G. Zheng, W. Liang, M. Hada, M. Ehara, K. Toyota, R. Fukuda, 
 J. Hasegawa, M. Ishida, T. Nakajima, Y. Honda, O. Kitao, H. Nakai, 
 T. Vreven, K. Throssell, J. A. Montgomery, Jr., J. E. Peralta, 
 F. Ogliaro, M. J. Bearpark, J. J. Heyd, E. N. Brothers, K. N. Kudin, 
 V. N. Staroverov, T. A. Keith, R. Kobayashi, J. Normand, 
 K. Raghavachari, A. P. Rendell, J. C. Burant, S. S. Iyengar, 
 J. Tomasi, M. Cossi, J. M. Millam, M. Klene, C. Adamo, R. Cammi, 
 J. W. Ochterski, R. L. Martin, K. Morokuma, O. Farkas, 
 J. B. Foresman, and D. J. Fox, Gaussian, Inc., Wallingford CT, 2019.
 
 ******************************************
 Gaussian 16:  ES64L-G16RevC.01  3-Jul-2019
                30-Jan-2024 
 ******************************************
 %chk=ReactanttOpt_IRC_fromfrozenboth21.chk
 %mem=1600MB
 %nprocs=4
 Will use up to    4 processors via shared memory.
 ---------------------------------------------
 # opt freq wb97xd/def2tzvpp geom=connectivity
 ---------------------------------------------
 1/18=20,19=15,26=3,38=1,57=2/1,3;
 2/9=110,12=2,17=6,18=5,40=1/2;
 3/5=44,7=202,11=2,25=1,30=1,71=1,74=-58/1,2,3;
 4//1;
 5/5=2,38=5/2;
 6/7=2,8=2,9=2,10=2,28=1/1;
 7//1,2,3,16;
 1/18=20,19=15,26=3/3(2);
 2/9=110/2;
 99//99;
 2/9=110/2;
 3/5=44,7=202,11=2,25=1,30=1,71=1,74=-58/1,2,3;
 4/5=5,16=3,69=1/1;
 5/5=2,38=5/2;
 7//1,2,3,16;
 1/18=20,19=15,26=3/3(-5);
 2/9=110/2;
 6/7=2,8=2,9=2,10=2,19=2,28=1/1;
 99/9=1/99;
 -------------------------------------
 Reactant opt IRC for Frozenboth21 opt
 -------------------------------------
 Symbolic Z-matrix:
 Charge =  0 Multiplicity = 1
 Si                    1.30722   0.10314   0.1124 
 O                     1.64132  -0.96607  -1.06256 
 H                     0.89462  -1.53303  -1.26963 
 O                     2.72144   0.81458   0.53163 
 H                     3.52239   0.36475   0.2735 
 O                     0.33936   1.35326  -0.36822 
 H                     0.82575   2.13904  -0.61176 
 O                     0.63128  -0.62056   1.41279 
 H                     1.0336   -0.41513   2.25279 
 C                    -2.19537  -1.17179   0.0813 
 H                    -1.8858   -1.82265   0.89712 
 H                    -3.08691  -1.5958   -0.39163 
 C                    -2.49225   0.22985   0.60359 
 H                    -1.72817   0.52282   1.32557 
 H                    -3.46138   0.23327   1.10591 
 O                    -1.13181  -1.14593  -0.85706 
 H                    -1.36711  -0.47254  -1.50072 
 O                    -2.54341   1.15687  -0.46358 
 H                    -1.65164   1.5078   -0.55257 
 
 Add virtual bond connecting atoms O16        and H3         Dist= 3.98D+00.
 Add virtual bond connecting atoms H19        and O6         Dist= 3.79D+00.

 GradGradGradGradGradGradGradGradGradGradGradGradGradGradGradGradGradGrad
 Berny optimization.
 Initialization pass.
                           ----------------------------
                           !    Initial Parameters    !
                           ! (Angstroms and Degrees)  !
 --------------------------                            --------------------------
 ! Name  Definition              Value          Derivative Info.                !
 --------------------------------------------------------------------------------
 ! R1    R(1,2)                  1.6234         estimate D2E/DX2                !
 ! R2    R(1,4)                  1.6377         estimate D2E/DX2                !
 ! R3    R(1,6)                  1.6524         estimate D2E/DX2                !
 ! R4    R(1,8)                  1.6345         estimate D2E/DX2                !
 ! R5    R(2,3)                  0.9602         estimate D2E/DX2                !
 ! R6    R(3,16)                 2.1039         estimate D2E/DX2                !
 ! R7    R(4,5)                  0.9542         estimate D2E/DX2                !
 ! R8    R(6,7)                  0.9557         estimate D2E/DX2                !
 ! R9    R(6,19)                 2.0055         estimate D2E/DX2                !
 ! R10   R(8,9)                  0.9538         estimate D2E/DX2                !
 ! R11   R(10,11)                1.0886         estimate D2E/DX2                !
 ! R12   R(10,12)                1.0947         estimate D2E/DX2                !
 ! R13   R(10,13)                1.525          estimate D2E/DX2                !
 ! R14   R(10,16)                1.4186         estimate D2E/DX2                !
 ! R15   R(13,14)                1.0913         estimate D2E/DX2                !
 ! R16   R(13,15)                1.0916         estimate D2E/DX2                !
 ! R17   R(13,18)                1.4145         estimate D2E/DX2                !
 ! R18   R(16,17)                0.9608         estimate D2E/DX2                !
 ! R19   R(18,19)                0.9625         estimate D2E/DX2                !
 ! A1    A(2,1,4)              107.0785         estimate D2E/DX2                !
 ! A2    A(2,1,6)              114.0988         estimate D2E/DX2                !
 ! A3    A(2,1,8)              111.6731         estimate D2E/DX2                !
 ! A4    A(4,1,6)              104.5727         estimate D2E/DX2                !
 ! A5    A(4,1,8)              110.2305         estimate D2E/DX2                !
 ! A6    A(6,1,8)              108.9134         estimate D2E/DX2                !
 ! A7    A(1,2,3)              112.6414         estimate D2E/DX2                !
 ! A8    A(2,3,16)             126.7344         estimate D2E/DX2                !
 ! A9    A(1,4,5)              116.7964         estimate D2E/DX2                !
 ! A10   A(1,6,7)              113.4564         estimate D2E/DX2                !
 ! A11   A(1,6,19)             131.7991         estimate D2E/DX2                !
 ! A12   A(7,6,19)             114.7391         estimate D2E/DX2                !
 ! A13   A(1,8,9)              115.523          estimate D2E/DX2                !
 ! A14   A(11,10,12)           108.8924         estimate D2E/DX2                !
 ! A15   A(11,10,13)           110.3791         estimate D2E/DX2                !
 ! A16   A(11,10,16)           107.0636         estimate D2E/DX2                !
 ! A17   A(12,10,13)           110.2083         estimate D2E/DX2                !
 ! A18   A(12,10,16)           109.3839         estimate D2E/DX2                !
 ! A19   A(13,10,16)           110.8398         estimate D2E/DX2                !
 ! A20   A(10,13,14)           109.6965         estimate D2E/DX2                !
 ! A21   A(10,13,15)           109.4709         estimate D2E/DX2                !
 ! A22   A(10,13,18)           110.5492         estimate D2E/DX2                !
 ! A23   A(14,13,15)           108.4415         estimate D2E/DX2                !
 ! A24   A(14,13,18)           110.3962         estimate D2E/DX2                !
 ! A25   A(15,13,18)           108.2409         estimate D2E/DX2                !
 ! A26   A(3,16,10)            148.0471         estimate D2E/DX2                !
 ! A27   A(3,16,17)            103.5014         estimate D2E/DX2                !
 ! A28   A(10,16,17)           105.8018         estimate D2E/DX2                !
 ! A29   A(13,18,19)           105.9742         estimate D2E/DX2                !
 ! A30   A(6,19,18)            152.0392         estimate D2E/DX2                !
 ! D1    D(4,1,2,3)            170.5511         estimate D2E/DX2                !
 ! D2    D(6,1,2,3)            -74.2495         estimate D2E/DX2                !
 ! D3    D(8,1,2,3)             49.7964         estimate D2E/DX2                !
 ! D4    D(2,1,4,5)            -18.0108         estimate D2E/DX2                !
 ! D5    D(6,1,4,5)           -139.4248         estimate D2E/DX2                !
 ! D6    D(8,1,4,5)            103.6555         estimate D2E/DX2                !
 ! D7    D(2,1,6,7)            -96.1571         estimate D2E/DX2                !
 ! D8    D(2,1,6,19)            82.9428         estimate D2E/DX2                !
 ! D9    D(4,1,6,7)             20.5033         estimate D2E/DX2                !
 ! D10   D(4,1,6,19)          -160.3968         estimate D2E/DX2                !
 ! D11   D(8,1,6,7)            138.3275         estimate D2E/DX2                !
 ! D12   D(8,1,6,19)           -42.5726         estimate D2E/DX2                !
 ! D13   D(2,1,8,9)            129.4943         estimate D2E/DX2                !
 ! D14   D(4,1,8,9)             10.596          estimate D2E/DX2                !
 ! D15   D(6,1,8,9)           -103.5918         estimate D2E/DX2                !
 ! D16   D(1,2,3,16)            20.7689         estimate D2E/DX2                !
 ! D17   D(2,3,16,10)          -82.3693         estimate D2E/DX2                !
 ! D18   D(2,3,16,17)           73.7123         estimate D2E/DX2                !
 ! D19   D(1,6,19,18)            3.8199         estimate D2E/DX2                !
 ! D20   D(7,6,19,18)         -177.0892         estimate D2E/DX2                !
 ! D21   D(11,10,13,14)         42.3961         estimate D2E/DX2                !
 ! D22   D(11,10,13,15)        -76.4815         estimate D2E/DX2                !
 ! D23   D(11,10,13,18)        164.3689         estimate D2E/DX2                !
 ! D24   D(12,10,13,14)        162.7148         estimate D2E/DX2                !
 ! D25   D(12,10,13,15)         43.8372         estimate D2E/DX2                !
 ! D26   D(12,10,13,18)        -75.3124         estimate D2E/DX2                !
 ! D27   D(16,10,13,14)        -76.0508         estimate D2E/DX2                !
 ! D28   D(16,10,13,15)        165.0716         estimate D2E/DX2                !
 ! D29   D(16,10,13,18)         45.922          estimate D2E/DX2                !
 ! D30   D(11,10,16,3)         -16.166          estimate D2E/DX2                !
 ! D31   D(11,10,16,17)       -171.9791         estimate D2E/DX2                !
 ! D32   D(12,10,16,3)        -134.009          estimate D2E/DX2                !
 ! D33   D(12,10,16,17)         70.1779         estimate D2E/DX2                !
 ! D34   D(13,10,16,3)         104.2719         estimate D2E/DX2                !
 ! D35   D(13,10,16,17)        -51.5412         estimate D2E/DX2                !
 ! D36   D(10,13,18,19)        -91.6861         estimate D2E/DX2                !
 ! D37   D(14,13,18,19)         29.8744         estimate D2E/DX2                !
 ! D38   D(15,13,18,19)        148.4224         estimate D2E/DX2                !
 ! D39   D(13,18,19,6)          27.7723         estimate D2E/DX2                !
 --------------------------------------------------------------------------------
 Trust Radius=3.00D-01 FncErr=1.00D-07 GrdErr=1.00D-06 EigMax=2.50D+02 EigMin=1.00D-04
 Number of steps in this run=     98 maximum allowed number of steps=    114.
 GradGradGradGradGradGradGradGradGradGradGradGradGradGradGradGradGradGrad

                          Input orientation:                          
 ---------------------------------------------------------------------
 Center     Atomic      Atomic             Coordinates (Angstroms)
 Number     Number       Type             X           Y           Z
 ---------------------------------------------------------------------
      1         14           0        1.307221    0.103143    0.112399
      2          8           0        1.641323   -0.966070   -1.062556
      3          1           0        0.894622   -1.533034   -1.269634
      4          8           0        2.721441    0.814576    0.531634
      5          1           0        3.522387    0.364751    0.273498
      6          8           0        0.339360    1.353263   -0.368215
      7          1           0        0.825751    2.139037   -0.611763
      8          8           0        0.631277   -0.620559    1.412793
      9          1           0        1.033603   -0.415127    2.252794
     10          6           0       -2.195369   -1.171788    0.081303
     11          1           0       -1.885804   -1.822649    0.897124
     12          1           0       -3.086912   -1.595802   -0.391629
     13          6           0       -2.492246    0.229848    0.603593
     14          1           0       -1.728168    0.522822    1.325569
     15          1           0       -3.461378    0.233269    1.105911
     16          8           0       -1.131811   -1.145926   -0.857062
     17          1           0       -1.367113   -0.472537   -1.500722
     18          8           0       -2.543405    1.156866   -0.463578
     19          1           0       -1.651637    1.507799   -0.552566
 ---------------------------------------------------------------------
                    Distance matrix (angstroms):
                    1          2          3          4          5
     1  Si   0.000000
     2  O    1.623379   0.000000
     3  H    2.181130   0.960152   0.000000
     4  O    1.637655   2.622746   3.477514   0.000000
     5  H    2.236370   2.663555   3.589985   0.954197   0.000000
     6  O    1.652436   2.748913   3.074343   2.602734   3.394203
     7  H    2.213840   3.241923   3.731172   2.579766   3.347181
     8  O    1.634524   2.695723   2.845589   2.684183   3.259961
     9  H    2.219180   3.415320   3.698179   2.706170   3.274121
    10  C    3.727540   4.008858   3.391692   5.321979   5.923734
    11  H    3.810496   4.124888   3.536875   5.321207   5.867040
    12  H    4.738023   4.816940   4.077676   6.356044   6.925965
    13  C    3.833181   4.614398   4.252953   5.246867   6.025195
    14  H    3.295679   4.390149   4.223819   4.529291   5.357254
    15  H    4.872734   5.672585   5.266667   6.236583   7.034428
    16  O    2.906700   2.786548   2.103925   4.540880   5.022138
    17  H    3.175788   3.079976   2.508685   4.743775   5.268408
    18  O    4.033535   4.730495   4.439067   5.369005   6.161539
    19  H    3.342167   4.150145   4.030420   4.558493   5.362785
                    6          7          8          9         10
     6  O    0.000000
     7  H    0.955684   0.000000
     8  O    2.674543   3.428122   0.000000
     9  H    3.237107   3.843520   0.953766   0.000000
    10  C    3.605940   4.535314   3.172798   3.964110   0.000000
    11  H    4.079075   5.032318   2.836659   3.513104   1.088584
    12  H    4.520716   5.413540   4.246406   5.036428   1.094670
    13  C    3.197572   4.016366   3.336824   3.945563   1.524961
    14  H    2.798787   3.589973   2.623339   3.060535   2.153643
    15  H    4.227652   4.996182   4.192019   4.684081   2.150996
    16  O    2.940963   3.831867   2.921769   3.859312   1.418574
    17  H    2.743751   3.524091   3.536106   4.455964   1.917749
    18  O    2.891021   3.512525   4.093729   4.758658   2.416744
    19  H    2.005476   2.557228   3.688393   4.333382   2.806710
                   11         12         13         14         15
    11  H    0.000000
    12  H    1.776233   0.000000
    13  C    2.160249   2.162659   0.000000
    14  H    2.389487   3.046887   1.091283   0.000000
    15  H    2.598620   2.393397   1.091582   1.770906   0.000000
    16  O    2.025741   2.059475   2.424263   2.811448   3.343998
    17  H    2.800269   2.334421   2.487451   3.018115   3.417403
    18  O    3.340877   2.806734   1.414508   2.065834   2.039363
    19  H    3.639824   3.423194   1.917416   2.122128   2.765888
                   16         17         18         19
    16  O    0.000000
    17  H    0.960790   0.000000
    18  O    2.729520   2.261478   0.000000
    19  H    2.721248   2.213975   0.962457   0.000000
 Stoichiometry    C2H10O6Si
 Framework group  C1[X(C2H10O6Si)]
 Deg. of freedom    51
 Full point group                 C1      NOp   1
 Largest Abelian subgroup         C1      NOp   1
 Largest concise Abelian subgroup C1      NOp   1
                         Standard orientation:                         
 ---------------------------------------------------------------------
 Center     Atomic      Atomic             Coordinates (Angstroms)
 Number     Number       Type             X           Y           Z
 ---------------------------------------------------------------------
      1         14           0        1.355995    0.034010    0.034019
      2          8           0        1.569018   -1.214208   -0.981822
      3          1           0        0.780716   -1.754586   -1.073821
      4          8           0        2.828639    0.703657    0.288589
      5          1           0        3.588003    0.169135    0.069173
      6          8           0        0.442715    1.262349   -0.588594
      7          1           0        0.963000    1.970520   -0.964265
      8          8           0        0.700963   -0.446892    1.452234
      9          1           0        1.154558   -0.148736    2.236469
     10          6           0       -2.214012   -0.997422    0.326852
     11          1           0       -1.905245   -1.541964    1.217443
     12          1           0       -3.150900   -1.425702   -0.043442
     13          6           0       -2.401260    0.481731    0.647087
     14          1           0       -1.587386    0.825242    1.287796
     15          1           0       -3.343322    0.622149    1.180335
     16          8           0       -1.196902   -1.178492   -0.645288
     17          1           0       -1.422044   -0.591625   -1.371935
     18          8           0       -2.447892    1.245303   -0.542709
     19          1           0       -1.542019    1.519833   -0.716927
 ---------------------------------------------------------------------
 Rotational constants (GHZ):           2.2461007           0.8258563           0.7641620
 Standard basis: def2TZVPP (5D, 7F)
 There are   486 symmetry adapted cartesian basis functions of A   symmetry.
 There are   430 symmetry adapted basis functions of A   symmetry.
   430 basis functions,   647 primitive gaussians,   486 cartesian basis functions
    42 alpha electrons       42 beta electrons
       nuclear repulsion energy       646.3992729080 Hartrees.
 NAtoms=   19 NActive=   19 NUniq=   19 SFac= 1.00D+00 NAtFMM=   60 NAOKFM=F Big=F
 Integral buffers will be    131072 words long.
 Raffenetti 2 integral format.
 Two-electron integral symmetry is turned on.
 Nuclear repulsion after empirical dispersion term =      646.3883555494 Hartrees.
 One-electron integrals computed using PRISM.
   1 Symmetry operations used in ECPInt.
 ECPInt:  NShTT=   13203 NPrTT=   36019 LenC2=   12577 LenP2D=   26912.
 LDataN:  DoStor=T MaxTD1= 6 Len=  172
 NBasis=   430 RedAO= T EigKep=  2.31D-04  NBF=   430
 NBsUse=   430 1.00D-06 EigRej= -1.00D+00 NBFU=   430
 ExpMin= 7.01D-02 ExpMax= 4.48D+04 ExpMxC= 1.53D+03 IAcc=3 IRadAn=         5 AccDes= 0.00D+00
 Harris functional with IExCor= 4639 and IRadAn=       5 diagonalized for initial guess.
 HarFok:  IExCor= 4639 AccDes= 0.00D+00 IRadAn=         5 IDoV= 1 UseB2=F ITyADJ=14
 ICtDFT=  3500011 ScaDFX=  1.000000  1.000000  1.000000  1.000000
 FoFCou: FMM=F IPFlag=           0 FMFlag=      100000 FMFlg1=           0
         NFxFlg=           0 DoJE=T BraDBF=F KetDBF=T FulRan=T
         wScrn=  0.000000 ICntrl=       500 IOpCl=  0 I1Cent=   200000004 NGrid=           0
         NMat0=    1 NMatS0=      1 NMatT0=    0 NMatD0=    1 NMtDS0=    0 NMtDT0=    0
 Petite list used in FoFCou.
 Requested convergence on RMS density matrix=1.00D-08 within 128 cycles.
 Requested convergence on MAX density matrix=1.00D-06.
 Requested convergence on             energy=1.00D-06.
 No special actions if energy rises.
 Integral accuracy reduced to 1.0D-05 until final iterations.
 Initial convergence to 1.0D-05 achieved.  Increase integral accuracy.
 SCF Done:  E(RwB97XD) =  -823.370816337     A.U. after   13 cycles
            NFock= 13  Conv=0.76D-08     -V/T= 2.0034

 **********************************************************************

            Population analysis using the SCF Density.

 **********************************************************************

 Orbital symmetries:
       Occupied  (A) (A) (A) (A) (A) (A) (A) (A) (A) (A) (A) (A)
                 (A) (A) (A) (A) (A) (A) (A) (A) (A) (A) (A) (A)
                 (A) (A) (A) (A) (A) (A) (A) (A) (A) (A) (A) (A)
                 (A) (A) (A) (A) (A) (A)
       Virtual   (A) (A) (A) (A) (A) (A) (A) (A) (A) (A) (A) (A)
                 (A) (A) (A) (A) (A) (A) (A) (A) (A) (A) (A) (A)
                 (A) (A) (A) (A) (A) (A) (A) (A) (A) (A) (A) (A)
                 (A) (A) (A) (A) (A) (A) (A) (A) (A) (A) (A) (A)
                 (A) (A) (A) (A) (A) (A) (A) (A) (A) (A) (A) (A)
                 (A) (A) (A) (A) (A) (A) (A) (A) (A) (A) (A) (A)
                 (A) (A) (A) (A) (A) (A) (A) (A) (A) (A) (A) (A)
                 (A) (A) (A) (A) (A) (A) (A) (A) (A) (A) (A) (A)
                 (A) (A) (A) (A) (A) (A) (A) (A) (A) (A) (A) (A)
                 (A) (A) (A) (A) (A) (A) (A) (A) (A) (A) (A) (A)
                 (A) (A) (A) (A) (A) (A) (A) (A) (A) (A) (A) (A)
                 (A) (A) (A) (A) (A) (A) (A) (A) (A) (A) (A) (A)
                 (A) (A) (A) (A) (A) (A) (A) (A) (A) (A) (A) (A)
                 (A) (A) (A) (A) (A) (A) (A) (A) (A) (A) (A) (A)
                 (A) (A) (A) (A) (A) (A) (A) (A) (A) (A) (A) (A)
                 (A) (A) (A) (A) (A) (A) (A) (A) (A) (A) (A) (A)
                 (A) (A) (A) (A) (A) (A) (A) (A) (A) (A) (A) (A)
                 (A) (A) (A) (A) (A) (A) (A) (A) (A) (A) (A) (A)
                 (A) (A) (A) (A) (A) (A) (A) (A) (A) (A) (A) (A)
                 (A) (A) (A) (A) (A) (A) (A) (A) (A) (A) (A) (A)
                 (A) (A) (A) (A) (A) (A) (A) (A) (A) (A) (A) (A)
                 (A) (A) (A) (A) (A) (A) (A) (A) (A) (A) (A) (A)
                 (A) (A) (A) (A) (A) (A) (A) (A) (A) (A) (A) (A)
                 (A) (A) (A) (A) (A) (A) (A) (A) (A) (A) (A) (A)
                 (A) (A) (A) (A) (A) (A) (A) (A) (A) (A) (A) (A)
                 (A) (A) (A) (A) (A) (A) (A) (A) (A) (A) (A) (A)
                 (A) (A) (A) (A) (A) (A) (A) (A) (A) (A) (A) (A)
                 (A) (A) (A) (A) (A) (A) (A) (A) (A) (A) (A) (A)
                 (A) (A) (A) (A) (A) (A) (A) (A) (A) (A) (A) (A)
                 (A) (A) (A) (A) (A) (A) (A) (A) (A) (A) (A) (A)
                 (A) (A) (A) (A) (A) (A) (A) (A) (A) (A) (A) (A)
                 (A) (A) (A) (A) (A) (A) (A) (A) (A) (A) (A) (A)
                 (A) (A) (A) (A)
 The electronic state is 1-A.
 Alpha  occ. eigenvalues --  -66.31364 -19.26227 -19.25872 -19.25449 -19.25217
 Alpha  occ. eigenvalues --  -19.24379 -19.23987 -10.32404 -10.31966  -5.43045
 Alpha  occ. eigenvalues --   -3.77642  -3.77492  -3.77475  -1.14833  -1.13885
 Alpha  occ. eigenvalues --   -1.11292  -1.10642  -1.10261  -1.09604  -0.83212
 Alpha  occ. eigenvalues --   -0.71307  -0.67987  -0.63280  -0.61273  -0.60628
 Alpha  occ. eigenvalues --   -0.60350  -0.59355  -0.55530  -0.51981  -0.49693
 Alpha  occ. eigenvalues --   -0.48884  -0.47978  -0.47800  -0.46167  -0.44556
 Alpha  occ. eigenvalues --   -0.44295  -0.43262  -0.41761  -0.40542  -0.39886
 Alpha  occ. eigenvalues --   -0.38308  -0.35078
 Alpha virt. eigenvalues --    0.08057   0.12139   0.13151   0.13441   0.15224
 Alpha virt. eigenvalues --    0.16855   0.17407   0.18665   0.20256   0.21323
 Alpha virt. eigenvalues --    0.21965   0.22749   0.23870   0.24276   0.26264
 Alpha virt. eigenvalues --    0.27845   0.27922   0.29220   0.30502   0.31823
 Alpha virt. eigenvalues --    0.34454   0.36840   0.38410   0.39060   0.40789
 Alpha virt. eigenvalues --    0.42022   0.42576   0.43124   0.44660   0.45457
 Alpha virt. eigenvalues --    0.45858   0.46726   0.47592   0.48019   0.49745
 Alpha virt. eigenvalues --    0.50882   0.52378   0.52794   0.52986   0.53837
 Alpha virt. eigenvalues --    0.55130   0.56105   0.56457   0.57490   0.58763
 Alpha virt. eigenvalues --    0.59823   0.60592   0.61332   0.62823   0.64205
 Alpha virt. eigenvalues --    0.65669   0.66842   0.67174   0.69352   0.70058
 Alpha virt. eigenvalues --    0.71541   0.73308   0.73950   0.75780   0.76019
 Alpha virt. eigenvalues --    0.77926   0.79341   0.80077   0.81899   0.83706
 Alpha virt. eigenvalues --    0.86590   0.88456   0.89089   0.90202   0.91768
 Alpha virt. eigenvalues --    0.94289   0.94549   0.96201   0.96467   0.98761
 Alpha virt. eigenvalues --    0.99009   0.99826   1.01360   1.03488   1.06078
 Alpha virt. eigenvalues --    1.07718   1.08238   1.08710   1.09131   1.11937
 Alpha virt. eigenvalues --    1.12359   1.14801   1.15765   1.17184   1.18484
 Alpha virt. eigenvalues --    1.20739   1.22223   1.24048   1.24362   1.26117
 Alpha virt. eigenvalues --    1.26745   1.29741   1.31334   1.32266   1.32953
 Alpha virt. eigenvalues --    1.34026   1.35763   1.37973   1.38589   1.40430
 Alpha virt. eigenvalues --    1.41326   1.43214   1.45796   1.48218   1.48692
 Alpha virt. eigenvalues --    1.49823   1.52031   1.53008   1.54713   1.56577
 Alpha virt. eigenvalues --    1.58179   1.59767   1.61224   1.63221   1.65227
 Alpha virt. eigenvalues --    1.68388   1.68764   1.76188   1.78989   1.81672
 Alpha virt. eigenvalues --    1.82728   1.84889   1.87283   1.88760   1.89278
 Alpha virt. eigenvalues --    1.94006   1.94562   1.96583   1.97496   1.98761
 Alpha virt. eigenvalues --    1.99195   2.01641   2.03670   2.06834   2.07001
 Alpha virt. eigenvalues --    2.09775   2.11044   2.12293   2.13876   2.14975
 Alpha virt. eigenvalues --    2.16765   2.18687   2.19643   2.20601   2.21932
 Alpha virt. eigenvalues --    2.23947   2.27099   2.28098   2.29500   2.30900
 Alpha virt. eigenvalues --    2.34967   2.36117   2.39018   2.40218   2.45081
 Alpha virt. eigenvalues --    2.53270   2.57134   2.58141   2.60620   2.63190
 Alpha virt. eigenvalues --    2.65568   2.66695   2.70494   2.72773   2.76035
 Alpha virt. eigenvalues --    2.77759   2.80084   2.83853   2.84534   2.85650
 Alpha virt. eigenvalues --    2.88208   2.89861   2.91959   2.93762   2.94233
 Alpha virt. eigenvalues --    2.97090   2.99842   3.01819   3.03909   3.06015
 Alpha virt. eigenvalues --    3.08229   3.08762   3.09798   3.11418   3.15042
 Alpha virt. eigenvalues --    3.18998   3.20455   3.23006   3.24043   3.25315
 Alpha virt. eigenvalues --    3.26593   3.28019   3.32856   3.34465   3.35175
 Alpha virt. eigenvalues --    3.36002   3.36714   3.37432   3.38671   3.39829
 Alpha virt. eigenvalues --    3.41112   3.41749   3.43502   3.43878   3.45493
 Alpha virt. eigenvalues --    3.46573   3.47917   3.49113   3.51933   3.55592
 Alpha virt. eigenvalues --    3.56855   3.58328   3.61839   3.62423   3.65647
 Alpha virt. eigenvalues --    3.67419   3.67981   3.71315   3.73121   3.74067
 Alpha virt. eigenvalues --    3.74284   3.76184   3.77351   3.79742   3.80404
 Alpha virt. eigenvalues --    3.83311   3.85172   3.85257   3.86100   3.89217
 Alpha virt. eigenvalues --    3.91534   3.95648   3.97042   3.98754   4.01387
 Alpha virt. eigenvalues --    4.01573   4.04048   4.04719   4.06350   4.08683
 Alpha virt. eigenvalues --    4.09685   4.10173   4.12255   4.12811   4.13889
 Alpha virt. eigenvalues --    4.15217   4.15809   4.17793   4.18824   4.19425
 Alpha virt. eigenvalues --    4.20352   4.22679   4.24006   4.24431   4.27172
 Alpha virt. eigenvalues --    4.30858   4.31381   4.33622   4.34723   4.37250
 Alpha virt. eigenvalues --    4.37951   4.40054   4.41077   4.43454   4.47902
 Alpha virt. eigenvalues --    4.49168   4.53440   4.58330   4.58847   4.65480
 Alpha virt. eigenvalues --    4.68978   4.71162   4.75823   4.77608   4.82145
 Alpha virt. eigenvalues --    4.89652   4.93041   4.96183   4.96675   4.98417
 Alpha virt. eigenvalues --    5.00686   5.01662   5.03561   5.06174   5.07249
 Alpha virt. eigenvalues --    5.08688   5.09757   5.10004   5.15234   5.17842
 Alpha virt. eigenvalues --    5.24275   5.27650   5.29865   5.31211   5.32615
 Alpha virt. eigenvalues --    5.36145   5.38787   5.40246   5.41710   5.42365
 Alpha virt. eigenvalues --    5.42971   5.45050   5.47595   5.49890   5.50255
 Alpha virt. eigenvalues --    5.52596   5.58826   5.60093   5.62677   5.64280
 Alpha virt. eigenvalues --    5.67135   5.67798   5.73510   5.75884   5.83481
 Alpha virt. eigenvalues --    5.84067   5.86072   5.90067   5.93200   5.99112
 Alpha virt. eigenvalues --    6.06553   6.15568   6.21091   6.47361   6.49388
 Alpha virt. eigenvalues --    6.52005   6.56646   6.57847   6.59990   6.60989
 Alpha virt. eigenvalues --    6.64375   6.65406   6.66328   6.67188   6.68756
 Alpha virt. eigenvalues --    6.70191   6.70299   6.71474   6.72018   6.73025
 Alpha virt. eigenvalues --    6.74852   6.77076   6.79352   6.80054   6.80602
 Alpha virt. eigenvalues --    6.82134   6.82991   6.84078   6.85446   6.87207
 Alpha virt. eigenvalues --    6.87870   6.90231   6.91439   6.93473   6.96316
 Alpha virt. eigenvalues --    6.98862   7.04738   7.17032   7.19705   7.27212
 Alpha virt. eigenvalues --    7.29094   7.33080   7.34281   7.36298   7.39021
 Alpha virt. eigenvalues --    7.42753   7.47724   7.50928   7.55350   7.60325
 Alpha virt. eigenvalues --    7.66658   7.67476   7.73022   7.79843  12.34458
 Alpha virt. eigenvalues --   23.37408  23.49996  43.83258  43.89842  43.94387
 Alpha virt. eigenvalues --   44.04229  44.15440  44.21823
          Condensed to atoms (all electrons):
               1          2          3          4          5          6
     1  Si  11.450685   0.463777  -0.017492   0.467303  -0.021835   0.395054
     2  O    0.463777   7.692174   0.345860  -0.027529  -0.000519  -0.028058
     3  H   -0.017492   0.345860   0.440140   0.001343  -0.000103  -0.000338
     4  O    0.467303  -0.027529   0.001343   7.714917   0.335836  -0.026804
     5  H   -0.021835  -0.000519  -0.000103   0.335836   0.495841   0.001625
     6  O    0.395054  -0.028058  -0.000338  -0.026804   0.001625   7.745988
     7  H   -0.011798  -0.000042  -0.000032   0.001817  -0.000122   0.333675
     8  O    0.438993  -0.025028  -0.001563  -0.024942   0.000112  -0.028948
     9  H   -0.017216   0.000525   0.000063   0.001510   0.000035  -0.000002
    10  C   -0.002040   0.000830  -0.000325  -0.000045  -0.000000  -0.002345
    11  H   -0.002757   0.000307  -0.000521   0.000011  -0.000003   0.000099
    12  H    0.000851  -0.000081  -0.000108  -0.000001   0.000000  -0.000011
    13  C   -0.005350  -0.000088   0.000791   0.000002  -0.000011  -0.001400
    14  H   -0.002259  -0.000127  -0.000107  -0.000006   0.000001   0.001268
    15  H    0.000342  -0.000002  -0.000019  -0.000000   0.000000   0.000126
    16  O    0.029326  -0.022195   0.020262  -0.000097   0.000027  -0.007690
    17  H   -0.003109   0.002476  -0.003222  -0.000018  -0.000010   0.002963
    18  O    0.000207  -0.000025  -0.000100  -0.000001   0.000001  -0.012769
    19  H   -0.000469  -0.000059  -0.000012   0.000053  -0.000003   0.027576
               7          8          9         10         11         12
     1  Si  -0.011798   0.438993  -0.017216  -0.002040  -0.002757   0.000851
     2  O   -0.000042  -0.025028   0.000525   0.000830   0.000307  -0.000081
     3  H   -0.000032  -0.001563   0.000063  -0.000325  -0.000521  -0.000108
     4  O    0.001817  -0.024942   0.001510  -0.000045   0.000011  -0.000001
     5  H   -0.000122   0.000112   0.000035  -0.000000  -0.000003   0.000000
     6  O    0.333675  -0.028948  -0.000002  -0.002345   0.000099  -0.000011
     7  H    0.491696   0.001067  -0.000102   0.000026  -0.000011   0.000017
     8  O    0.001067   7.671527   0.331893   0.003577   0.005413   0.000282
     9  H   -0.000102   0.331893   0.513503  -0.001354   0.000008   0.000000
    10  C    0.000026   0.003577  -0.001354   4.848805   0.400274   0.418275
    11  H   -0.000011   0.005413   0.000008   0.400274   0.592878  -0.027046
    12  H    0.000017   0.000282   0.000000   0.418275  -0.027046   0.588501
    13  C   -0.000730  -0.018493   0.000981   0.276825  -0.022278  -0.034529
    14  H    0.000483   0.013274   0.000067  -0.070842  -0.002827   0.007835
    15  H   -0.000001   0.000048  -0.000001  -0.039016   0.003765  -0.007201
    16  O    0.000840  -0.009562   0.000677   0.208252  -0.031242  -0.033717
    17  H   -0.000043  -0.000004   0.000002  -0.042089   0.010549  -0.004658
    18  O    0.000627   0.000397  -0.000005  -0.075328   0.004780   0.003756
    19  H   -0.000568  -0.000093  -0.000022   0.005015  -0.000706  -0.000707
              13         14         15         16         17         18
     1  Si  -0.005350  -0.002259   0.000342   0.029326  -0.003109   0.000207
     2  O   -0.000088  -0.000127  -0.000002  -0.022195   0.002476  -0.000025
     3  H    0.000791  -0.000107  -0.000019   0.020262  -0.003222  -0.000100
     4  O    0.000002  -0.000006  -0.000000  -0.000097  -0.000018  -0.000001
     5  H   -0.000011   0.000001   0.000000   0.000027  -0.000010   0.000001
     6  O   -0.001400   0.001268   0.000126  -0.007690   0.002963  -0.012769
     7  H   -0.000730   0.000483  -0.000001   0.000840  -0.000043   0.000627
     8  O   -0.018493   0.013274   0.000048  -0.009562  -0.000004   0.000397
     9  H    0.000981   0.000067  -0.000001   0.000677   0.000002  -0.000005
    10  C    0.276825  -0.070842  -0.039016   0.208252  -0.042089  -0.075328
    11  H   -0.022278  -0.002827   0.003765  -0.031242   0.010549   0.004780
    12  H   -0.034529   0.007835  -0.007201  -0.033717  -0.004658   0.003756
    13  C    4.755006   0.448206   0.422808  -0.044896  -0.013091   0.253332
    14  H    0.448206   0.604955  -0.025622   0.001231   0.001926  -0.042837
    15  H    0.422808  -0.025622   0.579938   0.004145   0.000938  -0.026547
    16  O   -0.044896   0.001231   0.004145   8.003964   0.295574  -0.007456
    17  H   -0.013091   0.001926   0.000938   0.295574   0.525276   0.033604
    18  O    0.253332  -0.042837  -0.026547  -0.007456   0.033604   7.927296
    19  H   -0.039602  -0.014010   0.005451   0.000991  -0.001787   0.345829
              19
     1  Si  -0.000469
     2  O   -0.000059
     3  H   -0.000012
     4  O    0.000053
     5  H   -0.000003
     6  O    0.027576
     7  H   -0.000568
     8  O   -0.000093
     9  H   -0.000022
    10  C    0.005015
    11  H   -0.000706
    12  H   -0.000707
    13  C   -0.039602
    14  H   -0.014010
    15  H    0.005451
    16  O    0.000991
    17  H   -0.001787
    18  O    0.345829
    19  H    0.458295
 Mulliken charges:
               1
     1  Si   0.837786
     2  O   -0.402196
     3  H    0.215485
     4  O   -0.443352
     5  H    0.189129
     6  O   -0.400009
     7  H    0.183201
     8  O   -0.357951
     9  H    0.169439
    10  C    0.071505
    11  H    0.069308
    12  H    0.088542
    13  C    0.022516
    14  H    0.079390
    15  H    0.080848
    16  O   -0.408432
    17  H    0.194724
    18  O   -0.404764
    19  H    0.214830
 Sum of Mulliken charges =  -0.00000
 Mulliken charges with hydrogens summed into heavy atoms:
               1
     1  Si   0.837786
     2  O   -0.186711
     4  O   -0.254223
     6  O   -0.216808
     8  O   -0.188512
    10  C    0.229356
    13  C    0.182754
    16  O   -0.213708
    18  O   -0.189934
 Electronic spatial extent (au):  <R**2>=           1603.8641
 Charge=             -0.0000 electrons
 Dipole moment (field-independent basis, Debye):
    X=              1.4437    Y=              0.2345    Z=              1.0309  Tot=              1.7894
 Quadrupole moment (field-independent basis, Debye-Ang):
   XX=            -58.3154   YY=            -60.9419   ZZ=            -55.2504
   XY=              4.5104   XZ=             -1.1028   YZ=             -1.5641
 Traceless Quadrupole moment (field-independent basis, Debye-Ang):
   XX=             -0.1462   YY=             -2.7727   ZZ=              2.9189
   XY=              4.5104   XZ=             -1.1028   YZ=             -1.5641
 Octapole moment (field-independent basis, Debye-Ang**2):
  XXX=             41.0134  YYY=              8.0170  ZZZ=              6.3204  XYY=              7.7229
  XXY=            -17.6197  XXZ=             11.4742  XZZ=              5.1881  YZZ=              3.8826
  YYZ=             -6.4868  XYZ=             -8.6883
 Hexadecapole moment (field-independent basis, Debye-Ang**3):
 XXXX=          -1184.9118 YYYY=           -351.1702 ZZZZ=           -222.1475 XXXY=             16.4218
 XXXZ=            -26.0200 YYYX=             12.9036 YYYZ=            -12.8652 ZZZX=             33.6934
 ZZZY=             -1.6345 XXYY=           -315.6544 XXZZ=           -258.4237 YYZZ=            -99.9155
 XXYZ=             -4.8200 YYXZ=             -9.2477 ZZXY=              7.3525
 N-N= 6.463883555494D+02 E-N=-3.242262096404D+03  KE= 8.205766147605D+02
   1 Symmetry operations used in ECPInt.
 ECPInt:  NShTT=   13203 NPrTT=   36019 LenC2=   12577 LenP2D=   26912.
 LDataN:  DoStor=T MaxTD1= 7 Len=  274
 Calling FoFJK, ICntrl=      2127 FMM=F ISym2X=0 I1Cent= 0 IOpClX= 0 NMat=1 NMatS=1 NMatT=0.
 ***** Axes restored to original set *****
 -------------------------------------------------------------------
 Center     Atomic                   Forces (Hartrees/Bohr)
 Number     Number              X              Y              Z
 -------------------------------------------------------------------
      1       14           0.000670778    0.000414812    0.000479099
      2        8          -0.000901592   -0.000052394    0.000610167
      3        1          -0.000014149    0.000085735    0.000076545
      4        8           0.001386519    0.000306344   -0.000534170
      5        1          -0.000010564   -0.000088860    0.000119611
      6        8           0.000715045    0.000562120    0.000604598
      7        1          -0.000079540   -0.000127938   -0.000154382
      8        8           0.000436094    0.000829594   -0.000148657
      9        1          -0.000078280    0.000247124    0.000405918
     10        6          -0.000889500   -0.000492268   -0.000569766
     11        1          -0.000039668   -0.000046096   -0.000070169
     12        1          -0.000066383    0.000025426   -0.000043523
     13        6          -0.000074082   -0.000539612   -0.000005324
     14        1          -0.000013413   -0.000082894   -0.000040256
     15        1           0.000011668   -0.000017652   -0.000007363
     16        8          -0.001356759   -0.000942446   -0.001048198
     17        1          -0.000065215    0.000087840   -0.000102281
     18        8           0.000365954   -0.000167057    0.000396014
     19        1           0.000003088   -0.000001778    0.000032138
 -------------------------------------------------------------------
 Cartesian Forces:  Max     0.001386519 RMS     0.000470126

 GradGradGradGradGradGradGradGradGradGradGradGradGradGradGradGradGradGrad
 Berny optimization.
 FormGI is forming the generalized inverse of G from B-inverse, IUseBI=4.
 Internal  Forces:  Max     0.003292011 RMS     0.001001869
 Search for a local minimum.
 Step number   1 out of a maximum of   98
 All quantities printed in internal units (Hartrees-Bohrs-Radians)
 Mixed Optimization -- RFO/linear search
 Second derivative matrix not updated -- first step.
 ITU=  0
     Eigenvalues ---    0.00459   0.00663   0.01127   0.01433   0.02147
     Eigenvalues ---    0.02848   0.03012   0.03841   0.03861   0.03882
     Eigenvalues ---    0.04209   0.04590   0.04859   0.05543   0.05885
     Eigenvalues ---    0.06879   0.09437   0.09728   0.10606   0.11270
     Eigenvalues ---    0.11442   0.12233   0.12851   0.14139   0.15015
     Eigenvalues ---    0.15799   0.15999   0.16000   0.16000   0.16913
     Eigenvalues ---    0.18930   0.20295   0.20892   0.21965   0.29488
     Eigenvalues ---    0.34279   0.34630   0.34665   0.34977   0.40848
     Eigenvalues ---    0.41860   0.42967   0.44575   0.45082   0.46273
     Eigenvalues ---    0.53354   0.55184   0.55304   0.56412   0.56741
     Eigenvalues ---    0.56836
 RFO step:  Lambda=-1.72397217D-03 EMin= 4.59268287D-03
 Linear search not attempted -- first point.
 Iteration  1 RMS(Cart)=  0.11348812 RMS(Int)=  0.00340861
 Iteration  2 RMS(Cart)=  0.00480296 RMS(Int)=  0.00072806
 Iteration  3 RMS(Cart)=  0.00000685 RMS(Int)=  0.00072805
 Iteration  4 RMS(Cart)=  0.00000001 RMS(Int)=  0.00072805
 Variable       Old X    -DE/DX   Delta X   Delta X   Delta X     New X
                                 (Linear)    (Quad)   (Total)
    R1        3.06774   0.00047   0.00000   0.00251   0.00273   3.07048
    R2        3.09472   0.00118   0.00000   0.00263   0.00263   3.09735
    R3        3.12265  -0.00028   0.00000  -0.00066  -0.00074   3.12191
    R4        3.08880  -0.00042   0.00000  -0.00093  -0.00093   3.08788
    R5        1.81442   0.00150   0.00000   0.00292   0.00298   1.81740
    R6        3.97584   0.00056   0.00000   0.00539   0.00533   3.98117
    R7        1.80317   0.00000   0.00000   0.00000   0.00000   1.80317
    R8        1.80598  -0.00011   0.00000  -0.00019  -0.00019   1.80579
    R9        3.78980   0.00109   0.00000   0.02719   0.02719   3.81699
   R10        1.80236   0.00038   0.00000   0.00066   0.00066   1.80302
   R11        2.05713  -0.00004   0.00000  -0.00011  -0.00011   2.05702
   R12        2.06863   0.00006   0.00000   0.00018   0.00018   2.06881
   R13        2.88176   0.00036   0.00000  -0.00032  -0.00045   2.88130
   R14        2.68072  -0.00024   0.00000  -0.00209  -0.00229   2.67843
   R15        2.06223  -0.00006   0.00000  -0.00017  -0.00017   2.06206
   R16        2.06279  -0.00001   0.00000  -0.00004  -0.00004   2.06275
   R17        2.67303  -0.00004   0.00000   0.00102   0.00123   2.67426
   R18        1.81563   0.00015   0.00000   0.00026   0.00026   1.81589
   R19        1.81878   0.00146   0.00000   0.00297   0.00301   1.82179
    A1        1.86887  -0.00008   0.00000  -0.00454  -0.00425   1.86462
    A2        1.99140  -0.00126   0.00000  -0.00096  -0.00126   1.99014
    A3        1.94906   0.00109   0.00000   0.00679   0.00671   1.95577
    A4        1.82514   0.00150   0.00000   0.00353   0.00404   1.82917
    A5        1.92389  -0.00024   0.00000  -0.00014  -0.00019   1.92370
    A6        1.90090  -0.00097   0.00000  -0.00489  -0.00518   1.89572
    A7        1.96596   0.00329   0.00000   0.04445   0.04218   2.00814
    A8        2.21193   0.00097   0.00000   0.01701   0.01411   2.22604
    A9        2.03848  -0.00004   0.00000  -0.00024  -0.00024   2.03825
   A10        1.98019   0.00097   0.00000  -0.00086  -0.00007   1.98012
   A11        2.30033  -0.00185   0.00000   0.00199   0.00029   2.30062
   A12        2.00258   0.00087   0.00000  -0.00134  -0.00055   2.00203
   A13        2.01626   0.00017   0.00000   0.00103   0.00103   2.01729
   A14        1.90053  -0.00022   0.00000   0.00087   0.00058   1.90111
   A15        1.92648  -0.00048   0.00000  -0.00552  -0.00517   1.92131
   A16        1.86861   0.00075   0.00000  -0.00535  -0.00482   1.86380
   A17        1.92350   0.00132   0.00000   0.00885   0.00970   1.93320
   A18        1.90911   0.00024   0.00000   0.00827   0.00918   1.91829
   A19        1.93452  -0.00161   0.00000  -0.00731  -0.00976   1.92476
   A20        1.91457  -0.00019   0.00000   0.00091   0.00021   1.91478
   A21        1.91063   0.00000   0.00000  -0.00336  -0.00251   1.90812
   A22        1.92945   0.00024   0.00000   0.00419   0.00386   1.93331
   A23        1.89266   0.00004   0.00000  -0.00059  -0.00062   1.89204
   A24        1.92678  -0.00027   0.00000   0.00387   0.00412   1.93089
   A25        1.88916   0.00017   0.00000  -0.00525  -0.00529   1.88387
   A26        2.58391  -0.00059   0.00000  -0.01266  -0.01286   2.57105
   A27        1.80644   0.00000   0.00000   0.00215   0.00203   1.80847
   A28        1.84659   0.00043   0.00000   0.00286   0.00268   1.84927
   A29        1.84960   0.00298   0.00000   0.04277   0.04226   1.89186
   A30        2.65358   0.00159   0.00000   0.02122   0.01896   2.67255
    D1        2.97668   0.00094   0.00000   0.02084   0.02130   2.99798
    D2       -1.29590   0.00204   0.00000   0.02174   0.02284  -1.27305
    D3        0.86911   0.00064   0.00000   0.01990   0.02031   0.88942
    D4       -0.31435  -0.00070   0.00000  -0.00430  -0.00429  -0.31864
    D5       -2.43342   0.00002   0.00000  -0.00278  -0.00283  -2.43625
    D6        1.80913   0.00044   0.00000   0.00107   0.00111   1.81024
    D7       -1.67826  -0.00077   0.00000   0.00013  -0.00024  -1.67850
    D8        1.44763  -0.00145   0.00000  -0.01716  -0.01786   1.42977
    D9        0.35785  -0.00057   0.00000  -0.00363  -0.00349   0.35436
   D10       -2.79945  -0.00124   0.00000  -0.02093  -0.02111  -2.82056
   D11        2.41427  -0.00052   0.00000  -0.00425  -0.00407   2.41020
   D12       -0.74303  -0.00119   0.00000  -0.02155  -0.02168  -0.76471
   D13        2.26010   0.00083   0.00000   0.00333   0.00365   2.26375
   D14        0.18494   0.00038   0.00000   0.00475   0.00480   0.18973
   D15       -1.80802  -0.00074   0.00000   0.00333   0.00297  -1.80505
   D16        0.36249  -0.00042   0.00000   0.07865   0.08007   0.44255
   D17       -1.43762  -0.00149   0.00000  -0.14397  -0.14326  -1.58088
   D18        1.28652  -0.00200   0.00000  -0.17435  -0.17410   1.11242
   D19        0.06667  -0.00147   0.00000  -0.12997  -0.12972  -0.06305
   D20       -3.09079  -0.00215   0.00000  -0.14743  -0.14751   3.04489
   D21        0.73995  -0.00032   0.00000   0.02447   0.02442   0.76438
   D22       -1.33485  -0.00026   0.00000   0.02667   0.02656  -1.30829
   D23        2.86878  -0.00062   0.00000   0.03267   0.03229   2.90106
   D24        2.83991  -0.00005   0.00000   0.02771   0.02806   2.86797
   D25        0.76510   0.00000   0.00000   0.02991   0.03020   0.79530
   D26       -1.31445  -0.00036   0.00000   0.03591   0.03592  -1.27853
   D27       -1.32734   0.00006   0.00000   0.03920   0.03960  -1.28774
   D28        2.88104   0.00012   0.00000   0.04140   0.04174   2.92278
   D29        0.80149  -0.00024   0.00000   0.04740   0.04746   0.84895
   D30       -0.28215  -0.00078   0.00000  -0.03867  -0.03878  -0.32093
   D31       -3.00160  -0.00022   0.00000  -0.00778  -0.00741  -3.00901
   D32       -2.33890  -0.00107   0.00000  -0.04112  -0.04165  -2.38054
   D33        1.22484  -0.00050   0.00000  -0.01022  -0.01028   1.21456
   D34        1.81989  -0.00183   0.00000  -0.05295  -0.05352   1.76637
   D35       -0.89956  -0.00126   0.00000  -0.02205  -0.02215  -0.92171
   D36       -1.60022   0.00017   0.00000  -0.00704  -0.00526  -1.60548
   D37        0.52141  -0.00008   0.00000  -0.00052   0.00039   0.52179
   D38        2.59046  -0.00008   0.00000  -0.00217  -0.00119   2.58927
   D39        0.48472  -0.00226   0.00000   0.02029   0.02160   0.50632
         Item               Value     Threshold  Converged?
 Maximum Force            0.003292     0.000450     NO 
 RMS     Force            0.001002     0.000300     NO 
 Maximum Displacement     0.321591     0.001800     NO 
 RMS     Displacement     0.112978     0.001200     NO 
 Predicted change in Energy=-9.953402D-04
 GradGradGradGradGradGradGradGradGradGradGradGradGradGradGradGradGradGrad

                          Input orientation:                          
 ---------------------------------------------------------------------
 Center     Atomic      Atomic             Coordinates (Angstroms)
 Number     Number       Type             X           Y           Z
 ---------------------------------------------------------------------
      1         14           0        1.357050    0.131750    0.145712
      2          8           0        1.617703   -1.007696   -0.982907
      3          1           0        0.868911   -1.584744   -1.159666
      4          8           0        2.803188    0.842617    0.445411
      5          1           0        3.582349    0.363516    0.173627
      6          8           0        0.377061    1.363547   -0.355837
      7          1           0        0.857205    2.127809   -0.669697
      8          8           0        0.741024   -0.497509    1.522161
      9          1           0        1.187624   -0.244948    2.326587
     10          6           0       -2.291283   -1.199504   -0.002872
     11          1           0       -2.054576   -1.919916    0.778069
     12          1           0       -3.177008   -1.543475   -0.546645
     13          6           0       -2.533132    0.175792    0.609372
     14          1           0       -1.771788    0.381978    1.363394
     15          1           0       -3.510922    0.188435    1.094419
     16          8           0       -1.174758   -1.159549   -0.875047
     17          1           0       -1.342953   -0.437645   -1.486562
     18          8           0       -2.529384    1.177729   -0.390021
     19          1           0       -1.633169    1.523696   -0.470606
 ---------------------------------------------------------------------
                    Distance matrix (angstroms):
                    1          2          3          4          5
     1  Si   0.000000
     2  O    1.624826   0.000000
     3  H    2.211028   0.961727   0.000000
     4  O    1.639045   2.620902   3.494250   0.000000
     5  H    2.237509   2.660381   3.596684   0.954199   0.000000
     6  O    1.652045   2.748673   3.095234   2.607577   3.399156
     7  H    2.213366   3.241582   3.744764   2.584964   3.354152
     8  O    1.634034   2.702633   2.896659   2.684744   3.260833
     9  H    2.219646   3.423376   3.748412   2.707706   3.277221
    10  C    3.886471   4.034530   3.387242   5.506801   6.080604
    11  H    4.030932   4.173586   3.523341   5.598226   6.111820
    12  H    4.882973   4.844238   4.092305   6.514627   7.060051
    13  C    3.917963   4.600590   4.219345   5.380321   6.133858
    14  H    3.366748   4.350284   4.148146   4.688848   5.484767
    15  H    4.959880   5.661167   5.235265   6.381000   7.154929
    16  O    3.019844   2.798667   2.106747   4.645034   5.103873
    17  H    3.206017   3.056814   2.512974   4.749956   5.258963
    18  O    4.060228   4.725032   4.446574   5.408010   6.191439
    19  H    3.355409   4.151936   4.049396   4.580854   5.381699
                    6          7          8          9         10
     6  O    0.000000
     7  H    0.955585   0.000000
     8  O    2.668871   3.421993   0.000000
     9  H    3.231048   3.836258   0.954117   0.000000
    10  C    3.716702   4.629108   3.466037   4.294223   0.000000
    11  H    4.240252   5.192165   3.223709   3.964252   1.088528
    12  H    4.595497   5.456037   4.552470   5.384389   1.094766
    13  C    3.288102   4.115916   3.465056   4.119450   1.524720
    14  H    2.921778   3.754063   2.667008   3.174728   2.153519
    15  H    4.312835   5.094488   4.328109   4.876719   2.148940
    16  O    3.007281   3.870112   3.139288   4.082623   1.417361
    17  H    2.735193   3.476999   3.660459   4.580509   1.918617
    18  O    2.912580   3.528435   4.142273   4.818726   2.420292
    19  H    2.019863   2.570321   3.700430   4.348479   2.840371
                   11         12         13         14         15
    11  H    0.000000
    12  H    1.776634   0.000000
    13  C    2.156262   2.169523   0.000000
    14  H    2.391923   3.054548   1.091195   0.000000
    15  H    2.581892   2.409171   1.091561   1.770422   0.000000
    16  O    2.021146   2.065006   2.414915   2.782691   3.339689
    17  H    2.798586   2.338816   2.487120   2.996319   3.428342
    18  O    3.344441   2.801589   1.415160   2.069211   2.036095
    19  H    3.687172   3.434641   1.947596   2.164784   2.785351
                   16         17         18         19
    16  O    0.000000
    17  H    0.960929   0.000000
    18  O    2.744655   2.284612   0.000000
    19  H    2.752002   2.227835   0.964047   0.000000
 Stoichiometry    C2H10O6Si
 Framework group  C1[X(C2H10O6Si)]
 Deg. of freedom    51
 Full point group                 C1      NOp   1
 Largest Abelian subgroup         C1      NOp   1
 Largest concise Abelian subgroup C1      NOp   1
                         Standard orientation:                         
 ---------------------------------------------------------------------
 Center     Atomic      Atomic             Coordinates (Angstroms)
 Number     Number       Type             X           Y           Z
 ---------------------------------------------------------------------
      1         14           0        1.394455    0.025135    0.039891
      2          8           0        1.499577   -1.333493   -0.845060
      3          1           0        0.698307   -1.864645   -0.872662
      4          8           0        2.907322    0.648741    0.133783
      5          1           0        3.629229    0.057559   -0.065840
      6          8           0        0.489647    1.216307   -0.661310
      7          1           0        1.011089    1.857359   -1.141198
      8          8           0        0.808010   -0.262038    1.537784
      9          1           0        1.317674    0.103419    2.256827
     10          6           0       -2.351274   -0.976965    0.304406
     11          1           0       -2.129658   -1.547152    1.204775
     12          1           0       -3.290701   -1.340828   -0.124072
     13          6           0       -2.447692    0.508202    0.635702
     14          1           0       -1.631317    0.790237    1.302555
     15          1           0       -3.392673    0.703955    1.145797
     16          8           0       -1.285664   -1.210278   -0.600556
     17          1           0       -1.429501   -0.611301   -1.338067
     18          8           0       -2.419696    1.288515   -0.544554
     19          1           0       -1.504589    1.530044   -0.727941
 ---------------------------------------------------------------------
 Rotational constants (GHZ):           2.2302484           0.7950377           0.7343916
 Standard basis: def2TZVPP (5D, 7F)
 There are   486 symmetry adapted cartesian basis functions of A   symmetry.
 There are   430 symmetry adapted basis functions of A   symmetry.
   430 basis functions,   647 primitive gaussians,   486 cartesian basis functions
    42 alpha electrons       42 beta electrons
       nuclear repulsion energy       640.1612964685 Hartrees.
 NAtoms=   19 NActive=   19 NUniq=   19 SFac= 1.00D+00 NAtFMM=   60 NAOKFM=F Big=F
 Integral buffers will be    131072 words long.
 Raffenetti 2 integral format.
 Two-electron integral symmetry is turned on.
 Nuclear repulsion after empirical dispersion term =      640.1506351779 Hartrees.
 One-electron integrals computed using PRISM.
   1 Symmetry operations used in ECPInt.
 ECPInt:  NShTT=   13203 NPrTT=   36019 LenC2=   12533 LenP2D=   26737.
 LDataN:  DoStor=T MaxTD1= 6 Len=  172
 NBasis=   430 RedAO= T EigKep=  2.64D-04  NBF=   430
 NBsUse=   430 1.00D-06 EigRej= -1.00D+00 NBFU=   430
 Initial guess from the checkpoint file:  "ReactanttOpt_IRC_fromfrozenboth21.chk"
 B after Tr=     0.000000   -0.000000   -0.000000
         Rot=    0.999393    0.032861   -0.004650    0.010560 Ang=   3.99 deg.
 ExpMin= 7.01D-02 ExpMax= 4.48D+04 ExpMxC= 1.53D+03 IAcc=3 IRadAn=         5 AccDes= 0.00D+00
 Harris functional with IExCor= 4639 and IRadAn=       5 diagonalized for initial guess.
 HarFok:  IExCor= 4639 AccDes= 0.00D+00 IRadAn=         5 IDoV= 1 UseB2=F ITyADJ=14
 ICtDFT=  3500011 ScaDFX=  1.000000  1.000000  1.000000  1.000000
 FoFCou: FMM=F IPFlag=           0 FMFlag=      100000 FMFlg1=           0
         NFxFlg=           0 DoJE=T BraDBF=F KetDBF=T FulRan=T
         wScrn=  0.000000 ICntrl=       500 IOpCl=  0 I1Cent=   200000004 NGrid=           0
         NMat0=    1 NMatS0=      1 NMatT0=    0 NMatD0=    1 NMtDS0=    0 NMtDT0=    0
 Petite list used in FoFCou.
 Requested convergence on RMS density matrix=1.00D-08 within 128 cycles.
 Requested convergence on MAX density matrix=1.00D-06.
 Requested convergence on             energy=1.00D-06.
 No special actions if energy rises.
 Integral accuracy reduced to 1.0D-05 until final iterations.
 Initial convergence to 1.0D-05 achieved.  Increase integral accuracy.
 SCF Done:  E(RwB97XD) =  -823.371620955     A.U. after   11 cycles
            NFock= 11  Conv=0.66D-08     -V/T= 2.0035
   1 Symmetry operations used in ECPInt.
 ECPInt:  NShTT=   13203 NPrTT=   36019 LenC2=   12533 LenP2D=   26737.
 LDataN:  DoStor=T MaxTD1= 7 Len=  274
 Calling FoFJK, ICntrl=      2127 FMM=F ISym2X=0 I1Cent= 0 IOpClX= 0 NMat=1 NMatS=1 NMatT=0.
 ***** Axes restored to original set *****
 -------------------------------------------------------------------
 Center     Atomic                   Forces (Hartrees/Bohr)
 Number     Number              X              Y              Z
 -------------------------------------------------------------------
      1       14           0.002573700   -0.000085249   -0.000557716
      2        8          -0.001662331   -0.000311205    0.001643423
      3        1           0.000228556    0.002801612    0.001316901
      4        8           0.000271246   -0.000068851   -0.000693473
      5        1          -0.000046900   -0.000091281    0.000011894
      6        8           0.000348086   -0.000295453    0.000708371
      7        1          -0.000190340   -0.000035533   -0.000333217
      8        8          -0.000844236    0.000004986   -0.002003496
      9        1          -0.000574186    0.000211109    0.000081668
     10        6           0.001824761    0.001851050    0.000636947
     11        1          -0.000707875   -0.000655588    0.000337223
     12        1           0.000059063    0.000544728   -0.000063654
     13        6           0.000090378    0.000735404   -0.001069598
     14        1           0.000789870   -0.000154113   -0.000064932
     15        1          -0.000056143    0.000340517    0.000232836
     16        8          -0.000972761   -0.001675407   -0.001956850
     17        1           0.000406061   -0.000270834    0.000096775
     18        8          -0.000623172    0.000346989   -0.001536510
     19        1          -0.000913778   -0.003192883    0.003213406
 -------------------------------------------------------------------
 Cartesian Forces:  Max     0.003213406 RMS     0.001122022

 GradGradGradGradGradGradGradGradGradGradGradGradGradGradGradGradGradGrad
 Berny optimization.
 Using GEDIIS/GDIIS optimizer.
 FormGI is forming the generalized inverse of G from B-inverse, IUseBI=4.
 Internal  Forces:  Max     0.002886807 RMS     0.000841639
 Search for a local minimum.
 Step number   2 out of a maximum of   98
 All quantities printed in internal units (Hartrees-Bohrs-Radians)
 Mixed Optimization -- En-DIIS/RFO-DIIS
 Update second derivatives using D2CorX and points    1    2
 DE= -8.05D-04 DEPred=-9.95D-04 R= 8.08D-01
 TightC=F SS=  1.41D+00  RLast= 3.50D-01 DXNew= 5.0454D-01 1.0492D+00
 Trust test= 8.08D-01 RLast= 3.50D-01 DXMaxT set to 5.05D-01
 ITU=  1  0
 Use linear search instead of GDIIS.
     Eigenvalues ---    0.00455   0.00685   0.01131   0.01457   0.02088
     Eigenvalues ---    0.02812   0.02963   0.03826   0.03846   0.03872
     Eigenvalues ---    0.04199   0.04542   0.05096   0.05541   0.05963
     Eigenvalues ---    0.06746   0.09177   0.09474   0.10505   0.11214
     Eigenvalues ---    0.11460   0.12172   0.12873   0.14166   0.14856
     Eigenvalues ---    0.15692   0.15996   0.16000   0.16017   0.16546
     Eigenvalues ---    0.20268   0.20700   0.21109   0.22064   0.29620
     Eigenvalues ---    0.34282   0.34632   0.34685   0.35001   0.40908
     Eigenvalues ---    0.41942   0.43205   0.44561   0.45112   0.46929
     Eigenvalues ---    0.53507   0.55300   0.56114   0.56412   0.56741
     Eigenvalues ---    0.56860
 RFO step:  Lambda=-6.27084428D-04 EMin= 4.55100473D-03
 Quartic linear search produced a step of  0.15432.
 Iteration  1 RMS(Cart)=  0.04891373 RMS(Int)=  0.00095318
 Iteration  2 RMS(Cart)=  0.00141789 RMS(Int)=  0.00031883
 Iteration  3 RMS(Cart)=  0.00000054 RMS(Int)=  0.00031883
 Variable       Old X    -DE/DX   Delta X   Delta X   Delta X     New X
                                 (Linear)    (Quad)   (Total)
    R1        3.07048  -0.00244   0.00042  -0.00535  -0.00487   3.06561
    R2        3.09735   0.00000   0.00041   0.00040   0.00081   3.09815
    R3        3.12191  -0.00106  -0.00011  -0.00291  -0.00311   3.11880
    R4        3.08788  -0.00117  -0.00014  -0.00308  -0.00322   3.08466
    R5        1.81740  -0.00145   0.00046  -0.00234  -0.00182   1.81558
    R6        3.98117  -0.00073   0.00082  -0.02052  -0.01964   3.96153
    R7        1.80317   0.00000   0.00000   0.00001   0.00001   1.80318
    R8        1.80579  -0.00001  -0.00003  -0.00006  -0.00009   1.80571
    R9        3.81699   0.00035   0.00420   0.01209   0.01621   3.83320
   R10        1.80302  -0.00014   0.00010  -0.00019  -0.00009   1.80293
   R11        2.05702   0.00052  -0.00002   0.00168   0.00166   2.05868
   R12        2.06881  -0.00019   0.00003  -0.00059  -0.00056   2.06824
   R13        2.88130  -0.00090  -0.00007  -0.00373  -0.00383   2.87748
   R14        2.67843  -0.00018  -0.00035  -0.00074  -0.00111   2.67732
   R15        2.06206   0.00048  -0.00003   0.00153   0.00151   2.06357
   R16        2.06275   0.00016  -0.00001   0.00051   0.00050   2.06326
   R17        2.67426  -0.00205   0.00019  -0.00528  -0.00500   2.66927
   R18        1.81589  -0.00034   0.00004  -0.00065  -0.00061   1.81528
   R19        1.82179  -0.00146   0.00046  -0.00273  -0.00232   1.81947
    A1        1.86462  -0.00034  -0.00066   0.00045  -0.00005   1.86457
    A2        1.99014   0.00064  -0.00019   0.00214   0.00167   1.99181
    A3        1.95577  -0.00046   0.00103  -0.00541  -0.00450   1.95127
    A4        1.82917   0.00082   0.00062   0.00771   0.00859   1.83776
    A5        1.92370   0.00175  -0.00003   0.01398   0.01397   1.93766
    A6        1.89572  -0.00217  -0.00080  -0.01667  -0.01761   1.87811
    A7        2.00814  -0.00037   0.00651   0.01263   0.01817   2.02631
    A8        2.22604   0.00118   0.00218   0.01253   0.01366   2.23970
    A9        2.03825  -0.00016  -0.00004  -0.00117  -0.00121   2.03704
   A10        1.98012   0.00070  -0.00001   0.00447   0.00485   1.98497
   A11        2.30062  -0.00102   0.00004  -0.00616  -0.00691   2.29370
   A12        2.00203   0.00031  -0.00008   0.00167   0.00197   2.00400
   A13        2.01729   0.00053   0.00016   0.00393   0.00409   2.02137
   A14        1.90111  -0.00009   0.00009  -0.00220  -0.00224   1.89887
   A15        1.92131  -0.00009  -0.00080  -0.00052  -0.00114   1.92016
   A16        1.86380   0.00029  -0.00074   0.00491   0.00436   1.86816
   A17        1.93320  -0.00011   0.00150  -0.00252  -0.00071   1.93249
   A18        1.91829   0.00011   0.00142   0.00026   0.00205   1.92034
   A19        1.92476  -0.00008  -0.00151   0.00029  -0.00216   1.92260
   A20        1.91478  -0.00041   0.00003  -0.00308  -0.00335   1.91143
   A21        1.90812   0.00063  -0.00039   0.00420   0.00419   1.91231
   A22        1.93331  -0.00053   0.00060  -0.00333  -0.00288   1.93043
   A23        1.89204   0.00007  -0.00010   0.00259   0.00249   1.89453
   A24        1.93089   0.00040   0.00064   0.00144   0.00220   1.93309
   A25        1.88387  -0.00014  -0.00082  -0.00160  -0.00245   1.88142
   A26        2.57105  -0.00157  -0.00198  -0.01345  -0.01587   2.55517
   A27        1.80847   0.00030   0.00031  -0.00216  -0.00220   1.80627
   A28        1.84927   0.00099   0.00041   0.00269   0.00269   1.85196
   A29        1.89186  -0.00233   0.00652  -0.01332  -0.00706   1.88480
   A30        2.67255   0.00289   0.00293   0.01564   0.01742   2.68997
    D1        2.99798   0.00019   0.00329   0.00418   0.00763   3.00560
    D2       -1.27305   0.00133   0.00353   0.01507   0.01903  -1.25402
    D3        0.88942  -0.00147   0.00313  -0.01011  -0.00687   0.88255
    D4       -0.31864   0.00022  -0.00066   0.00047  -0.00022  -0.31886
    D5       -2.43625  -0.00077  -0.00044  -0.00620  -0.00659  -2.44284
    D6        1.81024   0.00047   0.00017   0.00237   0.00253   1.81277
    D7       -1.67850  -0.00064  -0.00004  -0.00357  -0.00379  -1.68229
    D8        1.42977  -0.00074  -0.00276  -0.00432  -0.00742   1.42234
    D9        0.35436  -0.00020  -0.00054   0.00294   0.00248   0.35683
   D10       -2.82056  -0.00030  -0.00326   0.00219  -0.00116  -2.82172
   D11        2.41020   0.00122  -0.00063   0.01519   0.01460   2.42480
   D12       -0.76471   0.00112  -0.00335   0.01444   0.01096  -0.75375
   D13        2.26375   0.00082   0.00056   0.01554   0.01621   2.27996
   D14        0.18973   0.00037   0.00074   0.00915   0.00987   0.19960
   D15       -1.80505  -0.00034   0.00046   0.00174   0.00211  -1.80294
   D16        0.44255  -0.00008   0.01236   0.02406   0.03699   0.47954
   D17       -1.58088   0.00041  -0.02211  -0.01972  -0.04153  -1.62240
   D18        1.11242  -0.00017  -0.02687  -0.06828  -0.09491   1.01751
   D19       -0.06305  -0.00006  -0.02002  -0.06197  -0.08191  -0.14496
   D20        3.04489  -0.00016  -0.02276  -0.06269  -0.08553   2.95936
   D21        0.76438   0.00047   0.00377   0.04552   0.04928   0.81365
   D22       -1.30829   0.00025   0.00410   0.04167   0.04573  -1.26256
   D23        2.90106   0.00034   0.00498   0.04303   0.04788   2.94895
   D24        2.86797   0.00022   0.00433   0.04080   0.04527   2.91324
   D25        0.79530  -0.00000   0.00466   0.03694   0.04173   0.83703
   D26       -1.27853   0.00010   0.00554   0.03831   0.04388  -1.23465
   D27       -1.28774   0.00023   0.00611   0.03963   0.04593  -1.24181
   D28        2.92278   0.00000   0.00644   0.03578   0.04238   2.96516
   D29        0.84895   0.00010   0.00732   0.03715   0.04454   0.89349
   D30       -0.32093  -0.00065  -0.00598  -0.05210  -0.05808  -0.37901
   D31       -3.00901   0.00005  -0.00114  -0.00226  -0.00324  -3.01225
   D32       -2.38054  -0.00076  -0.00643  -0.05242  -0.05902  -2.43956
   D33        1.21456  -0.00006  -0.00159  -0.00258  -0.00418   1.21038
   D34        1.76637  -0.00063  -0.00826  -0.04963  -0.05806   1.70831
   D35       -0.92171   0.00006  -0.00342   0.00021  -0.00322  -0.92493
   D36       -1.60548   0.00025  -0.00081  -0.02030  -0.02031  -1.62579
   D37        0.52179  -0.00036   0.00006  -0.02548  -0.02501   0.49678
   D38        2.58927  -0.00012  -0.00018  -0.02248  -0.02222   2.56705
   D39        0.50632   0.00053   0.00333   0.02452   0.02835   0.53467
         Item               Value     Threshold  Converged?
 Maximum Force            0.002887     0.000450     NO 
 RMS     Force            0.000842     0.000300     NO 
 Maximum Displacement     0.154872     0.001800     NO 
 RMS     Displacement     0.048572     0.001200     NO 
 Predicted change in Energy=-2.770330D-04
 GradGradGradGradGradGradGradGradGradGradGradGradGradGradGradGradGradGrad

                          Input orientation:                          
 ---------------------------------------------------------------------
 Center     Atomic      Atomic             Coordinates (Angstroms)
 Number     Number       Type             X           Y           Z
 ---------------------------------------------------------------------
      1         14           0        1.375377    0.148677    0.157868
      2          8           0        1.602082   -1.025375   -0.938444
      3          1           0        0.851451   -1.602635   -1.100901
      4          8           0        2.835285    0.850582    0.410576
      5          1           0        3.603099    0.353067    0.139574
      6          8           0        0.388663    1.368443   -0.354358
      7          1           0        0.859597    2.123768   -0.701864
      8          8           0        0.756992   -0.434448    1.551450
      9          1           0        1.203361   -0.162994    2.349772
     10          6           0       -2.322427   -1.207843   -0.042470
     11          1           0       -2.127895   -1.964819    0.716447
     12          1           0       -3.209532   -1.500208   -0.612932
     13          6           0       -2.528487    0.149539    0.616054
     14          1           0       -1.744692    0.318071    1.357480
     15          1           0       -3.495464    0.167136    1.122743
     16          8           0       -1.189397   -1.171234   -0.892267
     17          1           0       -1.321794   -0.423801   -1.480976
     18          8           0       -2.530143    1.177123   -0.353105
     19          1           0       -1.632935    1.518833   -0.425756
 ---------------------------------------------------------------------
                    Distance matrix (angstroms):
                    1          2          3          4          5
     1  Si   0.000000
     2  O    1.622249   0.000000
     3  H    2.219480   0.960765   0.000000
     4  O    1.639471   2.619133   3.498348   0.000000
     5  H    2.237153   2.658250   3.596542   0.954202   0.000000
     6  O    1.650397   2.746617   3.098194   2.615198   3.406986
     7  H    2.214984   3.244127   3.747717   2.600359   3.371974
     8  O    1.632331   2.694985   2.899750   2.696702   3.273209
     9  H    2.220625   3.422725   3.755470   2.729651   3.303035
    10  C    3.943861   4.029620   3.368923   5.571747   6.130370
    11  H    4.129381   4.187355   3.508623   5.714297   6.208837
    12  H    4.932985   4.845932   4.091478   6.566095   7.100200
    13  C    3.930660   4.567109   4.176366   5.413292   6.153438
    14  H    3.347028   4.275163   4.058659   4.707057   5.484833
    15  H    4.965522   5.626326   5.193491   6.407235   7.168736
    16  O    3.069692   2.795669   2.096353   4.688625   5.133829
    17  H    3.207533   3.034021   2.501420   4.741658   5.242545
    18  O    4.070857   4.718994   4.440882   5.429333   6.207935
    19  H    3.356767   4.147430   4.046178   4.594671   5.393946
                    6          7          8          9         10
     6  O    0.000000
     7  H    0.955539   0.000000
     8  O    2.649186   3.410634   0.000000
     9  H    3.212686   3.828830   0.954071   0.000000
    10  C    3.752937   4.654000   3.552681   4.386994   0.000000
    11  H    4.311649   5.258636   3.370732   4.124511   1.089408
    12  H    4.609016   5.449672   4.642597   5.480819   1.094468
    13  C    3.307142   4.136859   3.465599   4.126759   1.522695
    14  H    2.929996   3.779386   2.619605   3.147552   2.149896
    15  H    4.325668   5.111179   4.316140   4.867601   2.150420
    16  O    3.038022   3.884799   3.209834   4.153631   1.416775
    17  H    2.721593   3.443195   3.676556   4.595547   1.919710
    18  O    2.925070   3.536680   4.126711   4.800053   2.414064
    19  H    2.028441   2.579709   3.665569   4.310066   2.838498
                   11         12         13         14         15
    11  H    0.000000
    12  H    1.775683   0.000000
    13  C    2.154312   2.167001   0.000000
    14  H    2.401948   3.055228   1.091993   0.000000
    15  H    2.565259   2.423708   1.091828   1.772874   0.000000
    16  O    2.024479   2.065720   2.410940   2.754586   3.342072
    17  H    2.802356   2.340023   2.486435   2.964127   3.442876
    18  O    3.343283   2.774379   1.412516   2.069059   2.032251
    19  H    3.699384   3.411056   1.939677   2.152731   2.773797
                   16         17         18         19
    16  O    0.000000
    17  H    0.960605   0.000000
    18  O    2.757367   2.301121   0.000000
    19  H    2.766011   2.232515   0.962822   0.000000
 Stoichiometry    C2H10O6Si
 Framework group  C1[X(C2H10O6Si)]
 Deg. of freedom    51
 Full point group                 C1      NOp   1
 Largest Abelian subgroup         C1      NOp   1
 Largest concise Abelian subgroup C1      NOp   1
                         Standard orientation:                         
 ---------------------------------------------------------------------
 Center     Atomic      Atomic             Coordinates (Angstroms)
 Number     Number       Type             X           Y           Z
 ---------------------------------------------------------------------
      1         14           0        1.410820    0.023984    0.042123
      2          8           0        1.466003   -1.386564   -0.757253
      3          1           0        0.658144   -1.906579   -0.753173
      4          8           0        2.940375    0.613470    0.070969
      5          1           0        3.642967   -0.008024   -0.103994
      6          8           0        0.509752    1.187679   -0.704670
      7          1           0        1.025661    1.791725   -1.235727
      8          8           0        0.825238   -0.159007    1.554774
      9          1           0        1.340349    0.241280    2.250966
     10          6           0       -2.399593   -0.960560    0.297986
     11          1           0       -2.229901   -1.539475    1.205109
     12          1           0       -3.341393   -1.284292   -0.155963
     13          6           0       -2.443415    0.525204    0.628419
     14          1           0       -1.605457    0.778637    1.281142
     15          1           0       -3.373453    0.756169    1.151650
     16          8           0       -1.319715   -1.234388   -0.577305
     17          1           0       -1.418503   -0.632055   -1.319059
     18          8           0       -2.409290    1.298460   -0.553154
     19          1           0       -1.490743    1.521766   -0.735997
 ---------------------------------------------------------------------
 Rotational constants (GHZ):           2.2335290           0.7874469           0.7258207
 Standard basis: def2TZVPP (5D, 7F)
 There are   486 symmetry adapted cartesian basis functions of A   symmetry.
 There are   430 symmetry adapted basis functions of A   symmetry.
   430 basis functions,   647 primitive gaussians,   486 cartesian basis functions
    42 alpha electrons       42 beta electrons
       nuclear repulsion energy       638.8961368013 Hartrees.
 NAtoms=   19 NActive=   19 NUniq=   19 SFac= 1.00D+00 NAtFMM=   60 NAOKFM=F Big=F
 Integral buffers will be    131072 words long.
 Raffenetti 2 integral format.
 Two-electron integral symmetry is turned on.
 Nuclear repulsion after empirical dispersion term =      638.8855208045 Hartrees.
 One-electron integrals computed using PRISM.
   1 Symmetry operations used in ECPInt.
 ECPInt:  NShTT=   13203 NPrTT=   36019 LenC2=   12529 LenP2D=   26703.
 LDataN:  DoStor=T MaxTD1= 6 Len=  172
 NBasis=   430 RedAO= T EigKep=  2.72D-04  NBF=   430
 NBsUse=   430 1.00D-06 EigRej= -1.00D+00 NBFU=   430
 Initial guess from the checkpoint file:  "ReactanttOpt_IRC_fromfrozenboth21.chk"
 B after Tr=    -0.000000   -0.000000    0.000000
         Rot=    0.999809    0.018933   -0.001084    0.004788 Ang=   2.24 deg.
 ExpMin= 7.01D-02 ExpMax= 4.48D+04 ExpMxC= 1.53D+03 IAcc=3 IRadAn=         5 AccDes= 0.00D+00
 Harris functional with IExCor= 4639 and IRadAn=       5 diagonalized for initial guess.
 HarFok:  IExCor= 4639 AccDes= 0.00D+00 IRadAn=         5 IDoV= 1 UseB2=F ITyADJ=14
 ICtDFT=  3500011 ScaDFX=  1.000000  1.000000  1.000000  1.000000
 FoFCou: FMM=F IPFlag=           0 FMFlag=      100000 FMFlg1=           0
         NFxFlg=           0 DoJE=T BraDBF=F KetDBF=T FulRan=T
         wScrn=  0.000000 ICntrl=       500 IOpCl=  0 I1Cent=   200000004 NGrid=           0
         NMat0=    1 NMatS0=      1 NMatT0=    0 NMatD0=    1 NMtDS0=    0 NMtDT0=    0
 Petite list used in FoFCou.
 Requested convergence on RMS density matrix=1.00D-08 within 128 cycles.
 Requested convergence on MAX density matrix=1.00D-06.
 Requested convergence on             energy=1.00D-06.
 No special actions if energy rises.
 Integral accuracy reduced to 1.0D-05 until final iterations.
 Initial convergence to 1.0D-05 achieved.  Increase integral accuracy.
 SCF Done:  E(RwB97XD) =  -823.372082100     A.U. after   11 cycles
            NFock= 11  Conv=0.38D-08     -V/T= 2.0034
[...]
 .05610660,-0.02409022,0.01794614,0.00557812,0.00537668,0.00142446,0.00
 125787,-0.00129282,-0.00039752,-0.00040977,-0.26411016,0.24463145,0.07
 025499,0.28469634,-0.01172030,0.00276434,0.00274972,-0.00004926,-0.001
 93445,-0.00045723,-0.00017972,-0.00030368,0.00000335,0.27698307,-0.288
 26673,-0.07821428,-0.26222982,0.28821813,0.00221371,-0.00197452,0.0005
 4011,0.00037045,-0.00067276,-0.00118029,-0.00005319,0.00011686,-0.0003
 4072,0.07585161,-0.07499687,-0.02262628,-0.07594993,0.07531880,0.02302
 409,-0.10051256,0.06939636,-0.01709398,0.00930803,0.00514475,0.0007065
 5,-0.00397812,0.00124542,-0.00084067,-0.02504783,0.02028136,-0.0013451
 4,-0.00220629,-0.00123646,-0.00354827,0.21776703,0.09451538,-0.1755116
 4,0.04242666,0.00773142,-0.02265891,-0.00059057,0.00574200,0.00256758,
 0.00175984,0.00755157,0.00198695,0.00055105,-0.00054419,0.00121505,0.0
 0088220,0.00794814,0.39868038,-0.03231114,0.05559544,-0.06329816,0.000
 98463,-0.00681684,0.00958181,0.00032002,0.00067375,-0.00108364,-0.0024
 3087,0.00180446,0.00704975,-0.00011636,-0.00028512,0.00084671,-0.11896
 850,-0.29588513,0.35065047,0.00457920,0.01327983,-0.01144056,-0.001442
 35,0.00058370,-0.00000152,0.00031019,-0.00017709,0.00023561,-0.0008484
 2,-0.00182128,0.00118539,-0.00008282,-0.00008568,0.00042762,-0.0960251
 0,-0.12232145,0.15875036,0.09468675,-0.00604542,-0.01534003,0.01825371
 ,0.00156685,0.00071594,-0.00171234,-0.00050764,-0.00012552,0.00012092,
 -0.00274122,0.00129554,-0.00152984,0.00001188,-0.00008441,-0.00045202,
 -0.10188485,-0.19265469,0.22252080,0.10905518,0.20550757,0.00383436,0.
 00430190,-0.00587166,0.00071617,-0.00249031,-0.00138751,0.00040825,0.0
 0028442,0.00045768,0.00236959,-0.00195617,-0.00035634,0.00013486,-0.00
 025176,0.00061440,0.14158161,0.23558351,-0.28960866,-0.14830724,-0.237
 58951,0.29596514,-0.05581023,-0.01702068,0.05261497,0.00799553,0.00089
 583,-0.00093845,-0.00210398,0.00016348,0.00073705,-0.00941531,-0.00482
 353,0.01978944,0.00081462,-0.00192499,0.00051992,0.00865583,0.00488416
 ,-0.00687749,-0.00069591,0.00096806,-0.00123997,0.06168281,-0.00939980
 ,-0.05452639,0.01924766,0.00090211,0.00057247,-0.01955530,0.00257883,0
 .00029965,0.00060685,-0.00546778,0.00842938,0.00421744,-0.00102726,-0.
 00163415,0.00192638,0.00053160,-0.00744054,0.02101708,0.00287285,0.000
 70853,0.00228471,0.04933907,0.35835675,0.06278067,0.04724673,-0.256477
 67,0.00004180,-0.00851943,-0.02176976,0.00573546,0.00189761,0.00055822
 ,0.01091065,0.00343852,-0.00377001,-0.00114473,0.00131298,-0.00125615,
 0.00007974,0.01537668,-0.01503903,-0.00262642,-0.00007948,-0.00027387,
 -0.04197424,0.22348928,0.56177418,0.00089595,0.00407763,0.00821129,0.0
 0197211,-0.00018891,0.00023678,0.00019020,0.00007148,0.00088221,-0.001
 11773,-0.00161556,-0.00123969,0.00009941,0.00022104,-0.00003177,-0.001
 24295,0.00020245,0.00022391,0.00019534,0.00020456,0.00039117,-0.009804
 80,-0.03837338,-0.03206436,0.00902207,-0.00236549,0.00153339,0.0098876
 3,-0.00035468,0.00162926,0.00115974,-0.00003462,-0.00007879,-0.0001180
 0,-0.00084040,-0.00110039,0.00123624,0.00003900,-0.00003257,-0.0001876
 9,0.00011759,-0.00217035,0.00057547,0.00001651,-0.00021867,0.00008419,
 -0.03218421,-0.30433679,-0.28366499,0.03561347,0.30467821,-0.00106901,
 -0.01961009,-0.02295915,0.00086942,0.00053053,-0.00196703,0.00023519,-
 0.00010189,-0.00012086,-0.00183722,0.00110785,0.00155702,0.00019333,-0
 .00022642,0.00032054,0.00091749,-0.00037870,0.00329964,0.00029939,0.00
 047058,0.00033715,-0.02289093,-0.25276807,-0.26248784,0.02384654,0.271
 03524,0.28210054,-0.00120823,-0.00380373,-0.00465844,0.00331125,0.0020
 5084,0.00113767,-0.00645060,-0.00025461,0.00155448,0.00059610,0.000639
 25,0.00063918,-0.00029721,-0.00007583,-0.00009659,-0.00021780,0.001100
 85,0.00093065,-0.00011267,-0.00029280,-0.00002056,-0.00138527,0.000612
 86,0.00169805,0.00041298,0.00001608,-0.00001954,0.55018131,-0.00119141
 ,-0.00014750,0.00056988,0.00044034,0.00002255,-0.00000610,-0.00112285,
 -0.00027842,-0.00069355,0.00026986,0.00005613,-0.00009793,-0.00005186,
 0.00002163,0.00000188,-0.00005596,0.00033727,-0.00026997,0.00007189,-0
 .00000817,0.00008070,0.00084581,-0.00012787,0.00001106,-0.00019182,-0.
 00002200,-0.00007134,-0.00057689,0.57324048,-0.00034450,0.00442098,0.0
 0461623,-0.00715375,-0.00327747,-0.00453521,0.00971782,0.00070057,0.00
 510957,-0.00049573,-0.00096066,-0.00069603,0.00034547,0.00007726,0.000
 12429,0.00115419,-0.00143884,-0.00066687,-0.00002799,0.00025579,0.0000
 8675,0.00087705,-0.00022004,-0.00152332,-0.00009936,-0.00002950,-0.000
 00351,0.05721329,-0.08228581,0.53575075,-0.00004046,-0.00023659,0.0002
 2892,-0.00002103,0.00028704,-0.00024600,0.00022164,-0.00039858,0.00034
 101,0.00006606,0.00004235,-0.00003150,-0.00001744,-0.00000486,0.000007
 57,0.00001834,0.00004565,-0.00012073,0.00002357,0.00001552,0.00002684,
 0.00008582,0.00010563,-0.00003454,0.00000407,-0.00000298,-0.00001882,-
 0.05538316,0.03466105,-0.02400322,0.05929543,0.00019239,-0.00058178,0.
 00051071,-0.00017146,0.00015727,-0.00027125,0.00022758,-0.00013107,0.0
 0038362,-0.00007478,0.00007562,-0.00006775,-0.00000435,-0.00000576,0.0
 0000370,-0.00047527,0.00022176,-0.00018007,0.00004981,0.00001828,-0.00
 000246,0.00006964,0.00019569,-0.00022228,0.00000627,-0.00002965,0.0000
 3507,0.02488014,-0.23907338,0.12180509,-0.02630826,0.25390477,-0.00010
 466,-0.00036586,-0.00019491,0.00050533,0.00010565,0.00024666,-0.000756
 13,0.00017019,-0.00028363,0.00006550,0.00007469,0.00002517,-0.00003263
 ,0.00000112,-0.00000840,-0.00017058,0.00016592,0.00004811,-0.00000800,
 -0.00003635,-0.00002591,0.00004728,0.00005670,0.00003677,-0.00000838,-
 0.00001120,0.00000073,-0.01789316,0.11553655,-0.12668264,0.01171451,-0
 .13227447,0.14260142,0.00032697,0.00130217,0.00097017,-0.00186442,-0.0
 0087503,-0.00098396,0.00264062,0.00017068,0.00110058,-0.00029551,-0.00
 028499,-0.00011863,0.00012152,0.00002112,0.00001393,0.00012603,-0.0003
 9480,-0.00011122,0.00000846,0.00008909,-0.00002028,0.00005492,-0.00015
 232,-0.00035373,-0.00001470,0.00000920,0.00002282,-0.24118824,-0.00383
 285,-0.10887783,-0.00121054,-0.00005339,-0.00261071,0.27463704,0.00021
 749,-0.00012317,-0.00049006,0.00009615,0.00017874,0.00013748,-0.000263
 05,-0.00010517,-0.00004284,-0.00002330,0.00000309,0.00007272,-0.000002
 79,-0.00000731,-0.00000530,0.00008583,-0.00007348,0.00016549,-0.000040
 47,-0.00000226,-0.00001753,-0.00038254,0.00007691,0.00012460,0.0000827
 6,0.00001076,0.00002078,-0.00113866,-0.05557541,0.00123315,0.02355754,
 0.00196824,0.01300446,0.00255474,0.05098901,0.00051869,-0.00062856,-0.
 00118597,0.00138925,0.00066900,0.00100288,-0.00180128,-0.00016595,-0.0
 0115033,-0.00002157,0.00014021,0.00018112,-0.00003527,-0.00001685,-0.0
 0002176,-0.00009951,0.00008323,0.00023228,-0.00001324,-0.00001870,-0.0
 0001629,-0.00055997,0.00004723,0.00032612,0.00009954,0.00002426,0.0000
 4861,-0.11338393,0.00190072,-0.11029304,-0.01450287,-0.00154007,-0.006
 73402,0.10858579,0.00392346,0.12029774,-0.00316320,-0.00013331,0.00150
 463,0.00014701,-0.00087590,-0.00112342,0.00104715,0.00097030,0.0013203
 3,0.00052020,0.00009177,-0.00027548,-0.00009682,0.00001775,0.00003789,
 -0.00062282,0.00093884,-0.00095364,0.00027993,-0.00001192,0.00011392,0
 .00150891,-0.00021160,-0.00037591,-0.00051533,-0.00000184,-0.00014927,
 -0.08687241,-0.01974083,-0.02326465,0.00001171,0.00411675,0.00128034,-
 0.00136467,-0.02517426,-0.01871903,0.64462224,-0.00164133,0.00640470,-
 0.00290521,-0.00114827,-0.00224655,-0.00017211,0.00213510,0.00087846,0
 .00013737,0.00073618,-0.00102810,0.00030466,0.00013388,0.00005586,0.00
 004675,0.00604003,-0.00183105,0.00127184,-0.00019882,-0.00014478,0.000
 09135,-0.00163089,-0.00093429,0.00116687,0.00026176,0.00024976,-0.0002
 7362,-0.00973662,-0.14322296,-0.06915631,-0.00513797,-0.01640270,-0.01
 296612,0.00135318,-0.00060548,0.00071936,0.00485347,0.45838254,-0.0012
 9081,-0.00447282,0.00409322,0.00051722,0.00059265,-0.00123791,0.000181
 66,0.00006955,0.00089901,-0.00023820,0.00069194,-0.00052017,-0.0001214
 6,-0.00001029,0.00000174,-0.00443266,0.00162265,-0.00154416,0.00021741
 ,0.00010634,-0.00001025,0.00261226,0.00093797,-0.00036652,-0.00009979,
 -0.00019740,0.00012519,-0.01715263,-0.04771999,-0.12070321,-0.00014976
 ,0.01766403,0.01365485,-0.00292587,-0.01705143,-0.01189262,-0.00028068
 ,-0.00132599,0.55083564,-0.00127364,-0.00009451,0.00149956,-0.00028167
 ,-0.00009961,-0.00010259,0.00000417,-0.00005460,-0.00018461,0.00020054
 ,-0.00002004,-0.00013588,-0.00000825,0.00002270,-0.00000312,0.00035108
 ,0.00014453,-0.00017610,0.00004348,-0.00003877,-0.00002630,-0.00184273
 ,0.00004399,-0.00068136,0.00012279,-0.00012150,-0.00028164,-0.00310044
 ,-0.00021323,0.00016426,0.00027939,-0.00079989,-0.00019320,0.00139874,
 -0.00052810,0.00034940,-0.23165894,0.01232940,-0.12038088,0.24374706,-
 0.00059331,0.00069932,0.00065014,0.00002833,-0.00032741,0.00003960,0.0
 0006022,0.00001265,-0.00030234,0.00004340,-0.00002494,-0.00007394,-0.0
 0000172,0.00001179,0.00001184,-0.00014516,0.00022948,-0.00069135,0.000
 23637,-0.00004726,0.00005093,0.00059584,-0.00066628,-0.00019007,-0.000
 45949,0.00001264,-0.00009588,-0.02685353,-0.00020785,-0.01654753,-0.00
 008381,0.00094730,0.00053868,0.00009161,-0.00434432,-0.00406572,0.0072
 6440,-0.05108403,0.00413511,-0.01084161,0.06419632,0.00226248,0.000861
 40,0.00045189,-0.00047908,-0.00009545,0.00028277,0.00016952,-0.0002467
 6,-0.00065762,-0.00015885,-0.00011106,-0.00007338,0.00006091,0.0000171
 6,-0.00000504,0.00016367,-0.00070377,0.00047435,-0.00020974,0.00002436
 ,-0.00013533,-0.00106527,-0.00014209,-0.00148021,-0.00037928,-0.000064
 62,0.00004849,-0.01771222,-0.00145377,-0.01025134,0.00052466,0.0001374
 4,0.00080463,-0.00018701,-0.00286612,-0.00111348,-0.11353365,0.0069359
 7,-0.13351688,0.13081997,-0.01441078,0.14621286,0.00135436,0.00017426,
 -0.00007755,-0.00032080,0.00011164,0.00017503,0.00015384,-0.00022539,-
 0.00028712,-0.00030266,-0.00005120,0.00002230,0.00005822,-0.00000144,-
 0.00000133,-0.00024755,-0.00015466,0.00003741,0.00002265,0.00006045,-0
 .00003650,-0.00063213,-0.00006970,-0.00055246,-0.00012371,0.00002839,0
 .00017177,0.00111768,-0.00110752,-0.00337234,-0.00003573,0.00052859,0.
 00065966,0.00080832,0.00040225,0.00017471,-0.22124214,0.02266008,0.118
 77405,-0.01922582,0.00384251,0.01557722,0.23202942,0.00023680,-0.00104
 500,-0.00010650,0.00043886,0.00047135,0.00026615,-0.00078489,-0.000168
 48,-0.00021637,-0.00008225,0.00016750,0.00003750,-0.00003400,-0.000012
 28,-0.00001861,-0.00086584,0.00038601,-0.00030258,0.00011247,0.0000229
 1,0.00000800,-0.00004023,0.00013852,-0.00000845,-0.00000752,0.00000454
 ,0.00003667,0.02225734,0.00313179,-0.01234881,-0.00013304,0.00005936,0
 .00122056,-0.00069865,0.00107455,0.00013171,0.02579308,-0.05178278,-0.
 02204596,-0.00009104,0.00122609,-0.00100503,-0.01954847,0.06247001,0.0
 0031283,0.00055076,-0.00083803,0.00015812,0.00007136,0.00038439,-0.000
 44330,-0.00011448,-0.00038227,0.00008858,-0.00006763,0.00010343,-0.000
 00153,-0.00000208,-0.00000390,0.00075441,-0.00026157,0.00046499,-0.000
 10675,-0.00005512,-0.00003973,-0.00046528,-0.00015614,0.00000151,-0.00
 004773,0.00003280,0.00000421,0.01762571,-0.00272225,-0.01023484,-0.000
 12894,-0.00081573,-0.00001696,-0.00041614,0.00077879,0.00013089,0.1140
 1498,-0.01837505,-0.13421402,-0.01427386,0.00151331,0.01273684,-0.1334
 8671,0.01171174,0.15019122,-0.00041108,0.01272524,0.01031493,-0.024260
 45,-0.00944685,-0.01151002,0.01050416,-0.00203481,0.00339710,-0.002103
 27,-0.00286054,-0.00147861,0.00107934,0.00020585,0.00018201,0.00179241
 ,-0.00324574,-0.00094555,-0.00005614,0.00059157,-0.00012968,0.00156995
 ,-0.00121958,-0.00351463,-0.00030929,0.00003181,0.00007122,-0.15974035
 ,0.02580956,0.06480908,-0.00078483,-0.00149550,0.00487082,-0.03415268,
 0.00034900,0.03640755,-0.00794360,0.00215204,0.01418491,0.00198932,0.0
 0129550,0.00048143,0.00207838,0.00135677,0.00074894,0.24850491,0.00250
 220,-0.00048900,0.00116510,-0.00200829,0.00424026,-0.00084633,-0.00115
 366,-0.00769873,0.00144342,-0.00057036,0.00010382,0.00004178,0.0000991
 7,-0.00001588,-0.00002602,-0.00128975,-0.00013203,-0.00038994,0.000103
 21,0.00015153,-0.00012446,-0.00034716,0.00028571,-0.00051777,0.0001097
 0,-0.00002298,0.00014138,-0.00470967,-0.08675117,0.02547060,-0.0252915
 6,0.00438863,0.02265388,-0.00020025,0.00367573,-0.00072902,0.02391247,
 -0.00498052,-0.02058546,0.00022945,0.00171127,0.00130248,-0.00044305,-
 0.00488403,-0.00400764,-0.05974297,0.48260447,0.00165977,0.00055904,-0
 .00155345,-0.00333809,-0.00010625,0.00494308,-0.00144476,-0.00032349,-
 0.01110551,-0.00049245,-0.00014325,0.00029059,0.00008220,-0.00001604,-
 0.00010304,-0.00041337,-0.00017731,0.00086282,-0.00013742,-0.00013547,
 -0.00032983,-0.00101456,-0.00006912,0.00058504,0.00017431,0.00006042,0
 .00005151,0.08406045,-0.00853305,-0.14433604,0.02149612,-0.00140362,-0
 .01964310,0.00536797,0.00018708,0.00680771,0.03421632,-0.00196982,-0.0
 3023886,-0.00041745,0.00223718,0.00204263,-0.00067803,-0.00697738,-0.0
 0287216,-0.11863178,-0.21089148,0.32898551,-0.00136228,-0.00084343,-0.
 00254935,-0.00017520,-0.00150528,0.00183208,0.00060158,0.00544973,-0.0
 0329604,0.00039055,0.00014054,0.00023981,-0.00014060,-0.00000991,-0.00
 004516,0.00005387,0.00072625,0.00103518,-0.00016796,-0.00040608,-0.000
 13832,-0.00021016,0.00003276,0.00077010,0.00004629,-0.00000649,-0.0000
 6439,-0.00091232,-0.02895029,0.02334830,-0.00380501,0.00049841,0.00360
 784,-0.00045951,-0.00106858,0.00007367,0.00059629,-0.00054009,0.001636
 36,-0.00010013,0.00002723,-0.00031476,-0.00010292,0.00002201,-0.000106
 56,-0.03951210,0.06288577,-0.01894208,0.04552404,-0.00112455,0.0028233
 3,0.00016341,-0.00160109,-0.00156528,-0.00081534,0.00268142,0.00045348
 ,0.00096081,0.00024585,-0.00045690,-0.00010064,0.00007269,0.00004714,0
 .00004549,0.00151165,-0.00071685,0.00078912,-0.00032862,-0.00014141,-0
 .00011200,0.00018649,-0.00045997,-0.00000217,-0.00006582,0.00003667,-0
 .00011499,-0.00120014,0.00052073,0.00287044,-0.00065332,0.00061297,-0.
 00157289,0.00113364,-0.00001379,-0.00064462,0.00220113,0.00307670,-0.0
 0464850,-0.00010426,-0.00045060,0.00046448,-0.00027322,-0.00107365,0.0
 0051178,0.03488387,-0.39343864,0.22522886,-0.03496205,0.39127177,-0.00
 209651,-0.00012537,-0.00049196,0.00135108,-0.00047914,-0.00007655,-0.0
 0226167,0.00191257,-0.00040396,0.00060951,0.00008981,-0.00011676,-0.00
 009884,-0.00000665,0.00006851,0.00098071,0.00042807,-0.00005618,0.0000
 4125,-0.00006704,0.00030332,0.00041939,-0.00004812,0.00024095,-0.00008
 495,-0.00001054,-0.00009544,0.00238749,0.02940642,-0.02108610,0.004528
 14,-0.00120040,-0.00289892,-0.00031883,-0.00037881,0.00145269,-0.00011
 439,0.00286791,-0.00305021,-0.00001351,-0.00028137,-0.00010575,-0.0003
 0828,0.00046853,0.00075641,0.00199974,0.19350485,-0.13946976,-0.003709
 74,-0.22620708,0.16227553,0.00382231,-0.00747004,0.00305171,0.00017842
 ,0.00217046,0.00031665,-0.00088133,-0.00094216,-0.00030595,-0.00198378
 ,0.00104680,-0.00012298,0.00002566,-0.00005164,-0.00014027,-0.01308409
 ,-0.00017202,-0.00084619,-0.00118108,0.00098079,-0.00096657,0.00012409
 ,0.00107093,-0.00142767,0.00000026,-0.00006641,0.00052078,0.00026940,-
 0.00660700,0.01291205,0.00142544,-0.00223631,-0.00148958,0.00047724,0.
 00140084,0.00129060,-0.09496163,-0.03363905,0.00732413,0.00770024,0.02
 201999,-0.01361125,0.00354182,-0.02814374,0.01658089,0.00433334,0.0050
 9597,-0.00247483,-0.00161248,-0.00172927,-0.00261800,0.53583095,0.0011
 0624,-0.00875187,0.00193436,0.00207029,0.00293355,0.00063425,-0.002901
 92,-0.00071706,-0.00027533,-0.00086792,0.00142397,-0.00017350,-0.00022
 178,-0.00011691,-0.00010109,-0.00730928,0.00516170,-0.00116141,0.00057
 672,0.00003882,-0.00019876,0.00110931,0.00178970,-0.00090608,0.0000849
 1,-0.00034769,0.00035976,-0.00117593,-0.04731182,0.02534792,-0.0007489
 2,-0.00551454,-0.00549185,-0.00039594,0.00259333,-0.00007650,0.0085331
 1,-0.17465374,0.09260719,-0.00007979,-0.01420920,0.01159742,-0.0069983
 0,-0.00885691,0.01160820,0.00005932,-0.00066494,0.00221984,-0.00109014
 ,0.00101053,0.00226674,0.18762334,0.33431016,-0.00029574,0.00211208,-0
 .00423787,0.00058830,-0.00021572,0.00132205,-0.00088888,0.00026576,-0.
 00083666,0.00023348,-0.00031902,0.00057842,0.00001448,-0.00000881,-0.0
 0006606,0.00267200,-0.00102176,0.00390673,-0.00114513,-0.00011515,-0.0
 0035814,-0.00176144,-0.00056275,0.00160709,0.00043193,0.00007729,-0.00
 011011,0.00487963,-0.00279966,0.00540356,0.00004742,-0.00241550,-0.000
 95251,0.00064345,0.00110739,0.00207511,-0.02025197,0.07946723,-0.12716
 807,0.00369259,0.02697517,-0.01655178,0.00204819,0.02394445,-0.0125427
 0,-0.00191517,-0.00805472,0.00493855,-0.00225870,0.00470328,0.00373287
 ,0.04379632,-0.13634986,0.16318655,-0.00710648,0.01394477,-0.00523512,
 -0.00091392,-0.00403030,-0.00080044,0.00242923,0.00101667,0.00054386,0
 .00312245,-0.00191238,0.00025484,0.00007081,0.00009837,0.00024492,0.00
 511248,-0.00469838,0.00157565,0.00046288,-0.00161525,0.00130865,-0.000
 59195,-0.00216922,0.00273359,0.00016704,0.00010657,-0.00081713,0.00097
 997,0.00154400,-0.00290215,-0.00013328,0.00104962,0.00051577,-0.000049
 61,-0.00012484,0.00024748,-0.00029186,0.00101792,0.00162473,0.00165482
 ,0.00347324,-0.00240875,0.00106877,0.00021232,-0.00080765,-0.00257802,
 0.00081878,0.00092770,0.00134805,-0.00087442,-0.00069259,-0.44402478,-
 0.17937335,-0.03053075,0.43927341,0.00253648,0.00426893,-0.00042345,-0
 .00129514,-0.00090658,-0.00029205,0.00110210,-0.00041048,0.00001585,0.
 00036554,-0.00076864,0.00007819,0.00015662,0.00008019,0.00008099,0.000
 95984,-0.00759663,0.00156897,-0.00198512,0.00030807,-0.00002676,-0.000
 70346,-0.00072703,0.00004640,-0.00003355,0.00020466,-0.00009685,-0.001
 73894,-0.00460404,0.00408317,0.00028511,-0.00081102,-0.00080965,0.0001
 6276,0.00028003,0.00024682,-0.03254339,-0.02013104,-0.00036959,0.00031
 687,0.00231504,-0.00024125,0.00106478,-0.00132949,-0.00020108,0.000585
 46,0.00191652,0.00025386,-0.00040036,-0.00153622,-0.00214038,-0.140351
 48,-0.08811708,0.01321028,0.17151587,0.11756481,-0.00090183,-0.0002019
 8,0.00257320,-0.00038015,-0.00011044,-0.00080493,0.00039992,-0.0002491
 4,0.00036847,0.00001999,0.00008077,-0.00027731,-0.00001172,0.00001515,
 0.00007124,-0.00209767,0.00157783,-0.00612095,0.00286697,0.00003852,0.
 00064907,0.00117024,-0.00030966,-0.00068547,-0.00044236,0.00011067,-0.
 00014970,-0.00118953,-0.00085379,-0.00007901,0.00032119,-0.00014607,0.
 00002265,0.00021951,0.00009669,-0.00014765,0.02655369,0.01413491,-0.00
 514675,0.00034472,0.00050702,0.00083633,0.00115999,0.00520437,-0.00362
 927,0.00065772,0.00044936,0.00014432,-0.00111826,-0.00151945,-0.000978
 67,-0.06178983,-0.00384130,-0.02392700,0.03421740,-0.01498346,0.037281
 43\\0.00003352,0.00003747,-0.00012424,-0.00006014,-0.00003412,0.000079
 31,0.00009255,0.00004773,-0.00006459,0.00000750,0.00001996,0.00001344,
 -0.00000360,-0.00001569,-0.00000543,0.00001763,-0.00002357,-0.00003699
 ,-0.00000173,0.00002069,0.00001972,-0.00006513,-0.00009552,0.00010849,
 0.00003944,0.00005983,-0.00002323,-0.00003686,-0.00002878,0.00000686,0
 .00000619,0.00000878,0.00001046,0.00000441,-0.00001092,0.00000158,0.00
 000692,0.00002246,0.00000948,0.00000142,-0.00001041,0.00000124,0.00000
 363,0.00000094,0.00000202,-0.00005034,0.00001469,-0.00000006,0.0000235
 9,0.00000538,0.00000057,0.00000821,-0.00001146,-0.00004537,-0.00002720
 ,-0.00000748,0.00004672\\\@
 The archive entry for this job was punched.


 DESK:  A WASTEBASKET WITH DRAWERS.
 Job cpu time:       0 days  2 hours 36 minutes 29.8 seconds.
 Elapsed time:       0 days  0 hours 39 minutes 18.2 seconds.
 File lengths (MBytes):  RWF=    293 Int=      0 D2E=      0 Chk=     16 Scr=      1
 Normal termination of Gaussian 16 at Tue Jan 30 19:53:14 2024.
