 Entering Gaussian System, Link 0=/opt/software/gaussian/g16.c01/g16
 Initial command:
 /opt/software/gaussian/g16.c01/l1.exe "/scratch/arhender/18214005/Gau-20416.inp" -scrdir="/scratch/arhender/18214005/"
 Entering Link 1 = /opt/software/gaussian/g16.c01/l1.exe PID=     20420.
  
 Copyright (c) 1988-2019, Gaussian, Inc.  All Rights Reserved.
  
 This is part of the Gaussian(R) 16 program.  It is based on
 the Gaussian(R) 09 system (copyright 2009, Gaussian, Inc.),
 the Gaussian(R) 03 system (copyright 2003, Gaussian, Inc.),
 the Gaussian(R) 98 system (copyright 1998, Gaussian, Inc.),
 the Gaussian(R) 94 system (copyright 1995, Gaussian, Inc.),
 the Gaussian 92(TM) system (copyright 1992, Gaussian, Inc.),
 the Gaussian 90(TM) system (copyright 1990, Gaussian, Inc.),
 the Gaussian 88(TM) system (copyright 1988, Gaussian, Inc.),
 the Gaussian 86(TM) system (copyright 1986, Carnegie Mellon
 University), and the Gaussian 82(TM) system (copyright 1983,
 Carnegie Mellon University). Gaussian is a federally registered
 trademark of Gaussian, Inc.
  
 This software contains proprietary and confidential information,
 including trade secrets, belonging to Gaussian, Inc.
  
 This software is provided under written license and may be
 used, copied, transmitted, or stored only in accord with that
 written license.
  
 The following legend is applicable only to US Government
 contracts under FAR:
  
                    RESTRICTED RIGHTS LEGEND
  
 Use, reproduction and disclosure by the US Government is
 subject to restrictions as set forth in subparagraphs (a)
 and (c) of the Commercial Computer Software - Restricted
 Rights clause in FAR 52.227-19.
  
 Gaussian, Inc.
 340 Quinnipiac St., Bldg. 40, Wallingford CT 06492
  
  
 ---------------------------------------------------------------
 Warning -- This program may not be used in any manner that
 competes with the business of Gaussian, Inc. or will provide
 assistance to any competitor of Gaussian, Inc.  The licensee
 of this program is prohibited from giving any competitor of
 Gaussian, Inc. access to this program.  By using this program,
 the user acknowledges that Gaussian, Inc. is engaged in the
 business of creating and licensing software in the field of
 computational chemistry and represents and warrants to the
 licensee that it is not a competitor of Gaussian, Inc. and that
 it will not use this program in any manner prohibited above.
 ---------------------------------------------------------------
  

 Cite this work as:
 Gaussian 16, Revision C.01,
 M. J. Frisch, G. W. Trucks, H. B. Schlegel, G. E. Scuseria, 
 M. A. Robb, J. R. Cheeseman, G. Scalmani, V. Barone, 
 G. A. Petersson, H. Nakatsuji, X. Li, M. Caricato, A. V. Marenich, 
 J. Bloino, B. G. Janesko, R. Gomperts, B. Mennucci, H. P. Hratchian, 
 J. V. Ortiz, A. F. Izmaylov, J. L. Sonnenberg, D. Williams-Young, 
 F. Ding, F. Lipparini, F. Egidi, J. Goings, B. Peng, A. Petrone, 
 T. Henderson, D. Ranasinghe, V. G. Zakrzewski, J. Gao, N. Rega, 
 G. Zheng, W. Liang, M. Hada, M. Ehara, K. Toyota, R. Fukuda, 
 J. Hasegawa, M. Ishida, T. Nakajima, Y. Honda, O. Kitao, H. Nakai, 
 T. Vreven, K. Throssell, J. A. Montgomery, Jr., J. E. Peralta, 
 F. Ogliaro, M. J. Bearpark, J. J. Heyd, E. N. Brothers, K. N. Kudin, 
 V. N. Staroverov, T. A. Keith, R. Kobayashi, J. Normand, 
 K. Raghavachari, A. P. Rendell, J. C. Burant, S. S. Iyengar, 
 J. Tomasi, M. Cossi, J. M. Millam, M. Klene, C. Adamo, R. Cammi, 
 J. W. Ochterski, R. L. Martin, K. Morokuma, O. Farkas, 
 J. B. Foresman, and D. J. Fox, Gaussian, Inc., Wallingford CT, 2019.
 
 ******************************************
 Gaussian 16:  ES64L-G16RevC.01  3-Jul-2019
                29-Mar-2024 
 ******************************************
 %chk=IRC_potentialSN1likeCollapseQbiLWithLattacking_reverse_ProductOpt.chk
 %mem=1600MB
 %nprocs=4
 Will use up to    4 processors via shared memory.
 ---------------------------------------------
 # opt freq wb97xd/def2tzvpp geom=connectivity
 ---------------------------------------------
 1/18=20,19=15,26=3,38=1,57=2/1,3;
 2/9=110,12=2,17=6,18=5,40=1/2;
 3/5=44,7=202,11=2,25=1,30=1,71=1,74=-58/1,2,3;
 4//1;
 5/5=2,38=5/2;
 6/7=2,8=2,9=2,10=2,28=1/1;
 7//1,2,3,16;
 1/18=20,19=15,26=3/3(2);
 2/9=110/2;
 99//99;
 2/9=110/2;
 3/5=44,7=202,11=2,25=1,30=1,71=1,74=-58/1,2,3;
 4/5=5,16=3,69=1/1;
 5/5=2,38=5/2;
 7//1,2,3,16;
 1/18=20,19=15,26=3/3(-5);
 2/9=110/2;
 6/7=2,8=2,9=2,10=2,19=2,28=1/1;
 99/9=1/99;
 ----------------------------------------------------------------------
 irc for proton transfer with potential SN1 like transition state in L 
 attack on QbiL
 ----------------------------------------------------------------------
 Symbolic Z-matrix:
 Charge =  0 Multiplicity = 1
 Si                    0.30546   0.27349  -0.21394 
 O                     1.56993  -0.12878  -1.17235 
 O                     2.02429   2.28858   0.75558 
 H                     2.51712   2.50486  -0.03521 
 O                    -0.48314   1.59229  -0.26386 
 H                     1.10838   2.50402   0.53333 
 O                     0.70363  -0.59667   1.11873 
 C                    -1.97447  -1.47717   0.05402 
 H                    -1.4016   -2.07586   0.755 
 H                    -2.63404  -2.10903  -0.5378 
 C                    -2.72892  -0.33056   0.72266 
 H                    -2.12406   0.09044   1.53007 
 H                    -3.64982  -0.72205   1.15766 
 O                    -1.01386  -0.91373  -0.8897 
 H                    -1.55304  -0.33811  -1.45784 
 O                    -3.04555   0.64687  -0.23351 
 H                    -2.28473   1.26399  -0.2532 
 C                     2.03099  -1.09201   0.96136 
 H                     2.10955  -2.06572   1.44299 
 H                     2.72089  -0.39412   1.43679 
 C                     2.29782  -1.18346  -0.55028 
 H                     3.35743  -1.06904  -0.77833 
 H                     1.95351  -2.14181  -0.95198 
 
 Add virtual bond connecting atoms H6         and O5         Dist= 3.78D+00.

 GradGradGradGradGradGradGradGradGradGradGradGradGradGradGradGradGradGrad
 Berny optimization.
 Initialization pass.
                           ----------------------------
                           !    Initial Parameters    !
                           ! (Angstroms and Degrees)  !
 --------------------------                            --------------------------
 ! Name  Definition              Value          Derivative Info.                !
 --------------------------------------------------------------------------------
 ! R1    R(1,2)                  1.6368         estimate D2E/DX2                !
 ! R2    R(1,5)                  1.5374         estimate D2E/DX2                !
 ! R3    R(1,7)                  1.6407         estimate D2E/DX2                !
 ! R4    R(1,14)                 1.8991         estimate D2E/DX2                !
 ! R5    R(2,21)                 1.4245         estimate D2E/DX2                !
 ! R6    R(3,4)                  0.9566         estimate D2E/DX2                !
 ! R7    R(3,6)                  0.9668         estimate D2E/DX2                !
 ! R8    R(5,6)                  1.9999         estimate D2E/DX2                !
 ! R9    R(7,18)                 1.4255         estimate D2E/DX2                !
 ! R10   R(8,9)                  1.0853         estimate D2E/DX2                !
 ! R11   R(8,10)                 1.0884         estimate D2E/DX2                !
 ! R12   R(8,11)                 1.5268         estimate D2E/DX2                !
 ! R13   R(8,14)                 1.4597         estimate D2E/DX2                !
 ! R14   R(11,12)                1.0932         estimate D2E/DX2                !
 ! R15   R(11,13)                1.0911         estimate D2E/DX2                !
 ! R16   R(11,16)                1.4035         estimate D2E/DX2                !
 ! R17   R(14,15)                0.972          estimate D2E/DX2                !
 ! R18   R(16,17)                0.9798         estimate D2E/DX2                !
 ! R19   R(18,19)                1.0891         estimate D2E/DX2                !
 ! R20   R(18,20)                1.0904         estimate D2E/DX2                !
 ! R21   R(18,21)                1.5377         estimate D2E/DX2                !
 ! R22   R(21,22)                1.0899         estimate D2E/DX2                !
 ! R23   R(21,23)                1.0947         estimate D2E/DX2                !
 ! A1    A(2,1,5)              126.0193         estimate D2E/DX2                !
 ! A2    A(2,1,7)               99.0785         estimate D2E/DX2                !
 ! A3    A(2,1,14)             100.0598         estimate D2E/DX2                !
 ! A4    A(5,1,7)              127.2878         estimate D2E/DX2                !
 ! A5    A(5,1,14)              99.6923         estimate D2E/DX2                !
 ! A6    A(7,1,14)              97.2421         estimate D2E/DX2                !
 ! A7    A(1,2,21)             108.7236         estimate D2E/DX2                !
 ! A8    A(4,3,6)              104.3386         estimate D2E/DX2                !
 ! A9    A(1,5,6)               88.2762         estimate D2E/DX2                !
 ! A10   A(3,6,5)              138.0692         estimate D2E/DX2                !
 ! A11   A(1,7,18)             108.6995         estimate D2E/DX2                !
 ! A12   A(9,8,10)             110.5378         estimate D2E/DX2                !
 ! A13   A(9,8,11)             113.0938         estimate D2E/DX2                !
 ! A14   A(9,8,14)             106.4464         estimate D2E/DX2                !
 ! A15   A(10,8,11)            112.0049         estimate D2E/DX2                !
 ! A16   A(10,8,14)            105.7441         estimate D2E/DX2                !
 ! A17   A(11,8,14)            108.5687         estimate D2E/DX2                !
 ! A18   A(8,11,12)            109.8328         estimate D2E/DX2                !
 ! A19   A(8,11,13)            108.7958         estimate D2E/DX2                !
 ! A20   A(8,11,16)            109.6413         estimate D2E/DX2                !
 ! A21   A(12,11,13)           108.1021         estimate D2E/DX2                !
 ! A22   A(12,11,16)           111.0885         estimate D2E/DX2                !
 ! A23   A(13,11,16)           109.3337         estimate D2E/DX2                !
 ! A24   A(1,14,8)             117.931          estimate D2E/DX2                !
 ! A25   A(1,14,15)            102.8924         estimate D2E/DX2                !
 ! A26   A(8,14,15)            103.9698         estimate D2E/DX2                !
 ! A27   A(11,16,17)           106.089          estimate D2E/DX2                !
 ! A28   A(7,18,19)            109.2076         estimate D2E/DX2                !
 ! A29   A(7,18,20)            108.5786         estimate D2E/DX2                !
 ! A30   A(7,18,21)            106.9038         estimate D2E/DX2                !
 ! A31   A(19,18,20)           109.4963         estimate D2E/DX2                !
 ! A32   A(19,18,21)           111.6551         estimate D2E/DX2                !
 ! A33   A(20,18,21)           110.9089         estimate D2E/DX2                !
 ! A34   A(2,21,18)            107.2529         estimate D2E/DX2                !
 ! A35   A(2,21,22)            109.128          estimate D2E/DX2                !
 ! A36   A(2,21,23)            109.0992         estimate D2E/DX2                !
 ! A37   A(18,21,22)           111.6017         estimate D2E/DX2                !
 ! A38   A(18,21,23)           110.991          estimate D2E/DX2                !
 ! A39   A(22,21,23)           108.7183         estimate D2E/DX2                !
 ! D1    D(5,1,2,21)           160.6253         estimate D2E/DX2                !
 ! D2    D(7,1,2,21)             9.6165         estimate D2E/DX2                !
 ! D3    D(14,1,2,21)          -89.4745         estimate D2E/DX2                !
 ! D4    D(2,1,5,6)            -71.8652         estimate D2E/DX2                !
 ! D5    D(7,1,5,6)             71.1529         estimate D2E/DX2                !
 ! D6    D(14,1,5,6)           178.0586         estimate D2E/DX2                !
 ! D7    D(2,1,7,18)            10.4089         estimate D2E/DX2                !
 ! D8    D(5,1,7,18)          -140.0712         estimate D2E/DX2                !
 ! D9    D(14,1,7,18)          111.8651         estimate D2E/DX2                !
 ! D10   D(2,1,14,8)           144.7275         estimate D2E/DX2                !
 ! D11   D(2,1,14,15)         -101.5907         estimate D2E/DX2                !
 ! D12   D(5,1,14,8)           -85.7644         estimate D2E/DX2                !
 ! D13   D(5,1,14,15)           27.9174         estimate D2E/DX2                !
 ! D14   D(7,1,14,8)            44.1198         estimate D2E/DX2                !
 ! D15   D(7,1,14,15)          157.8016         estimate D2E/DX2                !
 ! D16   D(1,2,21,18)          -25.04           estimate D2E/DX2                !
 ! D17   D(1,2,21,22)         -146.0867         estimate D2E/DX2                !
 ! D18   D(1,2,21,23)           95.2573         estimate D2E/DX2                !
 ! D19   D(4,3,6,5)             89.9381         estimate D2E/DX2                !
 ! D20   D(1,5,6,3)              7.5241         estimate D2E/DX2                !
 ! D21   D(1,7,18,19)         -146.4405         estimate D2E/DX2                !
 ! D22   D(1,7,18,20)           94.2223         estimate D2E/DX2                !
 ! D23   D(1,7,18,21)          -25.4905         estimate D2E/DX2                !
 ! D24   D(9,8,11,12)           37.1476         estimate D2E/DX2                !
 ! D25   D(9,8,11,13)          -80.9946         estimate D2E/DX2                !
 ! D26   D(9,8,11,16)          159.4811         estimate D2E/DX2                !
 ! D27   D(10,8,11,12)         162.8571         estimate D2E/DX2                !
 ! D28   D(10,8,11,13)          44.7149         estimate D2E/DX2                !
 ! D29   D(10,8,11,16)         -74.8094         estimate D2E/DX2                !
 ! D30   D(14,8,11,12)         -80.7522         estimate D2E/DX2                !
 ! D31   D(14,8,11,13)         161.1056         estimate D2E/DX2                !
 ! D32   D(14,8,11,16)          41.5814         estimate D2E/DX2                !
 ! D33   D(9,8,14,1)           -63.0327         estimate D2E/DX2                !
 ! D34   D(9,8,14,15)         -176.1194         estimate D2E/DX2                !
 ! D35   D(10,8,14,1)          179.369          estimate D2E/DX2                !
 ! D36   D(10,8,14,15)          66.2823         estimate D2E/DX2                !
 ! D37   D(11,8,14,1)           59.0129         estimate D2E/DX2                !
 ! D38   D(11,8,14,15)         -54.0738         estimate D2E/DX2                !
 ! D39   D(8,11,16,17)         -89.1992         estimate D2E/DX2                !
 ! D40   D(12,11,16,17)         32.3833         estimate D2E/DX2                !
 ! D41   D(13,11,16,17)        151.607          estimate D2E/DX2                !
 ! D42   D(7,18,21,2)           32.4447         estimate D2E/DX2                !
 ! D43   D(7,18,21,22)         151.9173         estimate D2E/DX2                !
 ! D44   D(7,18,21,23)         -86.642          estimate D2E/DX2                !
 ! D45   D(19,18,21,2)         151.826          estimate D2E/DX2                !
 ! D46   D(19,18,21,22)        -88.7014         estimate D2E/DX2                !
 ! D47   D(19,18,21,23)         32.7393         estimate D2E/DX2                !
 ! D48   D(20,18,21,2)         -85.7563         estimate D2E/DX2                !
 ! D49   D(20,18,21,22)         33.7163         estimate D2E/DX2                !
 ! D50   D(20,18,21,23)        155.157          estimate D2E/DX2                !
 --------------------------------------------------------------------------------
 Trust Radius=3.00D-01 FncErr=1.00D-07 GrdErr=1.00D-06 EigMax=2.50D+02 EigMin=1.00D-04
 Number of steps in this run=    122 maximum allowed number of steps=    138.
 GradGradGradGradGradGradGradGradGradGradGradGradGradGradGradGradGradGrad

                          Input orientation:                          
 ---------------------------------------------------------------------
 Center     Atomic      Atomic             Coordinates (Angstroms)
 Number     Number       Type             X           Y           Z
 ---------------------------------------------------------------------
      1         14           0        0.305461    0.273490   -0.213943
      2          8           0        1.569927   -0.128780   -1.172348
      3          8           0        2.024294    2.288577    0.755582
      4          1           0        2.517119    2.504860   -0.035212
      5          8           0       -0.483143    1.592289   -0.263859
      6          1           0        1.108382    2.504015    0.533326
      7          8           0        0.703625   -0.596674    1.118731
      8          6           0       -1.974469   -1.477170    0.054021
      9          1           0       -1.401604   -2.075857    0.755000
     10          1           0       -2.634036   -2.109030   -0.537800
     11          6           0       -2.728922   -0.330556    0.722660
     12          1           0       -2.124064    0.090442    1.530068
     13          1           0       -3.649824   -0.722051    1.157662
     14          8           0       -1.013856   -0.913734   -0.889701
     15          1           0       -1.553042   -0.338110   -1.457838
     16          8           0       -3.045554    0.646865   -0.233511
     17          1           0       -2.284726    1.263994   -0.253200
     18          6           0        2.030995   -1.092008    0.961362
     19          1           0        2.109547   -2.065718    1.442990
     20          1           0        2.720890   -0.394119    1.436790
     21          6           0        2.297823   -1.183462   -0.550275
     22          1           0        3.357432   -1.069038   -0.778333
     23          1           0        1.953507   -2.141812   -0.951983
 ---------------------------------------------------------------------
                    Distance matrix (angstroms):
                    1          2          3          4          5
     1  Si   0.000000
     2  O    1.636837   0.000000
     3  O    2.820451   3.125217   0.000000
     4  H    3.146806   3.020978   0.956562   0.000000
     5  O    1.537406   2.828874   2.794873   3.144302   0.000000
     6  H    2.485626   3.170798   0.966802   1.519137   1.999925
     7  O    1.640652   2.493681   3.193856   3.773574   2.848075
     8  C    2.886987   3.985584   5.537431   6.003240   3.427343
     9  H    3.061430   4.041754   5.548429   6.079786   3.916240
    10  H    3.797621   4.690133   6.535428   6.933612   4.289656
    11  C    3.232581   4.702326   5.427154   6.011231   3.116741
    12  H    2.996276   4.582213   4.758203   5.460778   2.857681
    13  H    4.303101   5.746888   6.435928   7.061663   4.171901
    14  O    1.899144   2.715138   4.710850   4.988459   2.636946
    15  H    2.318483   3.142970   4.959440   5.164548   2.509325
    16  O    3.371809   4.773437   5.420044   5.868117   2.731428
    17  H    2.773393   4.200357   4.542583   4.964371   1.831282
    18  C    2.494673   2.386024   3.386849   3.763899   3.876533
    19  H    3.387041   3.298926   4.409046   4.820931   4.797540
    20  H    3.000820   2.864039   2.854146   3.257667   4.135680
    21  C    2.491051   1.424486   3.719561   3.730563   3.939619
    22  H    3.381633   2.057792   3.924759   3.745811   4.700783
    23  H    3.015699   2.061066   4.748593   4.769663   4.511573
                    6          7          8          9         10
     6  H    0.000000
     7  O    3.181320   0.000000
     8  C    5.058017   3.013481   0.000000
     9  H    5.227274   2.598513   1.085344   0.000000
    10  H    6.035991   4.021355   1.088360   1.786427   0.000000
    11  C    4.774468   3.465555   1.526762   2.192919   2.181910
    12  H    4.155423   2.938903   2.158356   2.411541   3.061671
    13  H    5.782545   4.355428   2.143605   2.655074   2.414566
    14  O    4.267307   2.661591   1.459743   2.050834   2.043906
    15  H    4.373281   3.434838   1.939272   2.817685   2.269620
    16  O    4.614350   4.175080   2.396127   3.330607   2.803016
    17  H    3.697223   3.778164   2.775720   3.598747   3.402985
    18  C    3.737086   1.425494   4.124968   3.576769   5.004432
    19  H    4.765740   2.059090   4.353712   3.577934   5.140718
    20  H    3.437384   2.052206   5.013127   4.504224   5.959460
    21  C    4.023238   2.381464   4.324803   4.023167   5.017974
    22  H    4.421016   3.296160   5.411890   5.100316   6.085814
    23  H    4.950160   2.870107   4.108867   3.764958   4.606319
                   11         12         13         14         15
    11  C    0.000000
    12  H    1.093161   0.000000
    13  H    1.091126   1.768269   0.000000
    14  O    2.425130   2.845385   3.343167   0.000000
    15  H    2.477362   3.072020   3.374129   0.972031   0.000000
    16  O    1.403521   2.066146   2.043144   2.644589   2.167197
    17  H    1.921510   2.140813   2.792561   2.600528   2.133835
    18  C    4.826344   4.357308   5.696236   3.567819   4.389329
    19  H    5.190419   4.751849   5.920913   4.064992   4.981364
    20  H    5.496769   4.870018   6.385252   4.430676   5.162219
    21  C    5.255091   5.050123   6.205196   3.339937   4.045671
    22  H    6.312055   6.059695   7.278057   4.375464   5.010862
    23  H    5.292468   5.269736   6.153344   3.212055   3.975565
                   16         17         18         19         20
    16  O    0.000000
    17  H    0.979844   0.000000
    18  C    5.497522   5.064717   0.000000
    19  H    6.061669   5.768334   1.089150   0.000000
    20  H    6.093064   5.537291   1.090429   1.779894   0.000000
    21  C    5.657041   5.203657   1.537728   2.187905   2.179559
    22  H    6.651269   6.128030   2.187807   2.735848   2.401556
    23  H    5.769188   5.481827   2.183800   2.401257   3.057702
                   21         22         23
    21  C    0.000000
    22  H    1.089897   0.000000
    23  H    1.094695   1.775388   0.000000
 Stoichiometry    C4H12O6Si
 Framework group  C1[X(C4H12O6Si)]
 Deg. of freedom    63
 Full point group                 C1      NOp   1
 Largest Abelian subgroup         C1      NOp   1
 Largest concise Abelian subgroup C1      NOp   1
                         Standard orientation:                         
 ---------------------------------------------------------------------
 Center     Atomic      Atomic             Coordinates (Angstroms)
 Number     Number       Type             X           Y           Z
 ---------------------------------------------------------------------
      1         14           0        0.320778    0.251884   -0.255650
      2          8           0        1.520404   -0.320820   -1.210712
      3          8           0        2.228252    2.173629    0.533895
      4          1           0        2.715640    2.293063   -0.280475
      5          8           0       -0.355650    1.626846   -0.380323
      6          1           0        1.327869    2.451028    0.316948
      7          8           0        0.680966   -0.557048    1.125521
      8          6           0       -2.089599   -1.275420    0.182663
      9          1           0       -1.549933   -1.872116    0.911145
     10          1           0       -2.815723   -1.887159   -0.349359
     11          6           0       -2.726772   -0.025970    0.785892
     12          1           0       -2.066909    0.395409    1.548795
     13          1           0       -3.664984   -0.307041    1.266842
     14          8           0       -1.111347   -0.861210   -0.818487
     15          1           0       -1.615762   -0.281339   -1.413600
     16          8           0       -2.986458    0.908062   -0.229007
     17          1           0       -2.177433    1.455173   -0.308021
     18          6           0        1.957373   -1.173495    0.974491
     19          1           0        1.967232   -2.115568    1.520978
     20          1           0        2.716053   -0.506579    1.385177
     21          6           0        2.174141   -1.389377   -0.532498
     22          1           0        3.232973   -1.381593   -0.790741
     23          1           0        1.739894   -2.339751   -0.858957
 ---------------------------------------------------------------------
 Rotational constants (GHZ):           1.4731878           0.7171841           0.5953409
 Standard basis: def2TZVPP (5D, 7F)
 There are   588 symmetry adapted cartesian basis functions of A   symmetry.
 There are   520 symmetry adapted basis functions of A   symmetry.
   520 basis functions,   783 primitive gaussians,   588 cartesian basis functions
    49 alpha electrons       49 beta electrons
       nuclear repulsion energy       867.7187138634 Hartrees.
 NAtoms=   23 NActive=   23 NUniq=   23 SFac= 1.00D+00 NAtFMM=   60 NAOKFM=F Big=F
 Integral buffers will be    131072 words long.
 Raffenetti 2 integral format.
 Two-electron integral symmetry is turned on.
 Nuclear repulsion after empirical dispersion term =      867.7046804177 Hartrees.
 One-electron integrals computed using PRISM.
   1 Symmetry operations used in ECPInt.
 ECPInt:  NShTT=   19306 NPrTT=   52617 LenC2=   18185 LenP2D=   38323.
 LDataN:  DoStor=T MaxTD1= 6 Len=  172
 NBasis=   520 RedAO= T EigKep=  2.02D-04  NBF=   520
 NBsUse=   520 1.00D-06 EigRej= -1.00D+00 NBFU=   520
 ExpMin= 7.01D-02 ExpMax= 4.48D+04 ExpMxC= 1.53D+03 IAcc=3 IRadAn=         5 AccDes= 0.00D+00
 Harris functional with IExCor= 4639 and IRadAn=       5 diagonalized for initial guess.
 HarFok:  IExCor= 4639 AccDes= 0.00D+00 IRadAn=         5 IDoV= 1 UseB2=F ITyADJ=14
 ICtDFT=  3500011 ScaDFX=  1.000000  1.000000  1.000000  1.000000
 FoFCou: FMM=F IPFlag=           0 FMFlag=      100000 FMFlg1=           0
         NFxFlg=           0 DoJE=T BraDBF=F KetDBF=T FulRan=T
         wScrn=  0.000000 ICntrl=       500 IOpCl=  0 I1Cent=   200000004 NGrid=           0
         NMat0=    1 NMatS0=      1 NMatT0=    0 NMatD0=    1 NMtDS0=    0 NMtDT0=    0
 Petite list used in FoFCou.
 Requested convergence on RMS density matrix=1.00D-08 within 128 cycles.
 Requested convergence on MAX density matrix=1.00D-06.
 Requested convergence on             energy=1.00D-06.
 No special actions if energy rises.
 Integral accuracy reduced to 1.0D-05 until final iterations.
 Initial convergence to 1.0D-05 achieved.  Increase integral accuracy.
 SCF Done:  E(RwB97XD) =  -900.695230350     A.U. after   14 cycles
            NFock= 14  Conv=0.41D-08     -V/T= 2.0036

 **********************************************************************

            Population analysis using the SCF Density.

 **********************************************************************

 Orbital symmetries:
       Occupied  (A) (A) (A) (A) (A) (A) (A) (A) (A) (A) (A) (A)
                 (A) (A) (A) (A) (A) (A) (A) (A) (A) (A) (A) (A)
                 (A) (A) (A) (A) (A) (A) (A) (A) (A) (A) (A) (A)
                 (A) (A) (A) (A) (A) (A) (A) (A) (A) (A) (A) (A)
                 (A)
       Virtual   (A) (A) (A) (A) (A) (A) (A) (A) (A) (A) (A) (A)
                 (A) (A) (A) (A) (A) (A) (A) (A) (A) (A) (A) (A)
                 (A) (A) (A) (A) (A) (A) (A) (A) (A) (A) (A) (A)
                 (A) (A) (A) (A) (A) (A) (A) (A) (A) (A) (A) (A)
                 (A) (A) (A) (A) (A) (A) (A) (A) (A) (A) (A) (A)
                 (A) (A) (A) (A) (A) (A) (A) (A) (A) (A) (A) (A)
                 (A) (A) (A) (A) (A) (A) (A) (A) (A) (A) (A) (A)
                 (A) (A) (A) (A) (A) (A) (A) (A) (A) (A) (A) (A)
                 (A) (A) (A) (A) (A) (A) (A) (A) (A) (A) (A) (A)
                 (A) (A) (A) (A) (A) (A) (A) (A) (A) (A) (A) (A)
                 (A) (A) (A) (A) (A) (A) (A) (A) (A) (A) (A) (A)
                 (A) (A) (A) (A) (A) (A) (A) (A) (A) (A) (A) (A)
                 (A) (A) (A) (A) (A) (A) (A) (A) (A) (A) (A) (A)
                 (A) (A) (A) (A) (A) (A) (A) (A) (A) (A) (A) (A)
                 (A) (A) (A) (A) (A) (A) (A) (A) (A) (A) (A) (A)
                 (A) (A) (A) (A) (A) (A) (A) (A) (A) (A) (A) (A)
                 (A) (A) (A) (A) (A) (A) (A) (A) (A) (A) (A) (A)
                 (A) (A) (A) (A) (A) (A) (A) (A) (A) (A) (A) (A)
                 (A) (A) (A) (A) (A) (A) (A) (A) (A) (A) (A) (A)
                 (A) (A) (A) (A) (A) (A) (A) (A) (A) (A) (A) (A)
                 (A) (A) (A) (A) (A) (A) (A) (A) (A) (A) (A) (A)
                 (A) (A) (A) (A) (A) (A) (A) (A) (A) (A) (A) (A)
                 (A) (A) (A) (A) (A) (A) (A) (A) (A) (A) (A) (A)
                 (A) (A) (A) (A) (A) (A) (A) (A) (A) (A) (A) (A)
                 (A) (A) (A) (A) (A) (A) (A) (A) (A) (A) (A) (A)
                 (A) (A) (A) (A) (A) (A) (A) (A) (A) (A) (A) (A)
                 (A) (A) (A) (A) (A) (A) (A) (A) (A) (A) (A) (A)
                 (A) (A) (A) (A) (A) (A) (A) (A) (A) (A) (A) (A)
                 (A) (A) (A) (A) (A) (A) (A) (A) (A) (A) (A) (A)
                 (A) (A) (A) (A) (A) (A) (A) (A) (A) (A) (A) (A)
                 (A) (A) (A) (A) (A) (A) (A) (A) (A) (A) (A) (A)
                 (A) (A) (A) (A) (A) (A) (A) (A) (A) (A) (A) (A)
                 (A) (A) (A) (A) (A) (A) (A) (A) (A) (A) (A) (A)
                 (A) (A) (A) (A) (A) (A) (A) (A) (A) (A) (A) (A)
                 (A) (A) (A) (A) (A) (A) (A) (A) (A) (A) (A) (A)
                 (A) (A) (A) (A) (A) (A) (A) (A) (A) (A) (A) (A)
                 (A) (A) (A) (A) (A) (A) (A) (A) (A) (A) (A) (A)
                 (A) (A) (A) (A) (A) (A) (A) (A) (A) (A) (A) (A)
                 (A) (A) (A) (A) (A) (A) (A) (A) (A) (A) (A) (A)
                 (A) (A) (A)
 The electronic state is 1-A.
 Alpha  occ. eigenvalues --  -66.29968 -19.35365 -19.25908 -19.25849 -19.25079
 Alpha  occ. eigenvalues --  -19.23049 -19.18199 -10.37464 -10.34770 -10.34770
 Alpha  occ. eigenvalues --  -10.34421  -5.41963  -3.76728  -3.76463  -3.76075
 Alpha  occ. eigenvalues --   -1.22641  -1.15900  -1.13058  -1.10308  -1.09662
 Alpha  occ. eigenvalues --   -1.00643  -0.87625  -0.84357  -0.75431  -0.72563
 Alpha  occ. eigenvalues --   -0.68867  -0.63112  -0.62667  -0.61147  -0.60248
 Alpha  occ. eigenvalues --   -0.59346  -0.58636  -0.56853  -0.52555  -0.52524
 Alpha  occ. eigenvalues --   -0.51931  -0.50723  -0.47971  -0.46562  -0.45051
 Alpha  occ. eigenvalues --   -0.43779  -0.42724  -0.41443  -0.41187  -0.39127
 Alpha  occ. eigenvalues --   -0.38353  -0.37568  -0.36708  -0.35605
 Alpha virt. eigenvalues --    0.07707   0.11082   0.11808   0.12162   0.13868
 Alpha virt. eigenvalues --    0.15465   0.16145   0.16751   0.16846   0.17714
 Alpha virt. eigenvalues --    0.18679   0.19426   0.20418   0.21078   0.21618
 Alpha virt. eigenvalues --    0.22331   0.24701   0.25487   0.26108   0.26490
 Alpha virt. eigenvalues --    0.26883   0.27955   0.29131   0.29589   0.30626
 Alpha virt. eigenvalues --    0.31976   0.33917   0.34318   0.36036   0.38225
 Alpha virt. eigenvalues --    0.38929   0.39861   0.40210   0.41690   0.42843
 Alpha virt. eigenvalues --    0.43215   0.43365   0.44327   0.45100   0.45412
 Alpha virt. eigenvalues --    0.46484   0.46839   0.47409   0.48157   0.49026
 Alpha virt. eigenvalues --    0.50107   0.50379   0.51189   0.51491   0.52357
 Alpha virt. eigenvalues --    0.52523   0.53799   0.55289   0.56071   0.56604
 Alpha virt. eigenvalues --    0.58338   0.58662   0.60271   0.60907   0.62402
 Alpha virt. eigenvalues --    0.62887   0.63615   0.65058   0.65747   0.67805
 Alpha virt. eigenvalues --    0.69283   0.69473   0.70781   0.72432   0.73156
 Alpha virt. eigenvalues --    0.74658   0.76657   0.76972   0.78862   0.79680
 Alpha virt. eigenvalues --    0.81160   0.81940   0.83448   0.84344   0.85289
 Alpha virt. eigenvalues --    0.87344   0.88212   0.90304   0.90933   0.91405
 Alpha virt. eigenvalues --    0.91949   0.93232   0.94085   0.96188   0.96878
 Alpha virt. eigenvalues --    0.98534   0.99305   1.01334   1.02201   1.03035
 Alpha virt. eigenvalues --    1.03976   1.04668   1.05095   1.06636   1.07535
 Alpha virt. eigenvalues --    1.08077   1.08865   1.11025   1.11800   1.12418
 Alpha virt. eigenvalues --    1.12926   1.15075   1.15241   1.17388   1.17761
 Alpha virt. eigenvalues --    1.18942   1.21751   1.22399   1.23775   1.24519
 Alpha virt. eigenvalues --    1.25692   1.25817   1.26909   1.27023   1.28591
 Alpha virt. eigenvalues --    1.29635   1.30465   1.32089   1.33947   1.33980
 Alpha virt. eigenvalues --    1.37251   1.38223   1.38473   1.38895   1.39524
 Alpha virt. eigenvalues --    1.41690   1.43048   1.44327   1.45348   1.46564
 Alpha virt. eigenvalues --    1.48144   1.49160   1.50352   1.51207   1.51968
 Alpha virt. eigenvalues --    1.52524   1.54624   1.55703   1.57836   1.59611
 Alpha virt. eigenvalues --    1.61032   1.61121   1.61835   1.64431   1.65548
 Alpha virt. eigenvalues --    1.66255   1.67258   1.69333   1.71670   1.76062
 Alpha virt. eigenvalues --    1.80056   1.80899   1.83235   1.85289   1.86365
 Alpha virt. eigenvalues --    1.86860   1.91972   1.93354   1.94284   1.96196
 Alpha virt. eigenvalues --    1.96526   1.98526   1.99230   2.01086   2.03036
 Alpha virt. eigenvalues --    2.04239   2.05877   2.06647   2.07281   2.09210
 Alpha virt. eigenvalues --    2.10673   2.10999   2.13087   2.15089   2.16530
 Alpha virt. eigenvalues --    2.18884   2.21146   2.22296   2.25762   2.26207
 Alpha virt. eigenvalues --    2.28256   2.29048   2.33912   2.35003   2.37213
 Alpha virt. eigenvalues --    2.37921   2.40159   2.41086   2.42142   2.44531
 Alpha virt. eigenvalues --    2.45164   2.49149   2.50881   2.57275   2.59189
 Alpha virt. eigenvalues --    2.60027   2.63575   2.66167   2.66477   2.67227
 Alpha virt. eigenvalues --    2.68167   2.70716   2.72115   2.74599   2.75424
 Alpha virt. eigenvalues --    2.77100   2.78515   2.81585   2.82989   2.83719
 Alpha virt. eigenvalues --    2.85366   2.86464   2.88571   2.91161   2.92847
 Alpha virt. eigenvalues --    2.93997   2.95680   2.95889   2.98006   2.98905
 Alpha virt. eigenvalues --    3.01056   3.03826   3.04478   3.05275   3.05729
 Alpha virt. eigenvalues --    3.07614   3.08652   3.09837   3.11468   3.12176
 Alpha virt. eigenvalues --    3.13494   3.15057   3.16504   3.18716   3.19752
 Alpha virt. eigenvalues --    3.20936   3.21559   3.22114   3.23685   3.25014
 Alpha virt. eigenvalues --    3.25896   3.27399   3.27923   3.29461   3.30639
 Alpha virt. eigenvalues --    3.32484   3.35238   3.36159   3.36383   3.37894
 Alpha virt. eigenvalues --    3.38354   3.40248   3.41293   3.42115   3.45218
 Alpha virt. eigenvalues --    3.46301   3.47928   3.48739   3.50719   3.51620
 Alpha virt. eigenvalues --    3.52477   3.54225   3.57406   3.58605   3.58849
 Alpha virt. eigenvalues --    3.59979   3.60965   3.64099   3.65210   3.66313
 Alpha virt. eigenvalues --    3.68150   3.68385   3.70372   3.72712   3.73085
 Alpha virt. eigenvalues --    3.73283   3.73922   3.74624   3.75217   3.76100
 Alpha virt. eigenvalues --    3.78858   3.79592   3.81180   3.82210   3.85271
 Alpha virt. eigenvalues --    3.86317   3.87482   3.88893   3.90260   3.91975
 Alpha virt. eigenvalues --    3.93377   3.94944   3.97328   3.99185   4.00834
 Alpha virt. eigenvalues --    4.01501   4.02729   4.03120   4.07183   4.08367
 Alpha virt. eigenvalues --    4.09253   4.10005   4.13136   4.13366   4.14244
 Alpha virt. eigenvalues --    4.17540   4.18124   4.19125   4.19616   4.20803
 Alpha virt. eigenvalues --    4.21622   4.22762   4.24192   4.24749   4.26516
 Alpha virt. eigenvalues --    4.26648   4.29090   4.29741   4.31043   4.31790
 Alpha virt. eigenvalues --    4.33251   4.35259   4.35566   4.40115   4.41329
 Alpha virt. eigenvalues --    4.42607   4.45953   4.46811   4.47103   4.52469
 Alpha virt. eigenvalues --    4.56534   4.59967   4.60756   4.64300   4.65517
 Alpha virt. eigenvalues --    4.70172   4.70950   4.71597   4.74089   4.75124
 Alpha virt. eigenvalues --    4.75396   4.77716   4.78671   4.82521   4.83098
 Alpha virt. eigenvalues --    4.83941   4.85977   4.88288   4.90099   4.93464
 Alpha virt. eigenvalues --    4.93968   4.95826   4.97455   4.99049   5.02600
 Alpha virt. eigenvalues --    5.03665   5.05269   5.05689   5.06865   5.10420
 Alpha virt. eigenvalues --    5.14367   5.15634   5.17022   5.19093   5.20912
 Alpha virt. eigenvalues --    5.23494   5.24976   5.26752   5.33151   5.34890
 Alpha virt. eigenvalues --    5.36749   5.36957   5.37728   5.40674   5.41269
 Alpha virt. eigenvalues --    5.42787   5.43221   5.43567   5.46961   5.47870
 Alpha virt. eigenvalues --    5.52008   5.52914   5.53559   5.56396   5.57243
 Alpha virt. eigenvalues --    5.59706   5.61141   5.63044   5.66274   5.67977
 Alpha virt. eigenvalues --    5.69119   5.69878   5.71210   5.73521   5.77488
 Alpha virt. eigenvalues --    5.78220   5.80282   5.82396   5.85896   5.89081
 Alpha virt. eigenvalues --    5.92828   5.95900   6.01614   6.03197   6.10351
 Alpha virt. eigenvalues --    6.13509   6.14162   6.16582   6.24063   6.26137
 Alpha virt. eigenvalues --    6.28122   6.45768   6.50954   6.53701   6.56597
 Alpha virt. eigenvalues --    6.62352   6.64862   6.65305   6.68874   6.71583
 Alpha virt. eigenvalues --    6.72353   6.73123   6.73891   6.75405   6.80281
 Alpha virt. eigenvalues --    6.81231   6.83499   6.85068   6.86794   6.88526
 Alpha virt. eigenvalues --    6.89561   6.95487   6.97246   6.99764   7.00931
 Alpha virt. eigenvalues --    7.01801   7.02929   7.05969   7.09194   7.10943
 Alpha virt. eigenvalues --    7.12593   7.16003   7.18694   7.23966   7.31143
 Alpha virt. eigenvalues --    7.34854   7.47226   7.51034   7.53413   7.58382
 Alpha virt. eigenvalues --    7.59869   7.61966   7.63817   7.74587   7.83979
 Alpha virt. eigenvalues --   12.76240  23.34270  23.39435  23.43290  23.46211
 Alpha virt. eigenvalues --   43.86220  43.95793  44.12839  44.21649  44.26833
 Alpha virt. eigenvalues --   44.28790
          Condensed to atoms (all electrons):
               1          2          3          4          5          6
     1  Si  11.653786   0.425859   0.051913  -0.001817   0.623608  -0.005837
     2  O    0.425859   7.889349  -0.009592   0.001824  -0.016819  -0.000060
     3  O    0.051913  -0.009592   7.732984   0.319582  -0.031197   0.327682
     4  H   -0.001817   0.001824   0.319582   0.515989   0.001407  -0.024698
     5  O    0.623608  -0.016819  -0.031197   0.001407   8.112745   0.029836
     6  H   -0.005837  -0.000060   0.327682  -0.024698   0.029836   0.445279
     7  O    0.385967  -0.010679  -0.003182   0.000264  -0.020473   0.000478
     8  C   -0.024047   0.000619   0.000109  -0.000001  -0.005495   0.000012
     9  H   -0.007463   0.000412  -0.000004   0.000000  -0.000012   0.000002
    10  H    0.001238  -0.000109   0.000001  -0.000000  -0.000084  -0.000001
    11  C    0.017640  -0.000459  -0.000062   0.000002   0.008038  -0.000016
    12  H   -0.010175  -0.000077   0.000022  -0.000000   0.000176   0.000056
    13  H    0.001365   0.000000  -0.000001   0.000000   0.000228   0.000001
    14  O    0.228356  -0.019665  -0.000109   0.000024  -0.029312   0.000223
    15  H   -0.018213   0.000897   0.000098  -0.000017   0.005649  -0.000159
    16  O   -0.009178   0.000018  -0.000006   0.000002  -0.032339   0.000024
    17  H    0.000849   0.000212   0.000068  -0.000006   0.050588   0.000053
    18  C   -0.044047  -0.048596  -0.021456   0.000768  -0.001845   0.002243
    19  H    0.002550   0.004142   0.000183  -0.000026  -0.000041  -0.000044
    20  H   -0.004656   0.003351   0.010859  -0.000949   0.000003  -0.000955
    21  C   -0.025489   0.247365   0.011338  -0.000339   0.000058  -0.001222
    22  H    0.000086  -0.033051  -0.000310  -0.000035   0.000006   0.000113
    23  H   -0.010481  -0.040256   0.000110   0.000029  -0.000153  -0.000044
               7          8          9         10         11         12
     1  Si   0.385967  -0.024047  -0.007463   0.001238   0.017640  -0.010175
     2  O   -0.010679   0.000619   0.000412  -0.000109  -0.000459  -0.000077
     3  O   -0.003182   0.000109  -0.000004   0.000001  -0.000062   0.000022
     4  H    0.000264  -0.000001   0.000000  -0.000000   0.000002  -0.000000
     5  O   -0.020473  -0.005495  -0.000012  -0.000084   0.008038   0.000176
     6  H    0.000478   0.000012   0.000002  -0.000001  -0.000016   0.000056
     7  O    7.915234   0.006968   0.009393   0.000783  -0.012209   0.005809
     8  C    0.006968   4.952539   0.412202   0.412372   0.255320  -0.051090
     9  H    0.009393   0.412202   0.534128  -0.016934  -0.023959  -0.002158
    10  H    0.000783   0.412372  -0.016934   0.543053  -0.027001   0.006575
    11  C   -0.012209   0.255320  -0.023959  -0.027001   4.703863   0.438898
    12  H    0.005809  -0.051090  -0.002158   0.006575   0.438898   0.583727
    13  H   -0.000013  -0.041751   0.004268  -0.008770   0.422791  -0.026362
    14  O   -0.017834   0.195536  -0.024771  -0.029678  -0.034443  -0.000119
    15  H    0.001138  -0.028228   0.007439  -0.003831  -0.011463   0.002946
    16  O    0.000185  -0.065694   0.004502   0.003866   0.256772  -0.037884
    17  H    0.000461   0.004076  -0.000683  -0.000748  -0.032107  -0.012147
    18  C    0.262638   0.000679  -0.000722   0.000076  -0.000622   0.000298
    19  H   -0.034912   0.000263  -0.000682  -0.000028   0.000107  -0.000084
    20  H   -0.035313   0.000006   0.000138   0.000004  -0.000004  -0.000034
    21  C   -0.061304   0.000151  -0.000251   0.000184  -0.000121   0.000271
    22  H    0.003595  -0.000051   0.000021  -0.000003   0.000004  -0.000004
    23  H    0.005267   0.000184   0.000150   0.000038   0.000169  -0.000015
              13         14         15         16         17         18
     1  Si   0.001365   0.228356  -0.018213  -0.009178   0.000849  -0.044047
     2  O    0.000000  -0.019665   0.000897   0.000018   0.000212  -0.048596
     3  O   -0.000001  -0.000109   0.000098  -0.000006   0.000068  -0.021456
     4  H    0.000000   0.000024  -0.000017   0.000002  -0.000006   0.000768
     5  O    0.000228  -0.029312   0.005649  -0.032339   0.050588  -0.001845
     6  H    0.000001   0.000223  -0.000159   0.000024   0.000053   0.002243
     7  O   -0.000013  -0.017834   0.001138   0.000185   0.000461   0.262638
     8  C   -0.041751   0.195536  -0.028228  -0.065694   0.004076   0.000679
     9  H    0.004268  -0.024771   0.007439   0.004502  -0.000683  -0.000722
    10  H   -0.008770  -0.029678  -0.003831   0.003866  -0.000748   0.000076
    11  C    0.422791  -0.034443  -0.011463   0.256772  -0.032107  -0.000622
    12  H   -0.026362  -0.000119   0.002946  -0.037884  -0.012147   0.000298
    13  H    0.585127   0.003130   0.000578  -0.027029   0.004169  -0.000022
    14  O    0.003130   7.548614   0.318598  -0.009748   0.000576   0.001842
    15  H    0.000578   0.318598   0.486722   0.044775  -0.003343  -0.000132
    16  O   -0.027029  -0.009748   0.044775   7.952799   0.333173   0.000055
    17  H    0.004169   0.000576  -0.003343   0.333173   0.411620   0.000005
    18  C   -0.000022   0.001842  -0.000132   0.000055   0.000005   4.737879
    19  H   -0.000002  -0.000056   0.000027  -0.000000   0.000000   0.402529
    20  H    0.000001  -0.000038  -0.000006  -0.000000   0.000002   0.436607
    21  C   -0.000001   0.002144   0.000801   0.000035   0.000026   0.281066
    22  H   -0.000000  -0.000144   0.000001   0.000000  -0.000000  -0.018759
    23  H    0.000002   0.002978  -0.000025  -0.000002   0.000004  -0.041406
              19         20         21         22         23
     1  Si   0.002550  -0.004656  -0.025489   0.000086  -0.010481
     2  O    0.004142   0.003351   0.247365  -0.033051  -0.040256
     3  O    0.000183   0.010859   0.011338  -0.000310   0.000110
     4  H   -0.000026  -0.000949  -0.000339  -0.000035   0.000029
     5  O   -0.000041   0.000003   0.000058   0.000006  -0.000153
     6  H   -0.000044  -0.000955  -0.001222   0.000113  -0.000044
     7  O   -0.034912  -0.035313  -0.061304   0.003595   0.005267
     8  C    0.000263   0.000006   0.000151  -0.000051   0.000184
     9  H   -0.000682   0.000138  -0.000251   0.000021   0.000150
    10  H   -0.000028   0.000004   0.000184  -0.000003   0.000038
    11  C    0.000107  -0.000004  -0.000121   0.000004   0.000169
    12  H   -0.000084  -0.000034   0.000271  -0.000004  -0.000015
    13  H   -0.000002   0.000001  -0.000001  -0.000000   0.000002
    14  O   -0.000056  -0.000038   0.002144  -0.000144   0.002978
    15  H    0.000027  -0.000006   0.000801   0.000001  -0.000025
    16  O   -0.000000  -0.000000   0.000035   0.000000  -0.000002
    17  H    0.000000   0.000002   0.000026  -0.000000   0.000004
    18  C    0.402529   0.436607   0.281066  -0.018759  -0.041406
    19  H    0.618891  -0.038472  -0.020226   0.005031  -0.012246
    20  H   -0.038472   0.581105  -0.039173  -0.009001   0.008655
    21  C   -0.020226  -0.039173   4.741783   0.410192   0.428169
    22  H    0.005031  -0.009001   0.410192   0.601211  -0.038775
    23  H   -0.012246   0.008655   0.428169  -0.038775   0.626920
 Mulliken charges:
               1
     1  Si   0.768185
     2  O   -0.394684
     3  O   -0.389030
     4  H    0.187997
     5  O   -0.694572
     6  H    0.227033
     7  O   -0.402262
     8  C   -0.024678
     9  H    0.104983
    10  H    0.118997
    11  C    0.038860
    12  H    0.101371
    13  H    0.082291
    14  O   -0.136104
    15  H    0.195747
    16  O   -0.414323
    17  H    0.243152
    18  C    0.050922
    19  H    0.073099
    20  H    0.087870
    21  C    0.024546
    22  H    0.079872
    23  H    0.070728
 Sum of Mulliken charges =  -0.00000
 Mulliken charges with hydrogens summed into heavy atoms:
               1
     1  Si   0.768185
     2  O   -0.394684
     3  O    0.026000
     5  O   -0.694572
     7  O   -0.402262
     8  C    0.199302
    11  C    0.222522
    14  O    0.059643
    16  O   -0.171171
    18  C    0.211890
    21  C    0.175146
 Electronic spatial extent (au):  <R**2>=           2055.5032
 Charge=              0.0000 electrons
 Dipole moment (field-independent basis, Debye):
    X=             -0.2954    Y=             -5.2075    Z=             -0.2480  Tot=              5.2218
 Quadrupole moment (field-independent basis, Debye-Ang):
   XX=            -67.1807   YY=            -72.1354   ZZ=            -73.2831
   XY=              3.5135   XZ=             -3.7985   YZ=             -2.6897
 Traceless Quadrupole moment (field-independent basis, Debye-Ang):
   XX=              3.6857   YY=             -1.2690   ZZ=             -2.4168
   XY=              3.5135   XZ=             -3.7985   YZ=             -2.6897
 Octapole moment (field-independent basis, Debye-Ang**2):
  XXX=             28.1258  YYY=             -5.8001  ZZZ=             -5.6738  XYY=              5.0907
  XXY=            -26.5548  XXZ=             -0.0728  XZZ=            -11.5260  YZZ=             -0.0560
  YYZ=             -4.6802  XYZ=            -12.2148
 Hexadecapole moment (field-independent basis, Debye-Ang**3):
 XXXX=          -1549.9225 YYYY=           -659.2597 ZZZZ=           -313.4225 XXXY=             67.3177
 XXXZ=            -54.8893 YYYX=             11.2923 YYYZ=            -17.7058 ZZZX=             16.3173
 ZZZY=             -0.9728 XXYY=           -357.0177 XXZZ=           -303.1959 YYZZ=           -165.5803
 XXYZ=            -23.8437 YYXZ=            -23.2324 ZZXY=             -1.8857
 N-N= 8.677046804177D+02 E-N=-3.863345022767D+03  KE= 8.974836112794D+02
   1 Symmetry operations used in ECPInt.
 ECPInt:  NShTT=   19306 NPrTT=   52617 LenC2=   18185 LenP2D=   38323.
 LDataN:  DoStor=T MaxTD1= 7 Len=  274
 Calling FoFJK, ICntrl=      2127 FMM=F ISym2X=0 I1Cent= 0 IOpClX= 0 NMat=1 NMatS=1 NMatT=0.
 ***** Axes restored to original set *****
 -------------------------------------------------------------------
 Center     Atomic                   Forces (Hartrees/Bohr)
 Number     Number              X              Y              Z
 -------------------------------------------------------------------
      1       14          -0.000175665   -0.000833945   -0.000203082
      2        8          -0.000043128   -0.000440784   -0.000128087
      3        8           0.001674576    0.000493371    0.000870697
      4        1           0.000112030    0.000045400   -0.000063496
      5        8           0.000178690   -0.000387266    0.000038331
      6        1          -0.001444834    0.000323346   -0.000286875
      7        8          -0.000270070   -0.000396268   -0.000268237
      8        6          -0.000336471    0.000055050    0.000092875
      9        1          -0.000021660   -0.000006540    0.000012633
     10        1          -0.000012650    0.000000490    0.000003807
     11        6          -0.000149932    0.000234081    0.000027748
     12        1           0.000020268    0.000026392   -0.000006981
     13        1           0.000002770    0.000002955    0.000005492
     14        8          -0.000478626   -0.000241212   -0.000077126
     15        1          -0.000059428    0.000027971    0.000000830
     16        8           0.000092657    0.000295135   -0.000077853
     17        1          -0.000017239   -0.000000598    0.000021252
     18        6           0.000133871    0.000163090   -0.000264700
     19        1           0.000084760   -0.000263098    0.000139261
     20        1           0.000237092    0.000312018    0.000167127
     21        6           0.000706335    0.000192439   -0.000191129
     22        1          -0.000362626   -0.000029464    0.000057634
     23        1           0.000129280    0.000427438    0.000129879
 -------------------------------------------------------------------
 Cartesian Forces:  Max     0.001674576 RMS     0.000370771

 GradGradGradGradGradGradGradGradGradGradGradGradGradGradGradGradGradGrad
 Berny optimization.
 FormGI is forming the generalized inverse of G from B-inverse, IUseBI=4.
 Internal  Forces:  Max     0.004042665 RMS     0.000577370
 Search for a local minimum.
 Step number   1 out of a maximum of  122
 All quantities printed in internal units (Hartrees-Bohrs-Radians)
 Mixed Optimization -- En-DIIS/RFO-DIIS
 Second derivative matrix not updated -- first step.
 ITU=  0
     Eigenvalues ---    0.00230   0.00382   0.00412   0.00792   0.00901
     Eigenvalues ---    0.01468   0.01645   0.02860   0.02903   0.04307
     Eigenvalues ---    0.04728   0.04828   0.04919   0.05167   0.05197
     Eigenvalues ---    0.05204   0.05702   0.05999   0.06082   0.07728
     Eigenvalues ---    0.09193   0.10408   0.11180   0.11235   0.11286
     Eigenvalues ---    0.11301   0.11329   0.12304   0.12366   0.13783
     Eigenvalues ---    0.15666   0.16000   0.16000   0.16000   0.16250
     Eigenvalues ---    0.19639   0.20071   0.21987   0.22025   0.22148
     Eigenvalues ---    0.24013   0.25000   0.27526   0.29725   0.34276
     Eigenvalues ---    0.34450   0.34683   0.34763   0.34825   0.34911
     Eigenvalues ---    0.35003   0.35356   0.36997   0.39213   0.39668
     Eigenvalues ---    0.42585   0.43860   0.45042   0.51415   0.52964
     Eigenvalues ---    0.54036   0.56220   0.65512
 RFO step:  Lambda=-4.87830468D-04 EMin= 2.30000000D-03
 Linear search not attempted -- first point.
 Iteration  1 RMS(Cart)=  0.07623322 RMS(Int)=  0.00133556
 Iteration  2 RMS(Cart)=  0.00236913 RMS(Int)=  0.00000988
 Iteration  3 RMS(Cart)=  0.00000126 RMS(Int)=  0.00000985
 Iteration  4 RMS(Cart)=  0.00000000 RMS(Int)=  0.00000985
 Variable       Old X    -DE/DX   Delta X   Delta X   Delta X     New X
                                 (Linear)    (Quad)   (Total)
    R1        3.09317   0.00029   0.00000   0.00058   0.00058   3.09376
    R2        2.90528   0.00013   0.00000   0.00020   0.00020   2.90548
    R3        3.10038   0.00008   0.00000  -0.00003  -0.00003   3.10036
    R4        3.58886   0.00043   0.00000   0.00218   0.00218   3.59104
    R5        2.69189  -0.00034   0.00000  -0.00065  -0.00065   2.69124
    R6        1.80764   0.00012   0.00000   0.00022   0.00022   1.80785
    R7        1.82699   0.00175   0.00000   0.00324   0.00324   1.83023
    R8        3.77931   0.00087   0.00000   0.01991   0.01991   3.79922
    R9        2.69379   0.00051   0.00000   0.00115   0.00115   2.69494
   R10        2.05100   0.00000   0.00000   0.00001   0.00001   2.05101
   R11        2.05670   0.00001   0.00000   0.00001   0.00001   2.05672
   R12        2.88516   0.00042   0.00000   0.00142   0.00142   2.88659
   R13        2.75851   0.00010   0.00000   0.00028   0.00028   2.75879
   R14        2.06577   0.00002   0.00000   0.00005   0.00005   2.06582
   R15        2.06193  -0.00000   0.00000  -0.00000  -0.00000   2.06193
   R16        2.65227   0.00022   0.00000   0.00050   0.00050   2.65277
   R17        1.83687   0.00005   0.00000   0.00009   0.00009   1.83696
   R18        1.85164  -0.00002   0.00000  -0.00003  -0.00003   1.85161
   R19        2.05819   0.00030   0.00000   0.00086   0.00086   2.05906
   R20        2.06061   0.00042   0.00000   0.00122   0.00122   2.06183
   R21        2.90588  -0.00006   0.00000   0.00009   0.00009   2.90598
   R22        2.05961  -0.00037   0.00000  -0.00105  -0.00105   2.05855
   R23        2.06867  -0.00046   0.00000  -0.00135  -0.00135   2.06732
    A1        2.19945   0.00001   0.00000  -0.00010  -0.00009   2.19936
    A2        1.72925  -0.00023   0.00000  -0.00039  -0.00041   1.72884
    A3        1.74637   0.00134   0.00000   0.00773   0.00773   1.75411
    A4        2.22159   0.00024   0.00000   0.00096   0.00096   2.22255
    A5        1.73996  -0.00161   0.00000  -0.00897  -0.00897   1.73099
    A6        1.69720   0.00066   0.00000   0.00280   0.00279   1.69999
    A7        1.89759   0.00040   0.00000   0.00208   0.00206   1.89965
    A8        1.82105   0.00009   0.00000   0.00056   0.00056   1.82161
    A9        1.54071   0.00404   0.00000   0.02519   0.02519   1.56590
   A10        2.40976   0.00188   0.00000   0.00752   0.00752   2.41728
   A11        1.89716  -0.00007   0.00000  -0.00090  -0.00091   1.89625
   A12        1.92925  -0.00009   0.00000   0.00048   0.00048   1.92972
   A13        1.97386   0.00010   0.00000   0.00044   0.00044   1.97430
   A14        1.85784   0.00031   0.00000   0.00161   0.00161   1.85945
   A15        1.95485   0.00019   0.00000   0.00077   0.00077   1.95562
   A16        1.84558   0.00016   0.00000  -0.00005  -0.00005   1.84553
   A17        1.89488  -0.00068   0.00000  -0.00335  -0.00335   1.89153
   A18        1.91694  -0.00005   0.00000  -0.00065  -0.00065   1.91630
   A19        1.89884  -0.00003   0.00000   0.00037   0.00036   1.89921
   A20        1.91360   0.00017   0.00000   0.00078   0.00078   1.91438
   A21        1.88674   0.00002   0.00000  -0.00003  -0.00002   1.88671
   A22        1.93886  -0.00013   0.00000  -0.00143  -0.00143   1.93743
   A23        1.90823   0.00002   0.00000   0.00099   0.00099   1.90922
   A24        2.05828  -0.00069   0.00000  -0.00479  -0.00482   2.05346
   A25        1.79581   0.00017   0.00000  -0.00438  -0.00445   1.79136
   A26        1.81462  -0.00029   0.00000  -0.00878  -0.00883   1.80578
   A27        1.85160  -0.00001   0.00000  -0.00009  -0.00009   1.85151
   A28        1.90603   0.00005   0.00000   0.00066   0.00066   1.90670
   A29        1.89505  -0.00011   0.00000  -0.00075  -0.00074   1.89431
   A30        1.86582   0.00012   0.00000   0.00055   0.00054   1.86637
   A31        1.91107   0.00001   0.00000  -0.00010  -0.00010   1.91097
   A32        1.94875  -0.00003   0.00000  -0.00021  -0.00021   1.94854
   A33        1.93573  -0.00003   0.00000  -0.00015  -0.00014   1.93558
   A34        1.87192  -0.00015   0.00000  -0.00007  -0.00008   1.87184
   A35        1.90464   0.00007   0.00000   0.00025   0.00026   1.90490
   A36        1.90414  -0.00001   0.00000  -0.00078  -0.00077   1.90337
   A37        1.94782   0.00010   0.00000   0.00093   0.00094   1.94875
   A38        1.93716   0.00002   0.00000  -0.00042  -0.00042   1.93674
   A39        1.89749  -0.00002   0.00000   0.00005   0.00005   1.89754
    D1        2.80344  -0.00000   0.00000  -0.00850  -0.00851   2.79493
    D2        0.16784  -0.00010   0.00000  -0.00961  -0.00961   0.15823
    D3       -1.56162  -0.00099   0.00000  -0.01389  -0.01389  -1.57551
    D4       -1.25429  -0.00024   0.00000  -0.00697  -0.00697  -1.26125
    D5        1.24185  -0.00027   0.00000  -0.00607  -0.00608   1.23578
    D6        3.10771  -0.00067   0.00000  -0.00959  -0.00959   3.09812
    D7        0.18167   0.00004   0.00000   0.00825   0.00825   0.18992
    D8       -2.44470   0.00004   0.00000   0.00758   0.00757  -2.43713
    D9        1.95242   0.00151   0.00000   0.01665   0.01664   1.96906
   D10        2.52597   0.00076   0.00000   0.10203   0.10204   2.62801
   D11       -1.77309   0.00019   0.00000   0.08593   0.08595  -1.68714
   D12       -1.49687   0.00066   0.00000   0.10144   0.10142  -1.39545
   D13        0.48725   0.00009   0.00000   0.08534   0.08534   0.57259
   D14        0.77004   0.00064   0.00000   0.10061   0.10060   0.87064
   D15        2.75416   0.00007   0.00000   0.08451   0.08451   2.83867
   D16       -0.43703   0.00011   0.00000   0.00791   0.00791  -0.42912
   D17       -2.54969   0.00005   0.00000   0.00668   0.00668  -2.54301
   D18        1.66255   0.00004   0.00000   0.00693   0.00693   1.66948
   D19        1.56972   0.00006   0.00000   0.00428   0.00428   1.57400
   D20        0.13132  -0.00008   0.00000  -0.02977  -0.02977   0.10155
   D21       -2.55587  -0.00006   0.00000  -0.00493  -0.00493  -2.56080
   D22        1.64449  -0.00004   0.00000  -0.00475  -0.00475   1.63974
   D23       -0.44489  -0.00000   0.00000  -0.00448  -0.00448  -0.44938
   D24        0.64835  -0.00006   0.00000  -0.01022  -0.01022   0.63813
   D25       -1.41362  -0.00004   0.00000  -0.01003  -0.01003  -1.42365
   D26        2.78347  -0.00015   0.00000  -0.01191  -0.01191   2.77156
   D27        2.84239   0.00005   0.00000  -0.00859  -0.00859   2.83380
   D28        0.78042   0.00007   0.00000  -0.00840  -0.00840   0.77202
   D29       -1.30567  -0.00004   0.00000  -0.01028  -0.01028  -1.31595
   D30       -1.40939  -0.00006   0.00000  -0.01027  -0.01027  -1.41967
   D31        2.81182  -0.00004   0.00000  -0.01008  -0.01008   2.80174
   D32        0.72573  -0.00015   0.00000  -0.01197  -0.01197   0.71376
   D33       -1.10013  -0.00015   0.00000  -0.01128  -0.01126  -1.11139
   D34       -3.07386   0.00018   0.00000   0.00252   0.00250  -3.07136
   D35        3.13058  -0.00027   0.00000  -0.01256  -0.01254   3.11804
   D36        1.15684   0.00006   0.00000   0.00123   0.00122   1.15806
   D37        1.02997  -0.00022   0.00000  -0.01168  -0.01167   1.01830
   D38       -0.94377   0.00011   0.00000   0.00211   0.00209  -0.94167
   D39       -1.55682   0.00003   0.00000   0.00017   0.00017  -1.55665
   D40        0.56520  -0.00001   0.00000  -0.00106  -0.00106   0.56413
   D41        2.64604  -0.00005   0.00000  -0.00134  -0.00135   2.64470
   D42        0.56627  -0.00014   0.00000  -0.00236  -0.00236   0.56390
   D43        2.65146  -0.00009   0.00000  -0.00155  -0.00155   2.64990
   D44       -1.51219  -0.00004   0.00000  -0.00114  -0.00114  -1.51333
   D45        2.64986  -0.00002   0.00000  -0.00133  -0.00133   2.64853
   D46       -1.54813   0.00002   0.00000  -0.00052  -0.00053  -1.54866
   D47        0.57141   0.00008   0.00000  -0.00011  -0.00011   0.57130
   D48       -1.49673  -0.00005   0.00000  -0.00172  -0.00171  -1.49844
   D49        0.58846  -0.00001   0.00000  -0.00091  -0.00091   0.58755
   D50        2.70800   0.00005   0.00000  -0.00049  -0.00049   2.70751
         Item               Value     Threshold  Converged?
 Maximum Force            0.004043     0.000450     NO 
 RMS     Force            0.000577     0.000300     NO 
 Maximum Displacement     0.215008     0.001800     NO 
 RMS     Displacement     0.076111     0.001200     NO 
 Predicted change in Energy=-2.578039D-04
 GradGradGradGradGradGradGradGradGradGradGradGradGradGradGradGradGradGrad

                          Input orientation:                          
 ---------------------------------------------------------------------
 Center     Atomic      Atomic             Coordinates (Angstroms)
 Number     Number       Type             X           Y           Z
 ---------------------------------------------------------------------
      1         14           0        0.303249    0.215380   -0.184176
      2          8           0        1.552490   -0.141765   -1.180213
      3          8           0        1.973666    2.326268    0.820832
      4          1           0        2.459383    2.554542    0.028873
      5          8           0       -0.517977    1.515161   -0.194296
      6          1           0        1.048234    2.499211    0.593479
      7          8           0        0.755755   -0.665741    1.123706
      8          6           0       -2.018060   -1.472006    0.102037
      9          1           0       -1.482564   -2.050754    0.847876
     10          1           0       -2.680478   -2.113293   -0.476322
     11          6           0       -2.753745   -0.269596    0.690492
     12          1           0       -2.161471    0.167594    1.498657
     13          1           0       -3.702240   -0.608274    1.110265
     14          8           0       -1.017292   -0.982631   -0.841494
     15          1           0       -1.531556   -0.421403   -1.446055
     16          8           0       -3.001287    0.673795   -0.319133
     17          1           0       -2.218300    1.262540   -0.338418
     18          6           0        2.094483   -1.116864    0.928604
     19          1           0        2.215544   -2.094421    1.394401
     20          1           0        2.772950   -0.403186    1.398487
     21          6           0        2.329373   -1.179123   -0.589851
     22          1           0        3.378383   -1.026811   -0.840931
     23          1           0        2.007223   -2.142210   -0.996634
 ---------------------------------------------------------------------
                    Distance matrix (angstroms):
                    1          2          3          4          5
     1  Si   0.000000
     2  O    1.637146   0.000000
     3  O    2.873358   3.205114   0.000000
     4  H    3.188414   3.091022   0.956675   0.000000
     5  O    1.537512   2.829182   2.810100   3.161454   0.000000
     6  H    2.525002   3.221027   0.968516   1.520915   2.010462
     7  O    1.640638   2.493467   3.244558   3.804107   2.848834
     8  C    2.884036   4.020265   5.556746   6.022121   3.355775
     9  H    3.064249   4.119337   5.577148   6.117063   3.838267
    10  H    3.796141   4.722330   6.561506   6.961471   4.233394
    11  C    3.216435   4.696758   5.394804   5.965752   2.994472
    12  H    2.984804   4.589723   4.713670   5.404635   2.717186
    13  H    4.289280   5.751183   6.396188   7.009879   4.043561
    14  O    1.900296   2.724989   4.760039   5.035514   2.628145
    15  H    2.316104   3.108087   4.997504   5.192230   2.518833
    16  O    3.338909   4.705686   5.364731   5.785951   2.624939
    17  H    2.734692   4.110905   4.477494   4.866712   1.725017
    18  C    2.494328   2.385725   3.446936   3.797617   3.874713
    19  H    3.388799   3.298658   4.464300   4.851493   4.798456
    20  H    2.997811   2.864884   2.902148   3.274496   4.128827
    21  C    2.492868   1.424144   3.795302   3.786816   3.939928
    22  H    3.380949   2.057257   3.997227   3.798317   4.696954
    23  H    3.020240   2.059676   4.824065   4.828623   4.516276
                    6          7          8          9         10
     6  H    0.000000
     7  O    3.222359   0.000000
     8  C    5.041253   3.063971   0.000000
     9  H    5.212661   2.646586   1.085348   0.000000
    10  H    6.026853   4.057486   1.088368   1.786731   0.000000
    11  C    4.704332   3.558257   1.527515   2.193899   2.183126
    12  H    4.069151   3.056999   2.158565   2.409460   3.061430
    13  H    5.700046   4.458386   2.144533   2.660180   2.413781
    14  O    4.295203   2.665732   1.459889   2.052154   2.043999
    15  H    4.398295   3.448936   1.933143   2.814126   2.263381
    16  O    4.534712   4.241639   2.397621   3.330405   2.809891
    17  H    3.614972   3.834198   2.777021   3.595347   3.410114
    18  C    3.779278   1.426103   4.209791   3.697828   5.076114
    19  H    4.806822   2.060434   4.470012   3.738530   5.241278
    20  H    3.470820   2.052685   5.077099   4.596417   6.014919
    21  C    4.070838   2.382459   4.411877   4.166253   5.097467
    22  H    4.463178   3.296717   5.496270   5.246840   6.166294
    23  H    4.999091   2.870884   4.226009   3.948316   4.716578
                   11         12         13         14         15
    11  C    0.000000
    12  H    1.093185   0.000000
    13  H    1.091125   1.768272   0.000000
    14  O    2.422946   2.847538   3.340427   0.000000
    15  H    2.466095   3.068393   3.358803   0.972079   0.000000
    16  O    1.403783   2.065403   2.044068   2.636824   2.151632
    17  H    1.921666   2.139388   2.792975   2.595438   2.129352
    18  C    4.927461   4.481957   5.821826   3.582515   4.389855
    19  H    5.340347   4.928067   6.108153   4.084916   4.990785
    20  H    5.573460   4.968333   6.484845   4.440632   5.159508
    21  C    5.320207   5.132562   6.292584   3.361860   4.026661
    22  H    6.365659   6.131089   7.356464   4.395897   4.983994
    23  H    5.387012   5.379562   6.276142   3.242898   3.960570
                   16         17         18         19         20
    16  O    0.000000
    17  H    0.979827   0.000000
    18  C    5.543480   5.085961   0.000000
    19  H    6.149353   5.825017   1.089605   0.000000
    20  H    6.119797   5.541124   1.091075   1.780728   0.000000
    21  C    5.650002   5.167810   1.537776   2.188146   2.179983
    22  H    6.623029   6.067660   2.188096   2.736548   2.402176
    23  H    5.785678   5.466317   2.183000   2.400569   3.057310
                   21         22         23
    21  C    0.000000
    22  H    1.089340   0.000000
    23  H    1.093979   1.774384   0.000000
 Stoichiometry    C4H12O6Si
 Framework group  C1[X(C4H12O6Si)]
 Deg. of freedom    63
 Full point group                 C1      NOp   1
 Largest Abelian subgroup         C1      NOp   1
 Largest concise Abelian subgroup C1      NOp   1
                         Standard orientation:                         
 ---------------------------------------------------------------------
 Center     Atomic      Atomic             Coordinates (Angstroms)
 Number     Number       Type             X           Y           Z
 ---------------------------------------------------------------------
      1         14           0        0.310124    0.211323   -0.239155
      2          8           0        1.498870   -0.326114   -1.228241
      3          8           0        2.150087    2.287819    0.508431
      4          1           0        2.623251    2.404427   -0.314823
      5          8           0       -0.422538    1.558061   -0.355117
      6          1           0        1.231170    2.502031    0.289965
      7          8           0        0.746278   -0.569106    1.136487
      8          6           0       -2.107630   -1.275055    0.273490
      9          1           0       -1.587315   -1.815144    1.058063
     10          1           0       -2.830233   -1.921403   -0.221106
     11          6           0       -2.741514    0.026686    0.760278
     12          1           0       -2.094798    0.497392    1.505428
     13          1           0       -3.695940   -0.203184    1.236498
     14          8           0       -1.108504   -0.949623   -0.739977
     15          1           0       -1.604102   -0.414803   -1.382851
     16          8           0       -2.959175    0.883404   -0.330256
     17          1           0       -2.139775    1.411649   -0.428246
     18          6           0        2.044713   -1.128960    0.951020
     19          1           0        2.115830   -2.063166    1.507294
     20          1           0        2.784525   -0.422294    1.330157
     21          6           0        2.224155   -1.353330   -0.559680
     22          1           0        3.272023   -1.299256   -0.852441
     23          1           0        1.825153   -2.326354   -0.861032
 ---------------------------------------------------------------------
 Rotational constants (GHZ):           1.4612681           0.7155261           0.5906406
 Standard basis: def2TZVPP (5D, 7F)
 There are   588 symmetry adapted cartesian basis functions of A   symmetry.
 There are   520 symmetry adapted basis functions of A   symmetry.
   520 basis functions,   783 primitive gaussians,   588 cartesian basis functions
    49 alpha electrons       49 beta electrons
       nuclear repulsion energy       866.6394853991 Hartrees.
 NAtoms=   23 NActive=   23 NUniq=   23 SFac= 1.00D+00 NAtFMM=   60 NAOKFM=F Big=F
 Integral buffers will be    131072 words long.
 Raffenetti 2 integral format.
 Two-electron integral symmetry is turned on.
 Nuclear repulsion after empirical dispersion term =      866.6256659769 Hartrees.
 One-electron integrals computed using PRISM.
   1 Symmetry operations used in ECPInt.
 ECPInt:  NShTT=   19306 NPrTT=   52617 LenC2=   18169 LenP2D=   38254.
 LDataN:  DoStor=T MaxTD1= 6 Len=  172
 NBasis=   520 RedAO= T EigKep=  2.03D-04  NBF=   520
 NBsUse=   520 1.00D-06 EigRej= -1.00D+00 NBFU=   520
 Initial guess from the checkpoint file:  "IRC_potentialSN1likeCollapseQbiLWithLattacking_reverse_ProductOpt.chk"
 B after Tr=    -0.000000   -0.000000   -0.000000
         Rot=    0.999884    0.012333   -0.002399   -0.008658 Ang=   1.75 deg.
 ExpMin= 7.01D-02 ExpMax= 4.48D+04 ExpMxC= 1.53D+03 IAcc=3 IRadAn=         5 AccDes= 0.00D+00
 Harris functional with IExCor= 4639 and IRadAn=       5 diagonalized for initial guess.
 HarFok:  IExCor= 4639 AccDes= 0.00D+00 IRadAn=         5 IDoV= 1 UseB2=F ITyADJ=14
 ICtDFT=  3500011 ScaDFX=  1.000000  1.000000  1.000000  1.000000
 FoFCou: FMM=F IPFlag=           0 FMFlag=      100000 FMFlg1=           0
         NFxFlg=           0 DoJE=T BraDBF=F KetDBF=T FulRan=T
         wScrn=  0.000000 ICntrl=       500 IOpCl=  0 I1Cent=   200000004 NGrid=           0
         NMat0=    1 NMatS0=      1 NMatT0=    0 NMatD0=    1 NMtDS0=    0 NMtDT0=    0
 Petite list used in FoFCou.
 Requested convergence on RMS density matrix=1.00D-08 within 128 cycles.
 Requested convergence on MAX density matrix=1.00D-06.
 Requested convergence on             energy=1.00D-06.
 No special actions if energy rises.
 Integral accuracy reduced to 1.0D-05 until final iterations.
 Initial convergence to 1.0D-05 achieved.  Increase integral accuracy.
 SCF Done:  E(RwB97XD) =  -900.694986759     A.U. after   11 cycles
            NFock= 11  Conv=0.78D-08     -V/T= 2.0036
   1 Symmetry operations used in ECPInt.
 ECPInt:  NShTT=   19306 NPrTT=   52617 LenC2=   18169 LenP2D=   38254.
 LDataN:  DoStor=T MaxTD1= 7 Len=  274
 Calling FoFJK, ICntrl=      2127 FMM=F ISym2X=0 I1Cent= 0 IOpClX= 0 NMat=1 NMatS=1 NMatT=0.
 ***** Axes restored to original set *****
 -------------------------------------------------------------------
 Center     Atomic                   Forces (Hartrees/Bohr)
 Number     Number              X              Y              Z
 -------------------------------------------------------------------
      1       14          -0.001204424   -0.002437449    0.000513369
      2        8          -0.000890047    0.000939486    0.000242602
      3        8          -0.000137134    0.000299578   -0.000215913
      4        1          -0.000056129    0.000266103    0.000063283
      5        8           0.005653740    0.002744277   -0.000783393
      6        1           0.000367950   -0.000716972    0.000124386
      7        8          -0.000254614    0.000332302   -0.000709724
      8        6          -0.000457287    0.000654524    0.000725511
      9        1           0.000247687   -0.000245836   -0.000057586
     10        1           0.000156887   -0.000074923    0.000023115
     11        6          -0.000914689    0.001573689   -0.000547823
     12        1          -0.000268888    0.000033186   -0.000112989
     13        1          -0.000084655   -0.000154397   -0.000044256
     14        8           0.001128320   -0.000457600   -0.000934089
     15        1          -0.000535982    0.000208889   -0.000296840
     16        8          -0.005718405   -0.003841193   -0.000396990
     17        1           0.002291306    0.000530110    0.002026383
     18        6           0.000247911    0.000268269   -0.000012530
     19        1          -0.000053258    0.000119796   -0.000000542
     20        1           0.000077537    0.000013125    0.000082586
     21        6           0.000442519   -0.000316880    0.000251466
     22        1          -0.000042642    0.000104791    0.000050889
     23        1           0.000004298    0.000157126    0.000009084
 -------------------------------------------------------------------
 Cartesian Forces:  Max     0.005718405 RMS     0.001300585

 GradGradGradGradGradGradGradGradGradGradGradGradGradGradGradGradGradGrad
 Berny optimization.
 Using GEDIIS/GDIIS optimizer.
 FormGI is forming the generalized inverse of G from B-inverse, IUseBI=4.
 Internal  Forces:  Max     0.011733280 RMS     0.002221830
 Search for a local minimum.
 Step number   2 out of a maximum of  122
 All quantities printed in internal units (Hartrees-Bohrs-Radians)
 Mixed Optimization -- RFO/linear search
 Update second derivatives using D2CorX and points    2    1
 DE=  2.44D-04 DEPred=-2.58D-04 R=-9.45D-01
 Trust test=-9.45D-01 RLast= 2.40D-01 DXMaxT set to 1.50D-01
 ITU= -1  0
 Use linear search instead of GDIIS.
     Eigenvalues ---    0.00231   0.00311   0.00487   0.00791   0.01251
     Eigenvalues ---    0.01468   0.01651   0.02660   0.03621   0.04075
     Eigenvalues ---    0.04772   0.04812   0.04859   0.05095   0.05199
     Eigenvalues ---    0.05604   0.05700   0.05998   0.06081   0.07996
     Eigenvalues ---    0.09193   0.10408   0.10932   0.11237   0.11298
     Eigenvalues ---    0.11332   0.11418   0.12061   0.12565   0.12887
     Eigenvalues ---    0.13790   0.15731   0.16000   0.16108   0.16530
     Eigenvalues ---    0.19578   0.20331   0.22011   0.22112   0.23357
     Eigenvalues ---    0.24530   0.27522   0.29670   0.34238   0.34446
     Eigenvalues ---    0.34682   0.34726   0.34810   0.34899   0.35002
     Eigenvalues ---    0.35350   0.35833   0.39151   0.39579   0.42492
     Eigenvalues ---    0.43787   0.44348   0.50706   0.52908   0.53255
     Eigenvalues ---    0.56216   0.63287   0.66713
 RFO step:  Lambda=-6.65401464D-04 EMin= 2.30762510D-03
 Quartic linear search produced a step of -0.65098.
 Iteration  1 RMS(Cart)=  0.07337689 RMS(Int)=  0.00119456
 Iteration  2 RMS(Cart)=  0.00215402 RMS(Int)=  0.00001472
 Iteration  3 RMS(Cart)=  0.00000251 RMS(Int)=  0.00001463
 Iteration  4 RMS(Cart)=  0.00000000 RMS(Int)=  0.00001463
 Variable       Old X    -DE/DX   Delta X   Delta X   Delta X     New X
                                 (Linear)    (Quad)   (Total)
    R1        3.09376  -0.00099  -0.00038   0.00055   0.00017   3.09393
    R2        2.90548  -0.00092  -0.00013  -0.00007  -0.00020   2.90528
    R3        3.10036  -0.00090   0.00002  -0.00059  -0.00057   3.09979
    R4        3.59104   0.00387  -0.00142   0.01058   0.00916   3.60020
    R5        2.69124   0.00038   0.00042  -0.00103  -0.00061   2.69064
    R6        1.80785  -0.00002  -0.00014   0.00041   0.00027   1.80812
    R7        1.83023  -0.00032  -0.00211   0.00607   0.00396   1.83419
    R8        3.79922   0.00005  -0.01296   0.03882   0.02586   3.82508
    R9        2.69494   0.00021  -0.00075   0.00230   0.00155   2.69649
   R10        2.05101   0.00021  -0.00000   0.00021   0.00020   2.05121
   R11        2.05672  -0.00006  -0.00001  -0.00003  -0.00004   2.05668
   R12        2.88659   0.00116  -0.00093   0.00402   0.00309   2.88968
   R13        2.75879   0.00480  -0.00018   0.00474   0.00456   2.76335
   R14        2.06582  -0.00022  -0.00003  -0.00011  -0.00014   2.06568
   R15        2.06193   0.00010   0.00000   0.00009   0.00010   2.06202
   R16        2.65277  -0.00279  -0.00032  -0.00105  -0.00137   2.65140
   R17        1.83696   0.00059  -0.00006   0.00053   0.00048   1.83744
   R18        1.85161   0.00211   0.00002   0.00127   0.00129   1.85290
   R19        2.05906  -0.00011  -0.00056   0.00156   0.00100   2.06006
   R20        2.06183   0.00009  -0.00079   0.00244   0.00165   2.06348
   R21        2.90598   0.00003  -0.00006  -0.00001  -0.00007   2.90590
   R22        2.05855  -0.00004   0.00068  -0.00207  -0.00139   2.05717
   R23        2.06732  -0.00014   0.00088  -0.00275  -0.00187   2.06545
    A1        2.19936  -0.00286   0.00006  -0.00705  -0.00701   2.19236
    A2        1.72884   0.00081   0.00027  -0.00095  -0.00070   1.72813
    A3        1.75411  -0.00204  -0.00503   0.01263   0.00761   1.76171
    A4        2.22255   0.00050  -0.00063   0.00275   0.00210   2.22465
    A5        1.73099   0.00585   0.00584  -0.00463   0.00122   1.73221
    A6        1.69999  -0.00219  -0.00182   0.00401   0.00220   1.70218
    A7        1.89965  -0.00037  -0.00134   0.00429   0.00294   1.90258
    A8        1.82161  -0.00015  -0.00036   0.00078   0.00041   1.82203
    A9        1.56590   0.00011  -0.01640   0.04890   0.03250   1.59840
   A10        2.41728   0.00096  -0.00489   0.01578   0.01088   2.42816
   A11        1.89625  -0.00040   0.00059  -0.00148  -0.00090   1.89536
   A12        1.92972   0.00145  -0.00031  -0.00252  -0.00284   1.92688
   A13        1.97430  -0.00076  -0.00029   0.00313   0.00281   1.97711
   A14        1.85945  -0.00507  -0.00105  -0.00234  -0.00345   1.85600
   A15        1.95562  -0.00434  -0.00050  -0.00788  -0.00837   1.94725
   A16        1.84553  -0.00289   0.00003  -0.00268  -0.00261   1.84292
   A17        1.89153   0.01173   0.00218   0.01265   0.01481   1.90635
   A18        1.91630   0.00036   0.00042   0.00212   0.00253   1.91883
   A19        1.89921  -0.00100  -0.00024  -0.00352  -0.00376   1.89545
   A20        1.91438   0.00141  -0.00051   0.00380   0.00328   1.91766
   A21        1.88671   0.00012   0.00002  -0.00054  -0.00052   1.88620
   A22        1.93743   0.00030   0.00093   0.00178   0.00270   1.94013
   A23        1.90922  -0.00125  -0.00064  -0.00386  -0.00450   1.90472
[...]
 904141,0.00081754,0.00485558,-0.00032652,0.00002881,0.00007808,0.00008
 551,-0.00011673,-0.00006563,-0.00416526,-0.00596572,0.00804241,0.00026
 435,0.00005610,0.00025056,-0.01470455,-0.00040970,-0.00593557,0.041157
 26,0.01916940,-0.11594088,0.02443114,0.00932504,-0.02023167,-0.0015851
 4,0.00106688,0.00671129,0.02765132,0.01465765,-0.02179121,-0.00126948,
 0.00046219,0.00093010,0.00166301,-0.00589822,-0.00129518,0.07555422,-0
 .18950173,0.35220787,-0.01483834,0.00356757,-0.01523043,0.00089001,-0.
 00130933,0.00133739,0.00051508,0.00028241,0.00026543,-0.00005443,-0.00
 010664,-0.00001038,-0.00066196,0.00447883,0.00427372,-0.00064032,-0.00
 036531,-0.00030684,-0.00077842,-0.00097110,-0.00043077,0.01722110,-0.0
 1468375,0.01762892,-0.00418122,-0.00113104,0.00392604,-0.00048974,-0.0
 0121919,0.00023693,-0.00013753,-0.00433726,0.00648234,-0.00019044,0.00
 052903,-0.00105204,-0.00012161,0.00075000,-0.00046070,-0.18103778,0.13
 913949,-0.14658746,0.17784059,-0.00374269,0.01704794,-0.00483014,-0.00
 071319,-0.00196531,0.00023850,0.00075769,0.00002559,0.00019331,-0.0000
 7929,0.00005483,0.00003130,0.00422979,-0.00247152,0.00328470,-0.000745
 82,-0.00038065,-0.00028985,-0.00313541,-0.00117007,-0.00262861,0.00099
 258,-0.00956330,0.01818578,-0.00159878,-0.00112897,-0.00013942,0.00037
 229,-0.00055116,-0.00038401,0.00082731,0.00444422,-0.00432674,0.000230
 62,-0.00068255,0.00062090,0.00002638,-0.00115818,0.00057469,0.12925187
 ,-0.18241181,0.16102204,-0.12386742,0.18582322,-0.01362965,0.00001917,
 -0.00404748,0.00100060,-0.00018205,-0.00095553,0.00065146,0.00021071,0
 .00017904,-0.00006146,-0.00003385,0.00004532,0.00313066,0.00421681,0.0
 0052541,-0.00069252,-0.00034849,-0.00027646,0.00012056,-0.00025678,0.0
 0025749,-0.00758488,0.02279730,-0.02314653,0.00375393,0.00122510,-0.00
 191737,-0.00055277,-0.00056461,0.00127363,-0.00104234,0.00031357,-0.00
 348161,0.00020646,0.00007038,-0.00005737,-0.00062423,0.00066629,0.0004
 7840,-0.12007761,0.14666306,-0.17048115,0.13887239,-0.17291447,0.20125
 069,0.00316145,-0.01089199,0.00084942,-0.00200660,0.00230060,0.0003431
 0,-0.00182479,-0.00121687,-0.00105257,0.00024257,0.00022354,-0.0000283
 8,-0.02722954,-0.00062503,-0.00174908,0.00134273,0.00154767,0.00117225
 ,-0.00131064,0.00177169,-0.00103084,-0.01092902,0.01752191,-0.00451279
 ,0.00000999,0.00235253,0.00164083,0.00007985,0.00063219,0.00035335,-0.
 09259838,-0.00937343,-0.01922251,-0.00021493,0.01632260,-0.01382538,0.
 01297584,-0.02204114,0.02044347,-0.00078439,0.01087727,-0.00628532,0.0
 0204446,-0.00406153,-0.00383581,0.40232937,-0.00261871,-0.01590899,-0.
 00034250,-0.00062201,0.00269246,-0.00004944,-0.00113054,-0.00023821,-0
 .00053090,0.00019052,-0.00001625,-0.00003724,-0.01743069,0.00842198,-0
 .00015975,0.00087487,0.00062538,0.00059350,0.00119681,0.00263309,-0.00
 039408,0.01654942,-0.03729697,0.03352930,0.00331736,-0.00511866,-0.004
 64093,-0.00121130,0.00200990,-0.00021212,0.02294727,-0.15369001,0.0960
 4958,0.00289253,0.00493438,0.00368416,0.00211494,-0.01744202,0.0183436
 0,0.00641186,0.00173968,0.00380552,-0.00452351,-0.00098796,0.00172267,
 0.17428452,0.38038946,-0.00291296,0.00124168,-0.00386858,0.00076477,-0
 .00049232,0.00048933,0.00048279,0.00025476,0.00039028,-0.00005774,-0.0
 0003050,-0.00000805,0.00361874,-0.00020528,0.00547802,-0.00040396,-0.0
 0037464,-0.00044078,-0.00024008,-0.00057008,0.00145467,0.00039155,0.01
 224739,0.00046543,0.00094287,-0.00055567,0.00022233,-0.00049222,0.0015
 0575,0.00211948,-0.04541596,0.07099918,-0.16414239,-0.00821819,0.02983
 217,-0.02753279,-0.00289174,0.01646578,-0.01279374,0.00813852,-0.01015
 097,0.00712179,-0.00936358,0.00609533,0.00150687,0.05884599,-0.1468236
 0,0.22468381,-0.00558353,0.02332308,-0.00009455,0.00281202,-0.00441688
 ,-0.00042280,0.00274708,0.00158453,0.00147789,-0.00036853,-0.00026975,
 0.00004761,0.01368844,-0.00905730,0.00113213,-0.00222361,-0.00219404,-
 0.00167039,0.00092471,-0.00383410,0.00136861,0.00307202,0.00343060,-0.
 00585331,-0.00092947,0.00075706,0.00080978,-0.00029833,-0.00038828,0.0
 0043470,0.00799211,0.00216604,0.00560396,-0.00076812,0.00180486,-0.003
 46548,0.00031446,0.00199204,-0.00177526,-0.00742187,-0.00479988,-0.000
 14404,0.00459531,0.00075901,0.00090244,-0.28626056,-0.20298151,-0.0030
 6946,0.26858468,0.00627513,0.00647874,0.00071929,0.00039219,-0.0014918
 8,-0.00006300,0.00031513,0.00001180,0.00006953,-0.00010052,0.00002699,
 0.00002287,0.00112302,-0.01180884,-0.00023379,-0.00031433,-0.00009034,
 -0.00005216,-0.00043608,-0.00124009,0.00013021,-0.00103114,-0.00235376
 ,0.00136983,0.00018009,0.00029376,-0.00006373,-0.00008341,0.00015299,0
 .00017572,-0.02060326,-0.02600380,0.00755247,-0.00060366,0.00274194,-0
 .00125906,0.00189467,-0.00018218,0.00010578,-0.00313692,-0.00056188,-0
 .00124828,0.00340895,-0.00447569,-0.00347776,-0.17921637,-0.17296420,0
 .02041623,0.19182196,0.21162307,0.00055350,0.00074528,0.00141781,0.000
 19460,-0.00038142,-0.00006790,-0.00018195,-0.00017601,-0.00010577,-0.0
 0002855,-0.00003315,-0.00000844,0.00063447,-0.00016335,-0.00827330,0.0
 0002815,0.00024775,0.00014798,0.00003891,0.00028489,-0.00032726,-0.000
 87243,-0.00070494,0.00007120,0.00021273,0.00015893,-0.00005435,0.00010
 690,0.00001192,-0.00021889,0.02586159,0.02775883,-0.00842039,0.0011104
 6,0.00053696,0.00034091,-0.00110208,0.00493156,-0.00435632,-0.00020068
 ,0.00003430,-0.00019864,0.00078335,-0.00431399,-0.00086168,-0.03248748
 ,-0.00486467,-0.03504711,0.00529277,-0.02400039,0.05603963,-0.01618265
 ,0.02501341,-0.03896720,-0.01769429,0.01002728,-0.00957038,-0.00341908
 ,-0.00045468,-0.00009784,0.00045563,-0.00072530,0.00003092,0.00129302,
 -0.00535273,0.00515454,0.00158211,0.00171536,0.00009740,-0.19752377,0.
 04153013,0.00466950,-0.00109160,-0.00032091,-0.00007596,-0.00067256,-0
 .00067810,-0.00002901,0.00033197,-0.00010932,0.00027308,-0.00036192,0.
 00024304,-0.00024689,-0.00032233,0.00025051,0.00028881,0.00022719,0.00
 005634,0.00007144,0.00184770,-0.00011372,0.00275782,0.00021246,0.00051
 077,-0.00052242,0.00087074,-0.00038992,0.00019333,-0.00081296,0.000111
 49,-0.00003535,0.47728158,0.01676385,-0.01261988,0.02021344,0.01479446
 ,-0.01033256,0.03077989,0.00035839,0.00086904,-0.00008661,-0.00000934,
 0.00000925,0.00005240,0.00004652,-0.00079394,0.00068045,0.00035673,-0.
 00046721,0.00024469,0.03336341,-0.07620758,0.00281212,0.00027034,-0.00
 002691,-0.00016803,0.00009863,0.00063789,-0.00002908,-0.00016001,0.000
 13084,-0.00024871,0.00021753,-0.00030991,0.00017439,0.00009435,-0.0001
 4703,-0.00009054,-0.00009142,0.00000323,-0.00004247,-0.00174442,0.0004
 1006,-0.00246521,-0.00038696,-0.00053542,-0.00010368,-0.00011733,0.000
 34809,-0.00014456,-0.00009078,-0.00016482,0.00006243,0.02772637,0.6318
 9440,-0.01895011,0.01029398,-0.00097331,-0.00408998,0.01416578,-0.0280
 1320,-0.00036316,0.00051369,-0.00033271,-0.00002871,0.00008860,0.00011
 721,0.00022665,0.00107500,-0.00153180,0.00014418,0.00013876,0.00010018
 ,0.01551051,-0.00521617,-0.06917047,0.00049251,0.00028194,-0.00016020,
 0.00006506,-0.00000505,0.00003496,-0.00001033,0.00001480,-0.00000419,0
 .00006252,-0.00004257,-0.00014955,-0.00009702,0.00009158,0.00002713,0.
 00001881,0.00002377,0.00003471,-0.00170993,-0.00004454,-0.00299767,-0.
 00022277,-0.00041657,-0.00021072,-0.00006082,0.00000235,0.00010327,0.0
 0009868,0.00000436,-0.00003705,0.07792968,-0.03468056,0.50085193,-0.00
 280704,0.00101974,0.00470474,0.00202983,-0.00058198,0.00114946,0.00051
 028,-0.00030034,0.00003345,-0.00002627,0.00012523,-0.00000501,-0.00043
 475,0.00121963,-0.00137952,-0.00035035,-0.00023249,-0.00007134,-0.0197
 4352,0.03549537,-0.01685399,0.00019834,0.00019730,-0.00019908,-0.00000
 417,0.00005339,0.00001922,-0.00002618,-0.00002333,0.00001543,0.0000019
 0,0.00010609,0.00004548,0.00003933,-0.00001073,-0.00004559,-0.00002953
 ,-0.00001342,-0.00001004,-0.00042810,-0.00030695,-0.00044626,-0.000013
 37,-0.00002287,0.00004381,-0.00014687,-0.00014725,0.00005275,0.0002620
 1,0.00006369,-0.00001529,-0.04924216,0.01413130,-0.00815987,0.06241456
 ,-0.00050472,0.00024573,-0.00329153,-0.00100660,0.00201161,-0.00142672
 ,0.00016407,-0.00045490,-0.00000436,0.00003601,0.00009834,-0.00002116,
 0.00042798,-0.00031469,0.00052985,-0.00008157,0.00005267,0.00000482,0.
 01023056,-0.00428010,0.00313927,-0.00011966,-0.00007091,0.00009690,-0.
 00003521,-0.00008037,0.00002304,0.00004181,-0.00000653,0.00001621,-0.0
 0002138,-0.00002144,0.00001506,-0.00003275,0.00000788,0.00003361,0.000
 03299,0.00000808,0.00000483,0.00030655,0.00015491,0.00012724,-0.000025
 35,0.00001955,-0.00004493,0.00015714,0.00005193,-0.00004452,-0.0002096
 1,-0.00003527,0.00000711,0.02149100,-0.26197221,0.10771412,-0.03105776
 ,0.27802980,0.00235725,-0.00049296,-0.00247342,-0.00176524,0.00196748,
 -0.00657145,0.00022239,-0.00006375,0.00015449,-0.00003245,-0.00003511,
 -0.00004122,-0.00034206,0.00012545,0.00050200,-0.00009937,-0.00010341,
 -0.00006913,0.00243836,-0.00614919,0.00534276,0.00004189,0.00007901,-0
 .00017339,-0.00004278,0.00002704,0.00004703,-0.00003260,-0.00001086,0.
 00001550,-0.00002849,0.00002408,0.00001566,0.00000663,-0.00000692,-0.0
 0000441,-0.00000885,0.00000301,0.00000420,-0.00033690,-0.00020780,0.00
 015238,0.00006173,0.00000497,-0.00002154,-0.00005808,-0.00006291,0.000
 03101,0.00010213,0.00002235,-0.00000150,-0.01441862,0.10729982,-0.1080
 1526,0.01480939,-0.11634037,0.11181648,-0.00236404,-0.00524298,0.00503
 142,0.00122027,-0.00035411,-0.00073097,0.00025457,-0.00037918,0.000303
 36,0.00010119,-0.00005557,0.00004495,0.00028095,0.00096236,-0.00024206
 ,-0.00047367,-0.00014451,-0.00015307,-0.04084853,-0.01060153,-0.014596
 06,0.00034731,0.00009211,-0.00009092,0.00011982,0.00021950,-0.00001833
 ,-0.00007834,0.00004505,-0.00007476,0.00009350,-0.00017525,0.00003010,
 0.00004152,-0.00005182,-0.00005455,-0.00004529,0.00001096,-0.00001269,
 -0.00103036,0.00024813,-0.00117920,-0.00012611,-0.00032221,-0.00001892
 ,-0.00008508,0.00022768,-0.00001766,-0.00001806,-0.00009070,-0.0000036
 4,-0.12554078,-0.10282174,-0.06363316,0.00482054,0.00150610,0.00144459
 ,0.15709145,0.00135093,0.00131875,0.00028851,-0.00081096,0.00066129,-0
 .00055051,-0.00003173,-0.00134970,-0.00010847,-0.00013199,0.00000743,-
 0.00001469,-0.00044152,-0.00017333,-0.00026044,0.00026690,0.00010174,0
 .00002208,0.01194228,0.01219860,0.00581677,-0.00000857,-0.00001455,0.0
 0003584,0.00000464,-0.00006487,-0.00000337,0.00000941,-0.00001289,0.00
 002010,-0.00001073,0.00005223,-0.00003516,0.00000492,0.00001482,0.0000
 0106,-0.00000132,-0.00000940,0.00000371,0.00031383,-0.00008116,0.00041
 262,0.00009383,0.00008481,0.00006040,-0.00007114,-0.00008032,0.0000227
 7,0.00012859,0.00004209,-0.00000691,-0.10959268,-0.18952732,-0.0782055
 7,-0.01500184,-0.01773607,-0.01242928,0.11035879,0.19351973,-0.0005538
 8,-0.00050250,-0.00096058,0.00003307,0.00169269,0.00149992,0.00069069,
 -0.00043584,-0.00021985,-0.00012303,0.00036235,-0.00008564,0.00020411,
 0.00019197,0.00013319,-0.00028520,-0.00014354,-0.00006251,0.00318395,0
 .00313915,0.00663855,0.00000476,0.00001466,-0.00003930,-0.00001339,-0.
 00000181,-0.00000973,0.00000851,-0.00000486,0.00000614,0.00000339,-0.0
 0001045,0.00002422,0.00000216,0.00000121,0.00000644,0.00000160,0.00000
 428,0.00000047,0.00005716,0.00008014,0.00014825,0.00001241,-0.00002111
 ,0.00000230,0.00002810,0.00003130,-0.00001094,-0.00005310,-0.00001815,
 0.00000514,-0.06502584,-0.07538994,-0.10319896,0.00882074,0.01149873,0
 .00803495,0.06756991,0.08569270,0.10675763,-0.03756293,0.02019993,0.01
 792610,-0.11581051,0.05634328,-0.02644459,-0.00086500,-0.00103218,-0.0
 0104885,0.00062109,0.00027937,0.00022650,0.00299895,-0.00079815,-0.001
 69996,0.00006187,0.00058805,0.00060084,-0.03509479,0.01924814,0.027857
 03,-0.00063985,-0.00079244,0.00107173,0.00007256,0.00012313,-0.0000777
 7,0.00011564,0.00007296,-0.00014611,0.00019931,-0.00002706,0.00024099,
 0.00003170,-0.00011130,-0.00003239,0.00006267,-0.00005551,-0.00008492,
 0.00189585,0.00020711,-0.00057251,-0.00017709,0.00025527,-0.00005224,0
 .00057795,0.00023206,-0.00040966,-0.00071099,-0.00007568,0.00008662,-0
 .07011449,-0.00578034,-0.00013387,0.00284801,-0.00176213,-0.00435588,0
 .00463784,0.00066807,-0.01551199,0.61322117,0.03043768,-0.00977737,-0.
 01724682,0.06072370,-0.13946142,0.03785391,0.00032821,0.00165103,0.001
 49468,-0.00032156,-0.00092639,-0.00020066,-0.00248826,0.00254939,0.002
 64343,-0.00007651,-0.00059801,-0.00041335,0.00939106,-0.00639353,0.003
 60589,0.00036300,0.00080478,-0.00174491,-0.00007733,0.00003074,0.00026
 382,-0.00040931,-0.00015662,0.00029008,-0.00025037,0.00012892,-0.00006
 190,0.00005619,0.00002721,-0.00005252,-0.00011999,0.00005739,0.0000599
 4,-0.00497230,-0.00312969,0.00275083,0.00087851,0.00016301,-0.00005195
 ,-0.00067977,-0.00047868,0.00039003,0.00107086,0.00018856,-0.00009562,
 -0.01204689,-0.08303848,-0.01266390,-0.00514245,0.00305721,0.02721703,
 0.00604821,-0.00081312,-0.02654881,0.04147961,0.54507079,0.00039829,-0
 .00693686,0.01528609,-0.04129296,0.04567950,-0.09475039,-0.00080448,-0
 .00018084,-0.00093666,0.00021066,0.00028944,0.00019836,0.00412019,-0.0
 0198990,-0.00365555,0.00048324,0.00047836,0.00052703,0.01199195,0.0042
 4409,-0.01600319,-0.00024886,-0.00047941,0.00109174,0.00010686,0.00011
 361,-0.00000414,0.00012472,0.00010690,-0.00018800,0.00017810,-0.000125
 95,0.00022818,-0.00001489,-0.00008832,-0.00001735,0.00006055,-0.000026
 11,-0.00005581,0.00186235,0.00109203,-0.00175253,-0.00034773,-0.000055
 00,-0.00015673,0.00057307,0.00041318,-0.00031676,-0.00087323,-0.000212
 76,-0.00004541,0.02286185,-0.02600910,-0.17155756,-0.00181709,-0.00295
 220,-0.00880419,0.00439660,-0.00016124,-0.01432233,-0.03638474,0.05978
 354,0.44672703,0.00146582,-0.00058211,-0.00350644,-0.02159628,0.008916
 16,-0.00098586,0.00036817,0.00012712,0.00011000,-0.00013689,0.00006657
 ,0.00000110,-0.00054274,0.00069960,0.00054757,-0.00021787,-0.00018486,
 -0.00012352,0.00151764,-0.00037412,0.00079936,0.00015618,0.00012538,-0
 .00032480,0.00001025,0.00000552,0.00000597,-0.00006662,-0.00002843,0.0
 0005256,-0.00000641,-0.00002558,-0.00002418,0.00001566,0.00000702,-0.0
 0001327,-0.00002866,0.00001040,0.00001074,-0.00088490,-0.00043041,0.00
 034892,0.00013274,-0.00003180,0.00005908,-0.00017247,-0.00001363,0.000
 05326,0.00021572,0.00001661,0.00000334,-0.00293270,-0.00244819,0.00068
 034,-0.00049013,0.00050176,0.00087919,0.00098786,0.00040591,0.00013554
 ,-0.29058674,-0.05471558,0.05761836,0.31919902,0.00055108,-0.00112101,
 0.00280323,0.03366679,-0.00133235,-0.00182808,-0.00035690,0.00014058,0
 .00003038,0.00009425,-0.00016913,-0.00002581,0.00041935,-0.00062758,-0
 .00069392,0.00023517,0.00010965,0.00009798,0.00076441,0.00106879,-0.00
 091994,0.00007447,-0.00005540,0.00025603,0.00002234,-0.00000136,-0.000
 04170,0.00006847,0.00002860,-0.00005786,0.00003782,-0.00003431,0.00000
 258,-0.00000698,-0.00000264,0.00000383,0.00000769,-0.00000429,-0.00000
 462,0.00087038,0.00062484,-0.00046305,-0.00010369,-0.00004297,0.000025
 57,0.00006131,0.00009126,-0.00003554,-0.00014129,-0.00004319,-0.000009
 97,0.00276561,0.00103030,-0.00373750,0.00032412,-0.00002432,-0.0004248
 4,0.00029646,0.00056306,0.00015333,-0.06334488,-0.06286127,0.01269873,
 0.05101298,0.06687365,-0.00035919,0.00155558,-0.00497028,-0.02220739,0
 .00384680,0.00360261,-0.00021758,0.00005883,0.00008069,0.00005352,-0.0
 0012528,0.00002849,-0.00024073,0.00003507,0.00074975,0.00004987,0.0000
 7090,-0.00002660,0.00527013,-0.00257683,-0.00507687,0.00000956,0.00004
 951,-0.00022535,-0.00004454,-0.00008082,-0.00000942,-0.00000405,-0.000
 03241,0.00006349,-0.00005690,0.00001163,-0.00006897,-0.00003117,0.0000
 4409,0.00002767,0.00000485,0.00001516,0.00001742,-0.00022225,-0.000258
 71,0.00052235,0.00012752,0.00003703,0.00001284,-0.00002474,-0.00005404
 ,0.00007402,0.00006200,0.00002421,-0.00000691,0.02833927,0.00580247,-0
 .00094041,-0.00060944,0.00060659,-0.00109516,-0.00009272,-0.00063972,0
 .00129293,0.06124953,0.00984048,-0.06526256,-0.05920283,-0.01444991,0.
 06695097,0.00188291,0.00281965,-0.00162702,0.00167163,0.02840800,0.004
 29239,0.00021930,0.00011117,0.00016130,-0.00011986,0.00004033,-0.00002
 765,-0.00093376,0.00000532,0.00041076,-0.00004877,-0.00009972,-0.00010
 082,0.00127303,-0.00130024,-0.00019133,-0.00010475,-0.00008031,0.00008
 410,-0.00000329,-0.00000425,0.00002190,0.00000643,0.00000190,-0.000006
 19,-0.00000704,0.00010821,-0.00003194,0.00000134,-0.00000154,-0.000007
 70,0.00000814,-0.00002390,-0.00000615,0.00027800,-0.00026163,-0.000211
 60,-0.00000342,0.00010743,-0.00004652,-0.00007168,-0.00017077,0.000008
 67,0.00018747,0.00008914,0.00002006,0.00180889,0.00542863,0.00223080,0
 .00061763,-0.00003922,-0.00084224,0.00061344,0.00055437,0.00081032,-0.
 07578222,-0.06947671,-0.02320280,-0.00640665,-0.02731894,-0.01185273,0
 .07491321,-0.00569353,-0.00261653,0.00425495,0.01195137,-0.03032354,-0
 .00001669,-0.00009830,-0.00036703,-0.00033101,0.00008736,0.00021210,0.
 00005863,0.00156523,-0.00025282,-0.00064530,0.00000270,0.00018418,0.00
 015135,0.00073293,0.00081227,-0.00073779,0.00004134,-0.00010623,0.0001
 7026,0.00001463,-0.00002952,-0.00007430,0.00007463,0.00002294,-0.00003
 393,0.00003692,-0.00013994,0.00001440,-0.00002361,0.00000848,0.0000353
 1,0.00002133,0.00001761,-0.00000156,0.00080047,0.00081667,-0.00013643,
 -0.00009806,-0.00013758,-0.00001247,0.00024160,0.00028465,-0.00004337,
 -0.00045520,-0.00014398,-0.00002954,-0.00165706,0.00081018,0.00060367,
 0.00010555,0.00125911,-0.00044284,0.00022426,0.00129819,0.00021451,-0.
 06591730,-0.24609445,-0.08568168,-0.00306034,-0.00421093,-0.00378067,0
 .06110309,0.27869620,0.00143204,0.00080352,-0.00216185,-0.00156088,0.0
 2097093,0.00801575,0.00019579,-0.00002902,0.00023059,-0.00002605,-0.00
 004887,-0.00003672,-0.00050576,0.00013877,0.00039191,-0.00010923,-0.00
 010348,-0.00010070,0.00149372,0.00067079,0.00173873,0.00002311,-0.0000
 4338,0.00000852,0.00000807,-0.00004118,-0.00005532,-0.00000046,-0.0000
 0706,0.00001530,0.00000158,-0.00001351,-0.00006954,-0.00000515,0.00001
 764,0.00000277,-0.00000082,-0.00000277,0.00000626,0.00001259,-0.000012
 90,0.00003176,0.00000451,0.00003135,0.00008218,-0.00007579,-0.00000299
 ,0.00002081,0.00008893,0.00001623,0.00000826,-0.01367813,-0.02866362,-
 0.01397633,-0.00008196,0.00030840,0.00115422,0.00209778,0.00003882,-0.
 00564031,-0.02230386,-0.08711323,-0.08622926,0.00287557,0.00662107,0.0
 0425929,0.03011439,0.08646449,0.09230368\\-0.00000134,-0.00001148,0.00
 001491,0.00002018,0.00000326,-0.00001473,-0.00000783,0.00002294,-0.000
 00018,-0.00000222,0.00000124,-0.00000514,-0.00004615,0.00001636,-0.000
 02187,0.00002672,-0.00001998,0.00001219,-0.00001185,-0.00001103,0.0000
 0649,-0.00001575,-0.00001403,0.00002096,0.00000514,0.00000056,-0.00000
 285,0.00000242,-0.00000010,-0.00000119,0.00000713,0.00001533,-0.000010
 84,-0.00000029,-0.00000139,0.00000377,0.00000100,-0.00000534,-0.000001
 52,0.00002674,0.00002507,-0.00000432,-0.00000351,-0.00001613,0.0000008
 4,-0.00001786,-0.00001189,0.00000861,0.00000692,-0.00000140,0.00000472
 ,0.00001745,-0.00000183,-0.00001370,0.00000162,0.00000349,0.00000139,-
 0.00000152,0.00000239,-0.00000047,-0.00000538,0.00000134,0.00000690,-0
 .00000129,0.00000114,-0.00000426,-0.00000034,0.00000148,0.00000028\\\@
 The archive entry for this job was punched.


 IT IS THE BEHAVIOR AND DISTRIBUTION OF THE ELECTRONS 
 AROUND THE NUCLEUS THAT GIVES THE FUNDAMENTAL 
 CHARACTER OF AN ATOM:  IT MUST BE THE SAME FOR MOLECULES.

                               -- C. A. COULSON, 1951
 Job cpu time:       0 days  6 hours  4 minutes 40.8 seconds.
 Elapsed time:       0 days  1 hours 31 minutes 18.8 seconds.
 File lengths (MBytes):  RWF=    493 Int=      0 D2E=      0 Chk=     22 Scr=      1
 Normal termination of Gaussian 16 at Sat Mar 30 00:31:06 2024.
