 Entering Gaussian System, Link 0=/opt/software/gaussian/g16.c01/g16
 Initial command:
 /opt/software/gaussian/g16.c01/l1.exe "/scratch/arhender/16954443/Gau-27403.inp" -scrdir="/scratch/arhender/16954443/"
 Entering Link 1 = /opt/software/gaussian/g16.c01/l1.exe PID=     27517.
  
 Copyright (c) 1988-2019, Gaussian, Inc.  All Rights Reserved.
  
 This is part of the Gaussian(R) 16 program.  It is based on
 the Gaussian(R) 09 system (copyright 2009, Gaussian, Inc.),
 the Gaussian(R) 03 system (copyright 2003, Gaussian, Inc.),
 the Gaussian(R) 98 system (copyright 1998, Gaussian, Inc.),
 the Gaussian(R) 94 system (copyright 1995, Gaussian, Inc.),
 the Gaussian 92(TM) system (copyright 1992, Gaussian, Inc.),
 the Gaussian 90(TM) system (copyright 1990, Gaussian, Inc.),
 the Gaussian 88(TM) system (copyright 1988, Gaussian, Inc.),
 the Gaussian 86(TM) system (copyright 1986, Carnegie Mellon
 University), and the Gaussian 82(TM) system (copyright 1983,
 Carnegie Mellon University). Gaussian is a federally registered
 trademark of Gaussian, Inc.
  
 This software contains proprietary and confidential information,
 including trade secrets, belonging to Gaussian, Inc.
  
 This software is provided under written license and may be
 used, copied, transmitted, or stored only in accord with that
 written license.
  
 The following legend is applicable only to US Government
 contracts under FAR:
  
                    RESTRICTED RIGHTS LEGEND
  
 Use, reproduction and disclosure by the US Government is
 subject to restrictions as set forth in subparagraphs (a)
 and (c) of the Commercial Computer Software - Restricted
 Rights clause in FAR 52.227-19.
  
 Gaussian, Inc.
 340 Quinnipiac St., Bldg. 40, Wallingford CT 06492
  
  
 ---------------------------------------------------------------
 Warning -- This program may not be used in any manner that
 competes with the business of Gaussian, Inc. or will provide
 assistance to any competitor of Gaussian, Inc.  The licensee
 of this program is prohibited from giving any competitor of
 Gaussian, Inc. access to this program.  By using this program,
 the user acknowledges that Gaussian, Inc. is engaged in the
 business of creating and licensing software in the field of
 computational chemistry and represents and warrants to the
 licensee that it is not a competitor of Gaussian, Inc. and that
 it will not use this program in any manner prohibited above.
 ---------------------------------------------------------------
  

 Cite this work as:
 Gaussian 16, Revision C.01,
 M. J. Frisch, G. W. Trucks, H. B. Schlegel, G. E. Scuseria, 
 M. A. Robb, J. R. Cheeseman, G. Scalmani, V. Barone, 
 G. A. Petersson, H. Nakatsuji, X. Li, M. Caricato, A. V. Marenich, 
 J. Bloino, B. G. Janesko, R. Gomperts, B. Mennucci, H. P. Hratchian, 
 J. V. Ortiz, A. F. Izmaylov, J. L. Sonnenberg, D. Williams-Young, 
 F. Ding, F. Lipparini, F. Egidi, J. Goings, B. Peng, A. Petrone, 
 T. Henderson, D. Ranasinghe, V. G. Zakrzewski, J. Gao, N. Rega, 
 G. Zheng, W. Liang, M. Hada, M. Ehara, K. Toyota, R. Fukuda, 
 J. Hasegawa, M. Ishida, T. Nakajima, Y. Honda, O. Kitao, H. Nakai, 
 T. Vreven, K. Throssell, J. A. Montgomery, Jr., J. E. Peralta, 
 F. Ogliaro, M. J. Bearpark, J. J. Heyd, E. N. Brothers, K. N. Kudin, 
 V. N. Staroverov, T. A. Keith, R. Kobayashi, J. Normand, 
 K. Raghavachari, A. P. Rendell, J. C. Burant, S. S. Iyengar, 
 J. Tomasi, M. Cossi, J. M. Millam, M. Klene, C. Adamo, R. Cammi, 
 J. W. Ochterski, R. L. Martin, K. Morokuma, O. Farkas, 
 J. B. Foresman, and D. J. Fox, Gaussian, Inc., Wallingford CT, 2019.
 
 ******************************************
 Gaussian 16:  ES64L-G16RevC.01  3-Jul-2019
                15-Feb-2024 
 ******************************************
 %chk=OptOfIRCQLandEGreactant.chk
 %mem=1600MB
 %nprocs=4
 Will use up to    4 processors via shared memory.
 ----------------------------------------------------
 # opt freq wb97xd/def2tzvpp geom=AllCheck Guess=Read
 ----------------------------------------------------
 1/18=20,19=15,26=3,29=7,38=1/1,3;
 2/9=110,12=2,40=1/2;
 3/5=44,7=202,11=2,14=-4,25=1,30=1,71=1,74=-58,116=-2/1,2,3;
 4/5=1/1;
 5/5=2,38=6/2;
 6/7=2,8=2,9=2,10=2,28=1/1;
 7//1,2,3,16;
 1/18=20,19=15,26=3/3(2);
 2/9=110/2;
 99//99;
 2/9=110/2;
 3/5=44,7=202,11=2,14=-2,25=1,30=1,71=1,74=-58/1,2,3;
 4/5=5,16=3,69=1/1;
 5/5=2,38=5/2;
 7//1,2,3,16;
 1/18=20,19=15,26=3/3(-5);
 2/9=110/2;
 6/7=2,8=2,9=2,10=2,19=2,28=1/1;
 99/9=1/99;
 Structure from the checkpoint file:  "OptOfIRCQLandEGreactant.chk"
 ----------------------------------------------------------------------
 IRC Attempt EGOH on deprotonated axial silicic acid trig bypryamid TS 
 Deprotonated reactant opt from forward IRC i switched labels cuz yeah
 ----------------------------------------------------------------------
 Charge = -1 Multiplicity = 1
 Redundant internal coordinates found in file.  (old form).
 Si,0,1.4419464474,0.5398116339,0.1410352345
 O,0,0.9364864105,-0.8855448592,0.5485804298
 O,0,3.046473368,0.5769523318,-0.3030909177
 H,0,3.379843046,-0.317471331,-0.3053395118
 O,0,0.5134162061,1.1410608673,-1.1378959162
 H,0,0.0391730625,0.4073251413,-1.5415479052
 O,0,1.3550839201,1.772968405,1.2521446905
 H,0,0.4590417217,2.0729315264,1.3946015653
 C,0,-2.346199465,-0.8902055897,-0.000798837
 H,0,-2.6412977843,-1.7456457126,0.6317474911
 H,0,-3.1896486522,-0.672064033,-0.6659824463
 C,0,-2.1382522414,0.2988498594,0.9297537225
 H,0,-1.2888204593,0.0779660438,1.5872448682
 H,0,-3.0315281878,0.40799714,1.5526637559
 O,0,-1.2443900376,-1.2080511118,-0.7973622785
 O,0,-1.9581252643,1.5325934069,0.2672924896
 H,0,-1.1548648652,1.476644725,-0.2736912691
 H,0,-0.4057952255,-1.2046664435,-0.2272151657
 Recover connectivity data from disk.

 GradGradGradGradGradGradGradGradGradGradGradGradGradGradGradGradGradGrad
 Berny optimization.
 Initialization pass.
                           ----------------------------
                           !    Initial Parameters    !
                           ! (Angstroms and Degrees)  !
 --------------------------                            --------------------------
 ! Name  Definition              Value          Derivative Info.                !
 --------------------------------------------------------------------------------
 ! R1    R(1,2)                  1.5663         estimate D2E/DX2                !
 ! R2    R(1,3)                  1.6653         estimate D2E/DX2                !
 ! R3    R(1,5)                  1.691          estimate D2E/DX2                !
 ! R4    R(1,7)                  1.6622         estimate D2E/DX2                !
 ! R5    R(3,4)                  0.9545         estimate D2E/DX2                !
 ! R6    R(5,6)                  0.9624         estimate D2E/DX2                !
 ! R7    R(5,17)                 1.9086         estimate D2E/DX2                !
 ! R8    R(7,8)                  0.9556         estimate D2E/DX2                !
 ! R9    R(9,10)                 1.1041         estimate D2E/DX2                !
 ! R10   R(9,11)                 1.0961         estimate D2E/DX2                !
 ! R11   R(9,12)                 1.5241         estimate D2E/DX2                !
 ! R12   R(9,15)                 1.3963         estimate D2E/DX2                !
 ! R13   R(12,13)                1.0966         estimate D2E/DX2                !
 ! R14   R(12,14)                1.0945         estimate D2E/DX2                !
 ! R15   R(12,16)                1.4119         estimate D2E/DX2                !
 ! R16   R(15,18)                1.0141         estimate D2E/DX2                !
 ! R17   R(16,17)                0.9701         estimate D2E/DX2                !
 ! A1    A(2,1,3)              113.6178         estimate D2E/DX2                !
 ! A2    A(2,1,5)              110.07           estimate D2E/DX2                !
 ! A3    A(2,1,7)              118.9698         estimate D2E/DX2                !
 ! A4    A(3,1,5)              108.6291         estimate D2E/DX2                !
 ! A5    A(3,1,7)              102.2447         estimate D2E/DX2                !
 ! A6    A(5,1,7)              102.304          estimate D2E/DX2                !
 ! A7    A(1,3,4)              108.4356         estimate D2E/DX2                !
 ! A8    A(1,5,6)              108.4651         estimate D2E/DX2                !
 ! A9    A(1,5,17)             101.5388         estimate D2E/DX2                !
 ! A10   A(6,5,17)              83.8712         estimate D2E/DX2                !
 ! A11   A(1,7,8)              112.429          estimate D2E/DX2                !
 ! A12   A(10,9,11)            107.2299         estimate D2E/DX2                !
 ! A13   A(10,9,12)            106.9259         estimate D2E/DX2                !
 ! A14   A(10,9,15)            111.1856         estimate D2E/DX2                !
 ! A15   A(11,9,12)            108.6772         estimate D2E/DX2                !
 ! A16   A(11,9,15)            107.8371         estimate D2E/DX2                !
 ! A17   A(12,9,15)            114.7237         estimate D2E/DX2                !
 ! A18   A(9,12,13)            108.3363         estimate D2E/DX2                !
 ! A19   A(9,12,14)            108.2962         estimate D2E/DX2                !
 ! A20   A(9,12,16)            114.3714         estimate D2E/DX2                !
 ! A21   A(13,12,14)           108.1221         estimate D2E/DX2                !
 ! A22   A(13,12,16)           111.0079         estimate D2E/DX2                !
 ! A23   A(14,12,16)           106.5006         estimate D2E/DX2                !
 ! A24   A(9,15,18)            109.3329         estimate D2E/DX2                !
 ! A25   A(12,16,17)           108.4761         estimate D2E/DX2                !
 ! A26   A(5,17,16)            170.5607         estimate D2E/DX2                !
 ! D1    D(2,1,3,4)              4.8562         estimate D2E/DX2                !
 ! D2    D(5,1,3,4)           -118.0079         estimate D2E/DX2                !
 ! D3    D(7,1,3,4)            134.3377         estimate D2E/DX2                !
 ! D4    D(2,1,5,6)            -16.9113         estimate D2E/DX2                !
 ! D5    D(2,1,5,17)            70.4116         estimate D2E/DX2                !
 ! D6    D(3,1,5,6)            108.068          estimate D2E/DX2                !
 ! D7    D(3,1,5,17)          -164.6091         estimate D2E/DX2                !
 ! D8    D(7,1,5,6)           -144.3182         estimate D2E/DX2                !
 ! D9    D(7,1,5,17)           -56.9953         estimate D2E/DX2                !
 ! D10   D(2,1,7,8)            -72.6967         estimate D2E/DX2                !
 ! D11   D(3,1,7,8)            161.2356         estimate D2E/DX2                !
 ! D12   D(5,1,7,8)             48.7845         estimate D2E/DX2                !
 ! D13   D(1,5,17,16)          -26.4143         estimate D2E/DX2                !
 ! D14   D(6,5,17,16)           81.2355         estimate D2E/DX2                !
 ! D15   D(10,9,12,13)          64.9769         estimate D2E/DX2                !
 ! D16   D(10,9,12,14)         -52.0695         estimate D2E/DX2                !
 ! D17   D(10,9,12,16)        -170.6375         estimate D2E/DX2                !
 ! D18   D(11,9,12,13)        -179.5744         estimate D2E/DX2                !
 ! D19   D(11,9,12,14)          63.3792         estimate D2E/DX2                !
 ! D20   D(11,9,12,16)         -55.1889         estimate D2E/DX2                !
 ! D21   D(15,9,12,13)         -58.8026         estimate D2E/DX2                !
 ! D22   D(15,9,12,14)        -175.849          estimate D2E/DX2                !
 ! D23   D(15,9,12,16)          65.5829         estimate D2E/DX2                !
 ! D24   D(10,9,15,18)         -75.6447         estimate D2E/DX2                !
 ! D25   D(11,9,15,18)         167.069          estimate D2E/DX2                !
 ! D26   D(12,9,15,18)          45.836          estimate D2E/DX2                !
 ! D27   D(9,12,16,17)         -62.1739         estimate D2E/DX2                !
 ! D28   D(13,12,16,17)         60.7777         estimate D2E/DX2                !
 ! D29   D(14,12,16,17)        178.246          estimate D2E/DX2                !
 ! D30   D(12,16,17,5)         -23.8298         estimate D2E/DX2                !
 --------------------------------------------------------------------------------
 Trust Radius=3.00D-01 FncErr=1.00D-07 GrdErr=1.00D-06 EigMax=2.50D+02 EigMin=1.00D-04
 Number of steps in this run=     83 maximum allowed number of steps=    108.
 GradGradGradGradGradGradGradGradGradGradGradGradGradGradGradGradGradGrad

                          Input orientation:                          
 ---------------------------------------------------------------------
 Center     Atomic      Atomic             Coordinates (Angstroms)
 Number     Number       Type             X           Y           Z
 ---------------------------------------------------------------------
      1         14           0        1.441946    0.539812    0.141035
      2          8           0        0.936486   -0.885545    0.548580
      3          8           0        3.046473    0.576952   -0.303091
      4          1           0        3.379843   -0.317471   -0.305340
      5          8           0        0.513416    1.141061   -1.137896
      6          1           0        0.039173    0.407325   -1.541548
      7          8           0        1.355084    1.772968    1.252145
      8          1           0        0.459042    2.072932    1.394602
      9          6           0       -2.346199   -0.890206   -0.000799
     10          1           0       -2.641298   -1.745646    0.631747
     11          1           0       -3.189649   -0.672064   -0.665982
     12          6           0       -2.138252    0.298850    0.929754
     13          1           0       -1.288820    0.077966    1.587245
     14          1           0       -3.031528    0.407997    1.552664
     15          8           0       -1.244390   -1.208051   -0.797362
     16          8           0       -1.958125    1.532593    0.267292
     17          1           0       -1.154865    1.476645   -0.273691
     18          1           0       -0.405795   -1.204666   -0.227215
 ---------------------------------------------------------------------
                    Distance matrix (angstroms):
                    1          2          3          4          5
     1  Si   0.000000
     2  O    1.566277   0.000000
     3  O    1.665273   2.704864   0.000000
     4  H    2.165555   2.649883   0.954533   0.000000
     5  O    1.690957   2.670266   2.726077   3.322178   0.000000
     6  H    2.194633   2.616356   3.256747   3.635054   0.962398
     7  O    1.662163   2.781712   2.590369   3.300810   2.611514
     8  H    2.210879   3.113886   3.437283   4.139433   2.699052
     9  C    4.051557   3.328343   5.596861   5.762667   3.687334
    10  H    4.704997   3.680656   6.214429   6.258750   4.627843
    11  H    4.855059   4.306475   6.370318   6.588932   4.150038
    12  C    3.673957   3.316942   5.336537   5.688118   3.466387
    13  H    3.124406   2.638023   4.755747   5.053184   3.435785
    14  H    4.692765   4.292619   6.357238   6.714474   4.510335
    15  O    3.339464   2.582982   4.673548   4.734844   2.953671
    16  O    3.544297   3.782234   5.126850   5.678429   2.869908
    17  H    2.791609   3.260341   4.296691   4.876826   1.908567
    18  H    2.567676   1.582851   3.885625   3.888994   2.678941
                    6          7          8          9         10
     6  H    0.000000
     7  O    3.376584   0.000000
     8  H    3.401692   0.955596   0.000000
     9  C    3.122098   4.728833   4.312389   0.000000
    10  H    4.067360   5.360653   4.977508   1.104072   0.000000
    11  H    3.515250   5.505633   5.009386   1.096112   1.771262
    12  C    3.295494   3.805307   3.179526   1.524147   2.126458
    13  H    3.414878   3.158410   2.659327   2.139460   2.463276
    14  H    4.359283   4.603892   3.870539   2.137347   2.374562
    15  O    2.193351   4.454685   4.297817   1.396253   2.069472
    16  O    2.920160   3.464833   2.721302   2.468285   3.368442
    17  H    2.043681   2.952258   2.396550   2.663781   3.662302
    18  H    2.126966   3.762381   3.757776   1.978716   2.455188
                   11         12         13         14         15
    11  H    0.000000
    12  C    2.143474   0.000000
    13  H    3.041829   1.096640   0.000000
    14  H    2.472635   1.094473   1.774020   0.000000
    15  O    2.022022   2.460217   2.709643   3.365724   0.000000
    16  O    2.692242   1.411887   2.075135   2.017199   3.025564
    17  H    2.985161   1.950008   2.331808   2.828329   2.736757
    18  H    2.868104   2.569153   2.391055   3.558529   1.014061
                   16         17         18
    16  O    0.000000
    17  H    0.970062   0.000000
    18  H    3.185413   2.784366   0.000000
 Stoichiometry    C2H9O6Si(1-)
 Framework group  C1[X(C2H9O6Si)]
 Deg. of freedom    48
 Full point group                 C1      NOp   1
 Largest Abelian subgroup         C1      NOp   1
 Largest concise Abelian subgroup C1      NOp   1
                         Standard orientation:                         
 ---------------------------------------------------------------------
 Center     Atomic      Atomic             Coordinates (Angstroms)
 Number     Number       Type             X           Y           Z
 ---------------------------------------------------------------------
      1         14           0        1.373880   -0.051060    0.087613
      2          8           0        0.580344   -1.084243    0.957129
      3          8           0        2.958094   -0.485872   -0.185036
      4          1           0        3.100501   -1.354556    0.184073
      5          8           0        0.607541    0.161314   -1.404686
      6          1           0       -0.001441   -0.571219   -1.541601
      7          8           0        1.526115    1.511618    0.633182
      8          1           0        0.708876    2.002356    0.566399
      9          6           0       -2.624826   -0.700705    0.146173
     10          1           0       -3.098660   -1.170531    1.025787
     11          1           0       -3.395620   -0.609350   -0.627773
     12          6           0       -2.190535    0.697448    0.569946
     13          1           0       -1.414338    0.599512    1.338416
     14          1           0       -3.051306    1.203546    1.018064
     15          8           0       -1.600356   -1.501225   -0.362896
     16          8           0       -1.751011    1.517837   -0.491752
     17          1           0       -0.968586    1.108288   -0.893126
     18          1           0       -0.787391   -1.429091    0.238938
 ---------------------------------------------------------------------
 Rotational constants (GHZ):           2.2096740           0.8610285           0.7509848
 Standard basis: def2TZVPP (5D, 7F)
 There are   471 symmetry adapted cartesian basis functions of A   symmetry.
 There are   416 symmetry adapted basis functions of A   symmetry.
   416 basis functions,   630 primitive gaussians,   471 cartesian basis functions
    42 alpha electrons       42 beta electrons
       nuclear repulsion energy       628.8830545210 Hartrees.
 NAtoms=   18 NActive=   18 NUniq=   18 SFac= 1.00D+00 NAtFMM=   60 NAOKFM=F Big=F
 Integral buffers will be    131072 words long.
 Raffenetti 2 integral format.
 Two-electron integral symmetry is turned on.
 Nuclear repulsion after empirical dispersion term =      628.8721607233 Hartrees.
 One-electron integrals computed using PRISM.
   1 Symmetry operations used in ECPInt.
 ECPInt:  NShTT=   12246 NPrTT=   33908 LenC2=   11674 LenP2D=   25354.
 LDataN:  DoStor=T MaxTD1= 6 Len=  172
 NBasis=   416 RedAO= T EigKep=  2.89D-04  NBF=   416
 NBsUse=   416 1.00D-06 EigRej= -1.00D+00 NBFU=   416
 Initial guess from the checkpoint file:  "OptOfIRCQLandEGreactant.chk"
 B after Tr=     0.000000   -0.000000    0.000000
         Rot=    1.000000    0.000000    0.000000    0.000000 Ang=   0.00 deg.
 Requested convergence on RMS density matrix=1.00D-08 within 128 cycles.
 Requested convergence on MAX density matrix=1.00D-06.
 Requested convergence on             energy=1.00D-06.
 No special actions if energy rises.
 SCF Done:  E(RwB97XD) =  -822.824175803     A.U. after    1 cycles
            NFock=  1  Conv=0.28D-08     -V/T= 2.0034

 **********************************************************************

            Population analysis using the SCF Density.

 **********************************************************************

 Orbital symmetries:
       Occupied  (A) (A) (A) (A) (A) (A) (A) (A) (A) (A) (A) (A)
                 (A) (A) (A) (A) (A) (A) (A) (A) (A) (A) (A) (A)
                 (A) (A) (A) (A) (A) (A) (A) (A) (A) (A) (A) (A)
                 (A) (A) (A) (A) (A) (A)
       Virtual   (A) (A) (A) (A) (A) (A) (A) (A) (A) (A) (A) (A)
                 (A) (A) (A) (A) (A) (A) (A) (A) (A) (A) (A) (A)
                 (A) (A) (A) (A) (A) (A) (A) (A) (A) (A) (A) (A)
                 (A) (A) (A) (A) (A) (A) (A) (A) (A) (A) (A) (A)
                 (A) (A) (A) (A) (A) (A) (A) (A) (A) (A) (A) (A)
                 (A) (A) (A) (A) (A) (A) (A) (A) (A) (A) (A) (A)
                 (A) (A) (A) (A) (A) (A) (A) (A) (A) (A) (A) (A)
                 (A) (A) (A) (A) (A) (A) (A) (A) (A) (A) (A) (A)
                 (A) (A) (A) (A) (A) (A) (A) (A) (A) (A) (A) (A)
                 (A) (A) (A) (A) (A) (A) (A) (A) (A) (A) (A) (A)
                 (A) (A) (A) (A) (A) (A) (A) (A) (A) (A) (A) (A)
                 (A) (A) (A) (A) (A) (A) (A) (A) (A) (A) (A) (A)
                 (A) (A) (A) (A) (A) (A) (A) (A) (A) (A) (A) (A)
                 (A) (A) (A) (A) (A) (A) (A) (A) (A) (A) (A) (A)
                 (A) (A) (A) (A) (A) (A) (A) (A) (A) (A) (A) (A)
                 (A) (A) (A) (A) (A) (A) (A) (A) (A) (A) (A) (A)
                 (A) (A) (A) (A) (A) (A) (A) (A) (A) (A) (A) (A)
                 (A) (A) (A) (A) (A) (A) (A) (A) (A) (A) (A) (A)
                 (A) (A) (A) (A) (A) (A) (A) (A) (A) (A) (A) (A)
                 (A) (A) (A) (A) (A) (A) (A) (A) (A) (A) (A) (A)
                 (A) (A) (A) (A) (A) (A) (A) (A) (A) (A) (A) (A)
                 (A) (A) (A) (A) (A) (A) (A) (A) (A) (A) (A) (A)
                 (A) (A) (A) (A) (A) (A) (A) (A) (A) (A) (A) (A)
                 (A) (A) (A) (A) (A) (A) (A) (A) (A) (A) (A) (A)
                 (A) (A) (A) (A) (A) (A) (A) (A) (A) (A) (A) (A)
                 (A) (A) (A) (A) (A) (A) (A) (A) (A) (A) (A) (A)
                 (A) (A) (A) (A) (A) (A) (A) (A) (A) (A) (A) (A)
                 (A) (A) (A) (A) (A) (A) (A) (A) (A) (A) (A) (A)
                 (A) (A) (A) (A) (A) (A) (A) (A) (A) (A) (A) (A)
                 (A) (A) (A) (A) (A) (A) (A) (A) (A) (A) (A) (A)
                 (A) (A) (A) (A) (A) (A) (A) (A) (A) (A) (A) (A)
                 (A) (A)
 The electronic state is 1-A.
 Alpha  occ. eigenvalues --  -66.10949 -19.10376 -19.08218 -19.08192 -19.07957
 Alpha  occ. eigenvalues --  -19.07874 -18.99517 -10.18919 -10.18821  -5.22766
 Alpha  occ. eigenvalues --   -3.57340  -3.57300  -3.57091  -0.98688  -0.95853
 Alpha  occ. eigenvalues --   -0.95458  -0.93043  -0.92544  -0.81534  -0.69150
 Alpha  occ. eigenvalues --   -0.57536  -0.49293  -0.47104  -0.43372  -0.42836
 Alpha  occ. eigenvalues --   -0.40946  -0.40619  -0.38363  -0.35126  -0.34355
 Alpha  occ. eigenvalues --   -0.31472  -0.30891  -0.29295  -0.27841  -0.26688
 Alpha  occ. eigenvalues --   -0.26160  -0.24081  -0.23486  -0.22425  -0.20014
 Alpha  occ. eigenvalues --   -0.17971  -0.17480
 Alpha virt. eigenvalues --    0.23978   0.25333   0.27486   0.28581   0.30153
 Alpha virt. eigenvalues --    0.30992   0.32659   0.34252   0.34958   0.35420
 Alpha virt. eigenvalues --    0.36822   0.38737   0.39411   0.40954   0.42606
 Alpha virt. eigenvalues --    0.43950   0.46976   0.47491   0.48463   0.50400
 Alpha virt. eigenvalues --    0.50997   0.53168   0.53441   0.54558   0.55634
 Alpha virt. eigenvalues --    0.56254   0.57688   0.58240   0.59086   0.60959
 Alpha virt. eigenvalues --    0.61916   0.62520   0.63037   0.64033   0.65346
 Alpha virt. eigenvalues --    0.65887   0.67096   0.68337   0.69683   0.70093
 Alpha virt. eigenvalues --    0.71279   0.73343   0.73977   0.75091   0.75869
 Alpha virt. eigenvalues --    0.76715   0.77953   0.80585   0.80947   0.82271
 Alpha virt. eigenvalues --    0.84101   0.84248   0.87331   0.87754   0.89229
 Alpha virt. eigenvalues --    0.90758   0.92381   0.93112   0.94183   0.95075
 Alpha virt. eigenvalues --    0.96134   0.97618   0.99024   1.00875   1.01514
 Alpha virt. eigenvalues --    1.03778   1.04835   1.05468   1.08160   1.09255
 Alpha virt. eigenvalues --    1.10311   1.11347   1.12927   1.13857   1.15217
 Alpha virt. eigenvalues --    1.18077   1.18834   1.19714   1.21356   1.22418
 Alpha virt. eigenvalues --    1.24041   1.24694   1.26951   1.31283   1.32648
 Alpha virt. eigenvalues --    1.33678   1.35425   1.36404   1.37546   1.40109
 Alpha virt. eigenvalues --    1.41078   1.42151   1.43214   1.44046   1.45281
 Alpha virt. eigenvalues --    1.47563   1.49841   1.50870   1.53344   1.55006
 Alpha virt. eigenvalues --    1.56341   1.57570   1.59679   1.61001   1.62230
 Alpha virt. eigenvalues --    1.64227   1.65185   1.66245   1.67899   1.69818
 Alpha virt. eigenvalues --    1.72231   1.74209   1.74971   1.78296   1.80121
 Alpha virt. eigenvalues --    1.81447   1.83736   1.92387   1.96365   1.97710
 Alpha virt. eigenvalues --    1.99578   2.02995   2.04128   2.06875   2.08553
 Alpha virt. eigenvalues --    2.09238   2.13203   2.13927   2.14853   2.16297
 Alpha virt. eigenvalues --    2.17161   2.18045   2.21553   2.22261   2.24163
 Alpha virt. eigenvalues --    2.24557   2.26840   2.29740   2.30172   2.32033
 Alpha virt. eigenvalues --    2.32210   2.33627   2.35291   2.39991   2.40929
 Alpha virt. eigenvalues --    2.42733   2.43997   2.45556   2.46312   2.48149
 Alpha virt. eigenvalues --    2.50522   2.53390   2.55469   2.57785   2.62076
 Alpha virt. eigenvalues --    2.68867   2.71913   2.72270   2.77376   2.79900
 Alpha virt. eigenvalues --    2.81354   2.86792   2.88075   2.92439   2.93165
 Alpha virt. eigenvalues --    2.94438   2.98485   2.98970   3.02743   3.04641
 Alpha virt. eigenvalues --    3.04934   3.06534   3.10887   3.13264   3.14543
 Alpha virt. eigenvalues --    3.18339   3.18682   3.20748   3.21965   3.22912
 Alpha virt. eigenvalues --    3.25092   3.27693   3.28003   3.31036   3.31861
 Alpha virt. eigenvalues --    3.32877   3.35469   3.36377   3.38617   3.39706
 Alpha virt. eigenvalues --    3.40976   3.44323   3.47465   3.48762   3.49643
 Alpha virt. eigenvalues --    3.51601   3.52116   3.52719   3.54921   3.56461
 Alpha virt. eigenvalues --    3.59581   3.60363   3.61227   3.63543   3.65664
 Alpha virt. eigenvalues --    3.67453   3.68998   3.71627   3.75901   3.77512
 Alpha virt. eigenvalues --    3.79726   3.81657   3.83175   3.85595   3.86807
 Alpha virt. eigenvalues --    3.87394   3.90032   3.93517   3.94155   3.94573
 Alpha virt. eigenvalues --    3.95216   3.96771   4.00074   4.01400   4.02735
 Alpha virt. eigenvalues --    4.06616   4.07037   4.10901   4.12897   4.15235
 Alpha virt. eigenvalues --    4.16521   4.18359   4.18711   4.22458   4.24026
 Alpha virt. eigenvalues --    4.25159   4.26261   4.27086   4.27816   4.29208
 Alpha virt. eigenvalues --    4.30688   4.33545   4.34171   4.35052   4.38068
 Alpha virt. eigenvalues --    4.39802   4.41297   4.43499   4.46503   4.48119
 Alpha virt. eigenvalues --    4.51091   4.52712   4.54644   4.55832   4.57755
 Alpha virt. eigenvalues --    4.59306   4.60793   4.62076   4.68746   4.70144
 Alpha virt. eigenvalues --    4.73127   4.74846   4.78089   4.85760   4.89397
 Alpha virt. eigenvalues --    4.92616   4.94734   4.97482   5.05592   5.07380
 Alpha virt. eigenvalues --    5.08471   5.09584   5.13521   5.14396   5.15231
 Alpha virt. eigenvalues --    5.16968   5.17750   5.19303   5.23660   5.25871
 Alpha virt. eigenvalues --    5.28472   5.34459   5.39394   5.44091   5.47734
 Alpha virt. eigenvalues --    5.47954   5.49682   5.52062   5.53325   5.54747
 Alpha virt. eigenvalues --    5.57086   5.60309   5.61858   5.63302   5.64379
 Alpha virt. eigenvalues --    5.64644   5.65763   5.66735   5.70564   5.71277
 Alpha virt. eigenvalues --    5.72673   5.75166   5.79585   5.83392   5.84268
 Alpha virt. eigenvalues --    5.86071   5.86666   5.90213   5.96299   6.00680
 Alpha virt. eigenvalues --    6.06123   6.08338   6.12601   6.17228   6.25486
 Alpha virt. eigenvalues --    6.33576   6.37698   6.64859   6.66668   6.68802
 Alpha virt. eigenvalues --    6.70733   6.71410   6.73975   6.79305   6.81122
 Alpha virt. eigenvalues --    6.83149   6.83576   6.84915   6.86161   6.87053
 Alpha virt. eigenvalues --    6.88274   6.89725   6.90993   6.92366   6.93448
 Alpha virt. eigenvalues --    6.94891   6.95761   6.97851   6.98439   6.98668
 Alpha virt. eigenvalues --    7.01384   7.02477   7.03595   7.06891   7.11706
 Alpha virt. eigenvalues --    7.13725   7.15844   7.19902   7.22179   7.30860
 Alpha virt. eigenvalues --    7.33055   7.35659   7.41074   7.43833   7.50652
 Alpha virt. eigenvalues --    7.53270   7.57572   7.63786   7.68525   7.71983
 Alpha virt. eigenvalues --    7.74507   7.82123   7.88617   7.93103   7.96654
 Alpha virt. eigenvalues --   12.42354  23.52891  23.63042  43.94952  44.00611
 Alpha virt. eigenvalues --   44.09132  44.12013  44.34885  44.40329
          Condensed to atoms (all electrons):
               1          2          3          4          5          6
     1  Si  11.490388   0.605235   0.448050  -0.032159   0.359295  -0.023003
     2  O    0.605235   8.177081  -0.039359   0.001331  -0.037208  -0.001874
     3  O    0.448050  -0.039359   7.782744   0.322476  -0.027149  -0.001147
     4  H   -0.032159   0.001331   0.322476   0.546440   0.000537  -0.000209
     5  O    0.359295  -0.037208  -0.027149   0.000537   7.864052   0.322099
     6  H   -0.023003  -0.001874  -0.001147  -0.000209   0.322099   0.497895
     7  O    0.426817  -0.031600  -0.025901   0.001732  -0.038141   0.002354
     8  H   -0.030589  -0.002168   0.001978  -0.000163  -0.001196  -0.000468
     9  C    0.003936   0.009903   0.000123  -0.000002   0.002306  -0.002152
    10  H    0.000054   0.000194  -0.000001   0.000000  -0.000175   0.001238
    11  H   -0.000549  -0.000528   0.000000   0.000000   0.000143  -0.001281
    12  C   -0.000743  -0.010048  -0.000002  -0.000003  -0.003152   0.000896
    13  H   -0.002361   0.013434  -0.000055  -0.000048  -0.000520   0.000085
    14  H    0.001294   0.000967   0.000000  -0.000000  -0.000333   0.000107
    15  O   -0.002459  -0.071012  -0.000079   0.000031  -0.013259   0.034833
    16  O    0.000893  -0.000653  -0.000028   0.000004  -0.021220   0.000981
    17  H   -0.001619  -0.002186   0.000191  -0.000010   0.050490  -0.002631
    18  H   -0.012859   0.109370  -0.000690  -0.000179   0.002098  -0.007864
               7          8          9         10         11         12
     1  Si   0.426817  -0.030589   0.003936   0.000054  -0.000549  -0.000743
     2  O   -0.031600  -0.002168   0.009903   0.000194  -0.000528  -0.010048
     3  O   -0.025901   0.001978   0.000123  -0.000001   0.000000  -0.000002
     4  H    0.001732  -0.000163  -0.000002   0.000000   0.000000  -0.000003
     5  O   -0.038141  -0.001196   0.002306  -0.000175   0.000143  -0.003152
     6  H    0.002354  -0.000468  -0.002152   0.001238  -0.001281   0.000896
     7  O    7.777590   0.334360  -0.000031   0.000016   0.000006  -0.001511
     8  H    0.334360   0.526296   0.000725  -0.000120  -0.000048  -0.000028
     9  C   -0.000031   0.000725   4.674694   0.387018   0.389164   0.292604
    10  H    0.000016  -0.000120   0.387018   0.758801  -0.055783  -0.058498
    11  H    0.000006  -0.000048   0.389164  -0.055783   0.701880  -0.040860
    12  C   -0.001511  -0.000028   0.292604  -0.058498  -0.040860   4.890146
    13  H    0.003726  -0.004270  -0.070090  -0.000416   0.012401   0.420159
    14  H    0.000011  -0.000369  -0.010430   0.005551  -0.006501   0.351238
    15  O   -0.000078  -0.000233   0.320913  -0.045918  -0.045480  -0.087570
    16  O   -0.002826   0.014271  -0.049433   0.007078   0.004762   0.265167
    17  H    0.000574  -0.001338  -0.000323   0.001029  -0.000075  -0.057999
    18  H    0.000453   0.000077  -0.030498  -0.013397   0.008685   0.003817
              13         14         15         16         17         18
     1  Si  -0.002361   0.001294  -0.002459   0.000893  -0.001619  -0.012859
     2  O    0.013434   0.000967  -0.071012  -0.000653  -0.002186   0.109370
     3  O   -0.000055   0.000000  -0.000079  -0.000028   0.000191  -0.000690
     4  H   -0.000048  -0.000000   0.000031   0.000004  -0.000010  -0.000179
     5  O   -0.000520  -0.000333  -0.013259  -0.021220   0.050490   0.002098
     6  H    0.000085   0.000107   0.034833   0.000981  -0.002631  -0.007864
     7  O    0.003726   0.000011  -0.000078  -0.002826   0.000574   0.000453
     8  H   -0.004270  -0.000369  -0.000233   0.014271  -0.001338   0.000077
     9  C   -0.070090  -0.010430   0.320913  -0.049433  -0.000323  -0.030498
    10  H   -0.000416   0.005551  -0.045918   0.007078   0.001029  -0.013397
    11  H    0.012401  -0.006501  -0.045480   0.004762  -0.000075   0.008685
    12  C    0.420159   0.351238  -0.087570   0.265167  -0.057999   0.003817
    13  H    0.645381  -0.027985  -0.001662  -0.057190  -0.000475   0.002411
    14  H   -0.027985   0.662957   0.007127  -0.031908   0.007662  -0.001248
    15  O   -0.001662   0.007127   8.085077   0.002398   0.008325   0.294407
    16  O   -0.057190  -0.031908   0.002398   7.952637   0.353500   0.000050
    17  H   -0.000475   0.007662   0.008325   0.353500   0.430359  -0.000595
    18  H    0.002411  -0.001248   0.294407   0.000050  -0.000595   0.397685
 Mulliken charges:
               1
     1  Si   0.770377
     2  O   -0.720880
     3  O   -0.461152
     4  H    0.160222
     5  O   -0.458667
     6  H    0.180141
     7  O   -0.447552
     8  H    0.163283
     9  C    0.081572
    10  H    0.013328
    11  H    0.034064
    12  C    0.036383
    13  H    0.067475
    14  H    0.041858
    15  O   -0.485362
    16  O   -0.438485
    17  H    0.215120
    18  H    0.248275
 Sum of Mulliken charges =  -1.00000
 Mulliken charges with hydrogens summed into heavy atoms:
               1
     1  Si   0.770377
     2  O   -0.720880
     3  O   -0.300930
     5  O   -0.278526
     7  O   -0.284269
     9  C    0.128964
    12  C    0.145716
    15  O   -0.237087
    16  O   -0.223365
 Electronic spatial extent (au):  <R**2>=           1610.8376
 Charge=             -1.0000 electrons
 Dipole moment (field-independent basis, Debye):
    X=             -2.4562    Y=              0.1430    Z=              0.2102  Tot=              2.4694
 Quadrupole moment (field-independent basis, Debye-Ang):
   XX=            -80.1937   YY=            -72.6879   ZZ=            -69.7415
   XY=             -4.9188   XZ=             -2.4498   YZ=              3.0891
 Traceless Quadrupole moment (field-independent basis, Debye-Ang):
   XX=             -5.9860   YY=              1.5198   ZZ=              4.4662
   XY=             -4.9188   XZ=             -2.4498   YZ=              3.0891
 Octapole moment (field-independent basis, Debye-Ang**2):
  XXX=            -12.1830  YYY=              2.5160  ZZZ=             -5.8554  XYY=             19.4778
  XXY=            -18.1348  XXZ=             10.9926  XZZ=             -3.2505  YZZ=              0.8695
  YYZ=             -1.2401  XYZ=             -3.9816
 Hexadecapole moment (field-independent basis, Debye-Ang**3):
 XXXX=          -1468.0293 YYYY=           -459.4084 ZZZZ=           -255.6841 XXXY=            -49.1628
 XXXZ=             18.2431 YYYX=            -22.1121 YYYZ=              4.8266 ZZZX=              9.5452
 ZZZY=              8.3866 XXYY=           -319.3546 XXZZ=           -277.3375 YYZZ=           -120.0778
 XXYZ=             -9.3601 YYXZ=            -15.9269 ZZXY=             -0.5683
 N-N= 6.288721607233D+02 E-N=-3.220830423628D+03  KE= 8.200435120513D+02
   1 Symmetry operations used in ECPInt.
 ECPInt:  NShTT=   12246 NPrTT=   33908 LenC2=   11674 LenP2D=   25354.
 LDataN:  DoStor=T MaxTD1= 7 Len=  274
 Calling FoFJK, ICntrl=      2127 FMM=F ISym2X=0 I1Cent= 0 IOpClX= 0 NMat=1 NMatS=1 NMatT=0.
 ***** Axes restored to original set *****
 -------------------------------------------------------------------
 Center     Atomic                   Forces (Hartrees/Bohr)
 Number     Number              X              Y              Z
 -------------------------------------------------------------------
      1       14           0.000161983   -0.000185926   -0.000349901
      2        8          -0.000137081   -0.000255675   -0.000044423
      3        8          -0.000109607   -0.000062511    0.000263126
      4        1           0.000001660    0.000001084   -0.000074089
      5        8          -0.000113877   -0.000033057    0.000177738
      6        1          -0.000050962    0.000172562   -0.000096859
      7        8           0.000313776    0.000461708    0.000195180
      8        1          -0.000226939   -0.000127893   -0.000116356
      9        6          -0.000363772   -0.000091265    0.000148112
     10        1           0.000093568    0.000114557   -0.000070315
     11        1           0.000082637   -0.000045426   -0.000078040
     12        6           0.000393182   -0.000410489    0.000176150
     13        1          -0.000032646    0.000042063   -0.000129077
     14        1          -0.000069574    0.000099675   -0.000000511
     15        8           0.001139831    0.000114135    0.000436820
     16        8          -0.000118387    0.000452510    0.000169753
     17        1          -0.000067689   -0.000252128   -0.000278297
     18        1          -0.000896103    0.000006077   -0.000329009
 -------------------------------------------------------------------
 Cartesian Forces:  Max     0.001139831 RMS     0.000281493

 GradGradGradGradGradGradGradGradGradGradGradGradGradGradGradGradGradGrad
 Berny optimization.
 FormGI is forming the generalized inverse of G from B-inverse, IUseBI=4.
 Internal  Forces:  Max     0.001047270 RMS     0.000282111
 Search for a local minimum.
 Step number   1 out of a maximum of   83
 All quantities printed in internal units (Hartrees-Bohrs-Radians)
 Mixed Optimization -- En-DIIS/RFO-DIIS
 Second derivative matrix not updated -- first step.
 ITU=  0
     Eigenvalues ---    0.00230   0.00447   0.01424   0.01535   0.01741
     Eigenvalues ---    0.03136   0.03476   0.03517   0.04721   0.04728
     Eigenvalues ---    0.05030   0.06019   0.06087   0.07310   0.11028
     Eigenvalues ---    0.11101   0.11795   0.11834   0.12185   0.13518
     Eigenvalues ---    0.14100   0.14144   0.16000   0.16000   0.16000
     Eigenvalues ---    0.16000   0.16000   0.20614   0.21441   0.22092
     Eigenvalues ---    0.22115   0.25000   0.29971   0.33236   0.34056
     Eigenvalues ---    0.34116   0.34301   0.37001   0.40417   0.40859
     Eigenvalues ---    0.43706   0.45299   0.46247   0.53364   0.54961
     Eigenvalues ---    0.56432   0.56666   0.58334
 RFO step:  Lambda=-3.23145991D-04 EMin= 2.30000000D-03
 Linear search not attempted -- first point.
 Iteration  1 RMS(Cart)=  0.20243192 RMS(Int)=  0.00898688
 Iteration  2 RMS(Cart)=  0.02505540 RMS(Int)=  0.00011273
 Iteration  3 RMS(Cart)=  0.00025558 RMS(Int)=  0.00000123
 Iteration  4 RMS(Cart)=  0.00000003 RMS(Int)=  0.00000123
 Variable       Old X    -DE/DX   Delta X   Delta X   Delta X     New X
                                 (Linear)    (Quad)   (Total)
    R1        2.95983   0.00027   0.00000   0.00045   0.00045   2.96029
    R2        3.14691  -0.00016   0.00000  -0.00039  -0.00039   3.14652
    R3        3.19544  -0.00004   0.00000  -0.00009  -0.00009   3.19535
    R4        3.14103   0.00030   0.00000   0.00072   0.00072   3.14175
    R5        1.80381   0.00000   0.00000   0.00000   0.00000   1.80381
    R6        1.81867  -0.00006   0.00000  -0.00012  -0.00012   1.81855
    R7        3.60667  -0.00011   0.00000  -0.00224  -0.00224   3.60443
    R8        1.80581   0.00016   0.00000   0.00028   0.00028   1.80609
    R9        2.08639  -0.00015   0.00000  -0.00046  -0.00046   2.08593
   R10        2.07135  -0.00003   0.00000  -0.00008  -0.00008   2.07128
   R11        2.88022  -0.00015   0.00000  -0.00051  -0.00051   2.87971
   R12        2.63854   0.00010   0.00000   0.00022   0.00022   2.63876
   R13        2.07235  -0.00011   0.00000  -0.00033  -0.00033   2.07202
   R14        2.06825   0.00007   0.00000   0.00019   0.00019   2.06845
   R15        2.66808   0.00018   0.00000   0.00041   0.00041   2.66849
   R16        1.91630  -0.00093   0.00000  -0.00204  -0.00204   1.91426
   R17        1.83315   0.00001   0.00000   0.00002   0.00002   1.83317
    A1        1.98300  -0.00007   0.00000  -0.00003  -0.00003   1.98297
    A2        1.92108  -0.00016   0.00000  -0.00093  -0.00093   1.92016
    A3        2.07641   0.00020   0.00000   0.00088   0.00088   2.07729
    A4        1.89594   0.00035   0.00000   0.00171   0.00171   1.89765
    A5        1.78451  -0.00005   0.00000  -0.00015  -0.00015   1.78436
    A6        1.78554  -0.00025   0.00000  -0.00139  -0.00139   1.78415
    A7        1.89256   0.00004   0.00000   0.00025   0.00025   1.89281
    A8        1.89307  -0.00009   0.00000  -0.00090  -0.00090   1.89217
    A9        1.77219  -0.00034   0.00000  -0.00225  -0.00225   1.76993
   A10        1.46383   0.00004   0.00000  -0.00029  -0.00029   1.46354
   A11        1.96226  -0.00043   0.00000  -0.00269  -0.00269   1.95957
   A12        1.87152  -0.00004   0.00000   0.00107   0.00107   1.87258
   A13        1.86621   0.00016   0.00000   0.00010   0.00009   1.86630
   A14        1.94056   0.00014   0.00000  -0.00081  -0.00081   1.93974
   A15        1.89678   0.00029   0.00000   0.00221   0.00221   1.89898
   A16        1.88211   0.00022   0.00000   0.00141   0.00141   1.88352
   A17        2.00231  -0.00073   0.00000  -0.00363  -0.00363   1.99868
   A18        1.89082  -0.00026   0.00000  -0.00240  -0.00240   1.88842
   A19        1.89013   0.00033   0.00000   0.00308   0.00308   1.89321
   A20        1.99616  -0.00001   0.00000  -0.00026  -0.00026   1.99590
   A21        1.88709   0.00004   0.00000   0.00081   0.00081   1.88790
   A22        1.93745   0.00008   0.00000  -0.00063  -0.00064   1.93682
   A23        1.85879  -0.00015   0.00000  -0.00035  -0.00035   1.85844
   A24        1.90822  -0.00044   0.00000  -0.00273  -0.00273   1.90549
   A25        1.89326  -0.00064   0.00000  -0.00398  -0.00398   1.88928
   A26        2.97685  -0.00030   0.00000  -0.00120  -0.00120   2.97565
    D1        0.08476  -0.00002   0.00000   0.00083   0.00083   0.08558
    D2       -2.05963  -0.00002   0.00000   0.00078   0.00078  -2.05885
    D3        2.34463   0.00016   0.00000   0.00180   0.00180   2.34644
    D4       -0.29516   0.00002   0.00000   0.00020   0.00020  -0.29495
    D5        1.22891  -0.00007   0.00000  -0.00101  -0.00101   1.22791
    D6        1.88614   0.00007   0.00000   0.00071   0.00071   1.88685
    D7       -2.87297  -0.00002   0.00000  -0.00050  -0.00050  -2.87347
    D8       -2.51883   0.00003   0.00000   0.00053   0.00053  -2.51830
    D9       -0.99476  -0.00006   0.00000  -0.00068  -0.00068  -0.99543
   D10       -1.26880   0.00011   0.00000   0.00108   0.00108  -1.26772
   D11        2.81409   0.00010   0.00000   0.00066   0.00066   2.81475
   D12        0.85145  -0.00018   0.00000  -0.00068  -0.00068   0.85077
   D13       -0.46102   0.00053   0.00000   0.18809   0.18809  -0.27292
   D14        1.41783   0.00046   0.00000   0.18723   0.18723   1.60506
   D15        1.13406   0.00001   0.00000   0.01359   0.01358   1.14765
   D16       -0.90878  -0.00007   0.00000   0.01226   0.01226  -0.89653
   D17       -2.97819  -0.00010   0.00000   0.01071   0.01071  -2.96748
   D18       -3.13416   0.00019   0.00000   0.01598   0.01598  -3.11818
   D19        1.10618   0.00011   0.00000   0.01465   0.01465   1.12083
   D20       -0.96323   0.00008   0.00000   0.01311   0.01311  -0.95012
   D21       -1.02630   0.00020   0.00000   0.01700   0.01700  -1.00930
   D22       -3.06914   0.00012   0.00000   0.01567   0.01567  -3.05348
   D23        1.14464   0.00009   0.00000   0.01412   0.01412   1.15876
   D24       -1.32025   0.00015   0.00000   0.00325   0.00325  -1.31700
   D25        2.91590  -0.00001   0.00000   0.00156   0.00156   2.91746
   D26        0.79999  -0.00006   0.00000   0.00008   0.00008   0.80007
   D27       -1.08514   0.00063   0.00000   0.02997   0.02997  -1.05517
   D28        1.06077   0.00033   0.00000   0.02608   0.02608   1.08685
   D29        3.11098   0.00033   0.00000   0.02651   0.02651   3.13749
   D30       -0.41591   0.00105   0.00000   0.07189   0.07189  -0.34402
         Item               Value     Threshold  Converged?
 Maximum Force            0.001047     0.000450     NO 
 RMS     Force            0.000282     0.000300     YES
 Maximum Displacement     0.584705     0.001800     NO 
 RMS     Displacement     0.222217     0.001200     NO 
 Predicted change in Energy=-1.744660D-04
 GradGradGradGradGradGradGradGradGradGradGradGradGradGradGradGradGradGrad

                          Input orientation:                          
 ---------------------------------------------------------------------
 Center     Atomic      Atomic             Coordinates (Angstroms)
 Number     Number       Type             X           Y           Z
 ---------------------------------------------------------------------
      1         14           0        1.314457    0.443164    0.073708
      2          8           0        0.729248   -1.000488    0.239168
      3          8           0        2.945567    0.467524   -0.259972
      4          1           0        3.244592   -0.432094   -0.371357
      5          8           0        0.495908    1.261769   -1.158781
      6          1           0        0.022648    0.614770   -1.691235
      7          8           0        1.198446    1.510818    1.342846
      8          1           0        0.305616    1.827484    1.469417
      9          6           0       -2.167266   -0.885427    0.079566
     10          1           0       -2.423489   -1.711832    0.765016
     11          1           0       -2.980547   -0.803837   -0.650702
     12          6           0       -2.127881    0.388269    0.915240
     13          1           0       -1.296570    0.306279    1.625479
     14          1           0       -3.059126    0.457341    1.486299
     15          8           0       -0.988788   -1.157131   -0.618442
     16          8           0       -2.031933    1.577573    0.160004
     17          1           0       -1.210557    1.544877   -0.355080
     18          1           0       -0.197784   -1.027607    0.000967
 ---------------------------------------------------------------------
                    Distance matrix (angstroms):
                    1          2          3          4          5
     1  Si   0.000000
     2  O    1.566518   0.000000
     3  O    1.665069   2.704860   0.000000
     4  H    2.165544   2.650051   0.954534   0.000000
     5  O    1.690906   2.669553   2.727546   3.323322   0.000000
     6  H    2.193910   2.614344   3.257860   3.635784   0.962336
     7  O    1.662545   2.782967   2.590352   3.301532   2.610311
     8  H    2.209549   3.112940   3.436512   4.139048   2.695120
     9  C    3.726606   2.903189   5.299701   5.449501   3.638194
    10  H    4.369686   3.274489   5.884467   5.920829   4.589791
    11  H    4.530656   3.820094   6.073537   6.242483   4.075612
    12  C    3.544133   3.247907   5.208385   5.584962   3.456709
    13  H    3.040426   2.780905   4.645067   5.015446   3.446454
    14  H    4.596068   4.246454   6.253471   6.631655   4.503534
    15  O    2.888763   1.926571   4.271668   4.302120   2.889180
    16  O    3.534496   3.778463   5.117040   5.671228   2.868608
    17  H    2.788069   3.254974   4.294543   4.874119   1.907383
    18  H    2.110766   0.957529   3.490582   3.513291   2.658471
                    6          7          8          9         10
     6  H    0.000000
     7  O    3.375063   0.000000
     8  H    3.397126   0.955742   0.000000
     9  C    3.190932   4.320403   3.925139   0.000000
    10  H    4.174904   4.882394   4.524484   1.103828   0.000000
    11  H    3.480565   5.176470   4.713558   1.096072   1.771730
    12  C    3.386707   3.536582   2.881034   1.523878   2.126118
    13  H    3.582749   2.784941   2.214818   2.137317   2.466397
    14  H    4.429315   4.388315   3.633052   2.139471   2.372677
    15  O    2.305107   3.968449   3.865560   1.396370   2.068820
    16  O    2.928375   3.440773   2.690940   2.468027   3.367424
    17  H    2.042352   2.947441   2.389024   2.647751   3.651297
    18  H    2.368446   3.192757   3.249815   1.976172   2.450653
                   11         12         13         14         15
    11  H    0.000000
    12  C    2.144839   0.000000
    13  H    3.041240   1.096467   0.000000
    14  H    2.482643   1.094576   1.774485   0.000000
    15  O    2.023107   2.457229   2.696567   3.364929   0.000000
    16  O    2.688537   1.412102   2.074744   2.017201   3.028652
    17  H    2.955794   1.947547   2.337549   2.826768   2.723855
    18  H    2.866796   2.562397   2.371839   3.549445   1.012981
                   16         17         18
    16  O    0.000000
    17  H    0.970072   0.000000
    18  H    3.190041   2.787499   0.000000
 Stoichiometry    C2H9O6Si(1-)
 Framework group  C1[X(C2H9O6Si)]
 Deg. of freedom    48
 Full point group                 C1      NOp   1
 Largest Abelian subgroup         C1      NOp   1
 Largest concise Abelian subgroup C1      NOp   1
                         Standard orientation:                         
 ---------------------------------------------------------------------
 Center     Atomic      Atomic             Coordinates (Angstroms)
 Number     Number       Type             X           Y           Z
 ---------------------------------------------------------------------
      1         14           0        1.273969   -0.019139    0.068909
      2          8           0        0.485469   -1.263405    0.601869
      3          8           0        2.908294   -0.288101   -0.101673
      4          1           0        3.084842   -1.206535    0.089230
      5          8           0        0.645440    0.468784   -1.423085
      6          1           0        0.116383   -0.251382   -1.780226
      7          8           0        1.238884    1.393616    0.944664
      8          1           0        0.393257    1.835144    0.886273
      9          6           0       -2.353876   -0.868148    0.143175
     10          1           0       -2.759437   -1.407456    1.016733
     11          1           0       -3.107019   -0.921926   -0.651342
     12          6           0       -2.183096    0.587524    0.560376
     13          1           0       -1.411092    0.632659    1.337687
     14          1           0       -3.125299    0.936737    0.994427
     15          8           0       -1.188512   -1.476484   -0.327680
     16          8           0       -1.881728    1.466557   -0.502879
     17          1           0       -1.046141    1.181682   -0.904973
     18          1           0       -0.422000   -1.254960    0.296433
 ---------------------------------------------------------------------
 Rotational constants (GHZ):           2.2203653           0.9533002           0.8224207
 Standard basis: def2TZVPP (5D, 7F)
 There are   471 symmetry adapted cartesian basis functions of A   symmetry.
 There are   416 symmetry adapted basis functions of A   symmetry.
   416 basis functions,   630 primitive gaussians,   471 cartesian basis functions
    42 alpha electrons       42 beta electrons
       nuclear repulsion energy       646.4333581905 Hartrees.
 NAtoms=   18 NActive=   18 NUniq=   18 SFac= 1.00D+00 NAtFMM=   60 NAOKFM=F Big=F
 Integral buffers will be    131072 words long.
 Raffenetti 2 integral format.
 Two-electron integral symmetry is turned on.
 Nuclear repulsion after empirical dispersion term =      646.4221707884 Hartrees.
 One-electron integrals computed using PRISM.
   1 Symmetry operations used in ECPInt.
 ECPInt:  NShTT=   12246 NPrTT=   33908 LenC2=   11751 LenP2D=   25679.
 LDataN:  DoStor=T MaxTD1= 6 Len=  172
 NBasis=   416 RedAO= T EigKep=  2.36D-04  NBF=   416
 NBsUse=   416 1.00D-06 EigRej= -1.00D+00 NBFU=   416
 Initial guess from the checkpoint file:  "OptOfIRCQLandEGreactant.chk"
 B after Tr=    -0.000000    0.000000   -0.000000
         Rot=    0.997824   -0.055372    0.011270   -0.033968 Ang=  -7.56 deg.
 ExpMin= 7.01D-02 ExpMax= 4.48D+04 ExpMxC= 1.53D+03 IAcc=3 IRadAn=         5 AccDes= 0.00D+00
 Harris functional with IExCor= 4639 and IRadAn=       5 diagonalized for initial guess.
 HarFok:  IExCor= 4639 AccDes= 0.00D+00 IRadAn=         5 IDoV= 1 UseB2=F ITyADJ=14
 ICtDFT=  3500011 ScaDFX=  1.000000  1.000000  1.000000  1.000000
 FoFCou: FMM=F IPFlag=           0 FMFlag=      100000 FMFlg1=           0
         NFxFlg=           0 DoJE=T BraDBF=F KetDBF=T FulRan=T
         wScrn=  0.000000 ICntrl=       500 IOpCl=  0 I1Cent=   200000004 NGrid=           0
         NMat0=    1 NMatS0=      1 NMatT0=    0 NMatD0=    1 NMtDS0=    0 NMtDT0=    0
 Petite list used in FoFCou.
 Requested convergence on RMS density matrix=1.00D-08 within 128 cycles.
 Requested convergence on MAX density matrix=1.00D-06.
 Requested convergence on             energy=1.00D-06.
 No special actions if energy rises.
 Integral accuracy reduced to 1.0D-05 until final iterations.
 Initial convergence to 1.0D-05 achieved.  Increase integral accuracy.
 SCF Done:  E(RwB97XD) =  -822.725900618     A.U. after   14 cycles
            NFock= 14  Conv=0.61D-08     -V/T= 2.0023
   1 Symmetry operations used in ECPInt.
 ECPInt:  NShTT=   12246 NPrTT=   33908 LenC2=   11751 LenP2D=   25679.
 LDataN:  DoStor=T MaxTD1= 7 Len=  274
 Calling FoFJK, ICntrl=      2127 FMM=F ISym2X=0 I1Cent= 0 IOpClX= 0 NMat=1 NMatS=1 NMatT=0.
 ***** Axes restored to original set *****
 -------------------------------------------------------------------
 Center     Atomic                   Forces (Hartrees/Bohr)
 Number     Number              X              Y              Z
 -------------------------------------------------------------------
      1       14           0.013836367    0.020991714   -0.002901910
      2        8           0.241007269    0.020710214    0.096882540
      3        8          -0.004668623   -0.003256533    0.000979542
      4        1           0.001473364   -0.000275957   -0.000421004
      5        8           0.003480477   -0.004561515    0.003550153
      6        1          -0.001056845   -0.003086623    0.002172128
      7        8          -0.000057022   -0.002951448   -0.001333853
      8        1          -0.000066077    0.001395208   -0.000029660
      9        6           0.008106808   -0.007195712   -0.020911055
     10        1          -0.002217831   -0.001474280    0.003100895
     11        1          -0.008458157    0.002103759    0.002508383
     12        6          -0.003757428   -0.002511119   -0.001913344
     13        1          -0.000154375    0.000316369    0.002790929
     14        1           0.000771802    0.000991117    0.001224834
     15        8          -0.189000482   -0.008519299   -0.082744337
     16        8           0.002478015    0.003139231    0.000347777
     17        1          -0.002598471   -0.000578655    0.000336315
     18        1          -0.059118792   -0.015236471   -0.003638335
 -------------------------------------------------------------------
 Cartesian Forces:  Max     0.241007269 RMS     0.046296591

 GradGradGradGradGradGradGradGradGradGradGradGradGradGradGradGradGradGrad
 Berny optimization.
 Using GEDIIS/GDIIS optimizer.
 FormGI is forming the generalized inverse of G from B-inverse, IUseBI=4.
 Internal  Forces:  Max     1.124830373 RMS     0.239462776
 Search for a local minimum.
 Step number   2 out of a maximum of   83
 All quantities printed in internal units (Hartrees-Bohrs-Radians)
 Mixed Optimization -- RFO/linear search
 Update second derivatives using D2CorX and points    2    1
 DE=  9.83D-02 DEPred=-1.74D-04 R=-5.63D+02
 Trust test=-5.63D+02 RLast= 2.83D-01 DXMaxT set to 1.50D-01
 ITU= -1  0
 Use linear search instead of GDIIS.
     Eigenvalues ---    0.00428   0.00505   0.01502   0.01740   0.03124
     Eigenvalues ---    0.03474   0.03517   0.04533   0.04739   0.04984
     Eigenvalues ---    0.06003   0.06067   0.06901   0.10042   0.11095
     Eigenvalues ---    0.11454   0.11796   0.11815   0.12696   0.13562
     Eigenvalues ---    0.14128   0.14389   0.15827   0.16000   0.16000
     Eigenvalues ---    0.16000   0.20224   0.21243   0.21686   0.22096
     Eigenvalues ---    0.24221   0.29936   0.33228   0.34052   0.34115
     Eigenvalues ---    0.34299   0.36802   0.40407   0.40829   0.43694
     Eigenvalues ---    0.44966   0.46017   0.53094   0.54960   0.56424
     Eigenvalues ---    0.56666   0.58214  13.39426
 RFO step:  Lambda=-4.15613807D-03 EMin= 4.27727715D-03
 Quartic linear search produced a step of -0.99144.
 Iteration  1 RMS(Cart)=  0.14372140 RMS(Int)=  0.01426192
 Iteration  2 RMS(Cart)=  0.06947628 RMS(Int)=  0.00101958
 Iteration  3 RMS(Cart)=  0.00187170 RMS(Int)=  0.00006684
 Iteration  4 RMS(Cart)=  0.00000164 RMS(Int)=  0.00006683
 Iteration  5 RMS(Cart)=  0.00000000 RMS(Int)=  0.00006683
 Variable       Old X    -DE/DX   Delta X   Delta X   Delta X     New X
                                 (Linear)    (Quad)   (Total)
    R1        2.96029  -0.09889  -0.00045  -0.00066  -0.00111   2.95918
    R2        3.14652  -0.00329   0.00038  -0.00047  -0.00008   3.14644
    R3        3.19535   0.17195   0.00009   0.00299   0.00309   3.19844
    R4        3.14175  -0.00203  -0.00072   0.00074   0.00002   3.14178
    R5        1.80381   0.00077  -0.00000   0.00001   0.00001   1.80382
    R6        1.81855   0.00139   0.00012  -0.00011   0.00001   1.81856
    R7        3.60443   0.18123   0.00222   0.01910   0.02132   3.62575
    R8        1.80609   0.00052  -0.00027   0.00029   0.00002   1.80611
    R9        2.08593   0.00354   0.00046  -0.00043   0.00003   2.08596
   R10        2.07128   0.00476   0.00007   0.00001   0.00009   2.07136
   R11        2.87971   0.08759   0.00050   0.00139   0.00189   2.88160
   R12        2.63876  -0.16160  -0.00022  -0.00210  -0.00232   2.63644
   R13        2.07202   0.00167   0.00032  -0.00032   0.00000   2.07203
   R14        2.06845   0.00005  -0.00019   0.00021   0.00002   2.06847
   R15        2.66849  -0.00946  -0.00040   0.00029  -0.00012   2.66837
   R16        1.91426  -0.05034   0.00202  -0.00291  -0.00088   1.91338
   R17        1.83317   0.15918  -0.00002   0.00201   0.00199   1.83516
    A1        1.98297  -0.13423   0.00003  -0.00538  -0.00535   1.97762
    A2        1.92016   0.30859   0.00092   0.01135   0.01227   1.93243
    A3        2.07729  -0.03981  -0.00087   0.00017  -0.00072   2.07657
    A4        1.89765  -0.11066  -0.00170  -0.00185  -0.00355   1.89410
    A5        1.78436   0.03623   0.00015  -0.00175  -0.00162   1.78274
    A6        1.78415  -0.08360   0.00138  -0.00331  -0.00194   1.78221
    A7        1.89281   0.00243  -0.00025   0.00039   0.00014   1.89295
    A8        1.89217   0.32995   0.00089   0.01900   0.01975   1.91192
    A9        1.76993   0.71285   0.00223   0.02815   0.03026   1.80020
   A10        1.46354  -0.10406   0.00029   0.00228   0.00217   1.46571
   A11        1.95957   0.00133   0.00266  -0.00306  -0.00040   1.95917
   A12        1.87258   0.02301  -0.00106   0.00024  -0.00082   1.87176
   A13        1.86630  -0.05567  -0.00009   0.00040   0.00029   1.86659
   A14        1.93974  -0.04481   0.00080   0.00101   0.00179   1.94153
   A15        1.89898  -0.08875  -0.00219  -0.00200  -0.00418   1.89480
   A16        1.88352  -0.11682  -0.00140  -0.00432  -0.00571   1.87781
   A17        1.99868   0.27038   0.00360   0.00445   0.00804   2.00672
   A18        1.88842   0.25477   0.00238   0.01300   0.01538   1.90380
   A19        1.89321  -0.21367  -0.00306  -0.01131  -0.01440   1.87881
   A20        1.99590  -0.09437   0.00026  -0.00310  -0.00292   1.99297
   A21        1.88790  -0.01110  -0.00081   0.00100   0.00026   1.88816
   A22        1.93682  -0.01722   0.00063   0.00409   0.00467   1.94149
   A23        1.85844   0.07212   0.00035  -0.00432  -0.00408   1.85436
   A24        1.90549  -0.05791   0.00270  -0.00554  -0.00284   1.90266
   A25        1.88928   0.57369   0.00395   0.01890   0.02285   1.91213
   A26        2.97565   0.49488   0.00119   0.01178   0.01297   2.98862
    D1        0.08558   0.11121  -0.00082   0.00661   0.00579   0.09137
    D2       -2.05885  -0.11267  -0.00077  -0.00296  -0.00373  -2.06258
    D3        2.34644   0.00164  -0.00179   0.00207   0.00028   2.34672
    D4       -0.29495  -0.01512  -0.00020   0.00130   0.00098  -0.29397
    D5        1.22791   0.16559   0.00100   0.01638   0.01751   1.24541
    D6        1.88685  -0.05289  -0.00070   0.00086   0.00003   1.88689
    D7       -2.87347   0.12782   0.00050   0.01595   0.01656  -2.85691
    D8       -2.51830  -0.08530  -0.00053  -0.00310  -0.00376  -2.52205
    D9       -0.99543   0.09542   0.00067   0.01198   0.01277  -0.98267
   D10       -1.26772  -0.16151  -0.00107  -0.00640  -0.00746  -1.27518
   D11        2.81475   0.01278  -0.00065   0.00211   0.00145   2.81621
   D12        0.85077   0.14695   0.00067   0.00574   0.00641   0.85718
   D13       -0.27292  -0.64083  -0.18648   0.41029   0.22374  -0.04918
   D14        1.60506  -0.35721  -0.18563   0.42872   0.24316   1.84821
   D15        1.14765  -0.02182  -0.01347   0.02957   0.01607   1.16372
   D16       -0.89653  -0.03171  -0.01215   0.02743   0.01533  -0.88119
   D17       -2.96748   0.08560  -0.01062   0.04275   0.03212  -2.93535
   D18       -3.11818  -0.06847  -0.01585   0.02906   0.01318  -3.10500
   D19        1.12083  -0.07836  -0.01453   0.02692   0.01244   1.13327
   D20       -0.95012   0.03894  -0.01300   0.04224   0.02923  -0.92089
   D21       -1.00930  -0.10313  -0.01685   0.02500   0.00811  -1.00119
   D22       -3.05348  -0.11302  -0.01553   0.02287   0.00737  -3.04610
   D23        1.15876   0.00429  -0.01400   0.03818   0.02416   1.18292
   D24       -1.31700  -0.04214  -0.00322   0.00470   0.00147  -1.31553
   D25        2.91746   0.02571  -0.00155   0.00644   0.00489   2.92236
   D26        0.80007   0.04729  -0.00008   0.00925   0.00918   0.80925
   D27       -1.05517  -0.56362  -0.02971  -0.08205  -0.11175  -1.16692
   D28        1.08685  -0.30936  -0.02586  -0.06389  -0.08975   0.99711
   D29        3.13749  -0.28955  -0.02628  -0.06305  -0.08934   3.04815
   D30       -0.34402  -1.12483  -0.07128  -0.23836  -0.30964  -0.65365
         Item               Value     Threshold  Converged?
 Maximum Force            1.124830     0.000450     NO 
 RMS     Force            0.239463     0.000300     NO 
 Maximum Displacement     0.574570     0.001800     NO 
 RMS     Displacement     0.200516     0.001200     NO 
 Predicted change in Energy=-5.774217D-02
 GradGradGradGradGradGradGradGradGradGradGradGradGradGradGradGradGradGrad

                          Input orientation:                          
 ---------------------------------------------------------------------
 Center     Atomic      Atomic             Coordinates (Angstroms)
 Number     Number       Type             X           Y           Z
 ---------------------------------------------------------------------
      1         14           0        1.466386    0.523054    0.101118
      2          8           0        1.006088   -0.955874    0.331423
      3          8           0        3.085811    0.660283   -0.260737
      4          1           0        3.451638   -0.217150   -0.346905
      5          8           0        0.574198    1.240680   -1.145358
      6          1           0        0.136521    0.557347   -1.662655
      7          8           0        1.289283    1.623190    1.334985
      8          1           0        0.376789    1.874771    1.467370
      9          6           0       -2.378257   -0.907975    0.076254
     10          1           0       -2.693685   -1.704435    0.772407
     11          1           0       -3.217908   -0.718200   -0.602308
     12          6           0       -2.137629    0.344008    0.912849
     13          1           0       -1.275040    0.176521    1.568695
     14          1           0       -3.020220    0.497538    1.541799
     15          8           0       -1.292837   -1.315561   -0.699739
     16          8           0       -1.982265    1.525260    0.154981
     17          1           0       -1.161053    1.474847   -0.360924
     18          1           0       -0.455280   -1.296853   -0.131115
 ---------------------------------------------------------------------
                    Distance matrix (angstroms):
                    1          2          3          4          5
     1  Si   0.000000
     2  O    1.565932   0.000000
     3  O    1.665025   2.699605   0.000000
     4  H    2.165606   2.643209   0.954539   0.000000
     5  O    1.692539   2.681839   2.725365   3.323019   0.000000
     6  H    2.209211   2.649969   3.267152   3.649801   0.962341
     7  O    1.662556   2.781888   2.588635   3.300210   2.609552
     8  H    2.209300   3.114312   3.435132   4.137925   2.695809
     9  C    4.102407   3.394289   5.694650   5.885914   3.850460
    10  H    4.766396   3.800412   6.329443   6.421049   4.799019
    11  H    4.896747   4.332491   6.461715   6.693215   4.302578
    12  C    3.698634   3.451189   5.362990   5.756890   3.520546
    13  H    3.128784   2.831379   4.753722   5.115270   3.452275
    14  H    4.712308   4.448435   6.368614   6.779596   4.548947
    15  O    3.411039   2.545138   4.823820   4.882729   3.196680
    16  O    3.591729   3.888111   5.158140   5.728454   2.882251
    17  H    2.832461   3.329302   4.325438   4.913245   1.918663
    18  H    2.656839   1.570288   4.048025   4.059104   2.920203
                    6          7          8          9         10
     6  H    0.000000
     7  O    3.383892   0.000000
     8  H    3.404466   0.955753   0.000000
     9  C    3.390440   4.630556   4.155618   0.000000
    10  H    4.365232   5.220499   4.766707   1.103844   0.000000
    11  H    3.742132   5.435989   4.891719   1.096118   1.771245
    12  C    3.442455   3.682150   2.995501   1.524879   2.127214
    13  H    3.546711   2.953510   2.371257   2.149558   2.486890
    14  H    4.498569   4.458888   3.666331   2.129649   2.355265
    15  O    2.545203   4.409501   4.202645   1.395144   2.069012
    16  O    2.954642   3.479228   2.722069   2.466504   3.364262
    17  H    2.054266   2.983666   2.422304   2.711190   3.706917
    18  H    2.476671   3.703997   3.647833   1.972833   2.448047
                   11         12         13         14         15
    11  H    0.000000
    12  C    2.142660   0.000000
    13  H    3.047706   1.096469   0.000000
    14  H    2.472710   1.094585   1.774662   0.000000
    15  O    2.017977   2.463389   2.715220   3.360904   0.000000
    16  O    2.670845   1.412041   2.077944   2.014157   3.045672
    17  H    3.016350   1.963414   2.328535   2.834077   2.813989
    18  H    2.861638   2.571494   2.394200   3.549281   1.012515
                   16         17         18
    16  O    0.000000
    17  H    0.971127   0.000000
    18  H    3.221468   2.869363   0.000000
 Stoichiometry    C2H9O6Si(1-)
 Framework group  C1[X(C2H9O6Si)]
 Deg. of freedom    48
 Full point group                 C1      NOp   1
 Largest Abelian subgroup         C1      NOp   1
 Largest concise Abelian subgroup C1      NOp   1
                         Standard orientation:                         
 ---------------------------------------------------------------------
 Center     Atomic      Atomic             Coordinates (Angstroms)
 Number     Number       Type             X           Y           Z
 ---------------------------------------------------------------------
      1         14           0        1.392795   -0.064226    0.075173
      2          8           0        0.634810   -1.265048    0.735192
      3          8           0        3.014937   -0.357700   -0.159002
      4          1           0        3.196239   -1.263135    0.082784
      5          8           0        0.698065    0.335893   -1.415446
      6          1           0        0.143693   -0.390389   -1.717583
      7          8           0        1.412075    1.403305    0.856246
      8          1           0        0.566963    1.847558    0.812798
      9          6           0       -2.660942   -0.687974    0.164052
     10          1           0       -3.149962   -1.127221    1.050840
     11          1           0       -3.426508   -0.590554   -0.614338
     12          6           0       -2.191663    0.707599    0.560800
     13          1           0       -1.398520    0.618783    1.312650
     14          1           0       -3.040282    1.225274    1.019031
     15          8           0       -1.661850   -1.527192   -0.329870
     16          8           0       -1.779234    1.509924   -0.525495
     17          1           0       -0.972564    1.137116   -0.917141
     18          1           0       -0.852990   -1.469479    0.276430
 ---------------------------------------------------------------------
 Rotational constants (GHZ):           2.1902546           0.8420113           0.7356389
 Standard basis: def2TZVPP (5D, 7F)
 There are   471 symmetry adapted cartesian basis functions of A   symmetry.
 There are   416 symmetry adapted basis functions of A   symmetry.
   416 basis functions,   630 primitive gaussians,   471 cartesian basis functions
    42 alpha electrons       42 beta electrons
       nuclear repulsion energy       625.1384106543 Hartrees.
 NAtoms=   18 NActive=   18 NUniq=   18 SFac= 1.00D+00 NAtFMM=   60 NAOKFM=F Big=F
 Integral buffers will be    131072 words long.
 Raffenetti 2 integral format.
 Two-electron integral symmetry is turned on.
 Nuclear repulsion after empirical dispersion term =      625.1275095997 Hartrees.
 One-electron integrals computed using PRISM.
   1 Symmetry operations used in ECPInt.
 ECPInt:  NShTT=   12246 NPrTT=   33908 LenC2=   11654 LenP2D=   25270.
 LDataN:  DoStor=T MaxTD1= 6 Len=  172
 NBasis=   416 RedAO= T EigKep=  2.83D-04  NBF=   416
 NBsUse=   416 1.00D-06 EigRej= -1.00D+00 NBFU=   416
 Lowest energy guess from the checkpoint file:  "OptOfIRCQLandEGreactant.chk"
 B after Tr=    -0.000000    0.000000   -0.000000
         Rot=    0.999405   -0.033902    0.004587   -0.004352 Ang=  -3.95 deg.
 B after Tr=     0.000000   -0.000000    0.000000
         Rot=    0.999323    0.021622   -0.005813    0.029176 Ang=   4.22 deg.
 Requested convergence on RMS density matrix=1.00D-08 within 128 cycles.
 Requested convergence on MAX density matrix=1.00D-06.
 Requested convergence on             energy=1.00D-06.
 No special actions if energy rises.
 Integral accuracy reduced to 1.0D-05 until final iterations.
 Initial convergence to 1.0D-05 achieved.  Increase integral accuracy.
 SCF Done:  E(RwB97XD) =  -822.821450086     A.U. after   12 cycles
            NFock= 12  Conv=0.77D-08     -V/T= 2.0034
   1 Symmetry operations used in ECPInt.
 ECPInt:  NShTT=   12246 NPrTT=   33908 LenC2=   11654 LenP2D=   25270.
 LDataN:  DoStor=T MaxTD1= 7 Len=  274
 Calling FoFJK, ICntrl=      2127 FMM=F ISym2X=0 I1Cent= 0 IOpClX= 0 NMat=1 NMatS=1 NMatT=0.
 ***** Axes restored to original set *****
 -------------------------------------------------------------------
 Center     Atomic                   Forces (Hartrees/Bohr)
 Number     Number              X              Y              Z
 -------------------------------------------------------------------
      1       14          -0.000351608   -0.004760598    0.000182985
      2        8           0.002149119    0.002245262    0.004602375
      3        8          -0.000210739    0.000333353   -0.000398908
      4        1          -0.000141725   -0.000040374    0.000034106
      5        8          -0.003717864   -0.001834434   -0.001772021
      6        1           0.003157545    0.000120445    0.002503331
      7        8          -0.000527236    0.000882007    0.000085031
      8        1           0.000379554    0.000816318   -0.000221993
      9        6           0.001257506   -0.001709233   -0.001582610
     10        1          -0.000518185   -0.000312479    0.000676908
     11        1          -0.000726900    0.000522248    0.000875167
     12        6          -0.002029087    0.000150409   -0.003607189
     13        1           0.000204969   -0.000812551    0.000153133
     14        1           0.000637051    0.000627606    0.000896692
     15        8          -0.003260007    0.001288879    0.005561747
     16        8           0.001021014    0.001188272    0.000420494
     17        1          -0.000772961   -0.001209267    0.001999148
     18        1           0.003449555    0.002504136   -0.010408396
 -------------------------------------------------------------------
 Cartesian Forces:  Max     0.010408396 RMS     0.002356221

 GradGradGradGradGradGradGradGradGradGradGradGradGradGradGradGradGradGrad
 Berny optimization.
 Using GEDIIS/GDIIS optimizer.
 FormGI is forming the generalized inverse of G from B-inverse, IUseBI=4.
 Internal  Forces:  Max     0.033128534 RMS     0.007465029
 Search for a local minimum.
 Step number   3 out of a maximum of   83
 All quantities printed in internal units (Hartrees-Bohrs-Radians)
 Mixed Optimization -- RFO/linear search
 Update second derivatives using D2CorX and points    2    3    1
 DE=  2.73D-03 DEPred=-5.77D-02 R=-4.72D-02
 Trust test=-4.72D-02 RLast= 6.63D-01 DXMaxT set to 7.50D-02
 ITU= -1 -1  0
 Use linear search instead of GDIIS.
 Energy rises -- skip Quadratic/GDIIS search.
 Quartic linear search produced a step of -0.99157.
 Iteration  1 RMS(Cart)=  0.12277759 RMS(Int)=  0.03929548
 Iteration  2 RMS(Cart)=  0.11032034 RMS(Int)=  0.00662381
 Iteration  3 RMS(Cart)=  0.02726674 RMS(Int)=  0.00017280
 Iteration  4 RMS(Cart)=  0.00029413 RMS(Int)=  0.00000048
 Iteration  5 RMS(Cart)=  0.00000003 RMS(Int)=  0.00000048
 Variable       Old X    -DE/DX   Delta X   Delta X   Delta X     New X
                                 (Linear)    (Quad)   (Total)
    R1        2.95918  -0.00207   0.00065   0.00000   0.00065   2.95983
    R2        3.14644  -0.00024   0.00046   0.00000   0.00046   3.14691
    R3        3.19844   0.00407  -0.00297   0.00000  -0.00297   3.19547
    R4        3.14178   0.00104  -0.00074   0.00000  -0.00074   3.14104
    R5        1.80382  -0.00002  -0.00001   0.00000  -0.00001   1.80381
    R6        1.81856  -0.00287   0.00011   0.00000   0.00011   1.81867
    R7        3.62575  -0.00111  -0.01892   0.00000  -0.01892   3.60683
    R8        1.80611  -0.00018  -0.00029   0.00000  -0.00029   1.80582
    R9        2.08596   0.00080   0.00043   0.00000   0.00043   2.08639
   R10        2.07136   0.00011  -0.00001   0.00000  -0.00001   2.07135
   R11        2.88160   0.00076  -0.00137   0.00000  -0.00137   2.88023
   R12        2.63644   0.00173   0.00208   0.00000   0.00208   2.63852
   R13        2.07203   0.00038   0.00032   0.00000   0.00032   2.07235
   R14        2.06847   0.00009  -0.00021   0.00000  -0.00021   2.06826
   R15        2.66837  -0.00578  -0.00029   0.00000  -0.00029   2.66808
   R16        1.91338  -0.00295   0.00290   0.00000   0.00290   1.91627
   R17        1.83516  -0.00358  -0.00200   0.00000  -0.00200   1.83317
    A1        1.97762  -0.00092   0.00534   0.00000   0.00534   1.98296
    A2        1.93243   0.00697  -0.01125   0.00000  -0.01125   1.92118
    A3        2.07657  -0.00169  -0.00016   0.00000  -0.00016   2.07642
    A4        1.89410  -0.00180   0.00182   0.00000   0.00182   1.89592
    A5        1.78274   0.00082   0.00175   0.00000   0.00175   1.78449
    A6        1.78221  -0.00420   0.00330   0.00000   0.00330   1.78551
    A7        1.89295  -0.00027  -0.00039   0.00000  -0.00039   1.89256
    A8        1.91192   0.00548  -0.01869   0.00000  -0.01869   1.89323
    A9        1.80020  -0.00520  -0.02777   0.00000  -0.02777   1.77242
   A10        1.46571  -0.00012  -0.00186   0.00000  -0.00186   1.46385
   A11        1.95917   0.00079   0.00306   0.00000   0.00306   1.96223
   A12        1.87176   0.00043  -0.00025   0.00000  -0.00025   1.87152
   A13        1.86659  -0.00247  -0.00038   0.00000  -0.00038   1.86621
   A14        1.94153   0.00320  -0.00097   0.00000  -0.00097   1.94056
   A15        1.89480  -0.00111   0.00196   0.00000   0.00196   1.89676
   A16        1.87781  -0.00497   0.00426   0.00000   0.00426   1.88208
   A17        2.00672   0.00467  -0.00437   0.00000  -0.00437   2.00234
   A18        1.90380   0.00600  -0.01287   0.00000  -0.01287   1.89093
   A19        1.87881  -0.00009   0.01122   0.00000   0.01122   1.89003
   A20        1.99297  -0.01167   0.00316   0.00000   0.00316   1.99613
   A21        1.88816  -0.00139  -0.00107   0.00000  -0.00107   1.88710
   A22        1.94149  -0.00021  -0.00400   0.00000  -0.00400   1.93749
   A23        1.85436   0.00772   0.00439   0.00000   0.00439   1.85875
   A24        1.90266   0.01761   0.00552   0.00000   0.00552   1.90817
   A25        1.91213  -0.03313  -0.01871   0.00000  -0.01871   1.89342
   A26        2.98862  -0.02393  -0.01167   0.00000  -0.01167   2.97694
    D1        0.09137   0.00303  -0.00656   0.00000  -0.00656   0.08481
    D2       -2.06258  -0.00397   0.00293   0.00000   0.00293  -2.05965
    D3        2.34672   0.00093  -0.00207   0.00000  -0.00207   2.34465
    D4       -0.29397  -0.00232  -0.00118   0.00000  -0.00118  -0.29515
    D5        1.24541  -0.00304  -0.01636   0.00000  -0.01636   1.22905
    D6        1.88689  -0.00005  -0.00074   0.00000  -0.00074   1.88615
    D7       -2.85691  -0.00077  -0.01592   0.00000  -0.01592  -2.87284
    D8       -2.52205  -0.00150   0.00320   0.00000   0.00320  -2.51885
    D9       -0.98267  -0.00222  -0.01199   0.00000  -0.01199  -0.99466
   D10       -1.27518  -0.00255   0.00633   0.00000   0.00633  -1.26885
[...]
 3652,0.0222811,0.0353794,-0.1417814,-0.0029881,-0.0730796,0.3337817,0.
 0873248,-0.1119683,0.1829127,0.5961892,-0.2234808,-0.0518173,-0.212146
 4,0.3059966,-0.0096898,0.0128941,-0.1201266,-0.0248273,-0.0360637,0.03
 19263,-0.0882237,0.0376341,-0.0423157,-0.1747882,0.0067316,0.1753763,0
 .0262918,0.0032771,-0.021998,0.1298438,-0.0017081,-0.048366,-1.416017,
 -0.12013,0.13317,-0.0157019,-0.6020873,-0.1275704,-0.0168244,-0.102198
 5,-0.6427801,-0.7020541,-0.1470613,0.0856597,-0.1664985,-0.8726506,0.1
 228353,0.1037147,0.1828338,-0.6051851,0.604597,0.026729,-0.1321674,-0.
 0037378,0.2293883,0.0099579,-0.144499,0.006274,0.3077587,1.1021066,0.2
 029518,0.2488889,0.1480148,0.3060891,0.04986,0.4903491,0.0975772,0.258
 698\Polar=89.265932,3.9369256,72.2899469,-2.7788454,1.3085522,68.48771
 48\Quadrupole=-3.2759474,-1.4591971,4.7351445,-3.2778735,-3.0745358,0.
 1898413\PG=C01 [X(C2H9O6Si1)]\NImag=0\\0.48877785,0.05884696,0.6302215
 9,-0.02299016,-0.01607979,0.39406958,-0.09451564,-0.09634962,0.0269994
 0,0.11172947,-0.10475404,-0.34476269,0.08412072,0.12212659,0.38871151,
 0.02957885,0.08712748,-0.07877010,-0.02031196,-0.10380230,0.08226898,-
 0.21669628,-0.01968608,0.05147804,-0.01762433,-0.01116036,0.00774730,0
 .34629097,0.00761489,-0.05055247,-0.00163441,-0.02320458,-0.00069211,0
 .00671143,-0.17738636,0.53335248,0.04553776,0.00581656,-0.05380551,0.0
 1376970,0.00615399,0.00897224,-0.07031223,-0.00038435,0.04572458,-0.01
 619096,0.02966404,0.00267149,0.00679094,-0.00090420,-0.00219722,-0.088
 21793,0.16250365,0.00806740,0.10351214,-0.00089525,-0.00371355,0.00065
 380,-0.00211928,-0.00263261,0.00056562,0.19432988,-0.48504974,-0.00624
 227,-0.18940015,0.48995054,0.00575424,-0.00734915,0.00302924,-0.002851
 35,0.00010682,-0.00222400,0.00453529,0.00357682,-0.00268600,-0.0090354
 4,0.00485301,0.00495124,-0.08376474,0.03308007,-0.05920442,0.01303925,
 0.00482415,-0.00493589,-0.01741224,0.00924096,-0.01112663,-0.00226184,
 -0.00171647,-0.00165873,0.23962669,0.01964947,-0.07331372,0.03138497,0
 .00670070,-0.01312472,0.02354410,0.00373920,0.00706351,0.00243825,-0.0
 0192983,0.00036926,-0.00011108,0.15711522,0.38745372,-0.06079970,0.049
 43682,-0.13279630,-0.00587421,0.01878877,-0.00551332,-0.00487840,0.002
 73441,0.00570886,-0.00039027,-0.00041992,-0.00126980,0.20084614,0.1026
 6500,0.26764696,-0.01011249,-0.00995200,-0.01526679,-0.00277439,-0.002
 98960,0.00402251,-0.00036377,0.00176779,0.00104539,-0.00071690,0.00002
 759,-0.00059282,-0.13723567,-0.17727181,-0.11465582,0.14579825,0.00339
 689,0.00861406,0.00066952,-0.00199458,-0.00415759,-0.00058457,0.002037
 90,-0.00194314,0.00090180,0.00059609,0.00010779,0.00015755,-0.19167871
 ,-0.30794366,-0.16644587,0.18138926,0.30809247,-0.01469216,-0.01588803
 ,-0.01227604,0.00279746,-0.00174571,0.00373588,0.00129180,0.00054342,-
 0.00045001,-0.00032043,-0.00007100,0.00036151,-0.11052556,-0.14533150,
 -0.10758653,0.12219631,0.16393018,0.12600731,-0.04976835,0.01776768,0.
 01631821,0.01059416,-0.00458065,-0.00220748,-0.00950308,0.01729084,0.0
 1430621,-0.00221758,-0.00020929,0.00312346,0.00230625,-0.00566060,-0.0
 1112076,0.00131819,0.00034814,-0.00191138,0.53029079,-0.00143340,-0.14
 992516,-0.09584391,-0.00457410,-0.02035706,-0.01480427,0.00804342,-0.0
 0231777,-0.00633058,-0.00051692,0.00065300,-0.00110186,-0.00269988,0.0
 0503149,-0.00579894,0.00073363,0.00090178,0.00044956,-0.17270542,0.232
 93844,-0.00092970,-0.09013994,-0.12083082,-0.00105169,-0.00362695,0.00
 702087,0.00789013,-0.00970556,-0.00174123,0.00097845,0.00074354,-0.001
 41406,-0.01442223,-0.01824202,-0.02166761,0.00167081,0.00299177,-0.004
 90988,-0.07964809,0.15434481,0.16859549,-0.00473521,-0.00074273,-0.000
 53801,-0.00113784,-0.00225916,-0.00105136,0.00108329,0.00057152,-0.000
 44736,0.00005591,-0.00009145,0.00043556,-0.00207838,-0.00106064,-0.002
 36128,0.00047132,0.00005477,-0.00051387,-0.48178194,0.16856454,0.08371
 128,0.48589858,0.02087214,-0.00852120,-0.00739619,-0.00281916,0.000939
 81,0.00097888,0.00014740,-0.00064553,-0.00160721,0.00026503,0.00030641
 ,-0.00022619,-0.00047113,-0.00022764,0.00197288,-0.00004175,-0.0001264
 1,-0.00004406,0.14755363,-0.06694946,-0.03540721,-0.16455081,0.0765216
 5,0.01813667,-0.01007828,-0.00400731,-0.00055542,0.00096855,-0.0008358
 5,0.00154661,-0.00312390,-0.00068735,0.00064021,-0.00015078,-0.0008812
 6,-0.00077586,0.00224826,0.00152229,-0.00077471,-0.00013818,0.00050941
 ,0.06141775,-0.03154196,-0.02500858,-0.07924582,0.04225638,0.03105165,
 -0.00346519,-0.00575764,-0.00290848,0.00730258,0.00306931,0.00345925,0
 .00180057,0.00103288,-0.00025024,-0.00057438,0.00003398,0.00012029,0.0
 0194033,0.00366150,0.00095667,-0.00325273,-0.00349192,0.00167663,-0.00
 032469,0.00198906,0.00200329,0.00065283,0.00012804,-0.00046695,0.56116
 112,-0.00051825,0.00115905,0.00134597,-0.00151460,-0.00162049,-0.00224
 156,-0.00011408,-0.00022559,-0.00000237,0.00006403,0.00000727,-0.00002
 039,-0.00036714,-0.00187232,-0.00096114,0.00065714,0.00267209,0.000108
 29,0.00031405,-0.00027734,-0.00076648,-0.00017291,-0.00045772,0.000344
 97,-0.00440717,0.50546078,0.00116055,0.00420422,0.00049505,-0.00757890
 ,-0.00402617,-0.00634686,-0.00097426,-0.00064809,0.00036312,0.00033386
 ,-0.00002645,-0.00010354,-0.00037248,-0.00198492,-0.00075061,0.0018606
 2,0.00123977,-0.00110103,0.00031009,-0.00157636,-0.00085690,-0.0005564
 5,0.00013016,-0.00008097,0.04223547,-0.05302100,0.54181685,0.00076941,
 0.00018637,0.00076262,-0.00086298,0.00012678,-0.00113312,-0.00024558,-
 0.00000871,-0.00003458,0.00004718,-0.00001224,-0.00000052,-0.00074571,
 -0.00071942,-0.00046911,0.00079621,0.00109030,-0.00024215,-0.00003617,
 -0.00016529,-0.00030353,-0.00003606,0.00002080,0.00007738,-0.05895825,
 -0.03851415,0.01930642,0.07065339,0.00077899,-0.00034906,0.00035026,-0
 .00047885,0.00014790,-0.00052854,-0.00028051,0.00005028,0.00000026,0.0
 0003700,-0.00001612,0.00000252,-0.00074725,0.00028688,0.00007491,0.000
 21606,-0.00009522,-0.00018004,-0.00022005,0.00005220,-0.00018004,0.000
 22766,0.00000979,0.00020235,-0.03864943,-0.19859800,0.09706784,0.04554
 601,0.21336592,-0.00082262,-0.00075514,-0.00065489,0.00135682,0.000434
 24,0.00106260,0.00039078,0.00011985,-0.00002859,-0.00010130,0.00001562
 ,0.00001556,0.00057491,0.00082338,0.00046299,-0.00082389,-0.00103444,0
 .00026037,0.00002653,0.00036668,0.00033624,0.00009326,-0.00006471,-0.0
 0003938,0.02034526,0.10058431,-0.11659095,-0.03978905,-0.10996817,0.13
 403097,0.00055891,0.00178807,-0.00052823,-0.00257365,-0.00153743,-0.00
 150417,-0.00044776,-0.00030444,0.00024708,0.00015951,-0.00000813,-0.00
 005851,0.00009460,-0.00067274,0.00033630,0.00010565,0.00053939,-0.0003
 8235,-0.00000485,-0.00055194,-0.00010828,-0.00006276,0.00009469,-0.000
 00797,-0.18085372,0.03294042,-0.11497162,0.00665970,-0.00076399,0.0030
 8595,0.21534559,-0.00011918,-0.00044349,-0.00027594,0.00072663,0.00052
 962,0.00062506,0.00012302,0.00006383,-0.00002288,-0.00003409,0.0000031
 9,0.00001661,0.00022510,0.00010074,0.00004463,-0.00017125,-0.00011887,
 0.00006787,-0.00006575,0.00009796,0.00022924,0.00002322,0.00012592,-0.
 00012832,0.03614732,-0.06082356,0.03332427,0.01850187,-0.00467275,0.01
 827371,-0.04390220,0.06068129,0.00038178,-0.00023322,-0.00020091,0.000
 63502,0.00062794,0.00104001,-0.00009642,0.00002518,0.00000449,0.000015
 07,-0.00000095,-0.00000092,-0.00006090,-0.00002349,0.00009387,0.000050
 10,0.00002215,0.00001757,-0.00016016,-0.00001040,0.00015732,0.00005083
 ,0.00018145,-0.00008094,-0.12215817,0.03286171,-0.15056661,-0.01209576
 ,0.00273064,-0.01046316,0.12268185,-0.03101772,0.16196870,-0.00328310,
 0.00156259,0.00207584,-0.00068753,-0.00138940,-0.00089943,0.00050630,-
 0.00018663,-0.00027183,-0.00004270,0.00003468,0.00003379,-0.00019558,0
 .00036005,-0.00112607,0.00013159,0.00086794,0.00053290,0.00104474,0.00
 016375,-0.00068282,-0.00088559,-0.00119313,0.00015314,-0.08943864,-0.0
 2105578,-0.02326395,-0.00060161,-0.00352890,-0.00428808,-0.00395316,-0
 .02102635,-0.01714643,0.62529901,-0.00270278,0.00674169,-0.00402200,-0
 .00247272,-0.00285945,0.00135394,0.00061375,-0.00102600,0.00051280,0.0
 0020527,0.00007661,-0.00008692,0.00672927,-0.00379197,-0.00126289,-0.0
 0009429,0.00210032,0.00050324,0.00131175,-0.00182098,0.00137502,-0.002
 02293,0.00032795,-0.00188193,-0.01272407,-0.13241491,-0.05809030,-0.00
 716373,-0.01923175,-0.01408778,0.00212382,0.00384271,0.00593617,-0.023
 53793,0.46133850,0.00151924,-0.00579770,0.00409077,0.00426904,0.000711
 82,-0.00304834,0.00006211,0.00100857,-0.00058180,-0.00031637,-0.000021
 48,0.00011106,-0.00418727,0.00182469,0.00017190,0.00099733,-0.00095126
 ,-0.00065480,-0.00057899,0.00163084,-0.00120220,0.00101994,-0.00095234
 ,0.00144963,-0.01685621,-0.04508198,-0.12600606,0.00344717,0.01979391,
 0.01033508,-0.00632992,-0.01980079,-0.01594207,-0.01894575,-0.01276543
 ,0.53963028,-0.00165889,-0.00055176,0.00093622,-0.00217783,0.00060981,
 0.00028657,0.00019706,-0.00002214,-0.00002680,-0.00003150,0.00001646,-
 0.00001024,0.00017689,0.00007270,-0.00037844,0.00003762,-0.00000826,0.
 00002880,0.00013837,0.00030444,0.00022805,-0.00001327,-0.00035317,-0.0
 0028245,-0.00489889,0.00150240,-0.00304663,-0.00023313,-0.00068513,-0.
 00005056,0.00109810,-0.00109829,0.00026582,-0.21196350,0.03352349,-0.1
 1624628,0.22288051,-0.00002775,0.00153555,0.00159410,0.00057637,-0.001
 01049,0.00027940,-0.00017730,-0.00023431,-0.00013827,0.00007184,-0.000
 00317,-0.00002242,-0.00079108,0.00008359,-0.00014123,0.00005996,-0.000
 17234,-0.00015502,0.00045837,-0.00014738,-0.00090681,-0.00029975,-0.00
 093055,0.00054131,-0.02285454,0.00442633,-0.01757965,0.00019046,0.0009
 9508,0.00098459,-0.00067628,-0.00406941,-0.00425559,0.03024939,-0.0555
 6723,0.02311534,-0.03493554,0.07396068,0.00158064,0.00208445,-0.001509
 99,-0.00116783,0.00021385,0.00129443,-0.00039708,-0.00038911,0.0002339
 4,0.00018331,-0.00000358,-0.00004909,0.00079133,-0.00069498,0.00058450
 ,-0.00023357,0.00012661,-0.00013888,-0.00022090,-0.00071585,-0.0000286
 5,-0.00008445,0.00051479,-0.00006020,-0.02125386,0.00077490,-0.0131556
 8,0.00039908,-0.00051588,0.00033081,-0.00104274,-0.00337760,-0.0017802
 3,-0.10950572,0.02033846,-0.13507225,0.12635457,-0.03284666,0.14859053
 ,0.00138784,0.00087788,-0.00023979,-0.00130881,0.00041181,0.00057019,-
 0.00050113,-0.00017605,0.00010340,0.00014044,-0.00001560,-0.00002903,-
 0.00049450,-0.00006206,0.00028290,0.00007323,-0.00005689,-0.00023898,-
 0.00031565,-0.00042789,-0.00023759,0.00012243,0.00034151,0.00023587,0.
 00244317,-0.00194671,-0.00436542,0.00040599,0.00116928,0.00036518,0.00
 052299,0.00038551,0.00049206,-0.22021194,0.02744089,0.11428950,-0.0187
 6737,0.00416056,0.01500982,0.23490979,0.00020145,-0.00108233,0.0005355
 8,0.00066754,0.00054422,0.00006742,0.00000953,0.00018204,-0.00009607,-
 0.00006189,-0.00001046,0.00000725,-0.00123992,0.00082506,0.00023705,-0
 .00011947,-0.00048607,-0.00001694,-0.00011661,0.00022302,-0.00007634,0
 .00011868,-0.00002072,0.00016510,0.02310541,0.00015285,-0.01114269,0.0
 0021963,-0.00015109,0.00090563,-0.00072967,0.00081958,0.00019116,0.032
 80603,-0.05131157,-0.02488443,0.00267047,0.00043044,-0.00314618,-0.024
 74833,0.06518373,-0.00036358,0.00056559,-0.00089258,-0.00026461,0.0002
 3968,0.00079365,0.00014919,-0.00009605,0.00008028,0.00001067,0.0000067
 8,-0.00000657,0.00117399,-0.00034591,-0.00000809,-0.00024556,-0.000009
 34,0.00013961,0.00003918,-0.00008451,0.00024342,-0.00008767,0.00010170
 ,-0.00015526,0.02022388,-0.00084913,-0.01054757,-0.00050699,-0.0003564
 0,0.00107942,-0.00035776,0.00094030,-0.00012908,0.10914071,-0.01990829
 ,-0.12631097,-0.01401277,0.00146576,0.01240837,-0.12997911,0.01408981,
 0.14086933,0.00234447,0.02065860,-0.00508099,-0.04259494,-0.02110756,-
 0.02564572,-0.00442913,-0.00331593,0.00259973,0.00163356,-0.00016306,-
 0.00069787,0.00010794,-0.00884305,0.00158748,-0.00027042,0.00406461,-0
 .00268988,0.00085047,-0.00570320,-0.00251778,-0.00120210,0.00012592,0.
 00039593,-0.19569638,0.03681347,0.08524287,-0.02070558,-0.00165397,0.0
 2328842,-0.03953628,0.01048185,0.02377095,-0.00685156,0.00150145,0.009
 35559,0.00144274,0.00104539,0.00145212,0.00132198,-0.00006566,0.000279
 82,0.50963527,0.00371488,-0.00345142,0.00423713,-0.00389493,0.00874968
 ,-0.00203341,-0.00094708,0.00067798,-0.00030282,-0.00005240,-0.0001128
 6,-0.00012747,-0.00823791,-0.00262329,-0.00056957,0.00347496,-0.002498
 31,-0.00319167,-0.00054735,0.00056690,-0.00095589,0.00019116,0.0001909
 6,0.00033009,0.02475387,-0.07405228,-0.02295541,-0.01779169,0.01464814
 ,0.00944082,0.00827828,0.00105044,-0.00551870,0.02825462,-0.00625056,-
 0.02018585,-0.00024685,0.00144278,0.00173164,-0.00003169,-0.00475402,-
 0.00526235,-0.04225506,0.08502412,-0.00249981,0.01072832,-0.00879247,-
 0.02494080,-0.01030995,-0.00221243,-0.00158337,-0.00207125,0.00216530,
 0.00075633,-0.00012655,-0.00050960,0.00457343,0.00107607,0.00552660,-0
 .00433578,-0.00353164,-0.00098956,0.00026620,-0.00150781,0.00104018,0.
 00007689,0.00016252,-0.00023946,0.05257704,-0.02145168,-0.14983016,0.0
 2884619,-0.00452275,-0.01701648,-0.00926599,0.00134820,0.01546237,0.03
 073347,-0.00575149,-0.02020584,0.00040635,0.00233654,0.00234858,-0.000
 41608,-0.00528351,-0.00303310,0.03431825,0.05008319,0.32839112,0.00507
 059,-0.00680505,0.00532348,0.00186704,0.00324578,-0.00069362,-0.001901
 86,0.00097203,-0.00050829,-0.00000678,-0.00011701,0.00000862,-0.014170
 01,0.00540808,0.00652104,-0.00145715,-0.00190618,-0.00092149,-0.002551
 65,0.00082300,-0.00146492,0.00192541,0.00074506,0.00197156,-0.00112489
 ,-0.00806484,0.00796936,0.00127542,-0.00266613,-0.00131376,0.00061284,
 0.00142899,0.00193061,-0.09053420,-0.02120856,0.02549184,0.01190468,0.
 02124423,-0.00966091,-0.00222249,-0.03203045,0.01753051,0.00628703,0.0
 0074538,-0.00292719,0.41892215,0.00055979,-0.00732900,0.00013094,0.003
 44773,0.00330876,-0.00060461,-0.00001968,0.00117302,-0.00010960,-0.000
 27790,-0.00005310,0.00012020,-0.00043870,0.00535007,-0.00047603,-0.001
 14717,-0.00125680,0.00076765,-0.00163088,0.00305689,0.00009379,0.00220
 753,-0.00107206,0.00155982,-0.01095364,-0.04042068,0.02628068,-0.00117
 107,-0.00726678,-0.00494194,-0.00006943,0.00325800,0.00015629,0.010208
 62,-0.19878938,0.05560067,-0.00118329,-0.02101592,0.01615038,-0.005825
 38,-0.00545202,0.00649860,0.00490400,0.00422932,-0.00105643,-0.0170502
 7,0.31225791,-0.00267314,0.00257671,-0.00987709,-0.00145260,-0.0014930
 6,0.00324346,0.00084955,-0.00052281,0.00123201,0.00013452,0.00007165,-
 0.00001763,0.01285951,-0.00426750,0.00167481,-0.00117619,0.00211068,0.
 00074042,-0.00092263,0.00058094,0.00274622,0.00163418,0.00070496,-0.00
 083392,0.00147422,-0.01118710,0.00982918,-0.00066822,-0.00432144,-0.00
 062894,0.00186365,0.00153071,0.00316719,0.01344475,0.08429173,-0.11385
 760,0.00537799,0.02817376,-0.01263122,0.00553969,0.02659751,-0.0133404
 1,-0.00308396,-0.00060779,0.00470488,-0.25085556,-0.10064999,0.2814854
 2,-0.01107373,0.00803961,-0.01218012,-0.00169990,-0.00449209,0.0023417
 3,0.00250598,-0.00090980,0.00121842,-0.00001806,0.00014912,0.00003851,
 0.00924441,-0.00541835,-0.00174013,0.00131400,0.00321242,0.00266124,0.
 00096529,0.00063356,0.00380626,0.00058585,-0.00066109,-0.00242367,0.00
 204480,-0.00036381,-0.00198380,-0.00010004,0.00113518,0.00044411,-0.00
 040456,-0.00032129,0.00000601,-0.00271613,-0.00490103,0.00382643,0.001
 15123,0.00179629,-0.00179514,0.00238614,0.00102477,-0.00148824,-0.0048
 5300,0.00031600,0.00057478,-0.33079089,0.02170885,0.21746928,0.3278079
 7,0.00377691,0.00240643,0.00233595,-0.00165534,-0.00014549,-0.00068019
 ,-0.00052353,-0.00033448,-0.00018380,0.00012855,-0.00000324,-0.0000717
 2,-0.00365480,-0.00529975,0.00108465,0.00381458,-0.00145837,-0.0038470
 0,0.00034001,-0.00197974,-0.00050750,-0.00081823,0.00081253,-0.0013263
 8,-0.00364482,-0.00114682,0.00188928,0.00055943,0.00034869,-0.00051234
 ,0.00011451,-0.00014685,-0.00005751,-0.03478795,-0.00257973,0.02569494
 ,0.00042330,0.00049138,0.00054534,-0.00076305,-0.00525511,0.00293065,0
 .00111959,0.00223498,-0.00115445,0.05638414,-0.04926504,-0.02364736,-0
 .02208455,0.06246504,0.00052449,-0.00020102,0.01243850,0.00096223,0.00
 079693,-0.00282579,-0.00121374,0.00034857,-0.00143521,-0.00010339,-0.0
 0009771,-0.00004279,-0.00924944,0.00326868,-0.00889082,0.00363569,-0.0
 0435413,-0.00199341,0.00149479,-0.00140682,-0.00252987,-0.00257707,-0.
 00106213,-0.00173639,-0.00221609,-0.00061451,0.00369648,0.00020756,-0.
 00054088,-0.00065923,-0.00007321,0.00002808,-0.00017553,0.01671781,0.0
 0368110,-0.01478571,0.00034827,-0.00148873,0.00048701,-0.00085711,0.00
 219154,-0.00043869,0.00137960,0.00125096,-0.00156271,0.20306968,0.0013
 9523,-0.15653830,-0.21190167,-0.00313914,0.17635917,-0.00364451,-0.032
 62699,0.01237170,0.01663438,0.02076025,0.01257357,0.00495893,0.0045200
 8,-0.00391712,-0.00206103,0.00015620,0.00088474,-0.00817768,0.00493158
 ,-0.00673634,0.00613747,0.00153881,0.00125309,-0.00100428,0.00752264,0
 .00107835,0.00113753,-0.00020399,-0.00004226,-0.03875765,0.00474793,-0
 .00130572,0.00191781,0.00056403,-0.00278197,0.00267884,-0.00130511,0.0
 0143772,0.00438359,0.00337834,-0.00081738,0.00071718,-0.00009064,-0.00
 040869,0.00010789,-0.00171149,-0.00124166,-0.20748408,0.00427582,-0.10
 715990,-0.00310525,-0.00326911,0.00018498,0.00365064,0.00127123,-0.000
 14841,0.22191022,-0.00896172,-0.00723426,-0.00210673,0.00683220,-0.011
 56879,0.00402611,0.00125087,0.00045802,-0.00040343,-0.00035814,0.00012
 078,0.00027643,0.00082824,0.00163275,-0.00096353,-0.00035363,-0.002231
 73,0.00410075,0.00035213,0.00025320,0.00073657,0.00005953,-0.00028376,
 -0.00024710,0.00856184,-0.00196867,0.00691484,-0.00089534,0.00047590,-
 0.00058432,0.00333705,-0.00029835,-0.00161511,0.00219839,0.00121576,0.
 00106049,-0.00003863,-0.00021503,-0.00079059,-0.00073381,0.00016243,0.
 00007311,0.00239261,-0.02507257,-0.00896733,-0.00114820,-0.00071319,0.
 00005842,0.00113621,-0.00114443,-0.00005602,-0.01445961,0.04641193,0.0
 0159665,-0.01601789,0.01029086,0.01525971,0.01184083,-0.00765541,0.003
 51472,0.00350728,-0.00306913,-0.00132691,0.00025069,0.00073664,-0.0042
 9989,0.00172801,-0.00490972,0.00262635,0.00489938,-0.00167197,-0.00053
 203,0.00335046,0.00005006,0.00044141,-0.00024367,0.00011389,0.02103798
 ,0.00017718,0.01973628,0.00219660,0.00089143,-0.00183242,0.00641592,-0
 .00180543,-0.00257208,0.00329767,-0.00013543,0.00187892,-0.00017847,-0
 .00095642,-0.00185196,-0.00052550,-0.00034189,-0.00075173,-0.14395456,
 -0.00536293,-0.15524724,-0.00147096,-0.00091562,-0.00109849,0.00112600
 ,0.00064659,0.00063331,0.09477529,-0.00151258,0.14722019\\0.00011034,-
 0.00002485,-0.00009180,-0.00001652,-0.00005704,0.00000252,-0.00005355,
 -0.00002779,-0.00004594,0.00001804,0.00001531,0.00005622,-0.00004474,-
 0.00008283,-0.00000126,-0.00000971,0.00004565,0.00000535,0.00001937,0.
 00009206,0.00003485,-0.00004830,-0.00000075,-0.00000742,-0.00005684,-0
 .00010842,0.00006645,0.00000415,-0.00000497,-0.00001898,0.00001182,0.0
 0002441,0.00003417,-0.00011008,-0.00009083,0.00013330,-0.00005230,-0.0
 0004152,-0.00006392,-0.00001414,-0.00001737,0.00007143,0.00025217,0.00
 000478,0.00009755,-0.00005428,0.00013454,-0.00022916,0.00021148,0.0001
 4185,0.00011775,-0.00016690,-0.00000224,-0.00016112\\\@
 The archive entry for this job was punched.


 IT IS A CAPITAL MISTAKE TO THEORIZE BEFORE ONE HAS
 DATA.  INSENSIBLY ONE BEGINS TO TWIST FACTS TO SUIT
 THEORIES RATHER THAN THEORIES TO SUIT FACTS.

                                         -- SHERLOCK HOLMES
 Job cpu time:       0 days  3 hours 16 minutes 43.2 seconds.
 Elapsed time:       0 days  0 hours 49 minutes 11.6 seconds.
 File lengths (MBytes):  RWF=    267 Int=      0 D2E=      0 Chk=     15 Scr=      1
 Normal termination of Gaussian 16 at Thu Feb 15 03:27:55 2024.
