 Entering Gaussian System, Link 0=/opt/software/gaussian/g16.c01/g16
 Initial command:
 /opt/software/gaussian/g16.c01/l1.exe "/scratch/arhender/18149557/Gau-29617.inp" -scrdir="/scratch/arhender/18149557/"
 Entering Link 1 = /opt/software/gaussian/g16.c01/l1.exe PID=     29618.
  
 Copyright (c) 1988-2019, Gaussian, Inc.  All Rights Reserved.
  
 This is part of the Gaussian(R) 16 program.  It is based on
 the Gaussian(R) 09 system (copyright 2009, Gaussian, Inc.),
 the Gaussian(R) 03 system (copyright 2003, Gaussian, Inc.),
 the Gaussian(R) 98 system (copyright 1998, Gaussian, Inc.),
 the Gaussian(R) 94 system (copyright 1995, Gaussian, Inc.),
 the Gaussian 92(TM) system (copyright 1992, Gaussian, Inc.),
 the Gaussian 90(TM) system (copyright 1990, Gaussian, Inc.),
 the Gaussian 88(TM) system (copyright 1988, Gaussian, Inc.),
 the Gaussian 86(TM) system (copyright 1986, Carnegie Mellon
 University), and the Gaussian 82(TM) system (copyright 1983,
 Carnegie Mellon University). Gaussian is a federally registered
 trademark of Gaussian, Inc.
  
 This software contains proprietary and confidential information,
 including trade secrets, belonging to Gaussian, Inc.
  
 This software is provided under written license and may be
 used, copied, transmitted, or stored only in accord with that
 written license.
  
 The following legend is applicable only to US Government
 contracts under FAR:
  
                    RESTRICTED RIGHTS LEGEND
  
 Use, reproduction and disclosure by the US Government is
 subject to restrictions as set forth in subparagraphs (a)
 and (c) of the Commercial Computer Software - Restricted
 Rights clause in FAR 52.227-19.
  
 Gaussian, Inc.
 340 Quinnipiac St., Bldg. 40, Wallingford CT 06492
  
  
 ---------------------------------------------------------------
 Warning -- This program may not be used in any manner that
 competes with the business of Gaussian, Inc. or will provide
 assistance to any competitor of Gaussian, Inc.  The licensee
 of this program is prohibited from giving any competitor of
 Gaussian, Inc. access to this program.  By using this program,
 the user acknowledges that Gaussian, Inc. is engaged in the
 business of creating and licensing software in the field of
 computational chemistry and represents and warrants to the
 licensee that it is not a competitor of Gaussian, Inc. and that
 it will not use this program in any manner prohibited above.
 ---------------------------------------------------------------
  

 Cite this work as:
 Gaussian 16, Revision C.01,
 M. J. Frisch, G. W. Trucks, H. B. Schlegel, G. E. Scuseria, 
 M. A. Robb, J. R. Cheeseman, G. Scalmani, V. Barone, 
 G. A. Petersson, H. Nakatsuji, X. Li, M. Caricato, A. V. Marenich, 
 J. Bloino, B. G. Janesko, R. Gomperts, B. Mennucci, H. P. Hratchian, 
 J. V. Ortiz, A. F. Izmaylov, J. L. Sonnenberg, D. Williams-Young, 
 F. Ding, F. Lipparini, F. Egidi, J. Goings, B. Peng, A. Petrone, 
 T. Henderson, D. Ranasinghe, V. G. Zakrzewski, J. Gao, N. Rega, 
 G. Zheng, W. Liang, M. Hada, M. Ehara, K. Toyota, R. Fukuda, 
 J. Hasegawa, M. Ishida, T. Nakajima, Y. Honda, O. Kitao, H. Nakai, 
 T. Vreven, K. Throssell, J. A. Montgomery, Jr., J. E. Peralta, 
 F. Ogliaro, M. J. Bearpark, J. J. Heyd, E. N. Brothers, K. N. Kudin, 
 V. N. Staroverov, T. A. Keith, R. Kobayashi, J. Normand, 
 K. Raghavachari, A. P. Rendell, J. C. Burant, S. S. Iyengar, 
 J. Tomasi, M. Cossi, J. M. Millam, M. Klene, C. Adamo, R. Cammi, 
 J. W. Ochterski, R. L. Martin, K. Morokuma, O. Farkas, 
 J. B. Foresman, and D. J. Fox, Gaussian, Inc., Wallingford CT, 2019.
 
 ******************************************
 Gaussian 16:  ES64L-G16RevC.01  3-Jul-2019
                27-Mar-2024 
 ******************************************
 %chk=PbiLmL_to_QbiLmL_collapseIRC_Forward_ProductOpt.chk
 %mem=1600MB
 %nprocs=4
 Will use up to    4 processors via shared memory.
 ----------------------------------------------------
 # opt=calcfc freq wb97xd/def2tzvpp geom=connectivity
 ----------------------------------------------------
 1/10=4,18=20,19=15,26=3,38=1,57=2/1,3;
 2/9=110,12=2,17=6,18=5,40=1/2;
 3/5=44,7=202,11=2,25=1,30=1,71=2,74=-58,140=1/1,2,3;
 4//1;
 5/5=2,38=5/2;
 8/6=4,10=90,11=11/1;
 11/6=1,8=1,9=11,15=111,16=1/1,2,10;
 10/6=1,13=1/2;
 6/7=2,8=2,9=2,10=2,28=1/1;
 7/10=1,25=1/1,2,3,16;
 1/10=4,18=20,19=15,26=3/3(2);
 2/9=110/2;
 99//99;
 2/9=110/2;
 3/5=44,7=202,11=2,25=1,30=1,71=1,74=-58/1,2,3;
 4/5=5,16=3,69=1/1;
 5/5=2,38=5/2;
 7//1,2,3,16;
 1/18=20,19=15,26=3/3(-5);
 2/9=110/2;
 6/7=2,8=2,9=2,10=2,19=2,28=1/1;
 99/9=1/99;
 --------------------------------------------------------
 Convert TS for PbiL to QbiL collapse to PbiLmL to QbiLmL
 --------------------------------------------------------
 Symbolic Z-matrix:
 Charge = -1 Multiplicity = 1
 Si                   -0.71911  -0.02171   0.3488 
 O                     0.28576   1.29225   0.13037 
 O                    -2.9686    2.31698  -0.6142 
 H                    -2.11015   2.73503  -0.66864 
 O                    -0.79355  -0.82651  -1.13464 
 O                    -2.04051   0.35112   1.04658 
 H                    -2.7881    1.58436   0.02109 
 O                     0.28989  -1.2104    1.05874 
 C                     0.19725  -2.40308   0.31474 
 H                     1.11031  -2.99147   0.4412 
 H                    -0.65342  -2.99875   0.66807 
 C                    -0.01166  -1.98735  -1.14665 
 H                     0.96211  -1.78948  -1.61567 
 H                    -0.51305  -2.77577  -1.71761 
 C                     1.39308   1.34324  -0.72185 
 H                     1.27484   0.6579   -1.57036 
 H                     1.46383   2.35994  -1.12861 
 C                     2.69495   1.03216  -0.0026 
 H                     3.53093   1.27937  -0.6647 
 H                     2.7624    1.68261   0.88057 
 O                     2.84269  -0.31999   0.3556 
 H                     2.01045  -0.61381   0.76347 
 
 Add virtual bond connecting atoms H7         and O6         Dist= 3.34D+00.

 GradGradGradGradGradGradGradGradGradGradGradGradGradGradGradGradGradGrad
 Berny optimization.
 Initialization pass.
                           ----------------------------
                           !    Initial Parameters    !
                           ! (Angstroms and Degrees)  !
 --------------------------                            --------------------------
 ! Name  Definition              Value          Derivative Info.                !
 --------------------------------------------------------------------------------
 ! R1    R(1,2)                  1.6685         calculate D2E/DX2 analytically  !
 ! R2    R(1,5)                  1.6893         calculate D2E/DX2 analytically  !
 ! R3    R(1,6)                  1.5401         calculate D2E/DX2 analytically  !
 ! R4    R(1,8)                  1.7132         calculate D2E/DX2 analytically  !
 ! R5    R(2,15)                 1.3982         calculate D2E/DX2 analytically  !
 ! R6    R(3,4)                  0.9564         calculate D2E/DX2 analytically  !
 ! R7    R(3,7)                  0.9864         calculate D2E/DX2 analytically  !
 ! R8    R(5,12)                 1.3997         calculate D2E/DX2 analytically  !
 ! R9    R(6,7)                  1.7696         calculate D2E/DX2 analytically  !
 ! R10   R(8,9)                  1.4088         calculate D2E/DX2 analytically  !
 ! R11   R(9,10)                 1.0936         calculate D2E/DX2 analytically  !
 ! R12   R(9,11)                 1.097          calculate D2E/DX2 analytically  !
 ! R13   R(9,12)                 1.5337         calculate D2E/DX2 analytically  !
 ! R14   R(12,13)                1.0988         calculate D2E/DX2 analytically  !
 ! R15   R(12,14)                1.095          calculate D2E/DX2 analytically  !
 ! R16   R(15,16)                1.0971         calculate D2E/DX2 analytically  !
 ! R17   R(15,17)                1.0973         calculate D2E/DX2 analytically  !
 ! R18   R(15,18)                1.5195         calculate D2E/DX2 analytically  !
 ! R19   R(18,19)                1.0947         calculate D2E/DX2 analytically  !
 ! R20   R(18,20)                1.0989         calculate D2E/DX2 analytically  !
 ! R21   R(18,21)                1.4066         calculate D2E/DX2 analytically  !
 ! R22   R(21,22)                0.9723         calculate D2E/DX2 analytically  !
 ! A1    A(2,1,5)              106.6635         calculate D2E/DX2 analytically  !
 ! A2    A(2,1,6)              112.6684         calculate D2E/DX2 analytically  !
 ! A3    A(2,1,8)              104.2381         calculate D2E/DX2 analytically  !
 ! A4    A(5,1,6)              118.383          calculate D2E/DX2 analytically  !
 ! A5    A(5,1,8)               93.3994         calculate D2E/DX2 analytically  !
 ! A6    A(6,1,8)              119.0466         calculate D2E/DX2 analytically  !
 ! A7    A(1,2,15)             125.8353         calculate D2E/DX2 analytically  !
 ! A8    A(4,3,7)              101.3655         calculate D2E/DX2 analytically  !
 ! A9    A(1,5,12)             112.2117         calculate D2E/DX2 analytically  !
 ! A10   A(1,6,7)              105.5819         calculate D2E/DX2 analytically  !
 ! A11   A(1,8,9)              109.259          calculate D2E/DX2 analytically  !
 ! A12   A(8,9,10)             109.8494         calculate D2E/DX2 analytically  !
 ! A13   A(8,9,11)             109.9149         calculate D2E/DX2 analytically  !
 ! A14   A(8,9,12)             106.4213         calculate D2E/DX2 analytically  !
 ! A15   A(10,9,11)            108.5458         calculate D2E/DX2 analytically  !
 ! A16   A(10,9,12)            111.7012         calculate D2E/DX2 analytically  !
 ! A17   A(11,9,12)            110.3947         calculate D2E/DX2 analytically  !
 ! A18   A(5,12,9)             107.0218         calculate D2E/DX2 analytically  !
 ! A19   A(5,12,13)            110.4491         calculate D2E/DX2 analytically  !
 ! A20   A(5,12,14)            110.2338         calculate D2E/DX2 analytically  !
 ! A21   A(9,12,13)            109.5621         calculate D2E/DX2 analytically  !
 ! A22   A(9,12,14)            111.3492         calculate D2E/DX2 analytically  !
 ! A23   A(13,12,14)           108.2332         calculate D2E/DX2 analytically  !
 ! A24   A(2,15,16)            111.3011         calculate D2E/DX2 analytically  !
 ! A25   A(2,15,17)            108.1062         calculate D2E/DX2 analytically  !
 ! A26   A(2,15,18)            112.4913         calculate D2E/DX2 analytically  !
 ! A27   A(16,15,17)           107.3993         calculate D2E/DX2 analytically  !
 ! A28   A(16,15,18)           109.3014         calculate D2E/DX2 analytically  !
 ! A29   A(17,15,18)           108.0528         calculate D2E/DX2 analytically  !
 ! A30   A(15,18,19)           108.7697         calculate D2E/DX2 analytically  !
 ! A31   A(15,18,20)           108.1695         calculate D2E/DX2 analytically  !
 ! A32   A(15,18,21)           114.0371         calculate D2E/DX2 analytically  !
 ! A33   A(19,18,20)           107.7907         calculate D2E/DX2 analytically  !
 ! A34   A(19,18,21)           106.9111         calculate D2E/DX2 analytically  !
 ! A35   A(20,18,21)           110.971          calculate D2E/DX2 analytically  !
 ! A36   A(18,21,22)           107.9039         calculate D2E/DX2 analytically  !
 ! A37   L(3,7,6,15,-1)        165.5803         calculate D2E/DX2 analytically  !
 ! A38   L(3,7,6,15,-2)        178.5318         calculate D2E/DX2 analytically  !
 ! D1    D(5,1,2,15)           -33.0726         calculate D2E/DX2 analytically  !
 ! D2    D(6,1,2,15)          -164.583          calculate D2E/DX2 analytically  !
 ! D3    D(8,1,2,15)            64.9641         calculate D2E/DX2 analytically  !
 ! D4    D(2,1,5,12)           103.5083         calculate D2E/DX2 analytically  !
 ! D5    D(6,1,5,12)          -128.2496         calculate D2E/DX2 analytically  !
 ! D6    D(8,1,5,12)            -2.4517         calculate D2E/DX2 analytically  !
 ! D7    D(2,1,6,7)             57.7897         calculate D2E/DX2 analytically  !
 ! D8    D(5,1,6,7)            -67.5824         calculate D2E/DX2 analytically  !
 ! D9    D(8,1,6,7)           -179.741          calculate D2E/DX2 analytically  !
 ! D10   D(2,1,8,9)           -127.4222         calculate D2E/DX2 analytically  !
 ! D11   D(5,1,8,9)            -19.2767         calculate D2E/DX2 analytically  !
 ! D12   D(6,1,8,9)            106.0124         calculate D2E/DX2 analytically  !
 ! D13   D(1,2,15,16)           27.7798         calculate D2E/DX2 analytically  !
 ! D14   D(1,2,15,17)          145.5007         calculate D2E/DX2 analytically  !
 ! D15   D(1,2,15,18)          -95.2733         calculate D2E/DX2 analytically  !
 ! D16   D(4,3,6,1)            -44.5911         calculate D2E/DX2 analytically  !
 ! D17   D(1,5,12,9)            21.3891         calculate D2E/DX2 analytically  !
 ! D18   D(1,5,12,13)          -97.8117         calculate D2E/DX2 analytically  !
 ! D19   D(1,5,12,14)          142.6285         calculate D2E/DX2 analytically  !
 ! D20   D(1,8,9,10)           154.4301         calculate D2E/DX2 analytically  !
 ! D21   D(1,8,9,11)           -86.2            calculate D2E/DX2 analytically  !
 ! D22   D(1,8,9,12)            33.3503         calculate D2E/DX2 analytically  !
 ! D23   D(8,9,12,5)           -34.8477         calculate D2E/DX2 analytically  !
 ! D24   D(8,9,12,13)           84.9242         calculate D2E/DX2 analytically  !
 ! D25   D(8,9,12,14)         -155.3791         calculate D2E/DX2 analytically  !
 ! D26   D(10,9,12,5)         -154.7341         calculate D2E/DX2 analytically  !
 ! D27   D(10,9,12,13)         -34.9622         calculate D2E/DX2 analytically  !
 ! D28   D(10,9,12,14)          84.7345         calculate D2E/DX2 analytically  !
 ! D29   D(11,9,12,5)           84.3899         calculate D2E/DX2 analytically  !
 ! D30   D(11,9,12,13)        -155.8381         calculate D2E/DX2 analytically  !
 ! D31   D(11,9,12,14)         -36.1414         calculate D2E/DX2 analytically  !
 ! D32   D(2,15,18,19)        -168.9463         calculate D2E/DX2 analytically  !
 ! D33   D(2,15,18,20)         -52.1276         calculate D2E/DX2 analytically  !
 ! D34   D(2,15,18,21)          71.8466         calculate D2E/DX2 analytically  !
 ! D35   D(16,15,18,19)         66.8874         calculate D2E/DX2 analytically  !
 ! D36   D(16,15,18,20)       -176.2938         calculate D2E/DX2 analytically  !
 ! D37   D(16,15,18,21)        -52.3197         calculate D2E/DX2 analytically  !
 ! D38   D(17,15,18,19)        -49.6892         calculate D2E/DX2 analytically  !
 ! D39   D(17,15,18,20)         67.1296         calculate D2E/DX2 analytically  !
 ! D40   D(17,15,18,21)       -168.8963         calculate D2E/DX2 analytically  !
 ! D41   D(15,18,21,22)        -46.5055         calculate D2E/DX2 analytically  !
 ! D42   D(19,18,21,22)       -166.7601         calculate D2E/DX2 analytically  !
 ! D43   D(20,18,21,22)         75.9472         calculate D2E/DX2 analytically  !
 --------------------------------------------------------------------------------
 Trust Radius=3.00D-01 FncErr=1.00D-07 GrdErr=1.00D-06 EigMax=2.50D+02 EigMin=1.00D-04
 Number of steps in this run=    113 maximum allowed number of steps=    132.
 GradGradGradGradGradGradGradGradGradGradGradGradGradGradGradGradGradGrad

                          Input orientation:                          
 ---------------------------------------------------------------------
 Center     Atomic      Atomic             Coordinates (Angstroms)
 Number     Number       Type             X           Y           Z
 ---------------------------------------------------------------------
      1         14           0       -0.719105   -0.021707    0.348797
      2          8           0        0.285764    1.292253    0.130366
      3          8           0       -2.968598    2.316978   -0.614204
      4          1           0       -2.110154    2.735025   -0.668639
      5          8           0       -0.793554   -0.826509   -1.134643
      6          8           0       -2.040509    0.351122    1.046583
      7          1           0       -2.788095    1.584357    0.021094
      8          8           0        0.289888   -1.210397    1.058737
      9          6           0        0.197247   -2.403078    0.314742
     10          1           0        1.110311   -2.991473    0.441196
     11          1           0       -0.653423   -2.998752    0.668071
     12          6           0       -0.011661   -1.987348   -1.146651
     13          1           0        0.962106   -1.789478   -1.615667
     14          1           0       -0.513052   -2.775774   -1.717612
     15          6           0        1.393075    1.343237   -0.721847
     16          1           0        1.274840    0.657901   -1.570362
     17          1           0        1.463827    2.359941   -1.128614
     18          6           0        2.694945    1.032165   -0.002596
     19          1           0        3.530926    1.279365   -0.664695
     20          1           0        2.762402    1.682614    0.880566
     21          8           0        2.842690   -0.319988    0.355596
     22          1           0        2.010446   -0.613805    0.763469
 ---------------------------------------------------------------------
                    Distance matrix (angstroms):
                    1          2          3          4          5
     1  Si   0.000000
     2  O    1.668522   0.000000
     3  O    3.384825   3.492180   0.000000
     4  H    3.251117   2.908681   0.956375   0.000000
     5  O    1.689332   2.693386   3.857873   3.825588   0.000000
     6  O    1.540135   2.671465   2.735718   2.937657   2.774790
     7  H    2.639612   3.089640   0.986366   1.503121   3.335595
     8  O    1.713203   2.669297   5.085159   4.930556   2.476314
     9  C    2.551821   3.700986   5.758858   5.717625   2.359655
    10  H    3.489242   4.373420   6.777243   6.663025   3.285581
    11  H    2.994837   4.425373   5.938118   6.065069   2.826315
    12  C    2.569161   3.531999   5.249209   5.189699   1.399660
    13  H    3.132188   3.605986   5.772031   5.550385   2.059377
    14  H    3.449259   4.538940   5.760498   5.832665   2.053818
    15  C    2.733250   1.398215   4.470341   3.769949   3.107981
    16  H    2.849711   2.067160   4.655485   4.072559   2.582940
    17  H    3.552490   2.028009   4.462382   3.622928   3.905031
    18  C    3.590245   2.426825   5.839566   5.141237   4.111669
    19  H    4.558807   3.341162   6.582021   5.825869   4.832875
    20  H    3.912592   2.617044   5.956603   5.220096   4.795997
    21  O    3.574269   3.031158   6.454856   5.908708   3.962278
    22  H    2.823647   2.647339   5.939558   5.499540   3.392711
                    6          7          8          9         10
     6  O    0.000000
     7  H    1.769571   0.000000
     8  O    2.805216   4.285013   0.000000
     9  C    3.623363   4.989803   1.408758   0.000000
    10  H    4.633260   6.025967   2.055890   1.093565   0.000000
    11  H    3.645399   5.097087   2.059289   1.096954   1.778281
    12  C    3.794067   4.672183   2.357609   1.533670   2.188229
    13  H    4.548125   5.303372   2.817738   2.165177   2.386932
    14  H    4.444252   5.216288   3.286827   2.184923   2.709665
    15  C    3.987623   4.253502   3.302809   4.066866   4.496925
    16  H    4.234862   4.460773   3.372363   3.752921   4.170296
    17  H    4.587723   4.472382   4.348557   5.135548   5.588104
    18  C    4.897869   5.510826   3.455403   4.259119   4.347146
    19  H    5.901779   6.363439   4.435477   5.062914   5.032140
    20  H    4.986821   5.617505   3.809801   4.857268   4.976901
    21  O    4.977297   5.953500   2.793570   3.367388   3.185168
    22  H    4.173904   5.330012   1.844837   2.586609   2.562695
                   11         12         13         14         15
    11  H    0.000000
    12  C    2.174399   0.000000
    13  H    3.047579   1.098795   0.000000
    14  H    2.400189   1.094991   1.777432   0.000000
    15  C    4.997289   3.639579   3.286115   4.646625   0.000000
    16  H    4.701052   2.971861   2.467695   3.874063   1.097106
    17  H    6.035430   4.590894   4.207924   5.534486   1.097339
    18  C    5.282959   4.213317   3.683259   5.266206   1.519524
    19  H    6.130850   4.842894   4.113512   5.822933   2.139568
    20  H    5.798983   5.027291   4.639792   6.111984   2.134938
    21  O    4.415453   3.630999   3.095460   4.646513   2.455318
    22  H    3.576768   3.102273   2.853333   4.147037   2.533244
                   16         17         18         19         20
    16  H    0.000000
    17  H    1.768558   0.000000
    18  C    2.148176   2.132266   0.000000
    19  H    2.509258   2.378185   1.094690   0.000000
    20  H    3.044655   2.486337   1.098913   1.772307   0.000000
    21  O    2.669033   3.359488   1.406573   2.018067   2.071824
    22  H    2.757738   3.566782   1.940261   2.817020   2.419233
                   21         22
    21  O    0.000000
    22  H    0.972275   0.000000
 Stoichiometry    C4H11O6Si(1-)
 Framework group  C1[X(C4H11O6Si)]
 Deg. of freedom    60
 Full point group                 C1      NOp   1
 Largest Abelian subgroup         C1      NOp   1
 Largest concise Abelian subgroup C1      NOp   1
                         Standard orientation:                         
 ---------------------------------------------------------------------
 Center     Atomic      Atomic             Coordinates (Angstroms)
 Number     Number       Type             X           Y           Z
 ---------------------------------------------------------------------
      1         14           0       -0.684155    0.310701   -0.381561
      2          8           0       -0.237081   -1.288974   -0.223049
      3          8           0       -3.663811   -1.082288    0.417355
      4          1           0       -3.019939   -1.788148    0.460287
      5          8           0       -0.508975    1.016039    1.143448
      6          8           0       -2.026189    0.481812   -1.117552
      7          1           0       -3.206791   -0.437961   -0.173317
      8          8           0        0.712736    1.078368   -1.009613
      9          6           0        1.037587    2.185511   -0.201340
     10          1           0        2.106237    2.403208   -0.281850
     11          1           0        0.475904    3.067601   -0.532608
     12          6           0        0.642272    1.807205    1.231403
     13          1           0        1.459995    1.244126    1.702172
     14          1           0        0.444939    2.696821    1.838567
     15          6           0        0.745702   -1.782576    0.640374
     16          1           0        0.857782   -1.142334    1.524213
     17          1           0        0.426216   -2.772271    0.990496
     18          6           0        2.094525   -1.937303   -0.042041
     19          1           0        2.759571   -2.504747    0.616798
     20          1           0        1.949128   -2.524877   -0.959225
     21          8           0        2.738247   -0.718372   -0.321821
     22          1           0        2.085190   -0.120935   -0.724194
 ---------------------------------------------------------------------
 Rotational constants (GHZ):           1.1855374           0.7785856           0.5801328
 Standard basis: def2TZVPP (5D, 7F)
 There are   573 symmetry adapted cartesian basis functions of A   symmetry.
 There are   506 symmetry adapted basis functions of A   symmetry.
   506 basis functions,   766 primitive gaussians,   573 cartesian basis functions
    49 alpha electrons       49 beta electrons
       nuclear repulsion energy       840.6606071930 Hartrees.
 NAtoms=   22 NActive=   22 NUniq=   22 SFac= 1.00D+00 NAtFMM=   60 NAOKFM=F Big=F
 Integral buffers will be    131072 words long.
 Raffenetti 2 integral format.
 Two-electron integral symmetry is turned on.
 Nuclear repulsion after empirical dispersion term =      840.6468285636 Hartrees.
 One-electron integrals computed using PRISM.
   1 Symmetry operations used in ECPInt.
 ECPInt:  NShTT=   18145 NPrTT=   50058 LenC2=   17034 LenP2D=   36219.
 LDataN:  DoStor=T MaxTD1= 6 Len=  172
 NBasis=   506 RedAO= T EigKep=  2.34D-04  NBF=   506
 NBsUse=   506 1.00D-06 EigRej= -1.00D+00 NBFU=   506
 ExpMin= 7.01D-02 ExpMax= 4.48D+04 ExpMxC= 1.53D+03 IAcc=3 IRadAn=         5 AccDes= 0.00D+00
 Harris functional with IExCor= 4639 and IRadAn=       5 diagonalized for initial guess.
 HarFok:  IExCor= 4639 AccDes= 0.00D+00 IRadAn=         5 IDoV= 1 UseB2=F ITyADJ=14
 ICtDFT=  3500011 ScaDFX=  1.000000  1.000000  1.000000  1.000000
 FoFCou: FMM=F IPFlag=           0 FMFlag=      100000 FMFlg1=           0
         NFxFlg=           0 DoJE=T BraDBF=F KetDBF=T FulRan=T
         wScrn=  0.000000 ICntrl=       500 IOpCl=  0 I1Cent=   200000004 NGrid=           0
         NMat0=    1 NMatS0=      1 NMatT0=    0 NMatD0=    1 NMtDS0=    0 NMtDT0=    0
 Petite list used in FoFCou.
 Requested convergence on RMS density matrix=1.00D-08 within 128 cycles.
 Requested convergence on MAX density matrix=1.00D-06.
 Requested convergence on             energy=1.00D-06.
 No special actions if energy rises.
 Integral accuracy reduced to 1.0D-05 until final iterations.
 Initial convergence to 1.0D-05 achieved.  Increase integral accuracy.
 SCF Done:  E(RwB97XD) =  -900.202479962     A.U. after   14 cycles
            NFock= 14  Conv=0.79D-08     -V/T= 2.0035
 DoSCS=F DFT=T ScalE2(SS,OS)=  1.000000  1.000000
 Range of M.O.s used for correlation:     1   506
 NBasis=   506 NAE=    49 NBE=    49 NFC=     0 NFV=     0
 NROrb=    506 NOA=    49 NOB=    49 NVA=   457 NVB=   457

 **** Warning!!: The largest alpha MO coefficient is  0.13184700D+02

   1 Symmetry operations used in ECPInt.
 ECPInt:  NShTT=   18145 NPrTT=   50058 LenC2=   17034 LenP2D=   36219.
 LDataN:  DoStor=T MaxTD1= 7 Len=  274
 Symmetrizing basis deriv contribution to polar:
 IMax=3 JMax=2 DiffMx= 0.00D+00
 G2DrvN: will do    23 centers at a time, making    1 passes.
 Calling FoFCou, ICntrl=  3107 FMM=F I1Cent=   0 AccDes= 0.00D+00.
 End of G2Drv F.D. properties file   721 does not exist.
 End of G2Drv F.D. properties file   722 does not exist.
 End of G2Drv F.D. properties file   788 does not exist.
          IDoAtm=1111111111111111111111
          Differentiating once with respect to nuclear coordinates.
 CalDSu exits because no D1Ps are significant.
          There are    69 degrees of freedom in the 1st order CPHF.  IDoFFX=6 NUNeed=     0.
     63 vectors produced by pass  0 Test12= 3.25D-14 1.45D-09 XBig12= 1.01D-01 4.12D-02.
 AX will form    63 AO Fock derivatives at one time.
     63 vectors produced by pass  1 Test12= 3.25D-14 1.45D-09 XBig12= 4.49D-02 3.44D-02.
     63 vectors produced by pass  2 Test12= 3.25D-14 1.45D-09 XBig12= 1.48D-03 5.50D-03.
     63 vectors produced by pass  3 Test12= 3.25D-14 1.45D-09 XBig12= 2.90D-05 7.40D-04.
     63 vectors produced by pass  4 Test12= 3.25D-14 1.45D-09 XBig12= 3.44D-07 6.48D-05.
     63 vectors produced by pass  5 Test12= 3.25D-14 1.45D-09 XBig12= 3.24D-09 7.00D-06.
     63 vectors produced by pass  6 Test12= 3.25D-14 1.45D-09 XBig12= 2.38D-11 4.80D-07.
     25 vectors produced by pass  7 Test12= 3.25D-14 1.45D-09 XBig12= 1.66D-13 3.73D-08.
      3 vectors produced by pass  8 Test12= 3.25D-14 1.45D-09 XBig12= 2.06D-15 2.95D-09.
 InvSVY:  IOpt=1 It=  1 EMax= 2.15D-16
 Solved reduced A of dimension   469 with    69 vectors.
 End of Minotr F.D. properties file   721 does not exist.
 End of Minotr F.D. properties file   722 does not exist.
 End of Minotr F.D. properties file   788 does not exist.

 **********************************************************************

            Population analysis using the SCF Density.

 **********************************************************************

 Orbital symmetries:
       Occupied  (A) (A) (A) (A) (A) (A) (A) (A) (A) (A) (A) (A)
                 (A) (A) (A) (A) (A) (A) (A) (A) (A) (A) (A) (A)
                 (A) (A) (A) (A) (A) (A) (A) (A) (A) (A) (A) (A)
                 (A) (A) (A) (A) (A) (A) (A) (A) (A) (A) (A) (A)
                 (A)
       Virtual   (A) (A) (A) (A) (A) (A) (A) (A) (A) (A) (A) (A)
                 (A) (A) (A) (A) (A) (A) (A) (A) (A) (A) (A) (A)
                 (A) (A) (A) (A) (A) (A) (A) (A) (A) (A) (A) (A)
                 (A) (A) (A) (A) (A) (A) (A) (A) (A) (A) (A) (A)
                 (A) (A) (A) (A) (A) (A) (A) (A) (A) (A) (A) (A)
                 (A) (A) (A) (A) (A) (A) (A) (A) (A) (A) (A) (A)
                 (A) (A) (A) (A) (A) (A) (A) (A) (A) (A) (A) (A)
                 (A) (A) (A) (A) (A) (A) (A) (A) (A) (A) (A) (A)
                 (A) (A) (A) (A) (A) (A) (A) (A) (A) (A) (A) (A)
                 (A) (A) (A) (A) (A) (A) (A) (A) (A) (A) (A) (A)
                 (A) (A) (A) (A) (A) (A) (A) (A) (A) (A) (A) (A)
                 (A) (A) (A) (A) (A) (A) (A) (A) (A) (A) (A) (A)
                 (A) (A) (A) (A) (A) (A) (A) (A) (A) (A) (A) (A)
                 (A) (A) (A) (A) (A) (A) (A) (A) (A) (A) (A) (A)
                 (A) (A) (A) (A) (A) (A) (A) (A) (A) (A) (A) (A)
                 (A) (A) (A) (A) (A) (A) (A) (A) (A) (A) (A) (A)
                 (A) (A) (A) (A) (A) (A) (A) (A) (A) (A) (A) (A)
                 (A) (A) (A) (A) (A) (A) (A) (A) (A) (A) (A) (A)
                 (A) (A) (A) (A) (A) (A) (A) (A) (A) (A) (A) (A)
                 (A) (A) (A) (A) (A) (A) (A) (A) (A) (A) (A) (A)
                 (A) (A) (A) (A) (A) (A) (A) (A) (A) (A) (A) (A)
                 (A) (A) (A) (A) (A) (A) (A) (A) (A) (A) (A) (A)
                 (A) (A) (A) (A) (A) (A) (A) (A) (A) (A) (A) (A)
                 (A) (A) (A) (A) (A) (A) (A) (A) (A) (A) (A) (A)
                 (A) (A) (A) (A) (A) (A) (A) (A) (A) (A) (A) (A)
                 (A) (A) (A) (A) (A) (A) (A) (A) (A) (A) (A) (A)
                 (A) (A) (A) (A) (A) (A) (A) (A) (A) (A) (A) (A)
                 (A) (A) (A) (A) (A) (A) (A) (A) (A) (A) (A) (A)
                 (A) (A) (A) (A) (A) (A) (A) (A) (A) (A) (A) (A)
                 (A) (A) (A) (A) (A) (A) (A) (A) (A) (A) (A) (A)
                 (A) (A) (A) (A) (A) (A) (A) (A) (A) (A) (A) (A)
                 (A) (A) (A) (A) (A) (A) (A) (A) (A) (A) (A) (A)
                 (A) (A) (A) (A) (A) (A) (A) (A) (A) (A) (A) (A)
                 (A) (A) (A) (A) (A) (A) (A) (A) (A) (A) (A) (A)
                 (A) (A) (A) (A) (A) (A) (A) (A) (A) (A) (A) (A)
                 (A) (A) (A) (A) (A) (A) (A) (A) (A) (A) (A) (A)
                 (A) (A) (A) (A) (A) (A) (A) (A) (A) (A) (A) (A)
                 (A) (A) (A) (A) (A) (A) (A) (A) (A) (A) (A) (A)
                 (A)
 The electronic state is 1-A.
 Alpha  occ. eigenvalues --  -66.11807 -19.11445 -19.10765 -19.09905 -19.09569
 Alpha  occ. eigenvalues --  -19.05803 -18.99529 -10.21021 -10.20731 -10.20716
 Alpha  occ. eigenvalues --  -10.20646  -5.23699  -3.58362  -3.58253  -3.57888
 Alpha  occ. eigenvalues --   -1.01261  -0.99471  -0.96732  -0.94734  -0.92236
 Alpha  occ. eigenvalues --   -0.81712  -0.71053  -0.69744  -0.59092  -0.58007
 Alpha  occ. eigenvalues --   -0.48929  -0.47569  -0.46483  -0.44877  -0.43667
 Alpha  occ. eigenvalues --   -0.42397  -0.42199  -0.38607  -0.38081  -0.36964
 Alpha  occ. eigenvalues --   -0.36848  -0.31853  -0.30698  -0.28096  -0.27896
 Alpha  occ. eigenvalues --   -0.27535  -0.25575  -0.24528  -0.23715  -0.23074
 Alpha  occ. eigenvalues --   -0.22123  -0.21444  -0.17927  -0.17810
 Alpha virt. eigenvalues --    0.22971   0.23897   0.25154   0.26153   0.26735
 Alpha virt. eigenvalues --    0.27611   0.28977   0.29788   0.31292   0.32046
 Alpha virt. eigenvalues --    0.32761   0.33595   0.34251   0.35433   0.37611
 Alpha virt. eigenvalues --    0.38545   0.39228   0.39511   0.41082   0.41805
 Alpha virt. eigenvalues --    0.42406   0.43300   0.44688   0.46123   0.47581
 Alpha virt. eigenvalues --    0.48446   0.49006   0.51112   0.51614   0.53551
 Alpha virt. eigenvalues --    0.53926   0.55132   0.55958   0.56921   0.57836
 Alpha virt. eigenvalues --    0.58304   0.58648   0.59340   0.60003   0.60297
 Alpha virt. eigenvalues --    0.60936   0.62197   0.62828   0.63062   0.63638
 Alpha virt. eigenvalues --    0.65000   0.65829   0.66719   0.67221   0.68059
 Alpha virt. eigenvalues --    0.68881   0.69448   0.71036   0.71746   0.72399
 Alpha virt. eigenvalues --    0.73235   0.75609   0.75817   0.78755   0.79198
 Alpha virt. eigenvalues --    0.79854   0.81500   0.82236   0.84102   0.85258
 Alpha virt. eigenvalues --    0.86714   0.87117   0.88239   0.89346   0.89859
 Alpha virt. eigenvalues --    0.90519   0.92711   0.94637   0.95133   0.97016
 Alpha virt. eigenvalues --    0.97809   0.98111   1.00021   1.01277   1.01611
 Alpha virt. eigenvalues --    1.02518   1.03102   1.05197   1.05482   1.07206
 Alpha virt. eigenvalues --    1.08094   1.09899   1.10265   1.11242   1.11766
 Alpha virt. eigenvalues --    1.13686   1.14183   1.16659   1.18163   1.19285
 Alpha virt. eigenvalues --    1.20535   1.21366   1.21874   1.22485   1.23869
 Alpha virt. eigenvalues --    1.25404   1.26147   1.28319   1.30064   1.30618
 Alpha virt. eigenvalues --    1.31332   1.32300   1.33757   1.34184   1.35538
 Alpha virt. eigenvalues --    1.36480   1.38199   1.38680   1.40108   1.41142
 Alpha virt. eigenvalues --    1.43020   1.43709   1.45462   1.46354   1.47179
 Alpha virt. eigenvalues --    1.47431   1.49443   1.50992   1.52964   1.55076
 Alpha virt. eigenvalues --    1.55135   1.56101   1.56534   1.56956   1.59414
 Alpha virt. eigenvalues --    1.60593   1.61799   1.62851   1.64458   1.66990
 Alpha virt. eigenvalues --    1.68061   1.69623   1.70950   1.71668   1.73091
 Alpha virt. eigenvalues --    1.74037   1.75660   1.76391   1.77854   1.79793
 Alpha virt. eigenvalues --    1.81386   1.84941   1.87916   1.88967   1.89602
 Alpha virt. eigenvalues --    1.94506   1.98131   1.98791   1.99650   2.02664
 Alpha virt. eigenvalues --    2.05274   2.05668   2.08375   2.10793   2.11202
 Alpha virt. eigenvalues --    2.12068   2.13376   2.14526   2.15280   2.16907
 Alpha virt. eigenvalues --    2.17558   2.19665   2.21438   2.21935   2.23143
 Alpha virt. eigenvalues --    2.24696   2.26431   2.28239   2.30590   2.35923
 Alpha virt. eigenvalues --    2.36550   2.37955   2.39883   2.40433   2.43001
 Alpha virt. eigenvalues --    2.45889   2.46744   2.47850   2.48303   2.50521
 Alpha virt. eigenvalues --    2.54603   2.54948   2.56388   2.58014   2.60151
 Alpha virt. eigenvalues --    2.61085   2.64977   2.65850   2.66319   2.71554
 Alpha virt. eigenvalues --    2.75985   2.77095   2.78895   2.81890   2.82883
 Alpha virt. eigenvalues --    2.84221   2.85563   2.86680   2.90942   2.92305
 Alpha virt. eigenvalues --    2.93104   2.94261   2.95844   2.97791   2.99749
 Alpha virt. eigenvalues --    3.00266   3.02329   3.03085   3.06526   3.07475
 Alpha virt. eigenvalues --    3.08277   3.10215   3.11767   3.13323   3.14906
 Alpha virt. eigenvalues --    3.16148   3.17174   3.17755   3.19685   3.20049
 Alpha virt. eigenvalues --    3.21899   3.23527   3.25744   3.27545   3.29361
 Alpha virt. eigenvalues --    3.30225   3.31039   3.32165   3.32516   3.33795
 Alpha virt. eigenvalues --    3.34707   3.36454   3.37717   3.38160   3.39248
 Alpha virt. eigenvalues --    3.40616   3.42346   3.43865   3.44262   3.45019
 Alpha virt. eigenvalues --    3.46289   3.49787   3.52605   3.53018   3.55126
 Alpha virt. eigenvalues --    3.57380   3.58107   3.58954   3.59734   3.60463
 Alpha virt. eigenvalues --    3.62406   3.64971   3.66370   3.68001   3.71408
 Alpha virt. eigenvalues --    3.72678   3.74625   3.76885   3.77000   3.79123
 Alpha virt. eigenvalues --    3.80878   3.82072   3.83383   3.84253   3.85985
 Alpha virt. eigenvalues --    3.86265   3.87374   3.88578   3.89167   3.91280
 Alpha virt. eigenvalues --    3.92242   3.93861   3.94805   3.95267   3.96958
 Alpha virt. eigenvalues --    3.97845   3.99224   4.02096   4.02967   4.04051
 Alpha virt. eigenvalues --    4.06039   4.07334   4.07753   4.09379   4.12997
 Alpha virt. eigenvalues --    4.14072   4.15794   4.16690   4.17265   4.18509
 Alpha virt. eigenvalues --    4.21062   4.22794   4.22976   4.25789   4.26662
 Alpha virt. eigenvalues --    4.28984   4.31509   4.31845   4.33874   4.35168
 Alpha virt. eigenvalues --    4.35819   4.36526   4.37463   4.37720   4.42327
 Alpha virt. eigenvalues --    4.43362   4.45143   4.46600   4.47728   4.50364
 Alpha virt. eigenvalues --    4.51163   4.53106   4.54339   4.57288   4.58387
 Alpha virt. eigenvalues --    4.60949   4.68206   4.70595   4.72022   4.73263
 Alpha virt. eigenvalues --    4.75641   4.77661   4.78814   4.81156   4.84664
 Alpha virt. eigenvalues --    4.85861   4.87193   4.88978   4.89635   4.93444
 Alpha virt. eigenvalues --    4.93902   4.96025   4.98125   4.98489   5.01355
 Alpha virt. eigenvalues --    5.04257   5.05043   5.06013   5.06633   5.09536
 Alpha virt. eigenvalues --    5.11047   5.13710   5.14665   5.17322   5.19201
 Alpha virt. eigenvalues --    5.21316   5.22964   5.24675   5.27910   5.28401
 Alpha virt. eigenvalues --    5.32358   5.33838   5.37925   5.41785   5.43115
 Alpha virt. eigenvalues --    5.45140   5.48446   5.49906   5.51989   5.52922
 Alpha virt. eigenvalues --    5.54676   5.55835   5.56814   5.57534   5.61330
 Alpha virt. eigenvalues --    5.62908   5.64109   5.65701   5.66882   5.67926
 Alpha virt. eigenvalues --    5.70822   5.71517   5.73272   5.75469   5.77676
 Alpha virt. eigenvalues --    5.81148   5.81458   5.82665   5.83373   5.84058
 Alpha virt. eigenvalues --    5.85514   5.87089   5.89819   5.92310   5.95185
 Alpha virt. eigenvalues --    6.00108   6.06736   6.11315   6.14004   6.15706
 Alpha virt. eigenvalues --    6.19685   6.22732   6.25586   6.31328   6.33393
 Alpha virt. eigenvalues --    6.35631   6.39336   6.44306   6.46341   6.50750
 Alpha virt. eigenvalues --    6.59280   6.68818   6.69879   6.71233   6.77668
 Alpha virt. eigenvalues --    6.81885   6.83020   6.86468   6.88984   6.90815
 Alpha virt. eigenvalues --    6.91614   6.93290   6.94414   6.96427   6.97833
 Alpha virt. eigenvalues --    6.99394   7.02672   7.03921   7.06803   7.10416
 Alpha virt. eigenvalues --    7.13103   7.14223   7.18358   7.19407   7.22279
 Alpha virt. eigenvalues --    7.23519   7.26504   7.28825   7.33149   7.33733
 Alpha virt. eigenvalues --    7.38019   7.45148   7.47893   7.64876   7.68891
 Alpha virt. eigenvalues --    7.70784   7.73370   7.79582   7.82918   7.89869
 Alpha virt. eigenvalues --    7.98216  12.56617  23.50316  23.52075  23.62831
 Alpha virt. eigenvalues --   23.64417  43.97408  44.07341  44.26460  44.33704
 Alpha virt. eigenvalues --   44.41859  44.44144
          Condensed to atoms (all electrons):
               1          2          3          4          5          6
     1  Si  11.752386   0.375065   0.014222   0.004344   0.329229   0.691539
     2  O    0.375065   7.956195  -0.001675   0.005307  -0.019177  -0.037779
     3  O    0.014222  -0.001675   7.850579   0.336387  -0.001250  -0.045897
     4  H    0.004344   0.005307   0.336387   0.532087   0.000024   0.002351
     5  O    0.329229  -0.019177  -0.001250   0.000024   7.989353  -0.028496
     6  O    0.691539  -0.037779  -0.045897   0.002351  -0.028496   8.102170
     7  H    0.000810  -0.001261   0.351988  -0.048384   0.000126   0.068954
     8  O    0.310653  -0.021596  -0.000079   0.000020  -0.015775  -0.023539
     9  C   -0.010552   0.000612   0.000075   0.000007  -0.066435  -0.000893
    10  H    0.006471  -0.000373  -0.000000   0.000000   0.005480  -0.000161
    11  H   -0.009125  -0.000147   0.000002  -0.000001   0.003590   0.000840
    12  C   -0.079312   0.000710  -0.000317   0.000025   0.311846  -0.005142
    13  H   -0.008824   0.000449   0.000000  -0.000002  -0.061576  -0.000127
    14  H    0.000957  -0.000290   0.000010  -0.000001  -0.036374  -0.000032
    15  C   -0.057397   0.281353   0.000074   0.000424  -0.011473  -0.002238
    16  H   -0.017709  -0.047770  -0.000011   0.000099   0.020607   0.000117
    17  H    0.006061  -0.041603   0.000088  -0.000521   0.000081  -0.000069
    18  C    0.003208  -0.053711   0.000069   0.000047  -0.000769  -0.000602
    19  H    0.001008   0.006596  -0.000000  -0.000004   0.000038  -0.000001
    20  H   -0.003247   0.004886  -0.000001   0.000001  -0.000005  -0.000013
    21  O    0.001208   0.001458  -0.000000  -0.000001  -0.000223   0.000004
    22  H   -0.002565   0.001497   0.000000   0.000002   0.001101  -0.000096
               7          8          9         10         11         12
     1  Si   0.000810   0.310653  -0.010552   0.006471  -0.009125  -0.079312
     2  O   -0.001261  -0.021596   0.000612  -0.000373  -0.000147   0.000710
     3  O    0.351988  -0.000079   0.000075  -0.000000   0.000002  -0.000317
     4  H   -0.048384   0.000020   0.000007   0.000000  -0.000001   0.000025
     5  O    0.000126  -0.015775  -0.066435   0.005480   0.003590   0.311846
     6  O    0.068954  -0.023539  -0.000893  -0.000161   0.000840  -0.005142
     7  H    0.356865   0.000418  -0.000074   0.000001  -0.000035   0.000139
     8  O    0.000418   8.032969   0.256798  -0.043068  -0.032849  -0.062700
     9  C   -0.000074   0.256798   4.763725   0.405666   0.419501   0.273373
    10  H    0.000001  -0.043068   0.405666   0.674849  -0.050622  -0.038828
    11  H   -0.000035  -0.032849   0.419501  -0.050622   0.646969  -0.039351
    12  C    0.000139  -0.062700   0.273373  -0.038828  -0.039351   4.783434
    13  H    0.000000   0.007607  -0.068168  -0.009358   0.012074   0.426640
    14  H   -0.000018   0.004838  -0.010599   0.006855  -0.011533   0.377936
    15  C   -0.000238   0.008450  -0.007588   0.000560   0.000425   0.002932
    16  H   -0.000052  -0.000745   0.004576   0.000001  -0.000165  -0.007118
    17  H    0.000146  -0.000261   0.000152  -0.000025   0.000001  -0.000241
    18  C   -0.000054  -0.003296   0.002306   0.000378  -0.000149  -0.000037
    19  H    0.000002  -0.000352  -0.000121  -0.000008  -0.000005   0.000050
    20  H   -0.000003   0.000530   0.000721   0.000002   0.000012  -0.000326
    21  O    0.000003  -0.025295   0.012145   0.002235  -0.000102  -0.008433
    22  H    0.000000   0.051010  -0.012243  -0.007420   0.001312   0.005156
              13         14         15         16         17         18
     1  Si  -0.008824   0.000957  -0.057397  -0.017709   0.006061   0.003208
     2  O    0.000449  -0.000290   0.281353  -0.047770  -0.041603  -0.053711
     3  O    0.000000   0.000010   0.000074  -0.000011   0.000088   0.000069
     4  H   -0.000002  -0.000001   0.000424   0.000099  -0.000521   0.000047
     5  O   -0.061576  -0.036374  -0.011473   0.020607   0.000081  -0.000769
     6  O   -0.000127  -0.000032  -0.002238   0.000117  -0.000069  -0.000602
     7  H    0.000000  -0.000018  -0.000238  -0.000052   0.000146  -0.000054
     8  O    0.007607   0.004838   0.008450  -0.000745  -0.000261  -0.003296
     9  C   -0.068168  -0.010599  -0.007588   0.004576   0.000152   0.002306
    10  H   -0.009358   0.006855   0.000560   0.000001  -0.000025   0.000378
    11  H    0.012074  -0.011533   0.000425  -0.000165   0.000001  -0.000149
    12  C    0.426640   0.377936   0.002932  -0.007118  -0.000241  -0.000037
    13  H    0.720510  -0.058093   0.009214  -0.009467   0.000212  -0.002150
    14  H   -0.058093   0.683530   0.000198   0.001099   0.000012  -0.000096
    15  C    0.009214   0.000198   4.796307   0.421392   0.365808   0.294381
    16  H   -0.009467   0.001099   0.421392   0.672566  -0.034051  -0.073340
    17  H    0.000212   0.000012   0.365808  -0.034051   0.673552  -0.021082
    18  C   -0.002150  -0.000096   0.294381  -0.073340  -0.021082   4.728708
    19  H   -0.000333  -0.000011  -0.023126   0.000345   0.001113   0.364871
    20  H    0.000351   0.000012  -0.053307   0.012541  -0.001202   0.411364
    21  O    0.007763   0.000394  -0.066449   0.001120   0.006645   0.312277
    22  H   -0.000758  -0.000237   0.002112  -0.000332  -0.000787  -0.041640
              19         20         21         22
     1  Si   0.001008  -0.003247   0.001208  -0.002565
     2  O    0.006596   0.004886   0.001458   0.001497
     3  O   -0.000000  -0.000001  -0.000000   0.000000
     4  H   -0.000004   0.000001  -0.000001   0.000002
     5  O    0.000038  -0.000005  -0.000223   0.001101
     6  O   -0.000001  -0.000013   0.000004  -0.000096
     7  H    0.000002  -0.000003   0.000003   0.000000
     8  O   -0.000352   0.000530  -0.025295   0.051010
     9  C   -0.000121   0.000721   0.012145  -0.012243
    10  H   -0.000008   0.000002   0.002235  -0.007420
    11  H   -0.000005   0.000012  -0.000102   0.001312
    12  C    0.000050  -0.000326  -0.008433   0.005156
    13  H   -0.000333   0.000351   0.007763  -0.000758
    14  H   -0.000011   0.000012   0.000394  -0.000237
    15  C   -0.023126  -0.053307  -0.066449   0.002112
    16  H    0.000345   0.012541   0.001120  -0.000332
    17  H    0.001113  -0.001202   0.006645  -0.000787
    18  C    0.364871   0.411364   0.312277  -0.041640
    19  H    0.699914  -0.048867  -0.042293   0.010728
    20  H   -0.048867   0.692073  -0.048671  -0.010543
    21  O   -0.042293  -0.048671   7.942427   0.337628
    22  H    0.010728  -0.010543   0.337628   0.437403
 Mulliken charges:
               1
     1  Si   0.691570
     2  O   -0.408746
     3  O   -0.504263
     4  H    0.167788
     5  O   -0.419919
     6  O   -0.720889
     7  H    0.270667
     8  O   -0.443738
     9  C    0.037017
    10  H    0.047364
    11  H    0.059357
    12  C    0.059564
    13  H    0.034034
    14  H    0.041444
    15  C    0.038187
    16  H    0.056298
    17  H    0.045971
    18  C    0.079315
    19  H    0.030453
    20  H    0.043694
    21  O   -0.433839
    22  H    0.228672
 Sum of Mulliken charges =  -1.00000
 Mulliken charges with hydrogens summed into heavy atoms:
               1
     1  Si   0.691570
     2  O   -0.408746
     3  O   -0.065808
     5  O   -0.419919
     6  O   -0.720889
     8  O   -0.443738
     9  C    0.143738
    12  C    0.135043
    15  C    0.140455
    18  C    0.153462
    21  O   -0.205168
 APT charges:
               1
     1  Si   0.339544
     2  O   -0.417424
     3  O   -0.076031
     4  H    0.091226
     5  O   -0.383616
     6  O   -0.478385
     7  H   -0.063178
     8  O   -0.407731
     9  C   -0.759570
    10  H    0.427355
    11  H    0.465473
    12  C   -0.597892
    13  H    0.237230
    14  H    0.515617
    15  C   -0.433486
    16  H    0.156192
    17  H    0.428461
    18  C   -0.809517
    19  H    0.558110
    20  H    0.353388
    21  O   -0.179860
    22  H    0.034096
 Sum of APT charges =  -1.00000
 APT charges with hydrogens summed into heavy atoms:
               1
     1  Si   0.339544
     2  O   -0.417424
     3  O   -0.047983
     5  O   -0.383616
     6  O   -0.478385
     8  O   -0.407731
     9  C    0.133257
    12  C    0.154955
    15  C    0.151166
    18  C    0.101981
    21  O   -0.145764
 Electronic spatial extent (au):  <R**2>=           2126.6484
 Charge=             -1.0000 electrons
 Dipole moment (field-independent basis, Debye):
    X=              7.2838    Y=              0.0029    Z=              2.5707  Tot=              7.7241
 Quadrupole moment (field-independent basis, Debye-Ang):
   XX=           -117.7966   YY=            -72.9502   ZZ=            -82.8469
   XY=              0.1609   XZ=              0.2860   YZ=              0.6715
 Traceless Quadrupole moment (field-independent basis, Debye-Ang):
   XX=            -26.5987   YY=             18.2477   ZZ=              8.3510
   XY=              0.1609   XZ=              0.2860   YZ=              0.6715
 Octapole moment (field-independent basis, Debye-Ang**2):
  XXX=             72.6956  YYY=             -2.4690  ZZZ=              1.3042  XYY=              5.1896
  XXY=             22.2069  XXZ=              1.7627  XZZ=             10.8683  YZZ=             -6.5596
  YYZ=              4.8326  XYZ=             -4.4688
 Hexadecapole moment (field-independent basis, Debye-Ang**3):
 XXXX=          -1983.3213 YYYY=           -936.9507 ZZZZ=           -358.6481 XXXY=            -64.4066
 XXXZ=             37.9554 YYYX=             14.4242 YYYZ=             -5.6077 ZZZX=            -13.0207
 ZZZY=              5.5235 XXYY=           -411.6627 XXZZ=           -326.5106 YYZZ=           -221.3442
 XXYZ=              8.8271 YYXZ=             -3.9678 ZZXY=              4.9338
 N-N= 8.406468285636D+02 E-N=-3.824436931353D+03  KE= 8.970198453724D+02
  Exact polarizability:       0.000       0.000       0.000       0.000       0.000       0.000
 Approx polarizability:     101.846       0.608     102.457       3.065      -1.287      94.443
   1 Symmetry operations used in ECPInt.
 ECPInt:  NShTT=   18145 NPrTT=   50058 LenC2=   17034 LenP2D=   36219.
 LDataN:  DoStor=T MaxTD1= 8 Len=  415
 Calling FoFJK, ICntrl=    100127 FMM=F ISym2X=0 I1Cent= 0 IOpClX= 0 NMat=1 NMatS=1 NMatT=0.
 ***** Axes restored to original set *****
 -------------------------------------------------------------------
 Center     Atomic                   Forces (Hartrees/Bohr)
 Number     Number              X              Y              Z
 -------------------------------------------------------------------
      1       14          -0.000623304    0.000258852   -0.000375600
      2        8           0.000007088   -0.000130573   -0.000339852
      3        8          -0.000508479    0.000853555    0.000935517
      4        1          -0.000141028   -0.000124329    0.000023060
      5        8           0.000303592   -0.000323716   -0.000128142
      6        8           0.000437938   -0.000150369   -0.000787323
      7        1           0.000000990    0.000006493    0.000034936
      8        8          -0.000063289    0.000066047    0.000098498
      9        6           0.000113918   -0.000033779    0.000194948
     10        1          -0.000006891    0.000007302    0.000032067
     11        1          -0.000009200    0.000007408    0.000015808
     12        6           0.000292008   -0.000239966    0.000111611
     13        1           0.000024365   -0.000008305    0.000022336
     14        1           0.000021240   -0.000018930    0.000004719
     15        6           0.000112275   -0.000146152   -0.000138101
     16        1           0.000025409    0.000002634   -0.000029813
     17        1           0.000007387   -0.000004100   -0.000018411
     18        6           0.000027183   -0.000043464    0.000030934
     19        1           0.000009983   -0.000007452   -0.000002385
     20        1           0.000006478    0.000009793    0.000003975
     21        8          -0.000016927    0.000003152    0.000293409
     22        1          -0.000020737    0.000015899    0.000017808
 -------------------------------------------------------------------
 Cartesian Forces:  Max     0.000935517 RMS     0.000247765
 FormGI is forming the generalized inverse of G from B-inverse, IUseBI=4.

 GradGradGradGradGradGradGradGradGradGradGradGradGradGradGradGradGradGrad
 Berny optimization.
 Internal  Forces:  Max     0.006023789 RMS     0.000751718
 Search for a local minimum.
 Step number   1 out of a maximum of  113
 All quantities printed in internal units (Hartrees-Bohrs-Radians)
 Mixed Optimization -- En-DIIS/RFO-DIIS
 Second derivative matrix not updated -- analytic derivatives used.
 ITU=  0
     Eigenvalues ---   -0.00008   0.00326   0.00365   0.00525   0.00561
     Eigenvalues ---    0.00773   0.00907   0.00925   0.02926   0.03632
     Eigenvalues ---    0.04226   0.04231   0.04448   0.04764   0.04935
     Eigenvalues ---    0.04993   0.05191   0.05693   0.06083   0.06926
     Eigenvalues ---    0.07978   0.08386   0.09055   0.09764   0.10021
     Eigenvalues ---    0.10377   0.10413   0.10774   0.11444   0.12545
     Eigenvalues ---    0.13042   0.14362   0.16056   0.17658   0.18484
     Eigenvalues ---    0.19453   0.21828   0.23183   0.25536   0.26280
     Eigenvalues ---    0.27270   0.27482   0.30035   0.30678   0.31450
     Eigenvalues ---    0.31989   0.32170   0.32336   0.32625   0.32786
     Eigenvalues ---    0.33036   0.34932   0.37818   0.39671   0.42874
     Eigenvalues ---    0.45579   0.47051   0.53157   0.56064   0.75142
 RFO step:  Lambda=-2.05921752D-03 EMin=-8.34189120D-05
 Linear search not attempted -- first point.
 Iteration  1 RMS(Cart)=  0.13987393 RMS(Int)=  0.01202522
 Iteration  2 RMS(Cart)=  0.03346357 RMS(Int)=  0.00047661
 Iteration  3 RMS(Cart)=  0.00107338 RMS(Int)=  0.00001467
 Iteration  4 RMS(Cart)=  0.00000071 RMS(Int)=  0.00001466
 Variable       Old X    -DE/DX   Delta X   Delta X   Delta X     New X
                                 (Linear)    (Quad)   (Total)
    R1        3.15305  -0.00008   0.00000  -0.00235  -0.00235   3.15070
    R2        3.19238   0.00034   0.00000   0.00212   0.00212   3.19449
    R3        2.91043   0.00039   0.00000  -0.00237  -0.00237   2.90806
    R4        3.23749   0.00005   0.00000   0.00023   0.00022   3.23770
    R5        2.64224   0.00000   0.00000   0.00060   0.00060   2.64285
    R6        1.80729  -0.00018   0.00000  -0.00039  -0.00039   1.80690
    R7        1.86396   0.00004   0.00000   0.00397   0.00397   1.86793
    R8        2.64497   0.00051   0.00000   0.00234   0.00234   2.64732
    R9        3.34400   0.00021   0.00000  -0.07807  -0.07807   3.26593
   R10        2.66217  -0.00030   0.00000  -0.00224  -0.00224   2.65993
   R11        2.06654  -0.00001   0.00000  -0.00001  -0.00001   2.06653
   R12        2.07294   0.00001   0.00000   0.00014   0.00014   2.07308
   R13        2.89822   0.00006   0.00000   0.00008   0.00010   2.89831
   R14        2.07642   0.00001   0.00000  -0.00015  -0.00015   2.07627
   R15        2.06923   0.00000   0.00000  -0.00012  -0.00012   2.06911
   R16        2.07323   0.00002   0.00000  -0.00003  -0.00003   2.07320
   R17        2.07367   0.00000   0.00000  -0.00041  -0.00041   2.07326
   R18        2.87148   0.00017   0.00000   0.00065   0.00065   2.87213
   R19        2.06867   0.00001   0.00000   0.00016   0.00016   2.06882
   R20        2.07664   0.00001   0.00000   0.00001   0.00001   2.07665
   R21        2.65804   0.00006   0.00000  -0.00038  -0.00038   2.65765
   R22        1.83733   0.00002   0.00000   0.00042   0.00042   1.83776
    A1        1.86163  -0.00028   0.00000   0.00126   0.00121   1.86284
    A2        1.96643   0.00059   0.00000   0.00398   0.00390   1.97034
    A3        1.81930  -0.00032   0.00000  -0.00148  -0.00150   1.81780
    A4        2.06617   0.00115   0.00000   0.01049   0.01045   2.07663
    A5        1.63013  -0.00020   0.00000  -0.00102  -0.00101   1.62911
    A6        2.07776  -0.00117   0.00000  -0.01434  -0.01430   2.06345
    A7        2.19624  -0.00050   0.00000   0.00060   0.00060   2.19684
    A8        1.76916  -0.00009   0.00000  -0.00630  -0.00630   1.76287
    A9        1.95846  -0.00016   0.00000  -0.00063  -0.00065   1.95782
   A10        1.84275   0.00602   0.00000   0.14729   0.14729   1.99004
   A11        1.90693   0.00041   0.00000   0.00395   0.00394   1.91086
   A12        1.91723   0.00004   0.00000   0.00087   0.00087   1.91810
   A13        1.91838   0.00008   0.00000   0.00009   0.00010   1.91847
   A14        1.85740  -0.00024   0.00000  -0.00007  -0.00007   1.85733
   A15        1.89448  -0.00003   0.00000  -0.00020  -0.00020   1.89428
   A16        1.94955   0.00001   0.00000  -0.00052  -0.00052   1.94903
   A17        1.92675   0.00014   0.00000  -0.00015  -0.00014   1.92661
   A18        1.86788   0.00009   0.00000   0.00078   0.00078   1.86866
   A19        1.92770   0.00000   0.00000  -0.00063  -0.00063   1.92707
   A20        1.92394  -0.00003   0.00000  -0.00033  -0.00034   1.92361
   A21        1.91222  -0.00001   0.00000   0.00026   0.00026   1.91248
   A22        1.94341  -0.00007   0.00000   0.00046   0.00046   1.94387
   A23        1.88903   0.00002   0.00000  -0.00053  -0.00053   1.88850
   A24        1.94257   0.00016   0.00000   0.00157   0.00157   1.94414
   A25        1.88681   0.00034   0.00000  -0.00006  -0.00006   1.88675
   A26        1.96334  -0.00076   0.00000  -0.00157  -0.00157   1.96177
   A27        1.87447  -0.00008   0.00000  -0.00108  -0.00108   1.87339
   A28        1.90767   0.00031   0.00000   0.00023   0.00023   1.90790
   A29        1.88588   0.00005   0.00000   0.00091   0.00091   1.88679
   A30        1.89839  -0.00001   0.00000  -0.00034  -0.00034   1.89805
   A31        1.88791  -0.00006   0.00000  -0.00142  -0.00142   1.88650
   A32        1.99032   0.00017   0.00000   0.00147   0.00147   1.99179
   A33        1.88130   0.00001   0.00000  -0.00023  -0.00023   1.88107
   A34        1.86595   0.00005   0.00000   0.00016   0.00016   1.86611
   A35        1.93681  -0.00015   0.00000   0.00030   0.00030   1.93711
   A36        1.88328  -0.00004   0.00000   0.00166   0.00166   1.88494
   A37        2.88992   0.00150   0.00000   0.04320   0.04320   2.93313
   A38        3.11597  -0.00203   0.00000  -0.03732  -0.03732   3.07864
    D1       -0.57723   0.00007   0.00000  -0.02605  -0.02605  -0.60327
    D2       -2.87251  -0.00168   0.00000  -0.04409  -0.04409  -2.91661
    D3        1.13384  -0.00033   0.00000  -0.02729  -0.02729   1.10655
    D4        1.80656  -0.00047   0.00000  -0.00729  -0.00730   1.79926
    D5       -2.23838   0.00103   0.00000   0.00789   0.00792  -2.23046
    D6       -0.04279  -0.00002   0.00000  -0.00558  -0.00557  -0.04836
    D7        1.00862  -0.00049   0.00000  -0.24226  -0.24223   0.76639
    D8       -1.17954  -0.00168   0.00000  -0.25729  -0.25735  -1.43689
    D9       -3.13707  -0.00140   0.00000  -0.25284  -0.25281   2.89331
   D10       -2.22394   0.00026   0.00000   0.00583   0.00588  -2.21806
   D11       -0.33644  -0.00014   0.00000   0.00663   0.00663  -0.32981
   D12        1.85027   0.00060   0.00000   0.01217   0.01217   1.86243
   D13        0.48485  -0.00032   0.00000  -0.00625  -0.00625   0.47859
   D14        2.53947  -0.00011   0.00000  -0.00670  -0.00670   2.53276
   D15       -1.66283  -0.00029   0.00000  -0.00657  -0.00656  -1.66940
   D16       -0.77826   0.00004   0.00000   0.09802   0.09802  -0.68024
   D17        0.37331   0.00009   0.00000   0.00250   0.00250   0.37581
   D18       -1.70714   0.00005   0.00000   0.00207   0.00207  -1.70507
   D19        2.48934   0.00004   0.00000   0.00334   0.00334   2.49267
   D20        2.69531   0.00006   0.00000  -0.00629  -0.00629   2.68903
   D21       -1.50447   0.00010   0.00000  -0.00594  -0.00594  -1.51042
   D22        0.58207   0.00017   0.00000  -0.00610  -0.00611   0.57597
   D23       -0.60821  -0.00008   0.00000   0.00295   0.00294  -0.60527
   D24        1.48221  -0.00003   0.00000   0.00279   0.00279   1.48499
   D25       -2.71188  -0.00006   0.00000   0.00259   0.00259  -2.70929
   D26       -2.70062   0.00001   0.00000   0.00223   0.00223  -2.69839
   D27       -0.61020   0.00006   0.00000   0.00207   0.00207  -0.60813
   D28        1.47890   0.00003   0.00000   0.00187   0.00187   1.48077
   D29        1.47288  -0.00005   0.00000   0.00294   0.00293   1.47581
   D30       -2.71989   0.00000   0.00000   0.00278   0.00278  -2.71711
   D31       -0.63079  -0.00003   0.00000   0.00258   0.00258  -0.62821
   D32       -2.94867  -0.00006   0.00000   0.00379   0.00379  -2.94488
   D33       -0.90980  -0.00008   0.00000   0.00256   0.00256  -0.90724
   D34        1.25396  -0.00021   0.00000   0.00289   0.00289   1.25685
   D35        1.16741   0.00004   0.00000   0.00271   0.00271   1.17012
   D36       -3.07691   0.00001   0.00000   0.00147   0.00148  -3.07543
   D37       -0.91315  -0.00011   0.00000   0.00181   0.00181  -0.91134
   D38       -0.86724  -0.00006   0.00000   0.00337   0.00337  -0.86387
   D39        1.17163  -0.00009   0.00000   0.00213   0.00213   1.17376
   D40       -2.94780  -0.00022   0.00000   0.00246   0.00246  -2.94533
   D41       -0.81167   0.00006   0.00000   0.01735   0.01735  -0.79433
   D42       -2.91051  -0.00006   0.00000   0.01677   0.01677  -2.89375
   D43        1.32553  -0.00002   0.00000   0.01679   0.01679   1.34232
         Item               Value     Threshold  Converged?
 Maximum Force            0.006024     0.000450     NO 
 RMS     Force            0.000752     0.000300     NO 
 Maximum Displacement     0.624177     0.001800     NO 
 RMS     Displacement     0.165375     0.001200     NO 
 Predicted change in Energy=-1.271482D-03
 GradGradGradGradGradGradGradGradGradGradGradGradGradGradGradGradGradGrad

                          Input orientation:                          
 ---------------------------------------------------------------------
 Center     Atomic      Atomic             Coordinates (Angstroms)
 Number     Number       Type             X           Y           Z
 ---------------------------------------------------------------------
      1         14           0       -0.749070   -0.060799    0.182527
      2          8           0        0.245301    1.256631   -0.052876
      3          8           0       -3.046367    2.590444   -0.300986
      4          1           0       -2.180332    2.993987   -0.338339
      5          8           0       -0.731806   -0.946984   -1.256918
      6          8           0       -2.102755    0.315525    0.810272
      7          1           0       -2.831874    1.721959    0.119478
      8          8           0        0.240485   -1.190499    1.007161
      9          6           0        0.216513   -2.421494    0.325000
     10          1           0        1.135466   -2.978058    0.529038
     11          1           0       -0.636997   -3.020828    0.665279
     12          6           0        0.075153   -2.088461   -1.165439
     13          1           0        1.067344   -1.891730   -1.594423
     14          1           0       -0.378266   -2.917636   -1.718377
     15          6           0        1.412760    1.274969   -0.822681
     16          1           0        1.375327    0.526814   -1.624226
     17          1           0        1.491845    2.260323   -1.298601
     18          6           0        2.661914    1.053031    0.014191
     19          1           0        3.540714    1.277135   -0.599011
     20          1           0        2.644492    1.767181    0.849239
     21          8           0        2.814067   -0.264703    0.481422
     22          1           0        1.956404   -0.560159    0.831957
 ---------------------------------------------------------------------
                    Distance matrix (angstroms):
                    1          2          3          4          5
     1  Si   0.000000
     2  O    1.667276   0.000000
     3  O    3.541249   3.560294   0.000000
     4  H    3.413433   2.997264   0.956168   0.000000
     5  O    1.690452   2.694509   4.334097   4.298054   0.000000
     6  O    1.538878   2.672840   2.701954   2.915387   2.783291
     7  H    2.742311   3.116928   0.988465   1.500719   3.664425
     8  O    1.713319   2.666861   5.177854   5.018032   2.476026
     9  C    2.554512   3.697597   6.013132   5.959221   2.361345
    10  H    3.490265   4.366189   7.013193   6.885650   3.286579
    11  H    3.001231   4.426156   6.182645   6.290241   2.829251
    12  C    2.570558   3.529361   5.690633   5.621617   1.400899
    13  H    3.131968   3.600598   6.219765   5.999615   2.059950
    14  H    3.451442   4.537317   6.282253   6.332396   2.054605
    15  C    2.732806   1.398534   4.678296   4.012471   3.118462
    16  H    2.850037   2.068510   5.055780   4.514771   2.597500
    17  H    3.550077   2.028078   4.658281   3.865909   3.902970
    18  C    3.592181   2.426101   5.920088   5.228664   4.139216
    19  H    4.561044   3.340424   6.723335   5.978788   4.861479
    20  H    3.911813   2.613539   5.864013   5.118039   4.816843
    21  O    3.581460   3.032901   6.565722   6.019559   4.007561
    22  H    2.826785   2.647929   6.019765   5.578004   3.426297
                    6          7          8          9         10
     6  O    0.000000
     7  H    1.728256   0.000000
     8  O    2.792427   4.325481   0.000000
     9  C    3.620189   5.148117   1.407575   0.000000
    10  H    4.627402   6.164226   2.055470   1.093558   0.000000
    11  H    3.647015   5.254466   2.058389   1.097029   1.778206
    12  C    3.798139   4.961967   2.356662   1.533721   2.187898
    13  H    4.550172   5.585706   2.818449   2.165351   2.386176
    14  H    4.452107   5.560912   3.285485   2.185248   2.710334
    15  C    3.993234   4.370856   3.286500   4.051175   4.471272
    16  H    4.250704   4.708441   3.340842   3.719523   4.120462
    17  H    4.598993   4.582066   4.334813   5.116831   5.559487
    18  C    4.886689   5.535364   3.447133   4.260153   4.341058
    19  H    5.895720   6.428373   4.422727   5.058059   5.016411
    20  H    4.964391   5.524960   3.814716   4.869795   4.989688
    21  O    4.961849   5.996205   2.785107   3.379867   3.190966
    22  H    4.152598   5.351943   1.836410   2.597844   2.571369
                   11         12         13         14         15
    11  H    0.000000
    12  C    2.174395   0.000000
    13  H    3.047276   1.098715   0.000000
    14  H    2.399876   1.094926   1.776974   0.000000
    15  C    4.986923   3.635840   3.277634   4.646288   0.000000
    16  H    4.677291   2.956451   2.438257   3.866289   1.097093
    17  H    6.023234   4.575660   4.184167   5.521303   1.097121
    18  C    5.282334   4.236959   3.715092   5.292512   1.519867
    19  H    6.125699   4.863968   4.141269   5.848717   2.139678
    20  H    5.807499   5.052366   4.674025   6.138178   2.134186
    21  O    4.420393   3.679659   3.163446   4.697676   2.456610
    22  H    3.578884   3.140765   2.907031   4.184805   2.530034
                   16         17         18         19         20
    16  H    0.000000
    17  H    1.767671   0.000000
    18  C    2.148632   2.133081   0.000000
    19  H    2.510567   2.377803   1.094774   0.000000
    20  H    3.044227   2.486966   1.098918   1.772227   0.000000
    21  O    2.670248   3.360432   1.406370   2.018072   2.071859
    22  H    2.748090   3.565138   1.941357   2.816621   2.426989
                   21         22
    21  O    0.000000
    22  H    0.972499   0.000000
 Stoichiometry    C4H11O6Si(1-)
 Framework group  C1[X(C4H11O6Si)]
 Deg. of freedom    60
 Full point group                 C1      NOp   1
 Largest Abelian subgroup         C1      NOp   1
 Largest concise Abelian subgroup C1      NOp   1
                         Standard orientation:                         
 ---------------------------------------------------------------------
 Center     Atomic      Atomic             Coordinates (Angstroms)
 Number     Number       Type             X           Y           Z
 ---------------------------------------------------------------------
      1         14           0       -0.661573    0.398851   -0.249507
      2          8           0       -0.373014   -1.227440   -0.022085
      3          8           0       -3.914763   -0.930468    0.186499
      4          1           0       -3.325206   -1.682238    0.225518
      5          8           0       -0.262480    1.171359    1.200177
      6          8           0       -2.031679    0.679681   -0.891448
      7          1           0       -3.325903   -0.249896   -0.222314
      8          8           0        0.741409    0.964786   -1.053761
      9          6           0        1.268498    2.068783   -0.357606
     10          1           0        2.342120    2.151107   -0.548467
     11          1           0        0.782182    2.991641   -0.697168
     12          6           0        0.974348    1.825223    1.127808
     13          1           0        1.765315    1.198125    1.561736
     14          1           0        0.938281    2.765917    1.686965
     15          6           0        0.650915   -1.777064    0.755977
     16          1           0        0.946322   -1.098466    1.565824
     17          1           0        0.270416   -2.695004    1.221038
     18          6           0        1.875212   -2.138065   -0.069111
     19          1           0        2.550505   -2.739598    0.547871
     20          1           0        1.546646   -2.761296   -0.912467
     21          8           0        2.612109   -1.028288   -0.519949
     22          1           0        1.984838   -0.374514   -0.873310
 ---------------------------------------------------------------------
 Rotational constants (GHZ):           1.1670172           0.7602326           0.5577686
 Standard basis: def2TZVPP (5D, 7F)
 There are   573 symmetry adapted cartesian basis functions of A   symmetry.
 There are   506 symmetry adapted basis functions of A   symmetry.
   506 basis functions,   766 primitive gaussians,   573 cartesian basis functions
    49 alpha electrons       49 beta electrons
       nuclear repulsion energy       836.5030287802 Hartrees.
 NAtoms=   22 NActive=   22 NUniq=   22 SFac= 1.00D+00 NAtFMM=   60 NAOKFM=F Big=F
 Integral buffers will be    131072 words long.
 Raffenetti 2 integral format.
 Two-electron integral symmetry is turned on.
 Nuclear repulsion after empirical dispersion term =      836.4894728734 Hartrees.
 One-electron integrals computed using PRISM.
   1 Symmetry operations used in ECPInt.
 ECPInt:  NShTT=   18145 NPrTT=   50058 LenC2=   16968 LenP2D=   36025.
 LDataN:  DoStor=T MaxTD1= 6 Len=  172
 NBasis=   506 RedAO= T EigKep=  2.36D-04  NBF=   506
 NBsUse=   506 1.00D-06 EigRej= -1.00D+00 NBFU=   506
 Initial guess from the checkpoint file:  "PbiLmL_to_QbiLmL_collapseIRC_Forward_ProductOpt.chk"
 B after Tr=     0.000000    0.000000    0.000000
         Rot=    0.998759    0.011532   -0.013897    0.046410 Ang=   5.71 deg.
 ExpMin= 7.01D-02 ExpMax= 4.48D+04 ExpMxC= 1.53D+03 IAcc=3 IRadAn=         5 AccDes= 0.00D+00
 Harris functional with IExCor= 4639 and IRadAn=       5 diagonalized for initial guess.
 HarFok:  IExCor= 4639 AccDes= 0.00D+00 IRadAn=         5 IDoV= 1 UseB2=F ITyADJ=14
 ICtDFT=  3500011 ScaDFX=  1.000000  1.000000  1.000000  1.000000
 FoFCou: FMM=F IPFlag=           0 FMFlag=      100000 FMFlg1=           0
         NFxFlg=           0 DoJE=T BraDBF=F KetDBF=T FulRan=T
         wScrn=  0.000000 ICntrl=       500 IOpCl=  0 I1Cent=   200000004 NGrid=           0
         NMat0=    1 NMatS0=      1 NMatT0=    0 NMatD0=    1 NMtDS0=    0 NMtDT0=    0
 Petite list used in FoFCou.
 Requested convergence on RMS density matrix=1.00D-08 within 128 cycles.
 Requested convergence on MAX density matrix=1.00D-06.
 Requested convergence on             energy=1.00D-06.
 No special actions if energy rises.
 Integral accuracy reduced to 1.0D-05 until final iterations.
 Initial convergence to 1.0D-05 achieved.  Increase integral accuracy.
 SCF Done:  E(RwB97XD) =  -900.203866748     A.U. after   12 cycles
            NFock= 12  Conv=0.71D-08     -V/T= 2.0035
   1 Symmetry operations used in ECPInt.
 ECPInt:  NShTT=   18145 NPrTT=   50058 LenC2=   16968 LenP2D=   36025.
 LDataN:  DoStor=T MaxTD1= 7 Len=  274
 Calling FoFJK, ICntrl=      2127 FMM=F ISym2X=0 I1Cent= 0 IOpClX= 0 NMat=1 NMatS=1 NMatT=0.
 ***** Axes restored to original set *****
 -------------------------------------------------------------------
 Center     Atomic                   Forces (Hartrees/Bohr)
 Number     Number              X              Y              Z
 -------------------------------------------------------------------
      1       14           0.000324655   -0.000109379    0.000140000
      2        8          -0.000082797   -0.000004086   -0.000301220
      3        8           0.000086222    0.000196430    0.000382133
      4        1          -0.000120466    0.000148848   -0.000221486
      5        8           0.000058759   -0.000242482    0.000110632
      6        8          -0.000199792   -0.000280870   -0.000807201
      7        1          -0.000178855    0.000267660    0.000348479
      8        8           0.000078393   -0.000030253    0.000116967
      9        6           0.000007384    0.000027569    0.000006828
     10        1           0.000008559   -0.000002597   -0.000006376
     11        1          -0.000000553   -0.000009675    0.000006897
     12        6          -0.000041082    0.000058025    0.000109122
     13        1           0.000032575    0.000016517   -0.000001166
     14        1           0.000001767    0.000014299   -0.000004312
     15        6          -0.000017982   -0.000077565    0.000170201
     16        1          -0.000047167   -0.000063214   -0.000015509
     17        1           0.000016486    0.000036098   -0.000002858
     18        6          -0.000011493    0.000011728   -0.000041487
     19        1           0.000001302    0.000009640   -0.000002120
     20        1           0.000027100   -0.000015193    0.000016361
     21        8           0.000014299    0.000024609    0.000096963
     22        1           0.000042685    0.000023892   -0.000100849
 -------------------------------------------------------------------
 Cartesian Forces:  Max     0.000807201 RMS     0.000160119

 GradGradGradGradGradGradGradGradGradGradGradGradGradGradGradGradGradGrad
 Berny optimization.
 Using GEDIIS/GDIIS optimizer.
 FormGI is forming the generalized inverse of G from B-inverse, IUseBI=4.
 Internal  Forces:  Max     0.001973021 RMS     0.000245794
 Search for a local minimum.
 Step number   2 out of a maximum of  113
 All quantities printed in internal units (Hartrees-Bohrs-Radians)
 Mixed Optimization -- En-DIIS/RFO-DIIS
 Swapping is turned off.
 Update second derivatives using D2CorX and points    1    2
 DE= -1.39D-03 DEPred=-1.27D-03 R= 1.09D+00
 TightC=F SS=  1.41D+00  RLast= 4.85D-01 DXNew= 5.0454D-01 1.4540D+00
 Trust test= 1.09D+00 RLast= 4.85D-01 DXMaxT set to 5.05D-01
 ITU=  1  0
     Eigenvalues ---   -0.00009   0.00326   0.00365   0.00527   0.00562
     Eigenvalues ---    0.00774   0.00859   0.00927   0.02718   0.03602
     Eigenvalues ---    0.03643   0.04242   0.04452   0.04763   0.04935
     Eigenvalues ---    0.04994   0.05193   0.05693   0.06097   0.06929
     Eigenvalues ---    0.07973   0.08379   0.09054   0.09762   0.10021
     Eigenvalues ---    0.10377   0.10413   0.10774   0.11443   0.12544
     Eigenvalues ---    0.13038   0.14395   0.16056   0.17661   0.18488
     Eigenvalues ---    0.19454   0.21829   0.23186   0.25544   0.26283
     Eigenvalues ---    0.27268   0.27492   0.30035   0.30677   0.31450
     Eigenvalues ---    0.31989   0.32170   0.32335   0.32625   0.32786
     Eigenvalues ---    0.33037   0.34931   0.37823   0.39676   0.42874
     Eigenvalues ---    0.45581   0.47052   0.53142   0.56065   0.75168
 Eigenvalue     1 is  -8.77D-05 should be greater than     0.000000 Eigenvector:
                          D9        D7        D8        D16       R9
   1                    0.52085   0.52013   0.51138  -0.33802  -0.18282
                          A10       A37       A8        A38       D5
   1                    0.15840   0.14209   0.02797  -0.02477   0.02110
 Use linear search instead of GDIIS.
 RFO step:  Lambda=-1.43969784D-03 EMin=-1.00000000D-04
 Quartic linear search produced a step of  0.90882.
 Iteration  1 RMS(Cart)=  0.13866547 RMS(Int)=  0.09371538
 Iteration  2 RMS(Cart)=  0.09290492 RMS(Int)=  0.05589903
 Iteration  3 RMS(Cart)=  0.09626122 RMS(Int)=  0.02143403
 Iteration  4 RMS(Cart)=  0.06325813 RMS(Int)=  0.00180181
 Iteration  5 RMS(Cart)=  0.00398165 RMS(Int)=  0.00001658
 Iteration  6 RMS(Cart)=  0.00001183 RMS(Int)=  0.00001621
 Iteration  7 RMS(Cart)=  0.00000000 RMS(Int)=  0.00001621
 Variable       Old X    -DE/DX   Delta X   Delta X   Delta X     New X
                                 (Linear)    (Quad)   (Total)
    R1        3.15070  -0.00004  -0.00214   0.01216   0.01003   3.16072
    R2        3.19449  -0.00003   0.00192   0.00059   0.00251   3.19700
    R3        2.90806   0.00032  -0.00216  -0.00165  -0.00381   2.90425
    R4        3.23770   0.00012   0.00020  -0.00143  -0.00124   3.23646
    R5        2.64285  -0.00005   0.00055   0.00172   0.00227   2.64511
    R6        1.80690  -0.00004  -0.00035   0.00413   0.00378   1.81067
    R7        1.86793   0.00024   0.00360  -0.01456  -0.01096   1.85697
    R8        2.64732  -0.00003   0.00213  -0.00236  -0.00022   2.64709
    R9        3.26593   0.00039  -0.07096   0.20947   0.13851   3.40444
   R10        2.65993  -0.00010  -0.00203   0.00135  -0.00069   2.65924
   R11        2.06653   0.00001  -0.00001   0.00002   0.00001   2.06654
   R12        2.07308   0.00001   0.00013  -0.00013   0.00000   2.07309
   R13        2.89831  -0.00004   0.00009   0.00010   0.00020   2.89851
   R14        2.07627   0.00003  -0.00014  -0.00003  -0.00017   2.07610
   R15        2.06911  -0.00001  -0.00011   0.00024   0.00012   2.06923
   R16        2.07320   0.00006  -0.00002  -0.00049  -0.00051   2.07270
   R17        2.07326   0.00003  -0.00037  -0.00015  -0.00052   2.07274
   R18        2.87213   0.00003   0.00059  -0.00128  -0.00069   2.87144
   R19        2.06882   0.00000   0.00014  -0.00031  -0.00016   2.06866
   R20        2.07665   0.00000   0.00001  -0.00023  -0.00022   2.07643
   R21        2.65765  -0.00004  -0.00035   0.00032  -0.00003   2.65762
   R22        1.83776  -0.00008   0.00038  -0.00085  -0.00046   1.83729
    A1        1.86284  -0.00004   0.00110   0.00001   0.00108   1.86392
    A2        1.97034   0.00005   0.00355  -0.01181  -0.00833   1.96200
    A3        1.81780   0.00003  -0.00136  -0.00099  -0.00236   1.81545
    A4        2.07663   0.00013   0.00950  -0.00836   0.00109   2.07772
    A5        1.62911  -0.00004  -0.00092  -0.00104  -0.00198   1.62714
    A6        2.06345  -0.00015  -0.01300   0.02411   0.01114   2.07459
    A7        2.19684   0.00005   0.00054  -0.00141  -0.00087   2.19597
    A8        1.76287   0.00047  -0.00572  -0.02036  -0.02608   1.73679
    A9        1.95782  -0.00003  -0.00059   0.00221   0.00159   1.95941
   A10        1.99004   0.00197   0.13386  -0.20874  -0.07488   1.91515
   A11        1.91086   0.00004   0.00358   0.00196   0.00549   1.91636
   A12        1.91810   0.00001   0.00079  -0.00076   0.00003   1.91813
   A13        1.91847   0.00003   0.00009  -0.00035  -0.00024   1.91823
   A14        1.85733  -0.00006  -0.00007   0.00085   0.00076   1.85809
   A15        1.89428  -0.00001  -0.00018  -0.00036  -0.00055   1.89373
   A16        1.94903   0.00001  -0.00047  -0.00005  -0.00050   1.94853
   A17        1.92661   0.00002  -0.00013   0.00066   0.00052   1.92713
[...]
 9826,-0.00010253,-0.00304335,-0.01755200,-0.03149328,0.01635738,0.0069
 3214,-0.17120705,0.00267272,0.00316724,-0.00333282,-0.00048753,0.00031
 755,-0.01185846,-0.02992836,0.06827552,0.48500255,-0.00294468,-0.00515
 228,-0.00601199,0.00190858,0.00123369,-0.00049121,-0.00001629,0.000453
 73,0.00001243,-0.00003236,-0.00006852,0.00000176,-0.02606415,0.0184912
 3,0.00443543,-0.00038780,0.00148038,0.00139173,0.00008051,-0.00055131,
 -0.00000511,0.00118463,0.00070635,0.00109059,0.00045741,-0.00166450,-0
 .00136674,0.00130434,-0.00022913,0.00058615,0.00148084,0.00020345,-0.0
 0023455,-0.24510340,-0.05791921,0.07315884,0.27889785,0.00351902,0.002
 18919,0.00304276,-0.00079041,-0.00029367,0.00016488,-0.00001409,-0.000
 21927,0.00000297,0.00003096,0.00000687,-0.00000440,0.03603892,-0.00314
 206,-0.00843293,0.00021726,-0.00098561,-0.00121298,-0.00002587,0.00029
 058,-0.00001916,-0.00045764,0.00166421,0.00006857,-0.00452101,-0.00225
 816,0.00184939,-0.00002199,0.00027034,0.00045507,0.00051024,0.00078478
 ,0.00137941,-0.05995663,-0.06574586,0.01633795,0.04840681,0.07311124,0
 .00015486,0.00032551,-0.00078512,-0.00043380,-0.00012632,0.00019168,-0
 .00001579,-0.00003632,-0.00000074,0.00001411,-0.00000085,0.00000065,-0
 .00748913,-0.00056253,0.00777002,-0.00009017,-0.00011357,0.00026475,0.
 00000572,0.00004293,0.00000463,-0.00172398,-0.00127957,0.00194062,0.03
 091483,0.01309247,-0.01227831,-0.00030674,0.00005760,0.00124443,0.0002
 4027,0.00019460,-0.00637451,0.06977856,0.01520858,-0.07900349,-0.07763
 961,-0.02228134,0.08089834,-0.00087643,0.00109473,-0.00225821,0.001085
 37,0.00095818,0.00029930,0.00000711,0.00002225,0.00000635,-0.00000562,
 -0.00000165,-0.00000831,0.00551836,0.02766443,0.01140510,-0.00024329,0
 .00003780,0.00047285,-0.00000074,-0.00004111,0.00000433,0.00150610,0.0
 0032617,0.00023766,0.00008778,-0.00031787,0.00392291,0.00003047,0.0001
 7728,0.00026151,0.00073604,0.00044939,-0.00009228,-0.08426243,-0.07915
 443,-0.04427352,-0.00934494,-0.02345482,-0.01407539,0.08653107,-0.0006
 9764,0.00085216,0.00647715,-0.00099071,-0.00181876,-0.00097752,0.00009
 854,-0.00030442,-0.00002614,-0.00003352,0.00010200,0.00001447,0.007675
 81,-0.03400516,-0.01069009,0.00091302,-0.00048991,-0.00098668,-0.00011
 047,0.00034883,0.00001977,-0.00049227,0.00230199,0.00095520,-0.0006451
 2,0.00444585,0.00143324,0.00040431,-0.00050362,-0.00104997,0.00054550,
 0.00096265,-0.00044485,-0.07410142,-0.20643146,-0.09378344,-0.00538904
 ,-0.00500340,-0.00478669,0.07221094,0.23937115,-0.00162748,0.00190351,
 -0.00264987,-0.00012086,-0.00039446,0.00061454,0.00003241,-0.00011366,
 0.00000566,-0.00000552,0.00003035,-0.00000646,0.00173578,0.00921401,0.
 00733275,0.00047242,-0.00025467,0.00033354,-0.00003353,0.00012999,0.00
 000900,0.00119882,-0.00313677,-0.00701307,-0.01097674,-0.02647399,-0.0
 0824863,-0.00053976,0.00096095,-0.00099501,0.00094274,0.00005144,0.001
 21263,-0.03994306,-0.09468870,-0.10724949,0.00443588,0.00861210,0.0060
 8784,0.04386951,0.10396942,0.11070416,-0.02533433,-0.02505360,0.008064
 58,-0.20732920,-0.01112732,0.07650931,0.00122782,-0.00157351,-0.000411
 24,-0.00080088,0.00167916,0.00030916,-0.00138252,0.00890023,0.00424628
 ,0.00559410,0.00200032,-0.00091420,-0.00100229,0.00068114,0.00027942,-
 0.00320141,0.00839362,-0.00254428,0.00026759,-0.00184844,-0.00154361,-
 0.00030662,0.00074259,-0.00011523,0.00009494,0.00058269,0.00028265,0.0
 0337627,-0.00168726,-0.00009298,-0.00115967,0.00065443,0.00019078,-0.0
 0066262,0.00068703,0.00028707,0.46636534,-0.01781399,-0.00378088,0.009
 81511,0.00082920,-0.07685908,-0.00330422,0.00046431,-0.00058909,0.0000
 8340,-0.00010315,0.00092427,-0.00021275,0.00076934,-0.00079684,-0.0007
 7265,-0.00134061,-0.00054243,-0.00007615,-0.00042954,-0.00002049,0.000
 06276,0.00040478,-0.00072650,-0.00154512,0.00025636,-0.00039338,0.0005
 1940,-0.00003923,0.00002608,-0.00008243,0.00006529,0.00008798,-0.00012
 997,-0.00084299,-0.00064006,0.00012246,0.00031492,-0.00038856,-0.00004
 508,0.00030421,0.00023548,-0.00005769,0.01233756,0.61146775,0.00883492
 ,0.01601355,-0.00654072,0.07634374,0.00022518,-0.10590102,-0.00061201,
 0.00097288,0.00020403,0.00034260,-0.00096325,-0.00016444,0.00113756,-0
 .00555906,-0.00290823,-0.00343406,-0.00237496,0.00347748,0.00056872,-0
 .00055794,-0.00029710,0.00089760,-0.00485630,0.00086441,-0.00026766,0.
 00160038,0.00131096,0.00010799,-0.00034986,0.00001801,-0.00007285,-0.0
 0042653,-0.00037548,-0.00269017,0.00109036,0.00039120,0.00129541,-0.00
 066063,-0.00026111,0.00072691,-0.00017982,-0.00032627,-0.01278551,0.00
 379700,0.53224299,0.00116227,0.00720378,0.00294919,-0.01873823,0.02048
 232,0.02885679,-0.00031069,0.00016430,0.00001735,0.00020550,-0.0003911
 5,0.00000694,0.00069202,0.00038402,-0.00132978,-0.00070005,-0.00112893
 ,-0.00029412,0.00024019,0.00008061,-0.00002442,0.00018091,-0.00099400,
 -0.00029276,-0.00012599,0.00023309,0.00033063,-0.00000205,-0.00005281,
 -0.00009060,-0.00000089,-0.00006700,-0.00004059,0.00051852,-0.00116852
 ,0.00022361,0.00000637,-0.00004715,0.00009422,-0.00001484,0.00011146,-
 0.00002846,-0.04810360,0.00611490,0.00486743,0.06305224,-0.00149805,-0
 .00158416,0.00080612,0.00554373,0.00763636,-0.00066710,0.00009593,-0.0
 0005061,0.00002758,-0.00009638,0.00004981,-0.00000076,-0.00012109,0.00
 018628,0.00075453,0.00045877,0.00019049,-0.00012224,-0.00006441,0.0000
 4978,-0.00000754,-0.00023993,0.00056704,-0.00022546,0.00016475,-0.0001
 1999,-0.00008556,0.00000338,0.00004207,-0.00000522,0.00003307,0.000020
 64,-0.00000964,-0.00091561,-0.00098309,0.00029003,0.00003187,-0.000427
 57,0.00000399,-0.00007620,0.00008356,0.00000291,0.00931258,-0.19873761
 ,-0.11970777,-0.01215829,0.21109641,-0.00006228,-0.00593417,-0.0007897
 2,0.01486931,-0.00902767,-0.01322686,0.00020857,-0.00012285,0.00002217
 ,-0.00013154,0.00026687,-0.00004755,-0.00132537,0.00052012,0.00060856,
 0.00056496,0.00089196,0.00001063,-0.00016837,-0.00003462,0.00001399,-0
 .00049271,0.00091731,0.00029303,0.00005802,-0.00012712,-0.00036266,0.0
 0000109,0.00006701,0.00000465,-0.00002822,0.00003362,0.00011580,0.0006
 9131,0.00018273,-0.00018708,-0.00028078,0.00050883,0.00023311,-0.00030
 263,-0.00003206,0.00008265,0.00679412,-0.11429690,-0.14792321,-0.01635
 917,0.13309719,0.16393388,0.00126921,0.00372801,0.00174245,-0.02172551
 ,-0.03060835,0.02649802,-0.00004082,0.00039616,-0.00013628,0.00002305,
 -0.00017655,0.00014942,0.00022052,-0.00075223,-0.00037702,-0.00143697,
 -0.00034096,0.00001649,0.00013305,-0.00045183,0.00000430,0.00085931,-0
 .00147398,0.00031077,-0.00003974,0.00011647,0.00023698,0.00004011,-0.0
 0015272,-0.00000232,-0.00000410,-0.00006161,-0.00002218,-0.00030869,0.
 00017351,-0.00005024,0.00008973,-0.00000802,-0.00004852,0.00003991,-0.
 00008707,-0.00002004,-0.04349319,-0.00423645,-0.00229816,0.00149378,-0
 .00050804,-0.00101776,0.06363697,0.00265194,0.00220078,-0.00028000,-0.
 00914863,0.00539312,0.00220612,-0.00015110,0.00037911,-0.00003221,0.00
 007684,-0.00027340,0.00002510,-0.00043128,-0.00054235,-0.00008797,-0.0
 0076981,-0.00001726,0.00016599,0.00015683,-0.00029040,-0.00002160,-0.0
 0014537,-0.00049995,0.00014865,0.00002637,0.00031053,0.00002848,0.0000
 4775,-0.00003962,0.00000031,-0.00005549,-0.00006000,0.00003091,0.00010
 287,0.00028661,-0.00015590,-0.00010361,0.00018716,0.00007907,-0.000117
 43,-0.00012477,0.00000137,-0.00583366,-0.23411091,0.10532811,0.0008044
 4,-0.02029676,0.01257163,0.01194442,0.24837701,-0.00153633,-0.00324939
 ,-0.00126132,0.01651410,0.01469646,-0.00990975,0.00003230,-0.00038574,
 -0.00000345,0.00005158,0.00022709,-0.00002349,-0.00035534,0.00041448,0
 .00053898,0.00094903,0.00022327,-0.00001645,-0.00012329,0.00036007,0.0
 0003848,-0.00001946,0.00114850,0.00003541,-0.00003139,-0.00026673,-0.0
 0030555,-0.00002310,0.00004302,0.00001364,0.00003314,0.00009538,0.0000
 6735,0.00028265,-0.00003935,-0.00012695,-0.00017629,0.00014341,0.00002
 207,-0.00008951,0.00002387,0.00005634,-0.00080992,0.10168378,-0.112520
 43,-0.00086701,-0.01690247,0.01187186,-0.01112539,-0.12012005,0.123258
 84,-0.00243315,0.00279441,-0.00069989,-0.04713333,-0.00310069,-0.01196
 542,0.00002345,0.00020275,-0.00000620,-0.00004900,-0.00012608,0.000018
 84,0.00062330,0.00008864,-0.00072464,-0.00055033,-0.00048602,0.0006411
 8,0.00006170,-0.00021860,-0.00005747,-0.00253215,0.00018582,-0.0009922
 7,0.00019247,0.00053344,0.00022717,0.00009388,0.00006738,-0.00001808,0
 .00003791,0.00005167,-0.00000182,-0.00005660,-0.00039919,0.00014922,0.
 00011705,-0.00018594,-0.00001588,0.00009950,0.00005054,-0.00002517,-0.
 13282194,-0.00934981,-0.05134572,0.00178964,0.00107957,-0.00159079,0.0
 0364799,-0.00178629,0.00186661,0.56500968,-0.00381333,0.00839177,-0.00
 468935,-0.00658457,-0.00105521,0.00052456,-0.00029269,-0.00067035,-0.0
 0017784,0.00028128,0.00009086,0.00020983,0.00067284,-0.00263899,0.0015
 8896,0.00036677,-0.00219259,0.00069256,0.00002823,0.00081784,0.0000595
 4,0.00776145,0.00144383,0.00174120,-0.00037938,-0.00220417,-0.00070863
 ,-0.00011340,-0.00039716,0.00019212,0.00034547,0.00051399,0.00014756,-
 0.00172782,0.00115016,-0.00036770,0.00029522,0.00002303,-0.00062381,0.
 00037250,-0.00000541,0.00013573,0.00135425,-0.08171883,-0.00440147,-0.
 02084526,-0.00097637,-0.02047922,0.02170501,-0.00300913,0.02233032,0.0
 2011021,0.52643229,0.00028688,-0.00845832,0.00417246,0.02529379,0.0050
 0214,0.01070722,0.00008143,-0.00018240,-0.00037660,-0.00003889,0.00026
 916,0.00031534,-0.00063025,0.00162292,-0.00026920,0.00106698,0.0015643
 5,-0.00141669,-0.00016153,0.00010918,0.00018063,-0.00362845,-0.0001031
 9,-0.00130554,0.00022732,0.00078400,0.00022836,0.00005671,0.00034202,-
 0.00016129,-0.00016521,-0.00018733,-0.00010327,0.00046670,-0.00062448,
 0.00036297,0.00000231,-0.00001244,0.00024432,-0.00013451,0.00010213,-0
 .00009728,-0.06632137,-0.01028864,-0.13648156,-0.01782969,0.00200190,-
 0.01517120,-0.00898413,-0.00151696,-0.00954093,-0.06741947,0.02740739,
 0.53963139,0.00125508,0.00307474,-0.00060252,-0.00717214,-0.00178404,-
 0.00417770,-0.00012017,0.00025790,0.00003298,0.00005819,-0.00017871,-0
 .00002000,0.00017055,-0.00070704,-0.00032000,-0.00076087,-0.00035820,0
 .00036637,0.00012999,-0.00021678,-0.00004755,0.00003980,-0.00070496,0.
 00007674,0.00000085,0.00031250,0.00014034,0.00004134,-0.00003511,0.000
 00609,-0.00004071,-0.00007445,-0.00002802,-0.00028527,0.00018684,-0.00
 001324,0.00009132,0.00000158,0.00001518,0.00000973,-0.00008656,-0.0000
 3522,-0.01754900,-0.00280567,0.01763443,0.00073635,-0.00078923,-0.0004
 9307,0.00022529,0.00113730,-0.00030993,-0.23816335,-0.03794383,0.10240
 262,0.25528232,0.00042124,-0.00117064,0.00064754,0.00101418,0.00182936
 ,0.00040591,0.00003231,0.00005433,0.00002269,-0.00002917,0.00000329,-0
 .00002606,-0.00006944,0.00019907,-0.00018651,-0.00006924,0.00028853,-0
 .00009615,-0.00000297,-0.00008159,-0.00000929,-0.00162029,-0.00034185,
 -0.00047479,0.00001527,0.00045781,0.00016426,0.00005049,0.00004693,0.0
 0000029,-0.00002728,-0.00008880,-0.00002349,0.00000350,-0.00003071,0.0
 0008752,0.00000985,0.00001888,0.00001665,-0.00002611,0.00000110,-0.000
 03580,-0.00133641,-0.00051999,-0.00054574,-0.00009899,-0.00017521,0.00
 028909,0.00055991,0.00014764,-0.00028071,-0.03027911,-0.05238500,0.013
 17884,0.04149804,0.06963230,-0.00051185,0.00156317,-0.00071501,-0.0053
 1044,-0.00084987,-0.00138390,0.00002269,-0.00000214,0.00006963,-0.0000
 1970,-0.00002438,-0.00006380,0.00015037,-0.00015181,0.00008644,-0.0001
 1767,-0.00036368,0.00026747,0.00000983,-0.00000289,-0.00003069,0.00110
 670,0.00021092,0.00034498,-0.00000955,-0.00034737,-0.00009297,-0.00003
 271,-0.00003985,0.00000595,0.00003464,0.00007050,0.00001175,-0.0000715
 8,0.00004590,-0.00003827,0.00000773,-0.00002603,-0.00004106,0.00003810
 ,0.00000661,0.00002882,-0.01675479,-0.00332767,0.01144762,0.00098344,-
 0.00038110,0.00025987,0.00072133,0.00022508,0.00109225,0.10161802,0.01
 622698,-0.10818359,-0.11363355,-0.03026247,0.11653006,-0.00030563,-0.0
 0085217,-0.00042017,0.00352344,0.00068031,0.00137792,0.00007329,-0.000
 03938,0.00004061,-0.00004730,0.00004758,-0.00005156,-0.00020306,-0.000
 08821,0.00036611,0.00017218,0.00012106,0.00001793,-0.00003569,0.000004
 51,0.00000269,0.00018578,0.00027713,0.00015476,-0.00001338,-0.00016629
 ,-0.00009244,-0.00000204,-0.00000266,0.00002156,0.00002477,0.00003482,
 0.00002425,-0.00008100,0.00014489,-0.00004144,-0.00001376,0.00006445,-
 0.00002681,-0.00000761,0.00000879,0.00001425,0.00151272,-0.01791572,-0
 .02190836,-0.00358292,-0.00018960,-0.00341611,0.00059910,0.00031521,0.
 00076409,-0.05794359,0.02353878,0.02756264,-0.00297113,0.01816795,0.02
 109331,0.05556061,0.00060759,-0.00132767,0.00019646,-0.00004608,0.0004
 3069,0.00138061,0.00007603,0.00018019,0.00011548,-0.00006945,-0.000037
 79,-0.00010238,-0.00022864,0.00051597,-0.00009808,-0.00021586,0.000414
 41,0.00007448,0.00000273,-0.00022672,-0.00004668,-0.00141610,0.0000426
 6,-0.00009404,0.00024223,0.00021334,0.00005026,0.00002429,0.00015487,-
 0.00007412,-0.00009239,-0.00004913,-0.00000394,0.00038314,-0.00016743,
 0.00004586,-0.00010035,0.00001338,0.00017853,-0.00010185,-0.00002219,-
 0.00000364,0.00149632,0.00129068,-0.00295377,0.00071268,0.00096144,-0.
 00013401,-0.00112768,0.00040646,-0.00076936,0.01926330,-0.15678867,-0.
 11750043,-0.00006531,0.00540129,0.00275457,-0.02855954,0.19075964,0.00
 048125,-0.00019934,-0.00053906,0.00080286,0.00161356,0.00348174,0.0000
 4742,0.00018618,0.00008797,-0.00007221,-0.00008715,-0.00008389,-0.0002
 8271,-0.00010225,0.00033879,-0.00018973,0.00015873,0.00012864,0.000028
 56,-0.00018743,-0.00003728,0.00009209,0.00002854,0.00012478,-0.0000444
 8,-0.00002576,-0.00007184,-0.00000219,-0.00002400,0.00002583,-0.000006
 86,-0.00000487,0.00003091,0.00006560,0.00019034,-0.00008335,-0.0000930
 3,0.00008836,-0.00002939,-0.00003907,-0.00003652,0.00001751,0.00469449
 ,-0.01787321,-0.01916388,-0.00390992,0.00088641,-0.00212590,0.00024978
 ,0.00044594,-0.00006671,0.02529728,-0.11814451,-0.17408368,0.00130476,
 -0.00939447,-0.01005263,-0.02418775,0.12526611,0.18527011,0.00435994,-
 0.00642862,0.00551285,0.00521648,0.00145096,-0.00054285,-0.00009317,0.
 00072094,0.00010235,0.00000290,-0.00019452,-0.00005797,-0.00009803,-0.
 00019637,-0.00169390,-0.00144798,0.00172656,-0.00059279,0.00016094,-0.
 00079416,-0.00008886,-0.01825756,-0.00878237,-0.00172847,-0.00216304,0
 .00494086,0.00187916,0.00060155,-0.00058510,-0.00003211,-0.00011860,-0
 .00157397,-0.00038989,-0.00029239,-0.00001567,0.00014166,0.00000264,0.
 00004021,-0.00009764,-0.00016265,-0.00012943,-0.00031189,-0.00121818,0
 .02907632,-0.01376690,0.00155653,-0.00002724,0.00223141,-0.00397217,0.
 00127386,-0.00459245,-0.09903208,-0.00295445,0.00837929,0.00740219,-0.
 03157131,0.01372365,0.00401816,0.00653410,-0.00404195,0.49924422,0.001
 42935,-0.01255978,0.00490389,0.00533568,0.00693683,-0.00378491,0.00028
 237,0.00082816,0.00000944,-0.00027898,-0.00009066,-0.00002093,-0.00124
 700,0.00329131,-0.00142253,-0.00049085,0.00292228,-0.00074579,-0.00002
 119,-0.00102582,-0.00003307,-0.01493058,0.00108575,-0.00234105,0.00118
 849,0.00272301,0.00085942,0.00023880,0.00088152,-0.00033686,-0.0004620
 8,-0.00037037,-0.00008605,0.00198858,-0.00134206,0.00044970,-0.0005117
 5,-0.00015276,0.00072735,-0.00053273,-0.00002625,-0.00013245,-0.001521
 61,-0.01614354,0.01272555,0.00044046,0.00249194,0.00088611,0.00198733,
 0.00133593,0.00139333,0.03636719,-0.21233577,0.06960276,-0.00217022,-0
 .01965314,0.01370825,0.00516509,-0.04215301,0.01735303,0.09568979,0.36
 108432,0.00085186,0.00548570,-0.00469533,-0.00350027,-0.00438891,0.004
 89653,-0.00010740,-0.00010565,0.00030688,0.00011118,-0.00007947,-0.000
 21856,-0.00047043,-0.00069232,0.00151244,-0.00030708,-0.00103812,0.001
 02375,0.00006946,0.00017517,-0.00011815,0.00478932,0.00064301,0.006121
 07,0.00055538,-0.00126366,-0.00099982,-0.00008180,-0.00023170,-0.00010
 228,0.00008034,0.00037732,0.00028493,0.00112676,0.00020492,-0.00110373
 ,-0.00065989,0.00008326,0.00040037,-0.00035055,-0.00018830,0.00029094,
 0.00013984,0.03531288,-0.01724646,0.00299257,0.00030508,0.00317706,-0.
 00624556,0.00176514,-0.00377038,-0.01307183,0.06789339,-0.09958958,-0.
 00175097,0.02270276,-0.00826860,-0.00092741,-0.00713168,0.01608691,-0.
 10268050,-0.16555023,0.15386998,-0.00891745,0.01147617,-0.01119340,-0.
 00351245,-0.00545821,0.00412201,0.00001837,-0.00108291,-0.00005264,0.0
 0008619,0.00023619,0.00001025,-0.00012104,0.00026573,0.00332929,0.0020
 9703,-0.00288197,0.00113301,-0.00017581,0.00126302,0.00010240,0.006345
 50,0.00386734,0.00637088,0.00276973,-0.00909802,-0.00318358,-0.0008449
 2,0.00151938,0.00009916,0.00033736,0.00254374,0.00059465,0.00112874,0.
 00001548,-0.00090621,-0.00055420,-0.00000029,0.00055493,-0.00007027,0.
 00005731,0.00067886,0.00592667,0.00393998,-0.00357590,-0.00005505,-0.0
 0003960,0.00025000,-0.00125683,0.00000483,-0.00043408,0.00901895,-0.00
 217730,-0.00051319,0.00161964,0.00335758,-0.00304796,-0.00046293,0.002
 68081,-0.00019417,-0.39570970,-0.12794612,0.11943698,0.38233246,0.0004
 4704,0.01091832,-0.00411369,-0.00289581,-0.00233130,-0.00085985,-0.000
 15937,-0.00051988,-0.00006336,0.00013306,-0.00001611,0.00002980,0.0005
 4347,-0.00163838,0.00169836,0.00076097,-0.00236727,0.00058786,0.000020
 33,0.00071790,0.00006307,0.00886273,-0.00610747,0.00348826,-0.00390295
 ,-0.00509545,-0.00180560,-0.00016732,-0.00085048,0.00022130,0.00061009
 ,0.00021855,0.00003627,-0.00036284,0.00037037,-0.00106544,0.00006221,0
 .00005727,-0.00007119,0.00020635,0.00003059,0.00028005,0.00115987,0.00
 193595,0.00178410,0.00022005,-0.00002446,-0.00004384,-0.00062533,0.000
 24020,-0.00076920,-0.03486318,-0.02248614,0.01688740,0.00145121,-0.003
 63359,0.00096728,-0.00075700,-0.00001243,-0.00013769,-0.08820040,-0.07
 772792,0.04572140,0.11745685,0.10832173,-0.00374484,-0.00221486,0.0028
 1013,0.00104197,-0.00018216,-0.00063035,0.00004889,-0.00004651,-0.0001
 8759,-0.00005160,0.00008597,0.00012373,0.00075139,0.00005600,-0.001066
 98,0.00028510,0.00029221,-0.00067481,-0.00005159,0.00001496,0.00008699
 ,0.00098323,0.00089708,-0.00776662,-0.00185892,-0.00023483,0.00069626,
 0.00001640,-0.00005641,0.00036444,0.00013109,-0.00018028,-0.00015742,-
 0.00137644,-0.00038380,0.00020071,0.00054093,-0.00008704,-0.00052910,0
 .00037946,0.00018023,-0.00019030,0.00049545,0.00061569,0.00015318,-0.0
 0025563,-0.00006089,-0.00079309,0.00039808,-0.00080722,0.00055018,0.01
 811635,0.01044239,-0.00906227,-0.00054774,0.00381993,-0.00127433,-0.00
 036805,-0.00115023,0.00074442,0.09864778,0.05183504,-0.05185798,-0.113
 58130,-0.06283528,0.06846081\\-0.00000590,-0.00000339,0.00001206,-0.00
 000396,0.00000706,-0.00000020,-0.00000383,0.00000277,-0.00000181,0.000
 00054,-0.00000245,0.00000157,0.00000235,-0.00000200,-0.00000298,0.0000
 1001,0.00000064,-0.00000456,0.00000121,-0.00000113,-0.00000143,-0.0000
 0301,-0.00000157,-0.00000222,-0.00000099,-0.00000015,-0.00000077,0.000
 00005,-0.00000030,-0.00000012,0.00000018,-0.00000032,-0.00000068,0.000
 00117,-0.00000075,-0.00000102,0.,0.00000012,0.00000025,0.00000121,-0.0
 0000038,-0.00000057,0.00000128,-0.00000075,-0.00000232,0.00000104,0.00
 000118,-0.00000004,0.00000111,-0.00000014,0.00000058,-0.00000055,0.000
 00148,0.00000150,-0.00000051,0.00000035,0.00000097,-0.00000080,-0.0000
 0004,0.00000040,-0.00000093,-0.00000061,0.00000091,0.00000034,0.000000
 39,0.00000047\\\@
 The archive entry for this job was punched.


 ONE BIG VICE IN A MAN IS APT TO KEEP OUT MANY SMALLER ONES.

                           -- BRET HARTE
 Job cpu time:       0 days  5 hours 42 minutes 42.9 seconds.
 Elapsed time:       0 days  1 hours 25 minutes 42.2 seconds.
 File lengths (MBytes):  RWF=    456 Int=      0 D2E=      0 Chk=     21 Scr=      1
 Normal termination of Gaussian 16 at Wed Mar 27 16:07:52 2024.
