 Entering Gaussian System, Link 0=/opt/software/gaussian/g16.c01/g16
 Initial command:
 /opt/software/gaussian/g16.c01/l1.exe "/scratch/arhender/17208544/Gau-186036.inp" -scrdir="/scratch/arhender/17208544/"
 Entering Link 1 = /opt/software/gaussian/g16.c01/l1.exe PID=    186043.
  
 Copyright (c) 1988-2019, Gaussian, Inc.  All Rights Reserved.
  
 This is part of the Gaussian(R) 16 program.  It is based on
 the Gaussian(R) 09 system (copyright 2009, Gaussian, Inc.),
 the Gaussian(R) 03 system (copyright 2003, Gaussian, Inc.),
 the Gaussian(R) 98 system (copyright 1998, Gaussian, Inc.),
 the Gaussian(R) 94 system (copyright 1995, Gaussian, Inc.),
 the Gaussian 92(TM) system (copyright 1992, Gaussian, Inc.),
 the Gaussian 90(TM) system (copyright 1990, Gaussian, Inc.),
 the Gaussian 88(TM) system (copyright 1988, Gaussian, Inc.),
 the Gaussian 86(TM) system (copyright 1986, Carnegie Mellon
 University), and the Gaussian 82(TM) system (copyright 1983,
 Carnegie Mellon University). Gaussian is a federally registered
 trademark of Gaussian, Inc.
  
 This software contains proprietary and confidential information,
 including trade secrets, belonging to Gaussian, Inc.
  
 This software is provided under written license and may be
 used, copied, transmitted, or stored only in accord with that
 written license.
  
 The following legend is applicable only to US Government
 contracts under FAR:
  
                    RESTRICTED RIGHTS LEGEND
  
 Use, reproduction and disclosure by the US Government is
 subject to restrictions as set forth in subparagraphs (a)
 and (c) of the Commercial Computer Software - Restricted
 Rights clause in FAR 52.227-19.
  
 Gaussian, Inc.
 340 Quinnipiac St., Bldg. 40, Wallingford CT 06492
  
  
 ---------------------------------------------------------------
 Warning -- This program may not be used in any manner that
 competes with the business of Gaussian, Inc. or will provide
 assistance to any competitor of Gaussian, Inc.  The licensee
 of this program is prohibited from giving any competitor of
 Gaussian, Inc. access to this program.  By using this program,
 the user acknowledges that Gaussian, Inc. is engaged in the
 business of creating and licensing software in the field of
 computational chemistry and represents and warrants to the
 licensee that it is not a competitor of Gaussian, Inc. and that
 it will not use this program in any manner prohibited above.
 ---------------------------------------------------------------
  

 Cite this work as:
 Gaussian 16, Revision C.01,
 M. J. Frisch, G. W. Trucks, H. B. Schlegel, G. E. Scuseria, 
 M. A. Robb, J. R. Cheeseman, G. Scalmani, V. Barone, 
 G. A. Petersson, H. Nakatsuji, X. Li, M. Caricato, A. V. Marenich, 
 J. Bloino, B. G. Janesko, R. Gomperts, B. Mennucci, H. P. Hratchian, 
 J. V. Ortiz, A. F. Izmaylov, J. L. Sonnenberg, D. Williams-Young, 
 F. Ding, F. Lipparini, F. Egidi, J. Goings, B. Peng, A. Petrone, 
 T. Henderson, D. Ranasinghe, V. G. Zakrzewski, J. Gao, N. Rega, 
 G. Zheng, W. Liang, M. Hada, M. Ehara, K. Toyota, R. Fukuda, 
 J. Hasegawa, M. Ishida, T. Nakajima, Y. Honda, O. Kitao, H. Nakai, 
 T. Vreven, K. Throssell, J. A. Montgomery, Jr., J. E. Peralta, 
 F. Ogliaro, M. J. Bearpark, J. J. Heyd, E. N. Brothers, K. N. Kudin, 
 V. N. Staroverov, T. A. Keith, R. Kobayashi, J. Normand, 
 K. Raghavachari, A. P. Rendell, J. C. Burant, S. S. Iyengar, 
 J. Tomasi, M. Cossi, J. M. Millam, M. Klene, C. Adamo, R. Cammi, 
 J. W. Ochterski, R. L. Martin, K. Morokuma, O. Farkas, 
 J. B. Foresman, and D. J. Fox, Gaussian, Inc., Wallingford CT, 2019.
 
 ******************************************
 Gaussian 16:  ES64L-G16RevC.01  3-Jul-2019
                23-Feb-2024 
 ******************************************
 %chk=IRC_potentialSN1likeCollapseQbiLWithLattacking_forward.chk
 %mem=1600MB
 %nprocs=4
 Will use up to    4 processors via shared memory.
 ----------------------------------------------------------------------
 # irc=(forward,calcfc,maxpoints=100,maxcycle=100) wb97xd/def2tzvpp geo
 m=connectivity
 ----------------------------------------------------------------------
 1/6=100,10=4,18=10,22=1,26=3,38=1,42=100,44=3,57=2,172=1/1,23;
 2/12=2,17=6,18=5,29=1,40=1/2;
 3/5=44,7=202,11=2,25=1,30=1,71=2,74=-58,140=1/1,2,3;
 4//1;
 5/5=2,38=5/2;
 8/6=4,10=90,11=11/1;
 11/6=1,8=1,9=11,15=111,16=1/1,2,10;
 10/6=1,13=1/2;
 6/7=2,8=2,9=2,10=2,28=1/1;
 7/10=1,25=1/1,2,3,16;
 1/6=100,10=4,18=10,22=1,26=3,42=100,44=3/23(2);
 2/29=1/2;
 99/5=20/99;
 2/29=1/2;
 3/5=44,7=202,11=2,25=1,30=1,71=2,74=-58,140=1/1,2,3;
 4/5=5,16=3,69=1/1;
 5/5=2,38=5/2;
 8/6=4,10=90,11=11/1;
 11/6=1,8=1,9=11,15=111,16=1/1,2,10;
 10/6=1,13=1/2;
 7/10=1,25=1/1,2,3,16;
 1/6=100,18=10,22=1,26=3,42=100,44=3/23(-8);
 2/29=1/2;
 6/7=2,8=2,9=2,10=2,19=2,28=1/1;
 99/5=20,9=1/99;
 ----------------------------------------------------------------------
 irc for proton transfer with potential SN1 like transition state in L 
 attack on QbiL
 ----------------------------------------------------------------------
 Symbolic Z-matrix:
 Charge =  0 Multiplicity = 1
 Si                    0.57431   0.55933  -0.07492 
 O                     1.67752  -0.06432  -1.12559 
 O                     1.55965   2.07873   0.49424 
 H                     2.26799   2.3382   -0.09665 
 O                    -0.52577   1.68124  -0.29326 
 H                     0.53626   2.40705   0.13324 
 O                     0.78132  -0.46681   1.19087 
 C                    -1.87115  -1.42806  -0.0182 
 H                    -1.33321  -2.06166   0.68314 
 H                    -2.53109  -2.04287  -0.63264 
 C                    -2.65787  -0.3407    0.70251 
 H                    -2.0473    0.08793   1.5026 
 H                    -3.54229  -0.78876   1.15975 
 O                    -0.88547  -0.84826  -0.88708 
 H                    -1.37093  -0.27057  -1.48729 
 O                    -3.07061   0.65099  -0.20251 
 H                    -2.32818   1.27575  -0.27248 
 C                     1.91318  -1.2853    0.91218 
 H                     1.74584  -2.28112   1.32252 
 H                     2.79303  -0.85064   1.39439 
 C                     2.09349  -1.32715  -0.61666 
 H                     3.13419  -1.49677  -0.89089 
 H                     1.47631  -2.11247  -1.05922 
 
 IRC-IRC-IRC-IRC-IRC-IRC-IRC-IRC-IRC-IRC-IRC-IRC-IRC-IRC-IRC-IRC-IRC-IRC
 ------------------------------------------------------------------------
 INPUT DATA FOR L123
 ------------------------------------------------------------------------
 GENERAL PARAMETERS:
 Rxn path following direction = Forward
 Maximum points per path      = 100
 Step size                    =   0.100 bohr
 Integration scheme           = HPC                                 
    Redo corrector integration= Yes                                 
    DWI Weight Power          =  2
    DWI will use Hessian update vectors when possible.
    Max correction cycles     = 100
 Initial Hessian              = CalcFC
 Hessian evaluation           = All updating
 Hessian updating method      = Bofill                              
 ------------------------------------------------------------------------
 IRC-IRC-IRC-IRC-IRC-IRC-IRC-IRC-IRC-IRC-IRC-IRC-IRC-IRC-IRC-IRC-IRC-IRC
                          Input orientation:                          
 ---------------------------------------------------------------------
 Center     Atomic      Atomic             Coordinates (Angstroms)
 Number     Number       Type             X           Y           Z
 ---------------------------------------------------------------------
      1         14           0        0.574308    0.559325   -0.074915
      2          8           0        1.677518   -0.064323   -1.125589
      3          8           0        1.559653    2.078730    0.494241
      4          1           0        2.267992    2.338203   -0.096649
      5          8           0       -0.525768    1.681244   -0.293261
      6          1           0        0.536256    2.407049    0.133236
      7          8           0        0.781322   -0.466809    1.190867
      8          6           0       -1.871151   -1.428056   -0.018202
      9          1           0       -1.333208   -2.061664    0.683138
     10          1           0       -2.531090   -2.042874   -0.632642
     11          6           0       -2.657866   -0.340696    0.702514
     12          1           0       -2.047298    0.087930    1.502603
     13          1           0       -3.542294   -0.788758    1.159746
     14          8           0       -0.885472   -0.848259   -0.887079
     15          1           0       -1.370925   -0.270567   -1.487293
     16          8           0       -3.070609    0.650990   -0.202510
     17          1           0       -2.328175    1.275745   -0.272475
     18          6           0        1.913178   -1.285296    0.912180
     19          1           0        1.745840   -2.281123    1.322520
     20          1           0        2.793029   -0.850641    1.394393
     21          6           0        2.093491   -1.327152   -0.616662
     22          1           0        3.134191   -1.496773   -0.890885
     23          1           0        1.476310   -2.112466   -1.059216
 ---------------------------------------------------------------------
                    Distance matrix (angstroms):
                    1          2          3          4          5
     1  Si   0.000000
     2  O    1.646185   0.000000
     3  O    1.898272   2.688944   0.000000
     4  H    2.456307   2.679460   0.958239   0.000000
     5  O    1.586362   2.931594   2.264318   2.876690   0.000000
     6  H    1.859801   2.999133   1.133781   1.748284   1.355208
     7  O    1.642562   2.516174   2.751519   3.425781   2.919803
     8  C    3.151693   3.959688   4.932602   5.596728   3.399038
     9  H    3.329091   4.040462   5.054423   5.738949   3.951541
    10  H    4.089743   4.676542   5.915375   6.520147   4.243295
    11  C    3.444036   4.713162   4.866669   5.663854   3.102523
    12  H    3.095738   4.561231   4.241483   5.122798   2.842328
    13  H    4.504234   5.744040   5.890267   6.716832   4.160717
    14  O    2.184459   2.690792   4.056346   4.552214   2.623050
    15  H    2.543121   3.076747   4.246641   4.688421   2.439174
    16  O    3.648301   4.889628   4.895225   5.599871   2.746976
    17  H    2.996113   4.309195   4.043247   4.720644   1.847575
    18  C    2.483859   2.387219   3.408273   3.778012   4.025159
    19  H    3.375419   3.303348   4.441737   4.860541   4.844719
    20  H    3.011576   2.865828   3.303438   3.559157   4.502558
    21  C    2.481975   1.423649   3.622033   3.706169   4.001944
    22  H    3.383245   2.056428   4.145113   4.011004   4.883876
    23  H    2.986791   2.059073   4.470604   4.621877   4.357435
                    6          7          8          9         10
     6  H    0.000000
     7  O    3.072084   0.000000
     8  C    4.530626   3.069439   0.000000
     9  H    4.875109   2.696774   1.087529   0.000000
    10  H    5.458662   4.096491   1.091356   1.779481   0.000000
    11  C    4.251658   3.475976   1.523386   2.171825   2.167054
    12  H    3.732054   2.899311   2.154551   2.408776   3.055103
    13  H    5.282185   4.335698   2.142191   2.593744   2.409978
    14  O    3.695860   2.691016   1.436202   2.034306   2.049366
    15  H    3.665117   3.441398   1.936036   2.814289   2.284181
    16  O    4.025661   4.245980   2.407302   3.340872   2.780827
    17  H    3.106351   3.853159   2.753918   3.611295   3.344268
    18  C    4.016974   1.424319   3.899633   3.345778   4.765702
    19  H    4.985624   2.058971   3.950681   3.152381   4.708668
    20  H    4.158856   2.058085   4.907485   4.358703   5.820355
    21  C    4.114801   2.393562   4.010826   3.737814   4.679665
    22  H    4.799783   3.306132   5.081313   4.770147   5.697396
    23  H    4.767773   2.872990   3.571781   3.306323   4.030641
                   11         12         13         14         15
    11  C    0.000000
    12  H    1.093918   0.000000
    13  H    1.091803   1.766676   0.000000
    14  O    2.434298   2.817245   3.354361   0.000000
    15  H    2.540943   3.086337   3.462684   0.964183   0.000000
    16  O    1.404588   2.066788   2.037425   2.737007   2.321392
    17  H    1.916294   2.154228   2.790612   2.640175   2.187051
    18  C    4.672330   4.233169   5.483613   3.355708   4.191954
    19  H    4.852040   4.475795   5.497091   3.722799   4.653129
    20  H    5.518242   4.931672   6.339969   4.328567   5.096971
    21  C    5.028789   4.862085   5.933596   3.029304   3.725124
    22  H    6.117463   5.923504   7.020101   4.071643   4.706947
    23  H    4.830556   4.880622   5.644677   2.684374   3.417980
                   16         17         18         19         20
    16  O    0.000000
    17  H    0.972842   0.000000
    18  C    5.461673   5.094253   0.000000
    19  H    5.841334   5.638521   1.089978   0.000000
    20  H    6.259972   5.790224   1.093431   1.774274   0.000000
    21  C    5.545493   5.142438   1.540007   2.188915   2.181916
    22  H    6.601991   6.156844   2.187839   2.727982   2.399244
    23  H    5.389351   5.154905   2.182078   2.402865   3.057147
                   21         22         23
    21  C    0.000000
    22  H    1.089507   0.000000
    23  H    1.092467   1.776509   0.000000
 Symmetry turned off by external request.
 Stoichiometry    C4H12O6Si
 Framework group  C1[X(C4H12O6Si)]
 Deg. of freedom    63
 Full point group                 C1      NOp   1
 Rotational constants (GHZ):           1.4818360           0.7780797           0.6305722
 Standard basis: def2TZVPP (5D, 7F)
   520 basis functions,   783 primitive gaussians,   588 cartesian basis functions
    49 alpha electrons       49 beta electrons
       nuclear repulsion energy       882.6598797849 Hartrees.
 NAtoms=   23 NActive=   23 NUniq=   23 SFac= 1.00D+00 NAtFMM=   60 NAOKFM=F Big=F
 Integral buffers will be    131072 words long.
 Raffenetti 2 integral format.
 Two-electron integral symmetry is turned off.
 Nuclear repulsion after empirical dispersion term =      882.6453291276 Hartrees.
 One-electron integrals computed using PRISM.
   1 Symmetry operations used in ECPInt.
 ECPInt:  NShTT=   19306 NPrTT=   52617 LenC2=   18321 LenP2D=   38753.
 LDataN:  DoStor=T MaxTD1= 6 Len=  172
 NBasis=   520 RedAO= T EigKep=  2.02D-04  NBF=   520
 NBsUse=   520 1.00D-06 EigRej= -1.00D+00 NBFU=   520
 ExpMin= 7.01D-02 ExpMax= 4.48D+04 ExpMxC= 1.53D+03 IAcc=3 IRadAn=         5 AccDes= 0.00D+00
 Harris functional with IExCor= 4639 and IRadAn=       5 diagonalized for initial guess.
 HarFok:  IExCor= 4639 AccDes= 0.00D+00 IRadAn=         5 IDoV= 1 UseB2=F ITyADJ=14
 ICtDFT=  3500011 ScaDFX=  1.000000  1.000000  1.000000  1.000000
 FoFCou: FMM=F IPFlag=           0 FMFlag=      100000 FMFlg1=           0
         NFxFlg=           0 DoJE=T BraDBF=F KetDBF=T FulRan=T
         wScrn=  0.000000 ICntrl=       500 IOpCl=  0 I1Cent=   200000004 NGrid=           0
         NMat0=    1 NMatS0=      1 NMatT0=    0 NMatD0=    1 NMtDS0=    0 NMtDT0=    0
 Symmetry not used in FoFCou.
 Requested convergence on RMS density matrix=1.00D-08 within 128 cycles.
 Requested convergence on MAX density matrix=1.00D-06.
 Requested convergence on             energy=1.00D-06.
 No special actions if energy rises.
 Integral accuracy reduced to 1.0D-05 until final iterations.
 Initial convergence to 1.0D-05 achieved.  Increase integral accuracy.
 SCF Done:  E(RwB97XD) =  -900.682765970     A.U. after   13 cycles
            NFock= 13  Conv=0.99D-08     -V/T= 2.0036
 DoSCS=F DFT=T ScalE2(SS,OS)=  1.000000  1.000000
 Range of M.O.s used for correlation:     1   520
 NBasis=   520 NAE=    49 NBE=    49 NFC=     0 NFV=     0
 NROrb=    520 NOA=    49 NOB=    49 NVA=   471 NVB=   471

 **** Warning!!: The largest alpha MO coefficient is  0.12846668D+02

   1 Symmetry operations used in ECPInt.
 ECPInt:  NShTT=   19306 NPrTT=   52617 LenC2=   18321 LenP2D=   38753.
 LDataN:  DoStor=T MaxTD1= 7 Len=  274
 Symmetrizing basis deriv contribution to polar:
 IMax=3 JMax=2 DiffMx= 0.00D+00
 G2DrvN: will do    24 centers at a time, making    1 passes.
 Calling FoFCou, ICntrl=  3107 FMM=F I1Cent=   0 AccDes= 0.00D+00.
 End of G2Drv F.D. properties file   721 does not exist.
 End of G2Drv F.D. properties file   722 does not exist.
 End of G2Drv F.D. properties file   788 does not exist.
          IDoAtm=11111111111111111111111
          Differentiating once with respect to nuclear coordinates.
 CalDSu exits because no D1Ps are significant.
          There are    72 degrees of freedom in the 1st order CPHF.  IDoFFX=6 NUNeed=     0.
     66 vectors produced by pass  0 Test12= 3.21D-14 1.39D-09 XBig12= 8.09D-02 4.18D-02.
 AX will form    66 AO Fock derivatives at one time.
     66 vectors produced by pass  1 Test12= 3.21D-14 1.39D-09 XBig12= 2.29D-02 2.13D-02.
     66 vectors produced by pass  2 Test12= 3.21D-14 1.39D-09 XBig12= 8.58D-04 3.41D-03.
     66 vectors produced by pass  3 Test12= 3.21D-14 1.39D-09 XBig12= 1.32D-05 5.01D-04.
     66 vectors produced by pass  4 Test12= 3.21D-14 1.39D-09 XBig12= 1.31D-07 4.63D-05.
     66 vectors produced by pass  5 Test12= 3.21D-14 1.39D-09 XBig12= 1.16D-09 3.44D-06.
     66 vectors produced by pass  6 Test12= 3.21D-14 1.39D-09 XBig12= 7.75D-12 2.36D-07.
     25 vectors produced by pass  7 Test12= 3.21D-14 1.39D-09 XBig12= 5.01D-14 1.88D-08.
      1 vectors produced by pass  8 Test12= 3.21D-14 1.39D-09 XBig12= 8.75D-16 2.27D-09.
 InvSVY:  IOpt=1 It=  1 EMax= 3.05D-16
 Solved reduced A of dimension   488 with    72 vectors.
 End of Minotr F.D. properties file   721 does not exist.
 End of Minotr F.D. properties file   722 does not exist.
 End of Minotr F.D. properties file   788 does not exist.

 **********************************************************************

            Population analysis using the SCF Density.

 **********************************************************************

 Alpha  occ. eigenvalues --  -66.31613 -19.29827 -19.27941 -19.25465 -19.25457
 Alpha  occ. eigenvalues --  -19.23221 -19.20039 -10.34695 -10.34515 -10.34307
 Alpha  occ. eigenvalues --  -10.32627  -5.43236  -3.77977  -3.77766  -3.77418
 Alpha  occ. eigenvalues --   -1.17791  -1.16080  -1.14086  -1.11126  -1.10108
 Alpha  occ. eigenvalues --   -1.02721  -0.84673  -0.84241  -0.72712  -0.72349
 Alpha  occ. eigenvalues --   -0.66706  -0.64403  -0.62079  -0.60580  -0.60070
 Alpha  occ. eigenvalues --   -0.58138  -0.56840  -0.54223  -0.53027  -0.52504
 Alpha  occ. eigenvalues --   -0.50872  -0.49783  -0.48912  -0.47519  -0.45776
 Alpha  occ. eigenvalues --   -0.43721  -0.42438  -0.41241  -0.40441  -0.39715
 Alpha  occ. eigenvalues --   -0.38673  -0.37505  -0.36846  -0.34948
 Alpha virt. eigenvalues --    0.08503   0.11251   0.11983   0.13397   0.14847
 Alpha virt. eigenvalues --    0.15400   0.16473   0.16861   0.18157   0.19179
 Alpha virt. eigenvalues --    0.19770   0.20555   0.20984   0.21112   0.22855
 Alpha virt. eigenvalues --    0.23051   0.25035   0.25817   0.26565   0.27098
 Alpha virt. eigenvalues --    0.27727   0.28887   0.29818   0.30400   0.30993
 Alpha virt. eigenvalues --    0.32469   0.33255   0.33850   0.37852   0.38282
 Alpha virt. eigenvalues --    0.38998   0.40922   0.41479   0.41878   0.42925
 Alpha virt. eigenvalues --    0.43673   0.44325   0.44928   0.45443   0.46131
 Alpha virt. eigenvalues --    0.47215   0.47764   0.48295   0.48517   0.49262
 Alpha virt. eigenvalues --    0.50343   0.50972   0.51448   0.52572   0.53144
 Alpha virt. eigenvalues --    0.53835   0.54767   0.55737   0.56746   0.57363
 Alpha virt. eigenvalues --    0.58362   0.58937   0.59833   0.60966   0.61392
 Alpha virt. eigenvalues --    0.63619   0.63956   0.67039   0.67832   0.69383
 Alpha virt. eigenvalues --    0.70144   0.71070   0.72026   0.72862   0.74637
 Alpha virt. eigenvalues --    0.76017   0.76780   0.78069   0.79144   0.79520
 Alpha virt. eigenvalues --    0.82142   0.83016   0.84644   0.85184   0.87217
 Alpha virt. eigenvalues --    0.88952   0.90040   0.90478   0.91733   0.92323
 Alpha virt. eigenvalues --    0.93921   0.94733   0.95666   0.97275   0.97981
 Alpha virt. eigenvalues --    0.98805   0.99853   1.02251   1.03214   1.04558
 Alpha virt. eigenvalues --    1.05029   1.06021   1.07115   1.07816   1.08026
 Alpha virt. eigenvalues --    1.09245   1.09710   1.10990   1.13324   1.14233
 Alpha virt. eigenvalues --    1.15805   1.17090   1.18397   1.19348   1.20029
 Alpha virt. eigenvalues --    1.20815   1.21795   1.23129   1.24685   1.24925
 Alpha virt. eigenvalues --    1.25712   1.26956   1.27560   1.28560   1.29102
 Alpha virt. eigenvalues --    1.31469   1.32723   1.34277   1.35373   1.36415
 Alpha virt. eigenvalues --    1.37178   1.37701   1.39487   1.40849   1.42794
 Alpha virt. eigenvalues --    1.42871   1.44900   1.45631   1.45931   1.46352
 Alpha virt. eigenvalues --    1.49213   1.49953   1.51893   1.52536   1.53764
 Alpha virt. eigenvalues --    1.54936   1.56122   1.57055   1.59295   1.61262
 Alpha virt. eigenvalues --    1.61698   1.62559   1.64925   1.66080   1.66589
 Alpha virt. eigenvalues --    1.67805   1.68899   1.70405   1.73977   1.75623
 Alpha virt. eigenvalues --    1.79076   1.80825   1.82271   1.85413   1.88827
 Alpha virt. eigenvalues --    1.90845   1.93011   1.94297   1.95797   1.96890
 Alpha virt. eigenvalues --    1.97794   2.00198   2.00788   2.03358   2.05243
 Alpha virt. eigenvalues --    2.06460   2.07926   2.08315   2.09292   2.10785
 Alpha virt. eigenvalues --    2.12781   2.13234   2.15244   2.18075   2.19295
 Alpha virt. eigenvalues --    2.21408   2.23756   2.25817   2.26925   2.28915
 Alpha virt. eigenvalues --    2.30298   2.33004   2.35822   2.37226   2.39698
 Alpha virt. eigenvalues --    2.40904   2.43183   2.44834   2.46834   2.48370
 Alpha virt. eigenvalues --    2.49862   2.52991   2.57234   2.57808   2.59335
 Alpha virt. eigenvalues --    2.61852   2.65998   2.67492   2.68357   2.70329
 Alpha virt. eigenvalues --    2.71185   2.73454   2.74947   2.77565   2.79083
 Alpha virt. eigenvalues --    2.79869   2.81230   2.81416   2.84422   2.86872
 Alpha virt. eigenvalues --    2.87510   2.90069   2.92606   2.92843   2.94199
 Alpha virt. eigenvalues --    2.95782   2.96423   2.98110   2.98383   3.01352
 Alpha virt. eigenvalues --    3.03160   3.04851   3.05756   3.06093   3.08436
 Alpha virt. eigenvalues --    3.10089   3.10835   3.11073   3.12789   3.13696
 Alpha virt. eigenvalues --    3.15424   3.16640   3.18694   3.19777   3.20703
 Alpha virt. eigenvalues --    3.21339   3.23099   3.23893   3.24353   3.25917
 Alpha virt. eigenvalues --    3.27601   3.28534   3.29905   3.31276   3.32787
 Alpha virt. eigenvalues --    3.33886   3.35263   3.35887   3.36640   3.39129
 Alpha virt. eigenvalues --    3.39631   3.42768   3.43663   3.44507   3.46764
 Alpha virt. eigenvalues --    3.47996   3.49539   3.50043   3.51632   3.52049
 Alpha virt. eigenvalues --    3.54154   3.56425   3.58863   3.59689   3.61111
 Alpha virt. eigenvalues --    3.63256   3.63528   3.65270   3.66226   3.67339
 Alpha virt. eigenvalues --    3.70006   3.72339   3.73238   3.74300   3.74739
 Alpha virt. eigenvalues --    3.75657   3.75715   3.76525   3.79604   3.79979
 Alpha virt. eigenvalues --    3.82491   3.83240   3.84114   3.85732   3.86336
 Alpha virt. eigenvalues --    3.88113   3.90440   3.92111   3.93639   3.95151
 Alpha virt. eigenvalues --    3.95345   3.96546   4.00091   4.00739   4.02666
 Alpha virt. eigenvalues --    4.03355   4.04556   4.06898   4.08411   4.08791
 Alpha virt. eigenvalues --    4.10125   4.11738   4.12548   4.13333   4.14295
 Alpha virt. eigenvalues --    4.15582   4.16570   4.17730   4.19677   4.20900
 Alpha virt. eigenvalues --    4.21861   4.23081   4.25363   4.27817   4.28319
 Alpha virt. eigenvalues --    4.28720   4.31533   4.32176   4.33250   4.35387
 Alpha virt. eigenvalues --    4.36255   4.38329   4.41253   4.41898   4.43320
 Alpha virt. eigenvalues --    4.44828   4.46564   4.48176   4.50504   4.53318
 Alpha virt. eigenvalues --    4.58124   4.59400   4.61677   4.64275   4.64889
 Alpha virt. eigenvalues --    4.65780   4.68328   4.72138   4.75369   4.76609
 Alpha virt. eigenvalues --    4.78221   4.78675   4.82363   4.83455   4.84856
 Alpha virt. eigenvalues --    4.87672   4.89381   4.90279   4.92579   4.94565
 Alpha virt. eigenvalues --    4.96284   4.97153   4.99576   5.01048   5.02794
 Alpha virt. eigenvalues --    5.04976   5.06747   5.08679   5.09128   5.10302
 Alpha virt. eigenvalues --    5.13239   5.16130   5.17657   5.21468   5.22254
 Alpha virt. eigenvalues --    5.23211   5.25697   5.30624   5.34196   5.35804
 Alpha virt. eigenvalues --    5.37684   5.39622   5.40661   5.41646   5.43177
 Alpha virt. eigenvalues --    5.43539   5.45261   5.46275   5.50375   5.51812
 Alpha virt. eigenvalues --    5.53689   5.56453   5.57668   5.57905   5.58518
 Alpha virt. eigenvalues --    5.60391   5.60741   5.62152   5.68706   5.69273
 Alpha virt. eigenvalues --    5.69965   5.72017   5.73666   5.76720   5.78170
 Alpha virt. eigenvalues --    5.79376   5.84569   5.86430   5.90357   5.94483
 Alpha virt. eigenvalues --    5.96216   5.97964   6.01034   6.02921   6.06832
 Alpha virt. eigenvalues --    6.12416   6.14596   6.16684   6.19520   6.27047
 Alpha virt. eigenvalues --    6.29492   6.49833   6.55604   6.57801   6.58833
 Alpha virt. eigenvalues --    6.62491   6.66959   6.69378   6.69490   6.71345
 Alpha virt. eigenvalues --    6.74051   6.78168   6.79449   6.79833   6.81277
 Alpha virt. eigenvalues --    6.83713   6.85788   6.86126   6.86788   6.88062
 Alpha virt. eigenvalues --    6.91527   6.97541   6.98945   7.02850   7.04867
 Alpha virt. eigenvalues --    7.05742   7.07596   7.10823   7.13359   7.15495
 Alpha virt. eigenvalues --    7.18523   7.21195   7.27770   7.28033   7.36344
 Alpha virt. eigenvalues --    7.38854   7.40649   7.46104   7.52658   7.54792
 Alpha virt. eigenvalues --    7.57630   7.64244   7.68704   7.73930   7.83357
 Alpha virt. eigenvalues --   13.00026  23.39586  23.42920  23.44600  23.49554
 Alpha virt. eigenvalues --   43.91680  44.02597  44.16859  44.22919  44.25915
 Alpha virt. eigenvalues --   44.33692
          Condensed to atoms (all electrons):
               1          2          3          4          5          6
     1  Si  11.559900   0.433473   0.250419  -0.011641   0.499926  -0.010199
     2  O    0.433473   7.911004  -0.024031   0.002299  -0.013681   0.002077
     3  O    0.250419  -0.024031   7.726694   0.322437  -0.144582   0.219805
     4  H   -0.011641   0.002299   0.322437   0.508280   0.006244  -0.007301
     5  O    0.499926  -0.013681  -0.144582   0.006244   8.188656   0.145795
     6  H   -0.010199   0.002077   0.219805  -0.007301   0.145795   0.363926
     7  O    0.399218  -0.010612  -0.017311   0.000880  -0.016613   0.002004
     8  C   -0.007128   0.001418  -0.000118  -0.000010  -0.002436  -0.000018
     9  H   -0.007753   0.000362   0.000032  -0.000002   0.000145  -0.000027
    10  H    0.001172  -0.000128   0.000000  -0.000000  -0.000182   0.000008
    11  C    0.007757  -0.000637   0.000135   0.000006   0.004241   0.000179
    12  H   -0.006232  -0.000099   0.000050  -0.000008   0.000210   0.000111
    13  H    0.000276  -0.000003  -0.000000   0.000000   0.000162  -0.000001
    14  O    0.146692  -0.022759  -0.000064   0.000088  -0.032145   0.000831
    15  H   -0.017935   0.000947   0.000137  -0.000064   0.007201  -0.000383
    16  O   -0.005316   0.000018  -0.000074   0.000007  -0.026856   0.000113
    17  H   -0.002783   0.000116   0.000237  -0.000032   0.042760  -0.000107
    18  C   -0.017073  -0.058287   0.003635  -0.001111  -0.000896  -0.000237
    19  H    0.004051   0.004218  -0.000103   0.000012  -0.000004   0.000021
    20  H   -0.006382   0.004145   0.002189  -0.000011  -0.000013  -0.000035
    21  C   -0.046679   0.252380  -0.000797   0.000883   0.000306  -0.000154
    22  H    0.001237  -0.032039  -0.000002   0.000007  -0.000005   0.000043
    23  H   -0.008540  -0.039509  -0.000060   0.000020   0.000100  -0.000036
               7          8          9         10         11         12
     1  Si   0.399218  -0.007128  -0.007753   0.001172   0.007757  -0.006232
     2  O   -0.010612   0.001418   0.000362  -0.000128  -0.000637  -0.000099
     3  O   -0.017311  -0.000118   0.000032   0.000000   0.000135   0.000050
     4  H    0.000880  -0.000010  -0.000002  -0.000000   0.000006  -0.000008
     5  O   -0.016613  -0.002436   0.000145  -0.000182   0.004241   0.000210
     6  H    0.002004  -0.000018  -0.000027   0.000008   0.000179   0.000111
     7  O    7.923247   0.007885   0.006862   0.000487  -0.011185   0.005708
     8  C    0.007885   4.893579   0.406497   0.417570   0.274267  -0.063216
     9  H    0.006862   0.406497   0.577719  -0.021038  -0.025293  -0.000429
    10  H    0.000487   0.417570  -0.021038   0.560885  -0.031652   0.007598
    11  C   -0.011185   0.274267  -0.025293  -0.031652   4.696816   0.442373
    12  H    0.005708  -0.063216  -0.000429   0.007598   0.442373   0.607877
    13  H    0.000024  -0.038797   0.003490  -0.007959   0.420391  -0.026658
    14  O   -0.023875   0.204040  -0.031592  -0.031124  -0.045594   0.000344
    15  H    0.001459  -0.031364   0.009806  -0.005371  -0.009427   0.002462
    16  O    0.000103  -0.066621   0.005055   0.004214   0.263656  -0.042232
    17  H    0.000303   0.002605  -0.000752  -0.000657  -0.033733  -0.011990
    18  C    0.258240   0.000475  -0.000791   0.000046  -0.000367   0.000139
    19  H   -0.037725   0.000047  -0.000914  -0.000061   0.000291  -0.000162
    20  H   -0.037385   0.000034   0.000164   0.000007  -0.000058   0.000000
    21  C   -0.061288  -0.001254  -0.000138   0.000276  -0.000189   0.000284
    22  H    0.003280  -0.000018   0.000004  -0.000009   0.000006  -0.000008
    23  H    0.005354  -0.000981  -0.000084  -0.000040   0.000414  -0.000018
              13         14         15         16         17         18
     1  Si   0.000276   0.146692  -0.017935  -0.005316  -0.002783  -0.017073
     2  O   -0.000003  -0.022759   0.000947   0.000018   0.000116  -0.058287
     3  O   -0.000000  -0.000064   0.000137  -0.000074   0.000237   0.003635
     4  H    0.000000   0.000088  -0.000064   0.000007  -0.000032  -0.001111
     5  O    0.000162  -0.032145   0.007201  -0.026856   0.042760  -0.000896
     6  H   -0.000001   0.000831  -0.000383   0.000113  -0.000107  -0.000237
     7  O    0.000024  -0.023875   0.001459   0.000103   0.000303   0.258240
     8  C   -0.038797   0.204040  -0.031364  -0.066621   0.002605   0.000475
     9  H    0.003490  -0.031592   0.009806   0.005055  -0.000752  -0.000791
    10  H   -0.007959  -0.031124  -0.005371   0.004214  -0.000657   0.000046
    11  C    0.420391  -0.045594  -0.009427   0.263656  -0.033733  -0.000367
    12  H   -0.026658   0.000344   0.002462  -0.042232  -0.011990   0.000139
    13  H    0.591477   0.003941   0.000593  -0.028703   0.005111   0.000001
    14  O    0.003941   7.774077   0.317071  -0.005133   0.001808   0.001036
    15  H    0.000593   0.317071   0.508772   0.031280  -0.001265   0.000303
    16  O   -0.028703  -0.005133   0.031280   7.941660   0.344459   0.000069
    17  H    0.005111   0.001808  -0.001265   0.344459   0.419837   0.000042
    18  C    0.000001   0.001036   0.000303   0.000069   0.000042   4.737536
    19  H   -0.000001   0.000101   0.000013  -0.000001   0.000001   0.406318
    20  H    0.000001  -0.000042  -0.000001   0.000001   0.000002   0.429994
    21  C    0.000025   0.001242  -0.000093   0.000028  -0.000018   0.287197
    22  H   -0.000000   0.000204  -0.000053   0.000000  -0.000000  -0.013226
    23  H    0.000002   0.007165   0.000292  -0.000007   0.000010  -0.048750
              19         20         21         22         23
     1  Si   0.004051  -0.006382  -0.046679   0.001237  -0.008540
     2  O    0.004218   0.004145   0.252380  -0.032039  -0.039509
     3  O   -0.000103   0.002189  -0.000797  -0.000002  -0.000060
     4  H    0.000012  -0.000011   0.000883   0.000007   0.000020
     5  O   -0.000004  -0.000013   0.000306  -0.000005   0.000100
     6  H    0.000021  -0.000035  -0.000154   0.000043  -0.000036
     7  O   -0.037725  -0.037385  -0.061288   0.003280   0.005354
     8  C    0.000047   0.000034  -0.001254  -0.000018  -0.000981
     9  H   -0.000914   0.000164  -0.000138   0.000004  -0.000084
    10  H   -0.000061   0.000007   0.000276  -0.000009  -0.000040
    11  C    0.000291  -0.000058  -0.000189   0.000006   0.000414
    12  H   -0.000162   0.000000   0.000284  -0.000008  -0.000018
    13  H   -0.000001   0.000001   0.000025  -0.000000   0.000002
    14  O    0.000101  -0.000042   0.001242   0.000204   0.007165
    15  H    0.000013  -0.000001  -0.000093  -0.000053   0.000292
    16  O   -0.000001   0.000001   0.000028   0.000000  -0.000007
    17  H    0.000001   0.000002  -0.000018  -0.000000   0.000010
    18  C    0.406318   0.429994   0.287197  -0.013226  -0.048750
    19  H    0.620667  -0.039295  -0.026377   0.005405  -0.009934
    20  H   -0.039295   0.605738  -0.036971  -0.011797   0.009013
    21  C   -0.026377  -0.036971   4.746369   0.402235   0.439996
    22  H    0.005405  -0.011797   0.402235   0.602748  -0.038634
    23  H   -0.009934   0.009013   0.439996  -0.038634   0.610822
 Mulliken charges:
               1
     1  Si   0.843541
     2  O   -0.410672
     3  O   -0.338626
     4  H    0.179017
     5  O   -0.658332
     6  H    0.283585
     7  O   -0.399057
     8  C    0.003542
     9  H    0.078676
    10  H    0.105958
    11  C    0.047601
    12  H    0.083897
    13  H    0.076629
    14  O   -0.266312
    15  H    0.185622
    16  O   -0.415720
    17  H    0.234048
    18  C    0.015703
    19  H    0.073433
    20  H    0.080703
    21  C    0.042737
    22  H    0.080623
    23  H    0.073405
 Sum of Mulliken charges =  -0.00000
 Mulliken charges with hydrogens summed into heavy atoms:
               1
     1  Si   0.843541
     2  O   -0.410672
     3  O    0.123975
     5  O   -0.658332
     7  O   -0.399057
     8  C    0.188176
    11  C    0.208127
    14  O   -0.080690
    16  O   -0.181672
    18  C    0.169839
    21  C    0.196765
 APT charges:
               1
     1  Si   0.570975
     2  O   -0.344528
     3  O   -0.673948
     4  H    0.641379
     5  O   -0.647468
     6  H    0.309410
     7  O   -0.390746
     8  C   -0.659278
     9  H    0.228225
    10  H    0.597260
    11  C   -0.641418
    12  H    0.103696
    13  H    0.687559
    14  O   -0.421012
    15  H    0.418360
    16  O   -0.244977
    17  H    0.097857
    18  C   -0.777835
    19  H    0.433759
    20  H    0.511970
    21  C   -0.718747
    22  H    0.631650
    23  H    0.287857
 Sum of APT charges =  -0.00000
 APT charges with hydrogens summed into heavy atoms:
               1
     1  Si   0.570975
     2  O   -0.344528
     3  O    0.276842
     5  O   -0.647468
     7  O   -0.390746
     8  C    0.166207
    11  C    0.149837
    14  O   -0.002652
    16  O   -0.147119
    18  C    0.167894
    21  C    0.200760
 Electronic spatial extent (au):  <R**2>=           1948.1302
 Charge=             -0.0000 electrons
 Dipole moment (field-independent basis, Debye):
    X=              2.7686    Y=             -2.7072    Z=             -0.0395  Tot=              3.8724
 Quadrupole moment (field-independent basis, Debye-Ang):
   XX=            -70.4277   YY=            -66.4656   ZZ=            -74.4087
   XY=              6.3344   XZ=             -1.5058   YZ=             -2.0364
 Traceless Quadrupole moment (field-independent basis, Debye-Ang):
   XX=              0.0063   YY=              3.9684   ZZ=             -3.9747
   XY=              6.3344   XZ=             -1.5058   YZ=             -2.0364
 Octapole moment (field-independent basis, Debye-Ang**2):
  XXX=             50.1778  YYY=             10.0419  ZZZ=             -7.0511  XYY=             15.2175
  XXY=            -13.0502  XXZ=              6.0524  XZZ=             -9.3946  YZZ=              0.6450
  YYZ=             -3.3094  XYZ=             -5.5943
 Hexadecapole moment (field-independent basis, Debye-Ang**3):
 XXXX=          -1487.4867 YYYY=           -637.2457 ZZZZ=           -304.7178 XXXY=             74.7861
 XXXZ=            -23.2740 YYYX=             33.8967 YYYZ=            -13.6996 ZZZX=             14.6646
 ZZZY=              1.1177 XXYY=           -309.8472 XXZZ=           -286.7103 YYZZ=           -165.3608
 XXYZ=             -7.8218 YYXZ=            -11.4323 ZZXY=             -2.5487
 N-N= 8.826453291276D+02 E-N=-3.893444519543D+03  KE= 8.974515317161D+02
  Exact polarizability:       0.000       0.000       0.000       0.000       0.000       0.000
 Approx polarizability:     101.205      -0.595      98.317       0.783      -2.480      90.778
   1 Symmetry operations used in ECPInt.
 ECPInt:  NShTT=   19306 NPrTT=   52617 LenC2=   18321 LenP2D=   38753.
 LDataN:  DoStor=T MaxTD1= 8 Len=  415
 Calling FoFJK, ICntrl=    100127 FMM=F ISym2X=0 I1Cent= 0 IOpClX= 0 NMat=1 NMatS=1 NMatT=0.
 -------------------------------------------------------------------
 Center     Atomic                   Forces (Hartrees/Bohr)
 Number     Number              X              Y              Z
 -------------------------------------------------------------------
      1       14           0.000001951    0.000001333    0.000000404
      2        8          -0.000001045    0.000003811    0.000001848
      3        8          -0.000002207   -0.000000431    0.000004951
      4        1          -0.000001145    0.000001822    0.000005580
      5        8          -0.000001041    0.000000545    0.000003041
      6        1          -0.000001503    0.000000627    0.000005667
      7        8          -0.000000947   -0.000001324    0.000000663
      8        6           0.000000128   -0.000001162   -0.000002439
      9        1           0.000001633   -0.000001687   -0.000003619
     10        1           0.000001119   -0.000000226   -0.000004557
     11        6          -0.000000417   -0.000003188   -0.000001342
     12        1          -0.000001130   -0.000004136    0.000000342
     13        1           0.000000093   -0.000003934   -0.000002426
     14        8           0.000000052    0.000002016   -0.000001770
     15        1           0.000001015    0.000001656   -0.000000462
     16        8          -0.000000624   -0.000001504    0.000000817
     17        1          -0.000000667   -0.000000510    0.000001803
     18        6           0.000000217   -0.000000697   -0.000001689
     19        1           0.000000452   -0.000001593   -0.000002844
     20        1          -0.000000170   -0.000000860    0.000000195
     21        6           0.000001850    0.000003030   -0.000000182
     22        1           0.000000803    0.000003761   -0.000001070
     23        1           0.000001584    0.000002651   -0.000002912
 -------------------------------------------------------------------
 Cartesian Forces:  Max     0.000005667 RMS     0.000002149
 IRC-IRC-IRC-IRC-IRC-IRC-IRC-IRC-IRC-IRC-IRC-IRC-IRC-IRC-IRC-IRC-IRC-IRC
          ******** Start new reaction path calculation ********
 Supplied step size of   0.1000 bohr.
    Integration on MW PES will use step size of   0.1075 sqrt(amu)*bohr.
 Point Number:   0          Path Number:   1
 Calculating another point on the path.
 IRC-IRC-IRC-IRC-IRC-IRC-IRC-IRC-IRC-IRC-IRC-IRC-IRC-IRC-IRC-IRC-IRC-IRC
                          Input orientation:                          
 ---------------------------------------------------------------------
 Center     Atomic      Atomic             Coordinates (Angstroms)
 Number     Number       Type             X           Y           Z
 ---------------------------------------------------------------------
      1         14           0        0.570442    0.528697   -0.064654
      2          8           0        1.670830   -0.095790   -1.116587
      3          8           0        1.551893    2.045781    0.503026
      4          1           0        2.261261    2.304324   -0.086482
      5          8           0       -0.531230    1.652645   -0.283175
      6          1           0        0.483418    2.358612    0.125604
      7          8           0        0.774406   -0.498185    1.200299
      8          6           0       -1.877569   -1.459128   -0.008717
      9          1           0       -1.339443   -2.092583    0.692531
     10          1           0       -2.537296   -2.073906   -0.623349
     11          6           0       -2.664210   -0.371866    0.712028
     12          1           0       -2.053787    0.056777    1.512186
     13          1           0       -3.548702   -0.819668    1.169217
     14          8           0       -0.891882   -0.878754   -0.877512
     15          1           0       -1.378036   -0.303945   -1.479852
     16          8           0       -3.077105    0.619835   -0.193164
     17          1           0       -2.337316    1.246415   -0.262169
     18          6           0        1.906775   -1.316357    0.921612
     19          1           0        1.739484   -2.312182    1.331976
     20          1           0        2.786263   -0.881165    1.403758
     21          6           0        2.087026   -1.358312   -0.607264
     22          1           0        3.127769   -1.527634   -0.881419
     23          1           0        1.470162   -2.144007   -1.049680
 ---------------------------------------------------------------------
                    Distance matrix (angstroms):
                    1          2          3          4          5
     1  Si   0.000000
     2  O    1.645419   0.000000
     3  O    1.893950   2.687679   0.000000
     4  H    2.451978   2.677737   0.957898   0.000000
     5  O    1.588928   2.932690   2.260989   2.874262   0.000000
     6  H    1.841836   2.996177   1.175564   1.791272   1.301922
     7  O    1.642009   2.516636   2.749988   3.423536   2.920865
     8  C    3.153940   3.959445   4.930261   5.594599   3.401630
     9  H    3.330480   4.040029   5.051909   5.736264   3.953725
    10  H    4.091909   4.675955   5.912868   6.517920   4.245845
    11  C    3.446335   4.713027   4.864588   5.662144   3.104622
    12  H    3.097694   4.561414   4.239748   5.121215   2.843993
    13  H    4.506425   5.743902   5.888180   6.715041   4.162560
    14  O    2.186333   2.690294   4.053496   4.549728   2.625126
    15  H    2.548067   3.077478   4.247058   4.689246   2.444864
    16  O    3.650948   4.889552   4.893427   5.598843   2.748868
    17  H    3.001531   4.312398   4.043569   4.721964   1.851326
    18  C    2.482485   2.387407   3.406629   3.775082   4.026208
    19  H    3.374585   3.303417   4.440065   4.857612   4.846102
    20  H    3.008955   2.865859   3.301818   3.555810   4.502410
    21  C    2.480979   1.423584   3.620354   3.703576   4.003269
    22  H    3.381645   2.056247   4.143594   4.008325   4.884705
    23  H    2.987159   2.059110   4.468992   4.619657   4.359778
                    6          7          8          9         10
     6  H    0.000000
     7  O    3.066094   0.000000
     8  C    4.490818   3.068893   0.000000
     9  H    4.843280   2.695977   1.087472   0.000000
    10  H    5.415982   4.095847   1.091313   1.779534   0.000000
    11  C    4.207964   3.475406   1.523291   2.171694   2.167090
    12  H    3.695735   2.898954   2.154569   2.408707   3.055176
    13  H    5.239139   4.335156   2.142224   2.593910   2.410259
    14  O    3.657627   2.690474   1.436391   2.034386   2.049482
    15  H    3.623770   3.442956   1.936032   2.814244   2.282596
    16  O    3.975208   4.245686   2.407280   3.340829   2.780773
    17  H    3.056777   3.855549   2.756006   3.613325   3.345890
    18  C    4.020568   1.424546   3.899636   3.345584   4.765559
    19  H    4.984912   2.058956   3.950726   3.152285   4.708600
    20  H    4.175276   2.058067   4.907185   4.358306   5.819972
    21  C    4.113901   2.393757   4.010790   3.737554   4.679390
    22  H    4.807244   3.306302   5.081310   4.769954   5.697190
    23  H    4.756946   2.873188   3.572110   3.306331   4.030682
                   11         12         13         14         15
    11  C    0.000000
    12  H    1.093894   0.000000
    13  H    1.091730   1.766509   0.000000
    14  O    2.434075   2.817073   3.354293   0.000000
    15  H    2.542282   3.088536   3.463427   0.964140   0.000000
    16  O    1.404752   2.066987   2.037316   2.736660   2.322881
    17  H    1.916965   2.154986   2.790165   2.642777   2.192393
    18  C    4.672247   4.233240   5.483633   3.355715   4.193089
    19  H    4.851977   4.475862   5.497181   3.722988   4.653850
    20  H    5.517747   4.931285   6.339603   4.328158   5.098017
    21  C    5.028702   4.862188   5.933586   3.029340   3.725554
    22  H    6.117343   5.923531   7.020084   4.071689   4.707209
    23  H    4.830852   4.881068   5.645031   2.685099   3.418056
                   16         17         18         19         20
    16  O    0.000000
    17  H    0.971932   0.000000
    18  C    5.461742   5.097200   0.000000
    19  H    5.841430   5.641384   1.089978   0.000000
    20  H    6.259573   5.792493   1.093323   1.774460   0.000000
    21  C    5.545521   5.145726   1.540037   2.188904   2.181928
    22  H    6.601953   6.160030   2.187781   2.727996   2.399288
    23  H    5.389813   5.158684   2.182116   2.402728   3.057163
                   21         22         23
    21  C    0.000000
    22  H    1.089485   0.000000
    23  H    1.092505   1.776481   0.000000
 Symmetry turned off by external request.
 Stoichiometry    C4H12O6Si
 Framework group  C1[X(C4H12O6Si)]
 Deg. of freedom    63
 Full point group                 C1      NOp   1
 Rotational constants (GHZ):           1.4821961           0.7781592           0.6306853
 Standard basis: def2TZVPP (5D, 7F)
   520 basis functions,   783 primitive gaussians,   588 cartesian basis functions
    49 alpha electrons       49 beta electrons
       nuclear repulsion energy       882.7432526271 Hartrees.
 NAtoms=   23 NActive=   23 NUniq=   23 SFac= 1.00D+00 NAtFMM=   60 NAOKFM=F Big=F
 Integral buffers will be    131072 words long.
 Raffenetti 2 integral format.
 Two-electron integral symmetry is turned off.
 Nuclear repulsion after empirical dispersion term =      882.7286727179 Hartrees.
 One-electron integrals computed using PRISM.
   1 Symmetry operations used in ECPInt.
 ECPInt:  NShTT=   19306 NPrTT=   52617 LenC2=   18323 LenP2D=   38762.
 LDataN:  DoStor=T MaxTD1= 6 Len=  172
 NBasis=   520 RedAO= T EigKep=  2.02D-04  NBF=   520
 NBsUse=   520 1.00D-06 EigRej= -1.00D+00 NBFU=   520
 Initial guess from the checkpoint file:  "IRC_potentialSN1likeCollapseQbiLWithLattacking_forward.chk"
 B after Tr=    -0.012585   -0.058946    0.017667
         Rot=    1.000000    0.000051   -0.000001   -0.000056 Ang=   0.01 deg.
 ExpMin= 7.01D-02 ExpMax= 4.48D+04 ExpMxC= 1.53D+03 IAcc=3 IRadAn=         5 AccDes= 0.00D+00
 Harris functional with IExCor= 4639 and IRadAn=       5 diagonalized for initial guess.
 HarFok:  IExCor= 4639 AccDes= 0.00D+00 IRadAn=         5 IDoV= 1 UseB2=F ITyADJ=14
 ICtDFT=  3500011 ScaDFX=  1.000000  1.000000  1.000000  1.000000
 FoFCou: FMM=F IPFlag=           0 FMFlag=      100000 FMFlg1=           0
         NFxFlg=           0 DoJE=T BraDBF=F KetDBF=T FulRan=T
         wScrn=  0.000000 ICntrl=       500 IOpCl=  0 I1Cent=   200000004 NGrid=           0
         NMat0=    1 NMatS0=      1 NMatT0=    0 NMatD0=    1 NMtDS0=    0 NMtDT0=    0
 Symmetry not used in FoFCou.
 Requested convergence on RMS density matrix=1.00D-08 within 128 cycles.
 Requested convergence on MAX density matrix=1.00D-06.
 Requested convergence on             energy=1.00D-06.
 No special actions if energy rises.
 Integral accuracy reduced to 1.0D-05 until final iterations.
 Initial convergence to 1.0D-05 achieved.  Increase integral accuracy.
 SCF Done:  E(RwB97XD) =  -900.683083898     A.U. after   11 cycles
            NFock= 11  Conv=0.83D-08     -V/T= 2.0036
 DoSCS=F DFT=T ScalE2(SS,OS)=  1.000000  1.000000
 Range of M.O.s used for correlation:     1   520
 NBasis=   520 NAE=    49 NBE=    49 NFC=     0 NFV=     0
 NROrb=    520 NOA=    49 NOB=    49 NVA=   471 NVB=   471

 **** Warning!!: The largest alpha MO coefficient is  0.12739249D+02

 Symmetrizing basis deriv contribution to polar:
 IMax=3 JMax=2 DiffMx= 0.00D+00
   1 Symmetry operations used in ECPInt.
 ECPInt:  NShTT=   19306 NPrTT=   52617 LenC2=   18323 LenP2D=   38762.
 LDataN:  DoStor=T MaxTD1= 7 Len=  274
 Calling FoFJK, ICntrl=      2127 FMM=F ISym2X=0 I1Cent= 0 IOpClX= 0 NMat=1 NMatS=1 NMatT=0.
 -------------------------------------------------------------------
 Center     Atomic                   Forces (Hartrees/Bohr)
 Number     Number              X              Y              Z
 -------------------------------------------------------------------
      1       14           0.006613814    0.001244991    0.002162785
      2        8          -0.000416056   -0.000546832   -0.000638667
      3        8          -0.000635439   -0.003076643   -0.000579706
      4        1           0.000038193   -0.000323078    0.000136900
      5        8           0.001241825    0.003495130    0.000902714
      6        1          -0.005640324   -0.001068600   -0.001987991
      7        8          -0.000753731   -0.000425817   -0.000006758
      8        6          -0.000017304    0.000017521    0.000047205
      9        1           0.000016850    0.000015661   -0.000008406
     10        1           0.000019159    0.000006139   -0.000018036
     11        6           0.000069591   -0.000092618    0.000087201
     12        1          -0.000008774   -0.000009928    0.000016040
     13        1           0.000000778    0.000014275    0.000000575
     14        8          -0.000012758    0.000884374    0.000180269
     15        1          -0.000060379   -0.000216155   -0.000182639
     16        8          -0.000116861   -0.000072235   -0.000134430
     17        1          -0.000269161    0.000158471    0.000084010
     18        6           0.000003937    0.000029048   -0.000011589
     19        1           0.000003982    0.000000141   -0.000001839
     20        1          -0.000034717    0.000051842   -0.000007463
     21        6          -0.000066667   -0.000071045   -0.000046896
     22        1          -0.000001068    0.000025273    0.000001106
     23        1           0.000025111   -0.000039916    0.000005617
 -------------------------------------------------------------------
 Cartesian Forces:  Max     0.006613814 RMS     0.001288160
 IRC-IRC-IRC-IRC-IRC-IRC-IRC-IRC-IRC-IRC-IRC-IRC-IRC-IRC-IRC-IRC-IRC-IRC
 Pt  1 Step number   1 out of a maximum of 100
 Modified Bulirsch-Stoer Extrapolation Cycles:
    EPS =    0.000010000000000
      PEZero:  N= 2 I= 1 D=  2.80D-04 Err=  7.17D-04
      PEZero:  N= 3 I= 2 D=  2.80D-04 Err=  4.78D-04
      PEZero:  N= 3 I= 1 D=  5.60D-04 Err=  1.39D-07
 Maximum DWI energy   std dev =  0.000005706 at pt    56
 Maximum DWI gradient std dev =  0.092983910 at pt     4
 CORRECTOR INTEGRATION CONVERGENCE:
   Recorrection delta-x convergence threshold:    0.010000
   Delta-x Convergence Met
 Point Number:   1          Path Number:   1
   CHANGE IN THE REACTION COORDINATE =    0.10738
   NET REACTION COORDINATE UP TO THIS POINT =    0.10738
  # OF POINTS ALONG THE PATH =   1
  # OF STEPS =   1

 Calculating another point on the path.
 IRC-IRC-IRC-IRC-IRC-IRC-IRC-IRC-IRC-IRC-IRC-IRC-IRC-IRC-IRC-IRC-IRC-IRC
                          Input orientation:                          
 ---------------------------------------------------------------------
 Center     Atomic      Atomic             Coordinates (Angstroms)
 Number     Number       Type             X           Y           Z
 ---------------------------------------------------------------------
      1         14           0        0.572567    0.529119   -0.063958
      2          8           0        1.670589   -0.096080   -1.116925
      3          8           0        1.551499    2.044177    0.502695
      4          1           0        2.262123    2.301345   -0.085263
      5          8           0       -0.530603    1.654671   -0.282682
      6          1           0        0.434185    2.344887    0.108007
      7          8           0        0.773986   -0.498404    1.200289
      8          6           0       -1.877594   -1.459126   -0.008680
      9          1           0       -1.339296   -2.092446    0.692459
     10          1           0       -2.537122   -2.073836   -0.623516
     11          6           0       -2.664158   -0.371942    0.712095
     12          1           0       -2.053877    0.056677    1.512347
     13          1           0       -3.548699   -0.819528    1.169212
     14          8           0       -0.891882   -0.878264   -0.877416
     15          1           0       -1.378648   -0.305898   -1.481534
     16          8           0       -3.077159    0.619803   -0.193236
     17          1           0       -2.339784    1.247881   -0.261455
     18          6           0        1.906780   -1.316336    0.921599
     19          1           0        1.739487   -2.312176    1.331946
     20          1           0        2.785942   -0.880702    1.403687
     21          6           0        2.086971   -1.358351   -0.607300
     22          1           0        3.127749   -1.527395   -0.881416
     23          1           0        1.470390   -2.144371   -1.049635
 ---------------------------------------------------------------------
                    Distance matrix (angstroms):
                    1          2          3          4          5
     1  Si   0.000000
     2  O    1.644769   0.000000
     3  O    1.890715   2.686643   0.000000
     4  H    2.448641   2.676170   0.957506   0.000000
     5  O    1.591129   2.933655   2.259133   2.873410   0.000000
     6  H    1.829136   2.997912   1.222537   1.838643   1.248941
     7  O    1.641552   2.516991   2.748797   3.421373   2.921796
     8  C    3.155861   3.959255   4.928824   5.593234   3.403702
     9  H    3.331665   4.039648   5.050184   5.734150   3.955474
    10  H    4.093732   4.675446   5.911277   6.516493   4.247828
    11  C    3.448269   4.712902   4.863460   5.661316   3.106251
    12  H    3.099378   4.561584   4.238901   5.120424   2.845360
    13  H    4.508258   5.743759   5.887026   6.714106   4.163959
    14  O    2.187933   2.689876   4.051602   4.548095   2.626783
    15  H    2.552257   3.078118   4.248032   4.690683   2.449542
    16  O    3.653140   4.889458   4.892610   5.598855   2.750254
    17  H    3.006229   4.315223   4.044761   4.724233   1.854471
    18  C    2.481361   2.387550   3.405107   3.771957   4.027160
    19  H    3.373901   3.303453   4.438560   4.854505   4.847289
    20  H    3.006760   2.865856   3.300084   3.552011   4.502380
    21  C    2.480158   1.423524   3.618841   3.700888   4.004419
    22  H    3.380301   2.056074   4.142034   4.005298   4.885443
    23  H    2.987507   2.059152   4.467689   4.617494   4.361756
                    6          7          8          9         10
     6  H    0.000000
     7  O    3.064776   0.000000
     8  C    4.452915   3.068463   0.000000
     9  H    4.814224   2.695334   1.087408   0.000000
    10  H    5.374840   4.095325   1.091270   1.779585   0.000000
    11  C    4.164831   3.474933   1.523209   2.171584   2.167126
    12  H    3.660399   2.898673   2.154589   2.408645   3.055245
    13  H    5.196445   4.334708   2.142220   2.594046   2.410488
    14  O    3.621908   2.690031   1.436570   2.034436   2.049554
    15  H    3.583248   3.444280   1.936022   2.814169   2.281197
    16  O    3.923799   4.245423   2.407272   3.340796   2.780733
    17  H    3.005799   3.857690   2.757789   3.615068   3.347213
    18  C    4.029271   1.424747   3.899653   3.345424   4.765443
    19  H    4.988996   2.058955   3.950727   3.152163   4.708505
    20  H    4.196901   2.058030   4.906926   4.357954   5.819633
    21  C    4.117929   2.393912   4.010770   3.737323   4.679147
    22  H    4.819628   3.306435   5.081317   4.769786   5.697005
    23  H    4.750505   2.873386   3.572415   3.306347   4.030720
                   11         12         13         14         15
    11  C    0.000000
    12  H    1.093874   0.000000
    13  H    1.091651   1.766344   0.000000
    14  O    2.433900   2.816969   3.354223   0.000000
    15  H    2.543404   3.090423   3.464014   0.964107   0.000000
    16  O    1.404903   2.067179   2.037226   2.736374   2.324129
    17  H    1.917510   2.155709   2.789707   2.645056   2.196954
    18  C    4.672178   4.233314   5.483647   3.355722   4.194052
    19  H    4.851887   4.475893   5.497216   3.723102   4.654416
    20  H    5.517312   4.930957   6.339274   4.327797   5.098893
    21  C    5.028621   4.862286   5.933558   3.029358   3.725917
    22  H    6.117232   5.923565   7.020050   4.071709   4.707420
    23  H    4.831116   4.881478   5.645330   2.685706   3.418119
                   16         17         18         19         20
    16  O    0.000000
    17  H    0.971009   0.000000
    18  C    5.461789   5.099817   0.000000
    19  H    5.841469   5.643880   1.089986   0.000000
    20  H    6.259204   5.794535   1.093212   1.774636   0.000000
    21  C    5.545519   5.148613   1.540054   2.188883   2.181921
    22  H    6.601888   6.162826   2.187732   2.728026   2.399320
    23  H    5.390203   5.161980   2.182165   2.402603   3.057176
                   21         22         23
    21  C    0.000000
    22  H    1.089464   0.000000
    23  H    1.092548   1.776456   0.000000
 Symmetry turned off by external request.
 Stoichiometry    C4H12O6Si
 Framework group  C1[X(C4H12O6Si)]
 Deg. of freedom    63
 Full point group                 C1      NOp   1
 Rotational constants (GHZ):           1.4825031           0.7781770           0.6307529
 Standard basis: def2TZVPP (5D, 7F)
   520 basis functions,   783 primitive gaussians,   588 cartesian basis functions
    49 alpha electrons       49 beta electrons
       nuclear repulsion energy       882.7958834701 Hartrees.
 NAtoms=   23 NActive=   23 NUniq=   23 SFac= 1.00D+00 NAtFMM=   60 NAOKFM=F Big=F
 Integral buffers will be    131072 words long.
 Raffenetti 2 integral format.
 Two-electron integral symmetry is turned off.
 Nuclear repulsion after empirical dispersion term =      882.7812734222 Hartrees.
 One-electron integrals computed using PRISM.
   1 Symmetry operations used in ECPInt.
 ECPInt:  NShTT=   19306 NPrTT=   52617 LenC2=   18324 LenP2D=   38771.
 LDataN:  DoStor=T MaxTD1= 6 Len=  172
 NBasis=   520 RedAO= T EigKep=  2.02D-04  NBF=   520
 NBsUse=   520 1.00D-06 EigRej= -1.00D+00 NBFU=   520
 Initial guess from the checkpoint file:  "IRC_potentialSN1likeCollapseQbiLWithLattacking_forward.chk"
 B after Tr=    -0.000500   -0.000160   -0.000174
         Rot=    1.000000    0.000050    0.000000   -0.000060 Ang=   0.01 deg.
 ExpMin= 7.01D-02 ExpMax= 4.48D+04 ExpMxC= 1.53D+03 IAcc=3 IRadAn=         5 AccDes= 0.00D+00
 Harris functional with IExCor= 4639 and IRadAn=       5 diagonalized for initial guess.
 HarFok:  IExCor= 4639 AccDes= 0.00D+00 IRadAn=         5 IDoV= 1 UseB2=F ITyADJ=14
 ICtDFT=  3500011 ScaDFX=  1.000000  1.000000  1.000000  1.000000
 FoFCou: FMM=F IPFlag=           0 FMFlag=      100000 FMFlg1=           0
         NFxFlg=           0 DoJE=T BraDBF=F KetDBF=T FulRan=T
         wScrn=  0.000000 ICntrl=       500 IOpCl=  0 I1Cent=   200000004 NGrid=           0
         NMat0=    1 NMatS0=      1 NMatT0=    0 NMatD0=    1 NMtDS0=    0 NMtDT0=    0
 Symmetry not used in FoFCou.
 Requested convergence on RMS density matrix=1.00D-08 within 128 cycles.
 Requested convergence on MAX density matrix=1.00D-06.
 Requested convergence on             energy=1.00D-06.
 No special actions if energy rises.
 Integral accuracy reduced to 1.0D-05 until final iterations.
 Initial convergence to 1.0D-05 achieved.  Increase integral accuracy.
 SCF Done:  E(RwB97XD) =  -900.684174376     A.U. after   11 cycles
            NFock= 11  Conv=0.85D-08     -V/T= 2.0036
 DoSCS=F DFT=T ScalE2(SS,OS)=  1.000000  1.000000
 Range of M.O.s used for correlation:     1   520
 NBasis=   520 NAE=    49 NBE=    49 NFC=     0 NFV=     0
 NROrb=    520 NOA=    49 NOB=    49 NVA=   471 NVB=   471

 **** Warning!!: The largest alpha MO coefficient is  0.12731314D+02

 Symmetrizing basis deriv contribution to polar:
 IMax=3 JMax=2 DiffMx= 0.00D+00
   1 Symmetry operations used in ECPInt.
 ECPInt:  NShTT=   19306 NPrTT=   52617 LenC2=   18324 LenP2D=   38771.
 LDataN:  DoStor=T MaxTD1= 7 Len=  274
 Calling FoFJK, ICntrl=      2127 FMM=F ISym2X=0 I1Cent= 0 IOpClX= 0 NMat=1 NMatS=1 NMatT=0.
 -------------------------------------------------------------------
 Center     Atomic                   Forces (Hartrees/Bohr)
 Number     Number              X              Y              Z
 -------------------------------------------------------------------
      1       14           0.014316697    0.002760864    0.004654008
      2        8          -0.000916159   -0.001137689   -0.001319331
      3        8          -0.000358504   -0.006701918   -0.001026796
      4        1           0.000226045   -0.000774277    0.000345261
      5        8           0.001940850    0.007366199    0.001662396
      6        1          -0.012605728   -0.002164808   -0.004316388
      7        8          -0.001622317   -0.000851865   -0.000028628
      8        6          -0.000061272    0.000009463    0.000111775
      9        1           0.000033531    0.000035143   -0.000009558
     10        1           0.000039436    0.000014875   -0.000031656
     11        6           0.000150154   -0.000219129    0.000190906
     12        1          -0.000017479   -0.000015989    0.000035834
     13        1           0.000000108    0.000039587    0.000003702
     14        8          -0.000007959    0.001878751    0.000371482
     15        1          -0.000142150   -0.000474210   -0.000396980
     16        8          -0.000218705   -0.000144127   -0.000285360
     17        1          -0.000588717    0.000349706    0.000170040
     18        6           0.000015025    0.000069198   -0.000031290
     19        1           0.000001201    0.000003763   -0.000000626
     20        1          -0.000076414    0.000114787   -0.000016988
     21        6          -0.000154362   -0.000116383   -0.000101616
     22        1          -0.000005345    0.000050907    0.000003244
     23        1           0.000052065   -0.000092846    0.000016569
 -------------------------------------------------------------------
 Cartesian Forces:  Max     0.014316697 RMS     0.002787919
 IRC-IRC-IRC-IRC-IRC-IRC-IRC-IRC-IRC-IRC-IRC-IRC-IRC-IRC-IRC-IRC-IRC-IRC
 Pt  2 Step number   1 out of a maximum of 100
 Modified Bulirsch-Stoer Extrapolation Cycles:
    EPS =    0.000010000000000
      PEZero:  N= 2 I= 1 D=  5.60D-04 Err=  2.70D-05
      PEZero:  N= 3 I= 2 D=  5.60D-04 Err=  1.79D-05
      PEZero:  N= 3 I= 1 D=  1.12D-03 Err=  1.62D-07
 Maximum DWI energy   std dev =  0.000013005 at pt    67
 Maximum DWI gradient std dev =  0.051976196 at pt    55
 CORRECTOR INTEGRATION CONVERGENCE:
   Recorrection delta-x convergence threshold:    0.010000
   Delta-x Convergence Met
 Point Number:   2          Path Number:   1
   CHANGE IN THE REACTION COORDINATE =    0.10741
   NET REACTION COORDINATE UP TO THIS POINT =    0.21478
  # OF POINTS ALONG THE PATH =   2
  # OF STEPS =   1

 Calculating another point on the path.
 IRC-IRC-IRC-IRC-IRC-IRC-IRC-IRC-IRC-IRC-IRC-IRC-IRC-IRC-IRC-IRC-IRC-IRC
                          Input orientation:                          
 ---------------------------------------------------------------------
 Center     Atomic      Atomic             Coordinates (Angstroms)
 Number     Number       Type             X           Y           Z
 ---------------------------------------------------------------------
      1         14           0        0.574580    0.529544   -0.063302
      2          8           0        1.670364   -0.096355   -1.117241
      3          8           0        1.551548    2.042541    0.502478
      4          1           0        2.263534    2.298121   -0.083807
      5          8           0       -0.530230    1.656470   -0.282308
      6          1           0        0.383443    2.335296    0.090793
      7          8           0        0.773590   -0.498607    1.200280
      8          6           0       -1.877617   -1.459127   -0.008640
      9          1           0       -1.339166   -2.092299    0.692422
     10          1           0       -2.536967   -2.073776   -0.623643
     11          6           0       -2.664108   -0.372015    0.712158
     12          1           0       -2.053947    0.056611    1.512485
     13          1           0       -3.548694   -0.819364    1.169230
     14          8           0       -0.891881   -0.877806   -0.877327
     15          1           0       -1.379236   -0.307760   -1.483112
     16          8           0       -3.077206    0.619772   -0.193305
     17          1           0       -2.342131    1.249237   -0.260810
     18          6           0        1.906787   -1.316313    0.921588
     19          1           0        1.739481   -2.312161    1.331942
     20          1           0        2.785635   -0.880247    1.403614
     21          6           0        2.086919   -1.358384   -0.607334
     22          1           0        3.127724   -1.527196   -0.881406
     23          1           0        1.470597   -2.144740   -1.049566
 ---------------------------------------------------------------------
                    Distance matrix (angstroms):
                    1          2          3          4          5
     1  Si   0.000000
     2  O    1.644165   0.000000
     3  O    1.887785   2.685606   0.000000
     4  H    2.445578   2.674575   0.957066   0.000000
     5  O    1.593276   2.934642   2.258039   2.873367   0.000000
     6  H    1.822366   3.004736   1.272658   1.888547   1.197835
     7  O    1.641140   2.517323   2.747650   3.419138   2.922733
     8  C    3.157700   3.959080   4.927686   5.592110   3.405479
     9  H    3.332808   4.039300   5.048684   5.732170   3.956987
    10  H    4.095484   4.674984   5.910006   6.515345   4.249499
    11  C    3.450109   4.712785   4.862695   5.660817   3.107596
    12  H    3.100955   4.561727   4.238351   5.119878   2.846496
    13  H    4.509998   5.743628   5.886215   6.713480   4.165074
    14  O    2.189470   2.689484   4.050016   4.546739   2.628192
    15  H    2.556235   3.078736   4.249233   4.692382   2.453761
    16  O    3.655214   4.889368   4.892214   5.599317   2.751319
    17  H    3.010677   4.317895   4.046317   4.726906   1.857226
    18  C    2.480317   2.387680   3.403491   3.768584   4.028133
    19  H    3.373276   3.303494   4.436976   4.851152   4.848445
    20  H    3.004683   2.865838   3.298137   3.547822   4.502469
    21  C    2.479397   1.423461   3.617263   3.698014   4.005553
    22  H    3.379056   2.055923   4.140349   4.002005   4.886233
    23  H    2.987868   2.059215   4.466398   4.615241   4.363621
                    6          7          8          9         10
     6  H    0.000000
     7  O    3.068254   0.000000
     8  C    4.418136   3.068059   0.000000
     9  H    4.788835   2.694719   1.087348   0.000000
    10  H    5.336584   4.094831   1.091222   1.779635   0.000000
    11  C    4.123493   3.474486   1.523131   2.171460   2.167145
    12  H    3.626911   2.898396   2.154617   2.408574   3.055307
    13  H    5.155251   4.334281   2.142235   2.594171   2.410712
    14  O    3.589949   2.689617   1.436742   2.034495   2.049637
    15  H    3.545414   3.445530   1.935999   2.814095   2.279877
    16  O    3.872961   4.245172   2.407267   3.340753   2.780692
    17  H    2.954980   3.859723   2.759456   3.616692   3.348436
    18  C    4.042900   1.424938   3.899671   3.345277   4.765337
    19  H    4.997814   2.058946   3.950725   3.152046   4.708413
    20  H    4.223001   2.057989   4.906677   4.357619   5.819310
    21  C    4.127042   2.394059   4.010752   3.737118   4.678929
    22  H    4.836847   3.306564   5.081319   4.769632   5.696834
    23  H    4.749004   2.873566   3.572693   3.306364   4.030759
                   11         12         13         14         15
    11  C    0.000000
    12  H    1.093865   0.000000
    13  H    1.091572   1.766190   0.000000
    14  O    2.433737   2.816866   3.354172   0.000000
    15  H    2.544451   3.092183   3.464564   0.964076   0.000000
    16  O    1.405046   2.067348   2.037134   2.736106   2.325300
    17  H    1.918019   2.156382   2.789251   2.647193   2.201233
    18  C    4.672113   4.233378   5.483663   3.355730   4.194962
    19  H    4.851793   4.475910   5.497247   3.723212   4.654949
    20  H    5.516893   4.930629   6.338956   4.327449   5.099713
    21  C    5.028542   4.862367   5.933537   3.029372   3.726262
    22  H    6.117124   5.923586   7.020021   4.071725   4.707628
    23  H    4.831357   4.881850   5.645615   2.686278   3.418188
                   16         17         18         19         20
    16  O    0.000000
    17  H    0.970113   0.000000
    18  C    5.461831   5.102296   0.000000
    19  H    5.841497   5.646236   1.089998   0.000000
    20  H    6.258843   5.796464   1.093104   1.774810   0.000000
    21  C    5.545513   5.151335   1.540071   2.188880   2.181910
    22  H    6.601827   6.165472   2.187681   2.728058   2.399351
    23  H    5.390568   5.165086   2.182200   2.402480   3.057181
                   21         22         23
    21  C    0.000000
    22  H    1.089444   0.000000
    23  H    1.092601   1.776431   0.000000
 Symmetry turned off by external request.
 Stoichiometry    C4H12O6Si
 Framework group  C1[X(C4H12O6Si)]
 Deg. of freedom    63
 Full point group                 C1      NOp   1
 Rotational constants (GHZ):           1.4827761           0.7781557           0.6307930
 Standard basis: def2TZVPP (5D, 7F)
   520 basis functions,   783 primitive gaussians,   588 cartesian basis functions
    49 alpha electrons       49 beta electrons
       nuclear repulsion energy       882.8296767901 Hartrees.
 NAtoms=   23 NActive=   23 NUniq=   23 SFac= 1.00D+00 NAtFMM=   60 NAOKFM=F Big=F
 Integral buffers will be    131072 words long.
 Raffenetti 2 integral format.
 Two-electron integral symmetry is turned off.
 Nuclear repulsion after empirical dispersion term =      882.8150361834 Hartrees.
 One-electron integrals computed using PRISM.
   1 Symmetry operations used in ECPInt.
 ECPInt:  NShTT=   19306 NPrTT=   52617 LenC2=   18327 LenP2D=   38780.
 LDataN:  DoStor=T MaxTD1= 6 Len=  172
 NBasis=   520 RedAO= T EigKep=  2.02D-04  NBF=   520
 NBsUse=   520 1.00D-06 EigRej= -1.00D+00 NBFU=   520
 Initial guess from the checkpoint file:  "IRC_potentialSN1likeCollapseQbiLWithLattacking_forward.chk"
 B after Tr=    -0.000510   -0.000123   -0.000167
         Rot=    1.000000    0.000050    0.000001   -0.000061 Ang=   0.01 deg.
 ExpMin= 7.01D-02 ExpMax= 4.48D+04 ExpMxC= 1.53D+03 IAcc=3 IRadAn=         5 AccDes= 0.00D+00
 Harris functional with IExCor= 4639 and IRadAn=       5 diagonalized for initial guess.
 HarFok:  IExCor= 4639 AccDes= 0.00D+00 IRadAn=         5 IDoV= 1 UseB2=F ITyADJ=14
 ICtDFT=  3500011 ScaDFX=  1.000000  1.000000  1.000000  1.000000
 FoFCou: FMM=F IPFlag=           0 FMFlag=      100000 FMFlg1=           0
         NFxFlg=           0 DoJE=T BraDBF=F KetDBF=T FulRan=T
         wScrn=  0.000000 ICntrl=       500 IOpCl=  0 I1Cent=   200000004 NGrid=           0
         NMat0=    1 NMatS0=      1 NMatT0=    0 NMatD0=    1 NMtDS0=    0 NMtDT0=    0
 Symmetry not used in FoFCou.
 Requested convergence on RMS density matrix=1.00D-08 within 128 cycles.
 Requested convergence on MAX density matrix=1.00D-06.
 Requested convergence on             energy=1.00D-06.
 No special actions if energy rises.
 Integral accuracy reduced to 1.0D-05 until final iterations.
 Initial convergence to 1.0D-05 achieved.  Increase integral accuracy.
 SCF Done:  E(RwB97XD) =  -900.686116591     A.U. after   11 cycles
            NFock= 11  Conv=0.81D-08     -V/T= 2.0036
 DoSCS=F DFT=T ScalE2(SS,OS)=  1.000000  1.000000
 Range of M.O.s used for correlation:     1   520
 NBasis=   520 NAE=    49 NBE=    49 NFC=     0 NFV=     0
 NROrb=    520 NOA=    49 NOB=    49 NVA=   471 NVB=   471

 **** Warning!!: The largest alpha MO coefficient is  0.12867362D+02

 Symmetrizing basis deriv contribution to polar:
 IMax=3 JMax=2 DiffMx= 0.00D+00
   1 Symmetry operations used in ECPInt.
 ECPInt:  NShTT=   19306 NPrTT=   52617 LenC2=   18327 LenP2D=   38780.
 LDataN:  DoStor=T MaxTD1= 7 Len=  274
 Calling FoFJK, ICntrl=      2127 FMM=F ISym2X=0 I1Cent= 0 IOpClX= 0 NMat=1 NMatS=1 NMatT=0.
 -------------------------------------------------------------------
 Center     Atomic                   Forces (Hartrees/Bohr)
 Number     Number              X              Y              Z
 -------------------------------------------------------------------
      1       14           0.022256146    0.004778222    0.007225163
      2        8          -0.001417059   -0.001753487   -0.002005303
      3        8           0.000622358   -0.010513407   -0.001350580
      4        1           0.000544900   -0.001290096    0.000600146
      5        8           0.001494424    0.010769075    0.002029161
      6        1          -0.019471403   -0.003029367   -0.006492109
      7        8          -0.002508943   -0.001281046   -0.000048804
      8        6          -0.000111024   -0.000004202    0.000192833
      9        1           0.000051890    0.000055614   -0.000014143
     10        1           0.000060400    0.000022105   -0.000050729
     11        6           0.000233610   -0.000339603    0.000296617
     12        1          -0.000024569   -0.000025744    0.000053045
     13        1          -0.000000025    0.000061748    0.000007366
     14        8          -0.000000735    0.002885686    0.000564929
     15        1          -0.000226112   -0.000729762   -0.000614996
     16        8          -0.000331867   -0.000219817   -0.000437376
     17        1          -0.000896873    0.000541630    0.000251322
     18        6           0.000025786    0.000112859   -0.000051201
     19        1          -0.000001524    0.000006306   -0.000002098
     20        1          -0.000119692    0.000179896   -0.000027443
     21        6          -0.000252701   -0.000162589   -0.000156662
     22        1          -0.000008776    0.000079247    0.000003716
     23        1           0.000081790   -0.000143269    0.000027147
 -------------------------------------------------------------------
 Cartesian Forces:  Max     0.022256146 RMS     0.004284994
 IRC-IRC-IRC-IRC-IRC-IRC-IRC-IRC-IRC-IRC-IRC-IRC-IRC-IRC-IRC-IRC-IRC-IRC
 Pt  3 Step number   1 out of a maximum of 100
 Modified Bulirsch-Stoer Extrapolation Cycles:
    EPS =    0.000010000000000
      PEZero:  N= 2 I= 1 D=  5.60D-04 Err=  2.71D-05
      PEZero:  N= 3 I= 2 D=  5.60D-04 Err=  1.80D-05
      PEZero:  N= 3 I= 1 D=  1.12D-03 Err=  9.78D-08
 Maximum DWI energy   std dev =  0.000008662 at pt    44
 Maximum DWI gradient std dev =  0.023906006 at pt    28
 CORRECTOR INTEGRATION CONVERGENCE:
   Recorrection delta-x convergence threshold:    0.010000
   Delta-x Convergence Met
 Point Number:   3          Path Number:   1
   CHANGE IN THE REACTION COORDINATE =    0.10745
   NET REACTION COORDINATE UP TO THIS POINT =    0.32223
  # OF POINTS ALONG THE PATH =   3
  # OF STEPS =   1

 Calculating another point on the path.
 IRC-IRC-IRC-IRC-IRC-IRC-IRC-IRC-IRC-IRC-IRC-IRC-IRC-IRC-IRC-IRC-IRC-IRC
                          Input orientation:                          
 ---------------------------------------------------------------------
 Center     Atomic      Atomic             Coordinates (Angstroms)
 Number     Number       Type             X           Y           Z
 ---------------------------------------------------------------------
      1         14           0        0.576676    0.530030   -0.062621
      2          8           0        1.670133   -0.096645   -1.117570
      3          8           0        1.551750    2.040793    0.502277
      4          1           0        2.265263    2.294628   -0.082165
      5          8           0       -0.530113    1.658178   -0.282021
      6          1           0        0.332475    2.327812    0.074042
      7          8           0        0.773177   -0.498817    1.200273
      8          6           0       -1.877642   -1.459129   -0.008597
      9          1           0       -1.339030   -2.092153    0.692387
     10          1           0       -2.536809   -2.073720   -0.623774
     11          6           0       -2.664058   -0.372090    0.712222
     12          1           0       -2.054007    0.056543    1.512618
     13          1           0       -3.548693   -0.819204    1.169252
     14          8           0       -0.891881   -0.877335   -0.877234
     15          1           0       -1.379831   -0.309655   -1.484718
     16          8           0       -3.077262    0.619735   -0.193377
     17          1           0       -2.344468    1.250621   -0.260165
     18          6           0        1.906792   -1.316287    0.921577
     19          1           0        1.739477   -2.312144    1.331938
     20          1           0        2.785320   -0.879774    1.403542
     21          6           0        2.086863   -1.358419   -0.607368
     22          1           0        3.127701   -1.526990   -0.881395
     23          1           0        1.470812   -2.145117   -1.049492
 ---------------------------------------------------------------------
                    Distance matrix (angstroms):
                    1          2          3          4          5
     1  Si   0.000000
     2  O    1.643559   0.000000
     3  O    1.884750   2.684503   0.000000
     4  H    2.442441   2.672907   0.956612   0.000000
     5  O    1.595567   2.935750   2.257360   2.873873   0.000000
     6  H    1.819431   3.014508   1.323781   1.939375   1.148586
     7  O    1.640744   2.517671   2.746450   3.416768   2.923762
     8  C    3.159643   3.958900   4.926578   5.591044   3.407080
[...]
 Full point group                 C1      NOp   1
 Rotational constants (GHZ):           1.3757015           0.7129597           0.5724192

 **********************************************************************

            Population analysis using the SCF Density.

 **********************************************************************

 Alpha  occ. eigenvalues --  -66.31432 -19.27280 -19.25984 -19.25355 -19.25218
 Alpha  occ. eigenvalues --  -19.24689 -19.23547 -10.34331 -10.33600 -10.32014
 Alpha  occ. eigenvalues --  -10.31564  -5.43240  -3.77788  -3.77746  -3.77637
 Alpha  occ. eigenvalues --   -1.16274  -1.13514  -1.13052  -1.10971  -1.10558
 Alpha  occ. eigenvalues --   -1.09706  -0.83853  -0.82839  -0.71986  -0.70871
 Alpha  occ. eigenvalues --   -0.67157  -0.63357  -0.60595  -0.59813  -0.59598
 Alpha  occ. eigenvalues --   -0.58615  -0.56594  -0.54846  -0.52966  -0.50877
 Alpha  occ. eigenvalues --   -0.50487  -0.48876  -0.48260  -0.47632  -0.45373
 Alpha  occ. eigenvalues --   -0.43987  -0.43369  -0.42942  -0.41053  -0.40380
 Alpha  occ. eigenvalues --   -0.39912  -0.37785  -0.36218  -0.34212
 Alpha virt. eigenvalues --    0.08010   0.11122   0.12185   0.13916   0.14611
 Alpha virt. eigenvalues --    0.15758   0.16281   0.16800   0.17645   0.18774
 Alpha virt. eigenvalues --    0.20402   0.20886   0.21660   0.22132   0.23347
 Alpha virt. eigenvalues --    0.23469   0.24644   0.25902   0.26373   0.27697
 Alpha virt. eigenvalues --    0.27813   0.28426   0.29003   0.29614   0.31159
 Alpha virt. eigenvalues --    0.32974   0.34500   0.36423   0.38087   0.38580
 Alpha virt. eigenvalues --    0.39797   0.40091   0.42555   0.42920   0.43345
 Alpha virt. eigenvalues --    0.44084   0.44742   0.45348   0.45704   0.47060
 Alpha virt. eigenvalues --    0.47260   0.47787   0.48282   0.49365   0.50662
 Alpha virt. eigenvalues --    0.50926   0.51970   0.52648   0.52861   0.53616
 Alpha virt. eigenvalues --    0.54615   0.55678   0.56000   0.56215   0.57107
 Alpha virt. eigenvalues --    0.57600   0.59084   0.59959   0.60976   0.61842
 Alpha virt. eigenvalues --    0.63405   0.63542   0.65404   0.66326   0.68471
 Alpha virt. eigenvalues --    0.70250   0.71410   0.71847   0.72855   0.73578
 Alpha virt. eigenvalues --    0.74850   0.75475   0.75936   0.78071   0.78892
 Alpha virt. eigenvalues --    0.80981   0.82189   0.84283   0.84704   0.86016
 Alpha virt. eigenvalues --    0.86473   0.87884   0.89367   0.90502   0.92414
 Alpha virt. eigenvalues --    0.93361   0.94331   0.95451   0.96003   0.97279
 Alpha virt. eigenvalues --    0.97948   0.98092   1.00168   1.01132   1.03520
 Alpha virt. eigenvalues --    1.03832   1.05689   1.06163   1.07610   1.07853
 Alpha virt. eigenvalues --    1.08896   1.09978   1.10153   1.11618   1.12733
 Alpha virt. eigenvalues --    1.14148   1.14668   1.16776   1.18011   1.19104
 Alpha virt. eigenvalues --    1.20111   1.20525   1.22309   1.22881   1.23642
 Alpha virt. eigenvalues --    1.24568   1.25553   1.27798   1.28755   1.30056
 Alpha virt. eigenvalues --    1.32076   1.32883   1.33596   1.33912   1.34229
 Alpha virt. eigenvalues --    1.35338   1.36776   1.38530   1.39368   1.40430
 Alpha virt. eigenvalues --    1.41740   1.43538   1.45138   1.45681   1.47462
 Alpha virt. eigenvalues --    1.48464   1.49657   1.51218   1.52273   1.54638
 Alpha virt. eigenvalues --    1.55262   1.56742   1.57588   1.59674   1.61858
 Alpha virt. eigenvalues --    1.62065   1.62590   1.63846   1.64557   1.65987
 Alpha virt. eigenvalues --    1.67292   1.68398   1.70030   1.73154   1.76309
 Alpha virt. eigenvalues --    1.77970   1.79997   1.81032   1.85749   1.87825
 Alpha virt. eigenvalues --    1.89419   1.91900   1.93163   1.95203   1.97356
 Alpha virt. eigenvalues --    1.98310   1.98977   2.00733   2.02351   2.03532
 Alpha virt. eigenvalues --    2.04876   2.06552   2.07003   2.09474   2.10460
 Alpha virt. eigenvalues --    2.10969   2.11597   2.13795   2.15156   2.18172
 Alpha virt. eigenvalues --    2.19532   2.20842   2.22621   2.25533   2.26034
 Alpha virt. eigenvalues --    2.29036   2.29897   2.31875   2.32835   2.33987
 Alpha virt. eigenvalues --    2.35745   2.37195   2.38270   2.43131   2.44542
 Alpha virt. eigenvalues --    2.45465   2.49410   2.52532   2.55800   2.57551
 Alpha virt. eigenvalues --    2.61389   2.65577   2.66012   2.68443   2.68700
 Alpha virt. eigenvalues --    2.69626   2.71287   2.73074   2.76049   2.77443
 Alpha virt. eigenvalues --    2.78068   2.79603   2.80557   2.81794   2.83774
 Alpha virt. eigenvalues --    2.84745   2.85929   2.88254   2.90141   2.90610
 Alpha virt. eigenvalues --    2.94009   2.94953   2.95490   2.95955   2.98437
 Alpha virt. eigenvalues --    2.99965   3.02130   3.02874   3.05774   3.06241
 Alpha virt. eigenvalues --    3.06784   3.07726   3.09227   3.10460   3.11772
 Alpha virt. eigenvalues --    3.13341   3.15386   3.17078   3.18751   3.21547
 Alpha virt. eigenvalues --    3.22204   3.22449   3.24035   3.25372   3.26395
 Alpha virt. eigenvalues --    3.27090   3.28493   3.29804   3.31368   3.33462
 Alpha virt. eigenvalues --    3.34704   3.35304   3.36151   3.37679   3.39262
 Alpha virt. eigenvalues --    3.40823   3.41192   3.41927   3.43505   3.44062
 Alpha virt. eigenvalues --    3.46369   3.48230   3.49217   3.49457   3.50592
 Alpha virt. eigenvalues --    3.51302   3.54276   3.57920   3.60034   3.60735
 Alpha virt. eigenvalues --    3.61947   3.63160   3.63829   3.65903   3.68785
 Alpha virt. eigenvalues --    3.71131   3.71940   3.72597   3.73727   3.73844
 Alpha virt. eigenvalues --    3.75171   3.75516   3.76606   3.77638   3.79620
 Alpha virt. eigenvalues --    3.80007   3.81762   3.82633   3.83664   3.85134
 Alpha virt. eigenvalues --    3.86990   3.87861   3.90412   3.91532   3.92307
 Alpha virt. eigenvalues --    3.93947   3.96697   3.99500   4.01187   4.01599
 Alpha virt. eigenvalues --    4.03873   4.05090   4.05501   4.07306   4.07465
 Alpha virt. eigenvalues --    4.08643   4.09872   4.10012   4.12735   4.14301
 Alpha virt. eigenvalues --    4.15447   4.16372   4.16841   4.18646   4.19880
 Alpha virt. eigenvalues --    4.22423   4.22841   4.23788   4.25104   4.26272
 Alpha virt. eigenvalues --    4.28105   4.30316   4.31189   4.32631   4.34529
 Alpha virt. eigenvalues --    4.34936   4.36100   4.37672   4.39109   4.40577
 Alpha virt. eigenvalues --    4.42155   4.42889   4.44951   4.47874   4.48411
 Alpha virt. eigenvalues --    4.50733   4.52305   4.60602   4.61490   4.63907
 Alpha virt. eigenvalues --    4.65289   4.68564   4.70395   4.76195   4.77193
 Alpha virt. eigenvalues --    4.77912   4.79596   4.82899   4.84131   4.85241
 Alpha virt. eigenvalues --    4.87816   4.89533   4.90132   4.96000   4.96524
 Alpha virt. eigenvalues --    4.97641   4.97957   5.00877   5.02081   5.02427
 Alpha virt. eigenvalues --    5.06271   5.06897   5.08671   5.09642   5.10547
 Alpha virt. eigenvalues --    5.12474   5.15986   5.16995   5.20969   5.22064
 Alpha virt. eigenvalues --    5.23023   5.25524   5.29271   5.31346   5.31883
 Alpha virt. eigenvalues --    5.33862   5.36609   5.39981   5.41582   5.43236
 Alpha virt. eigenvalues --    5.43738   5.44333   5.45970   5.46618   5.51823
 Alpha virt. eigenvalues --    5.52175   5.55445   5.56128   5.56976   5.59677
 Alpha virt. eigenvalues --    5.60973   5.61225   5.62070   5.63799   5.67579
 Alpha virt. eigenvalues --    5.68971   5.70280   5.72045   5.73153   5.78169
 Alpha virt. eigenvalues --    5.78496   5.85505   5.86878   5.91285   5.96886
 Alpha virt. eigenvalues --    5.97908   6.00267   6.03183   6.08826   6.09340
 Alpha virt. eigenvalues --    6.13215   6.15873   6.20231   6.21880   6.30186
 Alpha virt. eigenvalues --    6.48626   6.54705   6.60623   6.61293   6.63755
 Alpha virt. eigenvalues --    6.66773   6.67374   6.69224   6.70211   6.73914
 Alpha virt. eigenvalues --    6.75074   6.75997   6.77741   6.78003   6.78813
 Alpha virt. eigenvalues --    6.80311   6.82005   6.83732   6.84471   6.87094
 Alpha virt. eigenvalues --    6.87907   6.89068   6.91784   6.95223   6.98759
 Alpha virt. eigenvalues --    7.02284   7.04710   7.06587   7.10280   7.13321
 Alpha virt. eigenvalues --    7.17370   7.21399   7.23553   7.28539   7.31717
 Alpha virt. eigenvalues --    7.35655   7.42717   7.46240   7.49400   7.52151
 Alpha virt. eigenvalues --    7.56326   7.61264   7.66165   7.67247   7.93969
 Alpha virt. eigenvalues --   12.37938  23.31465  23.39622  23.45654  23.51125
 Alpha virt. eigenvalues --   43.88995  43.97005  44.16604  44.18224  44.21949
 Alpha virt. eigenvalues --   44.34834
          Condensed to atoms (all electrons):
               1          2          3          4          5          6
     1  Si  11.549933   0.446179   0.475188  -0.014307   0.412847  -0.016524
     2  O    0.446179   7.860947  -0.025610  -0.001069  -0.014634   0.000449
     3  O    0.475188  -0.025610   7.663370   0.338445  -0.032883  -0.000656
     4  H   -0.014307  -0.001069   0.338445   0.499589   0.002351   0.000135
     5  O    0.412847  -0.014634  -0.032883   0.002351   7.725263   0.334872
     6  H   -0.016524   0.000449  -0.000656   0.000135   0.334872   0.485919
     7  O    0.403621  -0.018142  -0.025598  -0.000511  -0.013618   0.000849
     8  C    0.000264   0.000761  -0.000003  -0.000000  -0.001329   0.000191
     9  H   -0.001755   0.000063   0.000005  -0.000001   0.000075  -0.000015
    10  H    0.000436  -0.000012  -0.000000   0.000000   0.000010   0.000019
    11  C    0.000026  -0.000214  -0.000008  -0.000003  -0.004507  -0.000690
    12  H   -0.004639  -0.000123  -0.000134  -0.000007   0.002378   0.000374
    13  H   -0.000023  -0.000003  -0.000001   0.000000   0.000098  -0.000003
    14  O    0.019621  -0.003328  -0.000069   0.000014  -0.005459   0.000956
    15  H   -0.003738   0.000520   0.000003  -0.000005   0.003583  -0.000190
    16  O   -0.000033   0.000016  -0.000001   0.000001  -0.011611   0.000529
    17  H   -0.000829  -0.000009   0.000048  -0.000004   0.024513  -0.000234
    18  C   -0.028874  -0.059884   0.000125  -0.000214   0.000402  -0.000088
    19  H    0.006619   0.003951  -0.000111   0.000011  -0.000044   0.000007
    20  H   -0.005077   0.004277   0.000487   0.000176  -0.000073   0.000014
    21  C   -0.053429   0.263607  -0.002456  -0.000908  -0.000233   0.000027
    22  H   -0.001111  -0.033768   0.000029   0.000124  -0.000107   0.000004
    23  H   -0.003835  -0.038147  -0.000097  -0.000011   0.000323  -0.000008
               7          8          9         10         11         12
     1  Si   0.403621   0.000264  -0.001755   0.000436   0.000026  -0.004639
     2  O   -0.018142   0.000761   0.000063  -0.000012  -0.000214  -0.000123
     3  O   -0.025598  -0.000003   0.000005  -0.000000  -0.000008  -0.000134
     4  H   -0.000511  -0.000000  -0.000001   0.000000  -0.000003  -0.000007
     5  O   -0.013618  -0.001329   0.000075   0.000010  -0.004507   0.002378
     6  H    0.000849   0.000191  -0.000015   0.000019  -0.000690   0.000374
     7  O    7.906210   0.008876   0.001149   0.000096  -0.011435   0.009197
     8  C    0.008876   4.822502   0.392640   0.421498   0.277305  -0.067212
     9  H    0.001149   0.392640   0.639370  -0.029945  -0.028787  -0.000537
    10  H    0.000096   0.421498  -0.029945   0.596250  -0.037640   0.007990
    11  C   -0.011435   0.277305  -0.028787  -0.037640   4.750201   0.445212
    12  H    0.009197  -0.067212  -0.000537   0.007990   0.445212   0.607476
    13  H    0.000130  -0.036654   0.002994  -0.005769   0.416175  -0.023379
    14  O   -0.006939   0.228789  -0.041467  -0.034844  -0.046916   0.000502
    15  H    0.000069  -0.035839   0.012507  -0.006716  -0.012131   0.001498
    16  O    0.000085  -0.068258   0.005598   0.003778   0.254319  -0.044569
    17  H    0.000101   0.001879  -0.000641  -0.000813  -0.040902  -0.012316
    18  C    0.247004  -0.001780  -0.000854   0.000068   0.001026  -0.000304
    19  H   -0.038871  -0.000884  -0.000509  -0.000032   0.000520  -0.000607
    20  H   -0.037677   0.000033   0.000085   0.000002  -0.000063   0.000029
    21  C   -0.045415  -0.000938   0.000541   0.000094  -0.000972   0.000613
    22  H    0.003121   0.000122  -0.000083   0.000004  -0.000007  -0.000018
    23  H    0.004729  -0.002330  -0.000727  -0.000234   0.000995  -0.000007
              13         14         15         16         17         18
     1  Si  -0.000023   0.019621  -0.003738  -0.000033  -0.000829  -0.028874
     2  O   -0.000003  -0.003328   0.000520   0.000016  -0.000009  -0.059884
     3  O   -0.000001  -0.000069   0.000003  -0.000001   0.000048   0.000125
     4  H    0.000000   0.000014  -0.000005   0.000001  -0.000004  -0.000214
     5  O    0.000098  -0.005459   0.003583  -0.011611   0.024513   0.000402
     6  H   -0.000003   0.000956  -0.000190   0.000529  -0.000234  -0.000088
     7  O    0.000130  -0.006939   0.000069   0.000085   0.000101   0.247004
     8  C   -0.036654   0.228789  -0.035839  -0.068258   0.001879  -0.001780
     9  H    0.002994  -0.041467   0.012507   0.005598  -0.000641  -0.000854
    10  H   -0.005769  -0.034844  -0.006716   0.003778  -0.000813   0.000068
    11  C    0.416175  -0.046916  -0.012131   0.254319  -0.040902   0.001026
    12  H   -0.023379   0.000502   0.001498  -0.044569  -0.012316  -0.000304
    13  H    0.586264   0.004564   0.000740  -0.027633   0.006256   0.000053
    14  O    0.004564   7.951533   0.306155  -0.004127   0.001551   0.005245
    15  H    0.000740   0.306155   0.528377   0.024091   0.000376  -0.000171
    16  O   -0.027633  -0.004127   0.024091   7.917317   0.352983   0.000100
    17  H    0.006256   0.001551   0.000376   0.352983   0.459648  -0.000040
    18  C    0.000053   0.005245  -0.000171   0.000100  -0.000040   4.726569
    19  H   -0.000015   0.000153   0.000044  -0.000004  -0.000002   0.412199
    20  H    0.000004   0.000048  -0.000008   0.000002   0.000002   0.432019
    21  C    0.000016  -0.015054   0.000741  -0.000073   0.000003   0.294460
    22  H   -0.000001   0.000961  -0.000110  -0.000000  -0.000001  -0.016401
    23  H   -0.000010   0.013953  -0.001289  -0.000015   0.000021  -0.042890
              19         20         21         22         23
     1  Si   0.006619  -0.005077  -0.053429  -0.001111  -0.003835
     2  O    0.003951   0.004277   0.263607  -0.033768  -0.038147
     3  O   -0.000111   0.000487  -0.002456   0.000029  -0.000097
     4  H    0.000011   0.000176  -0.000908   0.000124  -0.000011
     5  O   -0.000044  -0.000073  -0.000233  -0.000107   0.000323
     6  H    0.000007   0.000014   0.000027   0.000004  -0.000008
     7  O   -0.038871  -0.037677  -0.045415   0.003121   0.004729
     8  C   -0.000884   0.000033  -0.000938   0.000122  -0.002330
     9  H   -0.000509   0.000085   0.000541  -0.000083  -0.000727
    10  H   -0.000032   0.000002   0.000094   0.000004  -0.000234
    11  C    0.000520  -0.000063  -0.000972  -0.000007   0.000995
    12  H   -0.000607   0.000029   0.000613  -0.000018  -0.000007
    13  H   -0.000015   0.000004   0.000016  -0.000001  -0.000010
    14  O    0.000153   0.000048  -0.015054   0.000961   0.013953
    15  H    0.000044  -0.000008   0.000741  -0.000110  -0.001289
    16  O   -0.000004   0.000002  -0.000073  -0.000000  -0.000015
    17  H   -0.000002   0.000002   0.000003  -0.000001   0.000021
    18  C    0.412199   0.432019   0.294460  -0.016401  -0.042890
    19  H    0.624634  -0.039951  -0.032586   0.006504  -0.010609
    20  H   -0.039951   0.608110  -0.036109  -0.014795   0.008527
    21  C   -0.032586  -0.036109   4.734667   0.406157   0.436699
    22  H    0.006504  -0.014795   0.406157   0.615271  -0.042508
    23  H   -0.010609   0.008527   0.436699  -0.042508   0.592197
 Mulliken charges:
               1
     1  Si   0.819437
     2  O   -0.385827
     3  O   -0.390072
     4  H    0.176193
     5  O   -0.422217
     6  H    0.194064
     7  O   -0.387031
     8  C    0.060367
     9  H    0.050294
    10  H    0.085761
    11  C    0.038494
    12  H    0.078584
    13  H    0.076197
    14  O   -0.375841
    15  H    0.181494
    16  O   -0.402496
    17  H    0.208411
    18  C    0.032231
    19  H    0.069584
    20  H    0.079940
    21  C    0.050546
    22  H    0.076613
    23  H    0.085273
 Sum of Mulliken charges =  -0.00000
 Mulliken charges with hydrogens summed into heavy atoms:
               1
     1  Si   0.819437
     2  O   -0.385827
     3  O   -0.213878
     5  O   -0.228153
     7  O   -0.387031
     8  C    0.196421
    11  C    0.193275
    14  O   -0.194347
    16  O   -0.194085
    18  C    0.181756
    21  C    0.212432
 APT charges:
               1
     1  Si   0.570210
     2  O   -0.342216
     3  O   -0.741270
     4  H    0.744444
     5  O   -0.881918
     6  H    0.669018
     7  O   -0.401628
     8  C   -0.751636
     9  H    0.233054
    10  H    0.639598
    11  C   -0.562401
    12  H    0.027596
    13  H    0.705179
    14  O   -0.481327
    15  H    0.354095
    16  O   -0.205074
    17  H    0.046845
    18  C   -0.747056
    19  H    0.347459
    20  H    0.560097
    21  C   -0.663965
    22  H    0.625663
    23  H    0.255234
 Sum of APT charges =  -0.00000
 APT charges with hydrogens summed into heavy atoms:
               1
     1  Si   0.570210
     2  O   -0.342216
     3  O    0.003174
     5  O   -0.212899
     7  O   -0.401628
     8  C    0.121015
    11  C    0.170374
    14  O   -0.127232
    16  O   -0.158229
    18  C    0.160500
    21  C    0.216932
 Electronic spatial extent (au):  <R**2>=           2102.2464
 Charge=              0.0000 electrons
 Dipole moment (field-independent basis, Debye):
    X=              2.5695    Y=             -0.4854    Z=              0.7305  Tot=              2.7150
 Quadrupole moment (field-independent basis, Debye-Ang):
   XX=            -71.0328   YY=            -64.6698   ZZ=            -74.2121
   XY=              0.9212   XZ=              1.8531   YZ=             -2.7083
 Traceless Quadrupole moment (field-independent basis, Debye-Ang):
   XX=             -1.0612   YY=              5.3018   ZZ=             -4.2406
   XY=              0.9212   XZ=              1.8531   YZ=             -2.7083
 Octapole moment (field-independent basis, Debye-Ang**2):
  XXX=             68.5661  YYY=             26.3655  ZZZ=             -9.3799  XYY=              1.4655
  XXY=             -4.1592  XXZ=             13.3273  XZZ=             -5.8805  YZZ=              6.5133
  YYZ=             -2.3589  XYZ=              4.6220
 Hexadecapole moment (field-independent basis, Debye-Ang**3):
 XXXX=          -1574.7671 YYYY=           -729.2445 ZZZZ=           -313.7675 XXXY=             12.9572
 XXXZ=              3.1450 YYYX=           -101.2143 YYYZ=            -37.4990 ZZZX=              6.2849
 ZZZY=            -14.2735 XXYY=           -345.9789 XXZZ=           -298.6384 YYZZ=           -179.8530
 XXYZ=              3.6880 YYXZ=             -0.4022 ZZXY=            -26.9717
 N-N= 8.569786034044D+02 E-N=-3.842506415050D+03  KE= 8.975469627971D+02
  Exact polarizability:       0.000       0.000       0.000       0.000       0.000       0.000
 Approx polarizability:      94.246      -1.400      97.048      -0.126      -2.570      88.530

 This type of calculation cannot be archived.


 UNLESS WE CHANGE DIRECTIONS, WE WILL WIND UP WHERE WE ARE HEADED.
     -- CONFUCIUS
 Job cpu time:       4 days  3 hours 41 minutes 14.8 seconds.
 Elapsed time:       1 days  2 hours 22 minutes 50.7 seconds.
 File lengths (MBytes):  RWF=    468 Int=      0 D2E=      0 Chk=     23 Scr=      1
 Normal termination of Gaussian 16 at Sat Feb 24 23:59:10 2024.
