 Entering Gaussian System, Link 0=/opt/software/gaussian/g16.c01/g16
 Initial command:
 /opt/software/gaussian/g16.c01/l1.exe "/scratch/arhender/15251213/Gau-221976.inp" -scrdir="/scratch/arhender/15251213/"
 Entering Link 1 = /opt/software/gaussian/g16.c01/l1.exe PID=    221977.
  
 Copyright (c) 1988-2019, Gaussian, Inc.  All Rights Reserved.
  
 This is part of the Gaussian(R) 16 program.  It is based on
 the Gaussian(R) 09 system (copyright 2009, Gaussian, Inc.),
 the Gaussian(R) 03 system (copyright 2003, Gaussian, Inc.),
 the Gaussian(R) 98 system (copyright 1998, Gaussian, Inc.),
 the Gaussian(R) 94 system (copyright 1995, Gaussian, Inc.),
 the Gaussian 92(TM) system (copyright 1992, Gaussian, Inc.),
 the Gaussian 90(TM) system (copyright 1990, Gaussian, Inc.),
 the Gaussian 88(TM) system (copyright 1988, Gaussian, Inc.),
 the Gaussian 86(TM) system (copyright 1986, Carnegie Mellon
 University), and the Gaussian 82(TM) system (copyright 1983,
 Carnegie Mellon University). Gaussian is a federally registered
 trademark of Gaussian, Inc.
  
 This software contains proprietary and confidential information,
 including trade secrets, belonging to Gaussian, Inc.
  
 This software is provided under written license and may be
 used, copied, transmitted, or stored only in accord with that
 written license.
  
 The following legend is applicable only to US Government
 contracts under FAR:
  
                    RESTRICTED RIGHTS LEGEND
  
 Use, reproduction and disclosure by the US Government is
 subject to restrictions as set forth in subparagraphs (a)
 and (c) of the Commercial Computer Software - Restricted
 Rights clause in FAR 52.227-19.
  
 Gaussian, Inc.
 340 Quinnipiac St., Bldg. 40, Wallingford CT 06492
  
  
 ---------------------------------------------------------------
 Warning -- This program may not be used in any manner that
 competes with the business of Gaussian, Inc. or will provide
 assistance to any competitor of Gaussian, Inc.  The licensee
 of this program is prohibited from giving any competitor of
 Gaussian, Inc. access to this program.  By using this program,
 the user acknowledges that Gaussian, Inc. is engaged in the
 business of creating and licensing software in the field of
 computational chemistry and represents and warrants to the
 licensee that it is not a competitor of Gaussian, Inc. and that
 it will not use this program in any manner prohibited above.
 ---------------------------------------------------------------
  

 Cite this work as:
 Gaussian 16, Revision C.01,
 M. J. Frisch, G. W. Trucks, H. B. Schlegel, G. E. Scuseria, 
 M. A. Robb, J. R. Cheeseman, G. Scalmani, V. Barone, 
 G. A. Petersson, H. Nakatsuji, X. Li, M. Caricato, A. V. Marenich, 
 J. Bloino, B. G. Janesko, R. Gomperts, B. Mennucci, H. P. Hratchian, 
 J. V. Ortiz, A. F. Izmaylov, J. L. Sonnenberg, D. Williams-Young, 
 F. Ding, F. Lipparini, F. Egidi, J. Goings, B. Peng, A. Petrone, 
 T. Henderson, D. Ranasinghe, V. G. Zakrzewski, J. Gao, N. Rega, 
 G. Zheng, W. Liang, M. Hada, M. Ehara, K. Toyota, R. Fukuda, 
 J. Hasegawa, M. Ishida, T. Nakajima, Y. Honda, O. Kitao, H. Nakai, 
 T. Vreven, K. Throssell, J. A. Montgomery, Jr., J. E. Peralta, 
 F. Ogliaro, M. J. Bearpark, J. J. Heyd, E. N. Brothers, K. N. Kudin, 
 V. N. Staroverov, T. A. Keith, R. Kobayashi, J. Normand, 
 K. Raghavachari, A. P. Rendell, J. C. Burant, S. S. Iyengar, 
 J. Tomasi, M. Cossi, J. M. Millam, M. Klene, C. Adamo, R. Cammi, 
 J. W. Ochterski, R. L. Martin, K. Morokuma, O. Farkas, 
 J. B. Foresman, and D. J. Fox, Gaussian, Inc., Wallingford CT, 2019.
 
 ******************************************
 Gaussian 16:  ES64L-G16RevC.01  3-Jul-2019
                14-Oct-2023 
 ******************************************
 %chk=IRCAttemptEGAttackAxialDeprotonatedSi_Reverse.chk
 %mem=8GB
 %nprocs=16
 Will use up to   16 processors via shared memory.
 ----------------------------------------------------------------------
 # irc=(reverse,calcfc,maxpoints=20,maxcycles=100) wb97xd/def2tzvpp geo
 m=connectivity
 ----------------------------------------------------------------------
 1/6=100,10=4,18=10,22=2,26=3,38=1,42=20,44=3,57=2,172=1/1,23;
 2/12=2,17=6,18=5,29=1,40=1/2;
 3/5=44,7=202,11=2,25=1,30=1,71=2,74=-58,140=1/1,2,3;
 4//1;
 5/5=2,38=5/2;
 8/6=4,10=90,11=11/1;
 11/6=1,8=1,9=11,15=111,16=1/1,2,10;
 10/6=1,13=1/2;
 6/7=2,8=2,9=2,10=2,28=1/1;
 7/10=1,25=1/1,2,3,16;
 1/6=100,10=4,18=10,22=2,26=3,42=20,44=3/23(2);
 2/29=1/2;
 99/5=20/99;
 2/29=1/2;
 3/5=44,7=202,11=2,25=1,30=1,71=2,74=-58,140=1/1,2,3;
 4/5=5,16=3,69=1/1;
 5/5=2,38=5/2;
 8/6=4,10=90,11=11/1;
 11/6=1,8=1,9=11,15=111,16=1/1,2,10;
 10/6=1,13=1/2;
 7/10=1,25=1/1,2,3,16;
 1/6=100,18=10,22=2,26=3,42=20,44=3/23(-8);
 2/29=1/2;
 6/7=2,8=2,9=2,10=2,19=2,28=1/1;
 99/5=20,9=1/99;
 ----------------------------------------------------------------------
 IRC Attempt EGOH on deprotonated axial silicic acid trig bypryamid TS 
 Deprotonated
 ----------------------------------------------------------------------
 Symbolic Z-matrix:
 Charge = -1 Multiplicity = 1
 Si                    0.96276  -0.4947   -0.13866 
 O                     1.73069  -1.64604  -0.78829 
 O                     2.24083   1.68507   0.38804 
 H                     3.14095   1.61412   0.07826 
 O                     0.44227   0.81167  -1.01365 
 H                     1.15912   1.46029  -0.63326 
 O                     0.86892  -0.22142   1.48244 
 H                     1.44953   0.56996   1.54668 
 C                    -1.97078  -0.73689   0.70096 
 H                    -1.65892  -0.92602   1.72509 
 H                    -2.88522  -1.29431   0.48181 
 C                    -2.16964   0.75375   0.45586 
 H                    -1.36034   1.30304   0.94193 
 H                    -3.11807   1.05656   0.90986 
 O                    -0.93438  -1.27907  -0.1291 
 O                    -2.21013   1.0378   -0.91877 
 H                    -1.26272   1.11715  -1.16852 
 H                    -1.20606  -1.18015  -1.04682 
 
 IRC-IRC-IRC-IRC-IRC-IRC-IRC-IRC-IRC-IRC-IRC-IRC-IRC-IRC-IRC-IRC-IRC-IRC
 ------------------------------------------------------------------------
 INPUT DATA FOR L123
 ------------------------------------------------------------------------
 GENERAL PARAMETERS:
 Rxn path following direction = Reverse
 Maximum points per path      =  20
 Step size                    =   0.100 bohr
 Integration scheme           = HPC                                 
    Redo corrector integration= Yes                                 
    DWI Weight Power          =  2
    DWI will use Hessian update vectors when possible.
    Max correction cycles     = 100
 Initial Hessian              = CalcFC
 Hessian evaluation           = All updating
 Hessian updating method      = Bofill                              
 ------------------------------------------------------------------------
 IRC-IRC-IRC-IRC-IRC-IRC-IRC-IRC-IRC-IRC-IRC-IRC-IRC-IRC-IRC-IRC-IRC-IRC
                          Input orientation:                          
 ---------------------------------------------------------------------
 Center     Atomic      Atomic             Coordinates (Angstroms)
 Number     Number       Type             X           Y           Z
 ---------------------------------------------------------------------
      1         14           0        0.962759   -0.494704   -0.138657
      2          8           0        1.730694   -1.646043   -0.788288
      3          8           0        2.240829    1.685070    0.388035
      4          1           0        3.140954    1.614115    0.078261
      5          8           0        0.442272    0.811674   -1.013651
      6          1           0        1.159115    1.460286   -0.633262
      7          8           0        0.868921   -0.221416    1.482436
      8          1           0        1.449526    0.569958    1.546682
      9          6           0       -1.970778   -0.736886    0.700955
     10          1           0       -1.658919   -0.926017    1.725089
     11          1           0       -2.885224   -1.294306    0.481811
     12          6           0       -2.169642    0.753745    0.455855
     13          1           0       -1.360336    1.303038    0.941928
     14          1           0       -3.118074    1.056557    0.909864
     15          8           0       -0.934378   -1.279072   -0.129098
     16          8           0       -2.210133    1.037796   -0.918771
     17          1           0       -1.262719    1.117149   -1.168515
     18          1           0       -1.206059   -1.180150   -1.046824
 ---------------------------------------------------------------------
                    Distance matrix (angstroms):
                    1          2          3          4          5
     1  Si   0.000000
     2  O    1.528832   0.000000
     3  O    2.581140   3.569354   0.000000
     4  H    3.039524   3.656278   0.954578   0.000000
     5  O    1.656244   2.784096   2.441793   3.019779   0.000000
     6  H    2.026123   3.162280   1.504553   2.111306   1.038873
     7  O    1.646643   2.815742   2.591242   3.240836   2.734914
     8  H    2.052027   3.231378   1.792233   2.471326   2.761936
     9  C    3.060921   4.092103   4.868411   5.660809   3.340767
    10  H    3.245424   4.280768   4.879910   5.674777   3.864618
    11  H    3.978859   4.800372   5.929747   6.703476   4.212338
    12  C    3.424034   4.745471   4.508239   5.393074   2.997482
    13  H    3.129906   4.609251   3.663487   4.593942   2.704648
    14  H    4.489878   5.805025   5.420809   6.338601   4.054126
    15  O    2.052913   2.769803   4.374415   5.002185   2.654961
    16  O    3.608930   4.769710   4.683777   5.473605   2.663717
    17  H    2.934524   4.091494   3.875594   4.603668   1.739049
    18  H    2.449158   2.984697   4.706309   5.288691   2.585625
                    6          7          8          9         10
     6  H    0.000000
     7  O    2.718182   0.000000
     8  H    2.372589   0.983617   0.000000
     9  C    4.050177   2.990035   3.757868   0.000000
    10  H    4.381504   2.635397   3.454302   1.087142   0.000000
    11  H    5.018749   4.030626   4.837302   1.093139   1.784713
    12  C    3.572954   3.352264   3.784450   1.523680   2.166424
    13  H    2.975497   2.754214   2.966220   2.142895   2.381424
    14  H    4.564929   4.225776   4.637379   2.139245   2.593130
    15  O    3.484390   2.639615   3.451108   1.434252   2.021786
    16  O    3.407616   4.102680   4.437391   2.414601   3.339221
    17  H    2.503901   3.655569   3.876595   2.726483   3.564330
    18  H    3.568891   3.409086   4.103813   1.958573   2.820136
                   11         12         13         14         15
    11  H    0.000000
    12  C    2.169618   0.000000
    13  H    3.046832   1.092230   0.000000
    14  H    2.400834   1.094231   1.775225   0.000000
    15  O    2.044319   2.449570   2.827690   3.362013   0.000000
    16  O    2.802870   1.404251   2.062695   2.041719   2.760256
    17  H    3.342337   1.895561   2.120861   2.786696   2.632503
    18  H    2.273621   2.631822   3.185147   3.533736   0.962194
                   16         17         18
    16  O    0.000000
    17  H    0.982986   0.000000
    18  H    2.438001   2.301217   0.000000
 Symmetry turned off by external request.
 Stoichiometry    C2H9O6Si(1-)
 Framework group  C1[X(C2H9O6Si)]
 Deg. of freedom    48
 Full point group                 C1      NOp   1
 Rotational constants (GHZ):           1.8494746           1.0092262           0.8706963
 Standard basis: def2TZVPP (5D, 7F)
   416 basis functions,   630 primitive gaussians,   471 cartesian basis functions
    42 alpha electrons       42 beta electrons
       nuclear repulsion energy       640.9892613507 Hartrees.
 NAtoms=   18 NActive=   18 NUniq=   18 SFac= 1.00D+00 NAtFMM=   60 NAOKFM=F Big=F
 Integral buffers will be    131072 words long.
 Raffenetti 2 integral format.
 Two-electron integral symmetry is turned off.
 Nuclear repulsion after empirical dispersion term =      640.9786127245 Hartrees.
 One-electron integrals computed using PRISM.
   1 Symmetry operations used in ECPInt.
 ECPInt:  NShTT=   12246 NPrTT=   33908 LenC2=   11761 LenP2D=   25609.
 LDataN:  DoStor=T MaxTD1= 6 Len=  172
 NBasis=   416 RedAO= T EigKep=  2.03D-04  NBF=   416
 NBsUse=   416 1.00D-06 EigRej= -1.00D+00 NBFU=   416
 ExpMin= 7.01D-02 ExpMax= 4.48D+04 ExpMxC= 1.53D+03 IAcc=3 IRadAn=         5 AccDes= 0.00D+00
 Harris functional with IExCor= 4639 and IRadAn=       5 diagonalized for initial guess.
 HarFok:  IExCor= 4639 AccDes= 0.00D+00 IRadAn=         5 IDoV= 1 UseB2=F ITyADJ=14
 ICtDFT=  3500011 ScaDFX=  1.000000  1.000000  1.000000  1.000000
 FoFCou: FMM=F IPFlag=           0 FMFlag=      100000 FMFlg1=           0
         NFxFlg=           0 DoJE=T BraDBF=F KetDBF=T FulRan=T
         wScrn=  0.000000 ICntrl=       500 IOpCl=  0 I1Cent=   200000004 NGrid=           0
         NMat0=    1 NMatS0=      1 NMatT0=    0 NMatD0=    1 NMtDS0=    0 NMtDT0=    0
 Symmetry not used in FoFCou.
 Requested convergence on RMS density matrix=1.00D-08 within 128 cycles.
 Requested convergence on MAX density matrix=1.00D-06.
 Requested convergence on             energy=1.00D-06.
 No special actions if energy rises.
 Integral accuracy reduced to 1.0D-05 until final iterations.
 Initial convergence to 1.0D-05 achieved.  Increase integral accuracy.
 SCF Done:  E(RwB97XD) =  -822.729097238     A.U. after   15 cycles
            NFock= 15  Conv=0.32D-08     -V/T= 2.0034
 DoSCS=F DFT=T ScalE2(SS,OS)=  1.000000  1.000000
 Range of M.O.s used for correlation:     1   416
 NBasis=   416 NAE=    42 NBE=    42 NFC=     0 NFV=     0
 NROrb=    416 NOA=    42 NOB=    42 NVA=   374 NVB=   374

 **** Warning!!: The largest alpha MO coefficient is  0.11823360D+02

   1 Symmetry operations used in ECPInt.
 ECPInt:  NShTT=   12246 NPrTT=   33908 LenC2=   11761 LenP2D=   25609.
 LDataN:  DoStor=T MaxTD1= 7 Len=  274
 Number of processors reduced to  12 by ecpmxn.
 Symmetrizing basis deriv contribution to polar:
 IMax=3 JMax=2 DiffMx= 0.00D+00
 G2DrvN: will do    19 centers at a time, making    1 passes.
 Calling FoFCou, ICntrl=  3107 FMM=F I1Cent=   0 AccDes= 0.00D+00.
 End of G2Drv F.D. properties file   721 does not exist.
 End of G2Drv F.D. properties file   722 does not exist.
 End of G2Drv F.D. properties file   788 does not exist.
          IDoAtm=111111111111111111
          Differentiating once with respect to nuclear coordinates.
 CalDSu exits because no D1Ps are significant.
          There are    57 degrees of freedom in the 1st order CPHF.  IDoFFX=6 NUNeed=     0.
     51 vectors produced by pass  0 Test12= 2.76D-14 1.75D-09 XBig12= 8.81D-02 5.69D-02.
 AX will form    51 AO Fock derivatives at one time.
     51 vectors produced by pass  1 Test12= 2.76D-14 1.75D-09 XBig12= 2.54D-02 3.59D-02.
     51 vectors produced by pass  2 Test12= 2.76D-14 1.75D-09 XBig12= 1.08D-03 5.77D-03.
     51 vectors produced by pass  3 Test12= 2.76D-14 1.75D-09 XBig12= 2.52D-05 7.09D-04.
     51 vectors produced by pass  4 Test12= 2.76D-14 1.75D-09 XBig12= 2.81D-07 6.46D-05.
     51 vectors produced by pass  5 Test12= 2.76D-14 1.75D-09 XBig12= 2.96D-09 5.97D-06.
     51 vectors produced by pass  6 Test12= 2.76D-14 1.75D-09 XBig12= 2.20D-11 4.77D-07.
     21 vectors produced by pass  7 Test12= 2.76D-14 1.75D-09 XBig12= 1.38D-13 3.19D-08.
      3 vectors produced by pass  8 Test12= 2.76D-14 1.75D-09 XBig12= 9.00D-16 2.52D-09.
 InvSVY:  IOpt=1 It=  1 EMax= 3.69D-16
 Solved reduced A of dimension   381 with    57 vectors.
 End of Minotr F.D. properties file   721 does not exist.
 End of Minotr F.D. properties file   722 does not exist.
 End of Minotr F.D. properties file   788 does not exist.

 **********************************************************************

            Population analysis using the SCF Density.

 **********************************************************************

 Alpha  occ. eigenvalues --  -66.11717 -19.18807 -19.11857 -19.06815 -19.06273
 Alpha  occ. eigenvalues --  -19.00100 -18.98744 -10.23313 -10.21461  -5.23553
 Alpha  occ. eigenvalues --   -3.58478  -3.57898  -3.57649  -1.06332  -0.99845
 Alpha  occ. eigenvalues --   -0.93856  -0.90892  -0.82600  -0.80444  -0.73617
 Alpha  occ. eigenvalues --   -0.61536  -0.52932  -0.49429  -0.46657  -0.45174
 Alpha  occ. eigenvalues --   -0.40666  -0.39969  -0.38755  -0.37427  -0.36557
 Alpha  occ. eigenvalues --   -0.31531  -0.30723  -0.29039  -0.28506  -0.27270
 Alpha  occ. eigenvalues --   -0.24186  -0.23528  -0.22570  -0.18301  -0.17196
 Alpha  occ. eigenvalues --   -0.16466  -0.16230
 Alpha virt. eigenvalues --    0.21712   0.23692   0.25559   0.27664   0.28642
 Alpha virt. eigenvalues --    0.30366   0.30748   0.32742   0.33700   0.35068
 Alpha virt. eigenvalues --    0.36500   0.38023   0.38804   0.39266   0.40771
 Alpha virt. eigenvalues --    0.42386   0.43217   0.44362   0.46103   0.49038
 Alpha virt. eigenvalues --    0.49754   0.50828   0.53060   0.54278   0.54802
 Alpha virt. eigenvalues --    0.55335   0.57371   0.57498   0.58187   0.59218
 Alpha virt. eigenvalues --    0.60310   0.61153   0.62681   0.63574   0.64931
 Alpha virt. eigenvalues --    0.66089   0.67345   0.68150   0.68787   0.69766
 Alpha virt. eigenvalues --    0.71023   0.72734   0.74044   0.75644   0.76422
 Alpha virt. eigenvalues --    0.78423   0.79814   0.80419   0.81299   0.82017
 Alpha virt. eigenvalues --    0.82823   0.84392   0.85387   0.86482   0.89176
 Alpha virt. eigenvalues --    0.89903   0.91660   0.92115   0.95026   0.95896
 Alpha virt. eigenvalues --    0.96508   0.99339   1.00027   1.01589   1.03850
 Alpha virt. eigenvalues --    1.05097   1.06636   1.07910   1.08355   1.10164
 Alpha virt. eigenvalues --    1.10766   1.11788   1.14902   1.16383   1.18479
 Alpha virt. eigenvalues --    1.19125   1.20389   1.21366   1.21956   1.23603
 Alpha virt. eigenvalues --    1.25566   1.26510   1.29044   1.30376   1.32599
 Alpha virt. eigenvalues --    1.33747   1.34592   1.35603   1.36233   1.38349
 Alpha virt. eigenvalues --    1.39066   1.42037   1.43671   1.43943   1.47061
 Alpha virt. eigenvalues --    1.48682   1.49595   1.51498   1.52502   1.53901
 Alpha virt. eigenvalues --    1.55672   1.56467   1.59926   1.61308   1.61461
 Alpha virt. eigenvalues --    1.65135   1.65315   1.68286   1.69401   1.70200
 Alpha virt. eigenvalues --    1.72434   1.73954   1.74766   1.77685   1.78699
 Alpha virt. eigenvalues --    1.79824   1.82712   1.90555   1.91513   1.95312
 Alpha virt. eigenvalues --    1.96987   1.99506   2.02091   2.04575   2.06604
 Alpha virt. eigenvalues --    2.07501   2.09683   2.10007   2.11943   2.14384
 Alpha virt. eigenvalues --    2.16419   2.18247   2.19418   2.20625   2.22076
 Alpha virt. eigenvalues --    2.23619   2.25162   2.26044   2.29487   2.31219
 Alpha virt. eigenvalues --    2.33263   2.34084   2.35336   2.38847   2.42272
 Alpha virt. eigenvalues --    2.43668   2.45337   2.48313   2.50882   2.52579
 Alpha virt. eigenvalues --    2.53531   2.55338   2.56466   2.57615   2.61248
 Alpha virt. eigenvalues --    2.69778   2.71715   2.73856   2.76277   2.77779
 Alpha virt. eigenvalues --    2.81951   2.83844   2.88386   2.89284   2.90202
 Alpha virt. eigenvalues --    2.96114   2.96636   2.98185   3.00464   3.04337
 Alpha virt. eigenvalues --    3.04953   3.07119   3.09691   3.10426   3.12718
 Alpha virt. eigenvalues --    3.13620   3.17827   3.19103   3.20690   3.22292
 Alpha virt. eigenvalues --    3.23272   3.24332   3.27683   3.29734   3.30498
 Alpha virt. eigenvalues --    3.33414   3.34065   3.36432   3.37016   3.37725
 Alpha virt. eigenvalues --    3.39660   3.44107   3.47220   3.48764   3.50322
 Alpha virt. eigenvalues --    3.52640   3.52942   3.54695   3.55765   3.57777
 Alpha virt. eigenvalues --    3.61263   3.62025   3.63926   3.65871   3.67567
 Alpha virt. eigenvalues --    3.68635   3.71612   3.72541   3.74881   3.77149
 Alpha virt. eigenvalues --    3.80367   3.80580   3.83719   3.84667   3.86006
 Alpha virt. eigenvalues --    3.89348   3.90554   3.91794   3.93795   3.95181
 Alpha virt. eigenvalues --    3.97431   3.98806   4.00226   4.03081   4.03874
 Alpha virt. eigenvalues --    4.05606   4.07030   4.09910   4.11206   4.12336
 Alpha virt. eigenvalues --    4.12954   4.15626   4.17686   4.20244   4.23816
 Alpha virt. eigenvalues --    4.24641   4.26290   4.27590   4.28631   4.31379
 Alpha virt. eigenvalues --    4.33325   4.33447   4.35149   4.37534   4.40220
 Alpha virt. eigenvalues --    4.42628   4.43133   4.45196   4.45389   4.47796
 Alpha virt. eigenvalues --    4.48879   4.53846   4.55124   4.56674   4.58684
 Alpha virt. eigenvalues --    4.59172   4.61073   4.61657   4.68241   4.74431
 Alpha virt. eigenvalues --    4.77111   4.80347   4.82304   4.84701   4.86142
 Alpha virt. eigenvalues --    4.88061   4.90611   4.93334   5.00458   5.02642
 Alpha virt. eigenvalues --    5.05453   5.09271   5.12021   5.14650   5.15719
 Alpha virt. eigenvalues --    5.18085   5.19515   5.20421   5.22831   5.24678
 Alpha virt. eigenvalues --    5.26566   5.32466   5.37309   5.44863   5.48829
 Alpha virt. eigenvalues --    5.49465   5.50521   5.52149   5.54319   5.56344
 Alpha virt. eigenvalues --    5.56469   5.57768   5.59528   5.62296   5.62613
 Alpha virt. eigenvalues --    5.65440   5.66037   5.68478   5.71437   5.72756
 Alpha virt. eigenvalues --    5.76886   5.78248   5.80199   5.83091   5.84890
 Alpha virt. eigenvalues --    5.85653   5.87805   5.88739   5.92157   5.97542
 Alpha virt. eigenvalues --    5.98302   6.02281   6.06485   6.09936   6.17738
 Alpha virt. eigenvalues --    6.26433   6.32716   6.51822   6.63350   6.63571
 Alpha virt. eigenvalues --    6.67491   6.68741   6.69036   6.70834   6.73921
 Alpha virt. eigenvalues --    6.78580   6.83699   6.85152   6.85608   6.88120
 Alpha virt. eigenvalues --    6.89631   6.90594   6.92229   6.93223   6.94424
 Alpha virt. eigenvalues --    6.94773   6.96789   6.99198   6.99580   7.01275
 Alpha virt. eigenvalues --    7.02829   7.05481   7.08775   7.12932   7.13207
 Alpha virt. eigenvalues --    7.16611   7.18413   7.23002   7.25260   7.25681
 Alpha virt. eigenvalues --    7.30701   7.33337   7.35192   7.39833   7.48860
 Alpha virt. eigenvalues --    7.52453   7.60937   7.64248   7.64695   7.67339
 Alpha virt. eigenvalues --    7.75669   7.77879   7.82920   7.91642   7.97375
 Alpha virt. eigenvalues --   12.72536  23.52180  23.60762  43.97077  43.98802
 Alpha virt. eigenvalues --   44.09703  44.18628  44.28054  44.34083
          Condensed to atoms (all electrons):
               1          2          3          4          5          6
     1  Si  11.725798   0.771526   0.083746  -0.005829   0.307025  -0.038002
     2  O    0.771526   8.038736  -0.007601  -0.000060  -0.039458  -0.002836
     3  O    0.083746  -0.007601   8.400276   0.290741  -0.122439   0.132871
     4  H   -0.005829  -0.000060   0.290741   0.576239   0.007920  -0.010509
     5  O    0.307025  -0.039458  -0.122439   0.007920   8.151762   0.255112
     6  H   -0.038002  -0.002836   0.132871  -0.010509   0.255112   0.395342
     7  O    0.355524  -0.034259  -0.071485   0.003841  -0.026932   0.007601
     8  H   -0.041692  -0.002811   0.070882  -0.004638   0.007763  -0.006821
     9  C   -0.005065  -0.000322   0.000297  -0.000025  -0.007702   0.000384
    10  H   -0.007158   0.000247   0.000096  -0.000006   0.000129  -0.000147
    11  H    0.001018  -0.000209   0.000006  -0.000001  -0.000265  -0.000018
    12  C   -0.005897  -0.000135  -0.001212   0.000125   0.011690  -0.001967
    13  H   -0.002915  -0.000227   0.001435  -0.000116   0.002343   0.000566
    14  H    0.000694  -0.000004  -0.000015   0.000001   0.000509  -0.000053
    15  O    0.125389  -0.029698  -0.000203   0.000009  -0.018640   0.001606
    16  O   -0.000852  -0.000018  -0.000092   0.000007  -0.041791   0.001053
    17  H   -0.006847  -0.000283   0.000708  -0.000095   0.068654  -0.001588
    18  H   -0.009181   0.002389   0.000249  -0.000019   0.000713  -0.000527
               7          8          9         10         11         12
     1  Si   0.355524  -0.041692  -0.005065  -0.007158   0.001018  -0.005897
     2  O   -0.034259  -0.002811  -0.000322   0.000247  -0.000209  -0.000135
     3  O   -0.071485   0.070882   0.000297   0.000096   0.000006  -0.001212
     4  H    0.003841  -0.004638  -0.000025  -0.000006  -0.000001   0.000125
     5  O   -0.026932   0.007763  -0.007702   0.000129  -0.000265   0.011690
     6  H    0.007601  -0.006821   0.000384  -0.000147  -0.000018  -0.001967
     7  O    7.971506   0.306639   0.015601   0.008550   0.001008  -0.026536
     8  H    0.306639   0.433539  -0.002510  -0.000006  -0.000019   0.001175
     9  C    0.015601  -0.002510   4.951031   0.392991   0.401621   0.242361
    10  H    0.008550  -0.000006   0.392991   0.576870  -0.025728  -0.017381
    11  H    0.001008  -0.000019   0.401621  -0.025728   0.617073  -0.035134
    12  C   -0.026536   0.001175   0.242361  -0.017381  -0.035134   4.757237
    13  H    0.016734   0.000276  -0.066985  -0.000959   0.008258   0.448956
    14  H    0.000205   0.000020  -0.039808   0.004961  -0.010397   0.398041
    15  O   -0.021545   0.001769   0.200389  -0.027462  -0.031240  -0.040607
    16  O    0.000388   0.000068  -0.077909   0.005604   0.003889   0.273869
    17  H    0.000371  -0.000154   0.006141  -0.000749  -0.000481  -0.047205
    18  H    0.000935  -0.000208  -0.031092   0.010744  -0.008630  -0.006183
              13         14         15         16         17         18
     1  Si  -0.002915   0.000694   0.125389  -0.000852  -0.006847  -0.009181
     2  O   -0.000227  -0.000004  -0.029698  -0.000018  -0.000283   0.002389
     3  O    0.001435  -0.000015  -0.000203  -0.000092   0.000708   0.000249
     4  H   -0.000116   0.000001   0.000009   0.000007  -0.000095  -0.000019
     5  O    0.002343   0.000509  -0.018640  -0.041791   0.068654   0.000713
     6  H    0.000566  -0.000053   0.001606   0.001053  -0.001588  -0.000527
     7  O    0.016734   0.000205  -0.021545   0.000388   0.000371   0.000935
     8  H    0.000276   0.000020   0.001769   0.000068  -0.000154  -0.000208
     9  C   -0.066985  -0.039808   0.200389  -0.077909   0.006141  -0.031092
    10  H   -0.000959   0.004961  -0.027462   0.005604  -0.000749   0.010744
    11  H    0.008258  -0.010397  -0.031240   0.003889  -0.000481  -0.008630
    12  C    0.448956   0.398041  -0.040607   0.273869  -0.047205  -0.006183
    13  H    0.579144  -0.030256   0.001159  -0.042939  -0.009067   0.000911
    14  H   -0.030256   0.647383   0.004305  -0.029650   0.005386   0.000683
    15  O    0.001159   0.004305   7.722731  -0.002775   0.001621   0.304590
    16  O   -0.042939  -0.029650  -0.002775   8.000412   0.344999   0.025880
    17  H   -0.009067   0.005386   0.001621   0.344999   0.396919  -0.000300
    18  H    0.000911   0.000683   0.304590   0.025880  -0.000300   0.531231
 Mulliken charges:
               1
     1  Si   0.752718
     2  O   -0.694978
     3  O   -0.778260
     4  H    0.142413
     5  O   -0.556389
     6  H    0.267931
     7  O   -0.508144
     8  H    0.236728
     9  C    0.020603
    10  H    0.079402
    11  H    0.079250
    12  C    0.048802
    13  H    0.093683
    14  H    0.047994
    15  O   -0.191398
    16  O   -0.460143
    17  H    0.241970
    18  H    0.177816
 Sum of Mulliken charges =  -1.00000
 Mulliken charges with hydrogens summed into heavy atoms:
               1
     1  Si   0.752718
     2  O   -0.694978
     3  O   -0.635847
     5  O   -0.288457
     7  O   -0.271415
     9  C    0.179255
    12  C    0.190479
    15  O   -0.013582
    16  O   -0.218173
 APT charges:
               1
     1  Si   0.259906
     2  O   -0.372137
     3  O   -1.190309
     4  H    0.522971
     5  O   -0.556951
     6  H    0.327511
     7  O   -0.578444
     8  H    0.393873
     9  C   -0.639951
    10  H    0.277904
    11  H    0.549513
    12  C   -0.576308
    13  H    0.111796
    14  H    0.583271
    15  O   -0.338005
    16  O   -0.277752
    17  H    0.109111
    18  H    0.394000
 Sum of APT charges =  -1.00000
 APT charges with hydrogens summed into heavy atoms:
               1
     1  Si   0.259906
     2  O   -0.372137
     3  O   -0.667338
     5  O   -0.229440
     7  O   -0.184570
     9  C    0.187465
    12  C    0.118759
    15  O    0.055995
    16  O   -0.168640
 Electronic spatial extent (au):  <R**2>=           1490.2793
 Charge=             -1.0000 electrons
 Dipole moment (field-independent basis, Debye):
    X=             -7.4346    Y=             -0.0736    Z=              1.5312  Tot=              7.5910
 Quadrupole moment (field-independent basis, Debye-Ang):
   XX=            -78.2983   YY=            -80.8035   ZZ=            -69.4095
   XY=              7.7617   XZ=             -2.7239   YZ=             -1.7835
 Traceless Quadrupole moment (field-independent basis, Debye-Ang):
   XX=             -2.1278   YY=             -4.6331   ZZ=              6.7609
   XY=              7.7617   XZ=             -2.7239   YZ=             -1.7835
 Octapole moment (field-independent basis, Debye-Ang**2):
  XXX=             -4.6683  YYY=              2.4714  ZZZ=             -3.4988  XYY=            -29.9951
  XXY=             -4.1705  XXZ=             12.6145  XZZ=             -8.4969  YZZ=              0.5985
  YYZ=              2.3812  XYZ=            -18.3553
 Hexadecapole moment (field-independent basis, Debye-Ang**3):
 XXXX=          -1101.8202 YYYY=           -569.1680 ZZZZ=           -311.3535 XXXY=             58.5898
 XXXZ=            -25.5116 YYYX=              6.0090 YYYZ=            -24.3478 ZZZX=             10.8447
 ZZZY=              2.1131 XXYY=           -330.1665 XXZZ=           -250.6233 YYZZ=           -139.8113
 XXYZ=            -12.7795 YYXZ=              1.4468 ZZXY=             16.6210
 N-N= 6.409786127245D+02 E-N=-3.244402613536D+03  KE= 8.199658720307D+02
  Exact polarizability:       0.000       0.000       0.000       0.000       0.000       0.000
 Approx polarizability:      85.282       0.920      79.557      -1.119       1.905      80.160
   1 Symmetry operations used in ECPInt.
 ECPInt:  NShTT=   12246 NPrTT=   33908 LenC2=   11761 LenP2D=   25609.
 LDataN:  DoStor=T MaxTD1= 8 Len=  415
 Calling FoFJK, ICntrl=    100127 FMM=F ISym2X=0 I1Cent= 0 IOpClX= 0 NMat=1 NMatS=1 NMatT=0.
 -------------------------------------------------------------------
 Center     Atomic                   Forces (Hartrees/Bohr)
 Number     Number              X              Y              Z
 -------------------------------------------------------------------
      1       14           0.000000707   -0.000000956    0.000000680
      2        8           0.000000143    0.000001358    0.000000240
      3        8           0.000000257   -0.000002020    0.000009190
      4        1           0.000001448   -0.000002265    0.000010541
      5        8           0.000002260    0.000001869    0.000002815
      6        1           0.000003663    0.000001726    0.000006585
      7        8          -0.000003475   -0.000004343    0.000001423
      8        1          -0.000002877   -0.000004597    0.000004791
      9        6          -0.000001974   -0.000000530   -0.000005039
     10        1          -0.000004357   -0.000002720   -0.000005703
     11        1          -0.000001694    0.000001079   -0.000008930
     12        6          -0.000000594    0.000000806   -0.000002138
     13        1          -0.000000075   -0.000001598    0.000000714
     14        1          -0.000001103    0.000000057   -0.000003669
     15        8          -0.000000504    0.000001085   -0.000004442
     16        8           0.000003242    0.000003942   -0.000002227
     17        1           0.000003283    0.000003381    0.000000447
     18        1           0.000001651    0.000003726   -0.000005278
 -------------------------------------------------------------------
 Cartesian Forces:  Max     0.000010541 RMS     0.000003567
 IRC-IRC-IRC-IRC-IRC-IRC-IRC-IRC-IRC-IRC-IRC-IRC-IRC-IRC-IRC-IRC-IRC-IRC
          ******** Start new reaction path calculation ********
 Supplied step size of   0.1000 bohr.
    Integration on MW PES will use step size of   0.2647 sqrt(amu)*bohr.
 Point Number:   0          Path Number:   1
 Calculating another point on the path.
 IRC-IRC-IRC-IRC-IRC-IRC-IRC-IRC-IRC-IRC-IRC-IRC-IRC-IRC-IRC-IRC-IRC-IRC
                          Input orientation:                          
 ---------------------------------------------------------------------
 Center     Atomic      Atomic             Coordinates (Angstroms)
 Number     Number       Type             X           Y           Z
 ---------------------------------------------------------------------
      1         14           0        0.917393   -0.480801   -0.123743
      2          8           0        1.691457   -1.629042   -0.771419
      3          8           0        2.201145    1.730584    0.407775
      4          1           0        3.095577    1.648933    0.083783
      5          8           0        0.415865    0.835962   -0.988132
      6          1           0        1.144206    1.479538   -0.587099
      7          8           0        0.838352   -0.198920    1.496926
      8          1           0        1.415180    0.596278    1.554307
      9          6           0       -2.006331   -0.712707    0.719869
     10          1           0       -1.693114   -0.902064    1.743486
     11          1           0       -2.920593   -1.270340    0.501179
     12          6           0       -2.204043    0.777942    0.473549
     13          1           0       -1.395551    1.327127    0.961016
     14          1           0       -3.153448    1.081106    0.925272
     15          8           0       -0.971019   -1.256070   -0.112069
     16          8           0       -2.240804    1.060806   -0.901305
     17          1           0       -1.292219    1.142138   -1.147950
     18          1           0       -1.244172   -1.155436   -1.029388
 ---------------------------------------------------------------------
                    Distance matrix (angstroms):
                    1          2          3          4          5
     1  Si   0.000000
     2  O    1.528763   0.000000
     3  O    2.611658   3.596855   0.000000
     4  H    3.053411   3.667157   0.954801   0.000000
     5  O    1.653048   2.783944   2.436417   2.998463   0.000000
     6  H    2.027085   3.161760   1.473064   2.070416   1.051427
     7  O    1.646898   2.813971   2.601239   3.241389   2.724884
     8  H    2.055175   3.230694   1.794137   2.468655   2.742276
     9  C    3.051823   4.091118   4.875442   5.657863   3.344051
    10  H    3.237090   4.278851   4.886739   5.673955   3.863970
    11  H    3.967875   4.797830   5.936873   6.700050   4.217405
    12  C    3.418268   4.745360   4.507498   5.384841   3.000633
    13  H    3.129699   4.611929   3.661294   4.587300   2.705855
    14  H    4.484611   5.804892   5.418606   6.330943   4.057241
    15  O    2.041391   2.768146   4.387820   5.001460   2.658483
    16  O    3.599356   4.766008   4.679017   5.458319   2.667580
    17  H    2.926657   4.089443   3.869127   4.585495   1.742652
    18  H    2.438788   2.984756   4.718555   5.285551   2.592892
                    6          7          8          9         10
     6  H    0.000000
     7  O    2.693312   0.000000
     8  H    2.332208   0.984055   0.000000
     9  C    4.054626   2.993329   3.757189   0.000000
    10  H    4.376533   2.638849   3.455765   1.087084   0.000000
    11  H    5.026805   4.033499   4.836555   1.093002   1.784840
    12  C    3.581618   3.355254   3.781511   1.523746   2.167074
    13  H    2.978298   2.757960   2.964177   2.142925   2.381196
    14  H    4.573385   4.230806   4.637145   2.139120   2.595190
    15  O    3.490471   2.642017   3.449921   1.435003   2.022332
    16  O    3.425253   4.101174   4.428548   2.414236   3.338824
    17  H    2.522809   3.651457   3.863958   2.727481   3.563689
    18  H    3.583722   3.410879   4.100749   1.958774   2.820386
                   11         12         13         14         15
    11  H    0.000000
    12  C    2.170177   0.000000
    13  H    3.046972   1.092194   0.000000
    14  H    2.400702   1.094226   1.775389   0.000000
    15  O    2.043799   2.449593   2.829249   3.361765   0.000000
    16  O    2.804161   1.404132   2.062431   2.041988   2.757383
    17  H    3.345336   1.895605   2.119584   2.786780   2.632037
    18  H    2.272933   2.630233   3.185552   3.531026   0.962400
                   16         17         18
    16  O    0.000000
    17  H    0.983494   0.000000
    18  H    2.433395   2.301132   0.000000
 Symmetry turned off by external request.
 Stoichiometry    C2H9O6Si(1-)
 Framework group  C1[X(C2H9O6Si)]
 Deg. of freedom    48
 Full point group                 C1      NOp   1
 Rotational constants (GHZ):           1.8391411           1.0124071           0.8696182
 Standard basis: def2TZVPP (5D, 7F)
   416 basis functions,   630 primitive gaussians,   471 cartesian basis functions
    42 alpha electrons       42 beta electrons
       nuclear repulsion energy       640.9772799571 Hartrees.
 NAtoms=   18 NActive=   18 NUniq=   18 SFac= 1.00D+00 NAtFMM=   60 NAOKFM=F Big=F
 Integral buffers will be    131072 words long.
 Raffenetti 2 integral format.
 Two-electron integral symmetry is turned off.
 Nuclear repulsion after empirical dispersion term =      640.9666463358 Hartrees.
 One-electron integrals computed using PRISM.
   1 Symmetry operations used in ECPInt.
 ECPInt:  NShTT=   12246 NPrTT=   33908 LenC2=   11761 LenP2D=   25609.
 LDataN:  DoStor=T MaxTD1= 6 Len=  172
 NBasis=   416 RedAO= T EigKep=  2.03D-04  NBF=   416
 NBsUse=   416 1.00D-06 EigRej= -1.00D+00 NBFU=   416
 Initial guess from the checkpoint file:  "IRCAttemptEGAttackAxialDeprotonatedSi_Reverse.chk"
 B after Tr=    -0.067915    0.044489    0.033854
         Rot=    1.000000   -0.000013   -0.000010    0.000001 Ang=  -0.00 deg.
 ExpMin= 7.01D-02 ExpMax= 4.48D+04 ExpMxC= 1.53D+03 IAcc=3 IRadAn=         5 AccDes= 0.00D+00
 Harris functional with IExCor= 4639 and IRadAn=       5 diagonalized for initial guess.
 HarFok:  IExCor= 4639 AccDes= 0.00D+00 IRadAn=         5 IDoV= 1 UseB2=F ITyADJ=14
 ICtDFT=  3500011 ScaDFX=  1.000000  1.000000  1.000000  1.000000
 FoFCou: FMM=F IPFlag=           0 FMFlag=      100000 FMFlg1=           0
         NFxFlg=           0 DoJE=T BraDBF=F KetDBF=T FulRan=T
         wScrn=  0.000000 ICntrl=       500 IOpCl=  0 I1Cent=   200000004 NGrid=           0
         NMat0=    1 NMatS0=      1 NMatT0=    0 NMatD0=    1 NMtDS0=    0 NMtDT0=    0
 Symmetry not used in FoFCou.
 Requested convergence on RMS density matrix=1.00D-08 within 128 cycles.
 Requested convergence on MAX density matrix=1.00D-06.
 Requested convergence on             energy=1.00D-06.
 No special actions if energy rises.
 Integral accuracy reduced to 1.0D-05 until final iterations.
 Initial convergence to 1.0D-05 achieved.  Increase integral accuracy.
 SCF Done:  E(RwB97XD) =  -822.729164344     A.U. after   11 cycles
            NFock= 11  Conv=0.63D-08     -V/T= 2.0034
 DoSCS=F DFT=T ScalE2(SS,OS)=  1.000000  1.000000
 Range of M.O.s used for correlation:     1   416
 NBasis=   416 NAE=    42 NBE=    42 NFC=     0 NFV=     0
 NROrb=    416 NOA=    42 NOB=    42 NVA=   374 NVB=   374

 **** Warning!!: The largest alpha MO coefficient is  0.12106936D+02

 Symmetrizing basis deriv contribution to polar:
 IMax=3 JMax=2 DiffMx= 0.00D+00
   1 Symmetry operations used in ECPInt.
 ECPInt:  NShTT=   12246 NPrTT=   33908 LenC2=   11761 LenP2D=   25609.
 LDataN:  DoStor=T MaxTD1= 7 Len=  274
 Calling FoFJK, ICntrl=      2127 FMM=F ISym2X=0 I1Cent= 0 IOpClX= 0 NMat=1 NMatS=1 NMatT=0.
 -------------------------------------------------------------------
 Center     Atomic                   Forces (Hartrees/Bohr)
 Number     Number              X              Y              Z
 -------------------------------------------------------------------
      1       14          -0.000863947   -0.000783060   -0.000338348
      2        8          -0.000196003   -0.000394314   -0.000052962
      3        8          -0.000101849    0.001188824   -0.000020406
      4        1          -0.000214178    0.000021681    0.000033347
      5        8           0.000389248   -0.000256727    0.000406716
      6        1           0.000296835    0.000270225    0.000220339
      7        8           0.000339481   -0.000024168   -0.000196569
      8        1          -0.000042270   -0.000052062   -0.000008602
      9        6           0.000021401    0.000030967    0.000043228
     10        1           0.000002613   -0.000000603   -0.000003549
     11        1          -0.000000217    0.000003071   -0.000002701
     12        6           0.000072303    0.000035967   -0.000014105
     13        1           0.000003447    0.000000314    0.000004240
     14        1           0.000002176    0.000003473   -0.000013054
     15        8          -0.000047203   -0.000034544   -0.000043624
     16        8           0.000308476   -0.000022038   -0.000018991
     17        1           0.000034146    0.000002815    0.000011078
     18        1          -0.000004460    0.000010180   -0.000006038
 -------------------------------------------------------------------
 Cartesian Forces:  Max     0.001188824 RMS     0.000272401
 IRC-IRC-IRC-IRC-IRC-IRC-IRC-IRC-IRC-IRC-IRC-IRC-IRC-IRC-IRC-IRC-IRC-IRC
 Pt  1 Step number   1 out of a maximum of 100
 Modified Bulirsch-Stoer Extrapolation Cycles:
    EPS =    0.000010000000000
      PEZero:  N= 2 I= 1 D=  6.89D-04 Err=  3.56D-02
      PEZero:  N= 3 I= 2 D=  6.89D-04 Err=  5.16D-02
      PEZero:  N= 3 I= 1 D=  1.38D-03 Err=  4.18D-02
      PEZero:  N= 4 I= 3 D=  3.45D-04 Err=  3.05D-02
      PEZero:  N= 4 I= 2 D=  1.03D-03 Err=  1.09D-02
      PEZero:  N= 4 I= 1 D=  1.72D-03 Err=  3.81D-02
      PEZero:  N= 5 I= 4 D=  3.45D-04 Err=  3.01D-03
      PEZero:  N= 5 I= 3 D=  6.89D-04 Err=  2.60D-02
      PEZero:  N= 6 I= 5 D=  1.72D-04 Err=  3.39D-04
      PEZero:  N= 6 I= 4 D=  5.17D-04 Err=  2.56D-03
      PEZero:  N= 7 I= 6 D=  1.72D-04 Err=  2.20D-04
      PEZero:  N= 7 I= 5 D=  3.45D-04 Err=  8.93D-06
      PEZero:  N= 7 I= 4 D=  6.89D-04 Err=  5.44D-03
 Maximum DWI energy   std dev =  0.000000334 at pt    48
 Maximum DWI gradient std dev =  0.418036982 at pt     7
 CORRECTOR INTEGRATION CONVERGENCE:
   Recorrection delta-x convergence threshold:    0.010000
   Delta-x Convergence NOT Met
 IRC-IRC-IRC-IRC-IRC-IRC-IRC-IRC-IRC-IRC-IRC-IRC-IRC-IRC-IRC-IRC-IRC-IRC
                          Input orientation:                          
 ---------------------------------------------------------------------
 Center     Atomic      Atomic             Coordinates (Angstroms)
 Number     Number       Type             X           Y           Z
 ---------------------------------------------------------------------
      1         14           0        0.917603   -0.480427   -0.123832
      2          8           0        1.691510   -1.628986   -0.771227
      3          8           0        2.200755    1.730343    0.407146
      4          1           0        3.094623    1.647684    0.082309
      5          8           0        0.416226    0.836139   -0.987697
      6          1           0        1.145993    1.479971   -0.585010
      7          8           0        0.838079   -0.199366    1.497116
      8          1           0        1.414324    0.595687    1.555884
      9          6           0       -2.006465   -0.712758    0.719756
     10          1           0       -1.693442   -0.902243    1.743403
     11          1           0       -2.920799   -1.270228    0.500890
     12          6           0       -2.204064    0.777930    0.473511
     13          1           0       -1.395602    1.327052    0.961103
     14          1           0       -3.153524    1.081123    0.925101
     15          8           0       -0.971148   -1.256155   -0.112069
     16          8           0       -2.240610    1.060852   -0.901324
     17          1           0       -1.291897    1.142038   -1.147773
     18          1           0       -1.244062   -1.155002   -1.029410
 ---------------------------------------------------------------------
                    Distance matrix (angstroms):
                    1          2          3          4          5
     1  Si   0.000000
     2  O    1.528804   0.000000
     3  O    2.610732   3.596246   0.000000
     4  H    3.051354   3.665217   0.954647   0.000000
     5  O    1.652569   2.783891   2.435104   2.996218   0.000000
     6  H    2.026821   3.161942   1.469553   2.066543   1.053202
     7  O    1.647055   2.813812   2.601671   3.241182   2.724797
     8  H    2.055772   3.231323   1.795972   2.470127   2.742958
     9  C    3.052178   4.091152   4.875159   5.656777   3.344235
    10  H    3.237599   4.278950   4.886805   5.673352   3.864140
    11  H    3.968298   4.797956   5.936542   6.698859   4.217631
    12  C    3.418345   4.745326   4.507097   5.383827   3.000739
    13  H    3.129694   4.611875   3.661052   4.586633   2.705834
    14  H    4.484727   5.804875   5.418309   6.330137   4.057330
    15  O    2.041879   2.768256   4.387450   5.000055   2.658801
    16  O    3.599214   4.765892   4.678252   5.456795   2.667721
    17  H    2.926216   4.089142   3.868139   4.583703   1.742666
    18  H    2.438835   2.984778   4.717592   5.283479   2.592863
                    6          7          8          9         10
     6  H    0.000000
     7  O    2.692625   0.000000
     8  H    2.331820   0.983677   0.000000
     9  C    4.055671   2.993208   3.756719   0.000000
    10  H    4.377081   2.638805   3.455020   1.087079   0.000000
    11  H    5.028078   4.033407   4.836108   1.093015   1.784841
    12  C    3.582766   3.355221   3.781200   1.523756   2.167104
    13  H    2.978852   2.758005   2.963839   2.142948   2.381272
    14  H    4.574425   4.230809   4.636676   2.139140   2.595226
    15  O    3.491753   2.641889   3.449907   1.434954   2.022310
    16  O    3.427068   4.101097   4.428633   2.414212   3.338820
    17  H    2.524720   3.651246   3.864181   2.727369   3.563597
    18  H    3.585099   3.410555   4.100691   1.958678   2.820340
                   11         12         13         14         15
    11  H    0.000000
    12  C    2.170118   0.000000
    13  H    3.046947   1.092195   0.000000
    14  H    2.400618   1.094228   1.775406   0.000000
    15  O    2.043784   2.449589   2.829279   3.361749   0.000000
    16  O    2.804068   1.404120   2.062410   2.041973   2.757351
    17  H    3.345211   1.895570   2.119515   2.786785   2.631899
    18  H    2.273003   2.629944   3.185232   3.530781   0.962408
                   16         17         18
    16  O    0.000000
    17  H    0.983557   0.000000
    18  H    2.433008   2.300586   0.000000
 Symmetry turned off by external request.
 Stoichiometry    C2H9O6Si(1-)
 Framework group  C1[X(C2H9O6Si)]
 Deg. of freedom    48
 Full point group                 C1      NOp   1
 Rotational constants (GHZ):           1.8393785           1.0124841           0.8696787
 Standard basis: def2TZVPP (5D, 7F)
   416 basis functions,   630 primitive gaussians,   471 cartesian basis functions
    42 alpha electrons       42 beta electrons
       nuclear repulsion energy       640.9957588940 Hartrees.
 NAtoms=   18 NActive=   18 NUniq=   18 SFac= 1.00D+00 NAtFMM=   60 NAOKFM=F Big=F
 Integral buffers will be    131072 words long.
 Raffenetti 2 integral format.
 Two-electron integral symmetry is turned off.
 Nuclear repulsion after empirical dispersion term =      640.9851270137 Hartrees.
 One-electron integrals computed using PRISM.
   1 Symmetry operations used in ECPInt.
 ECPInt:  NShTT=   12246 NPrTT=   33908 LenC2=   11761 LenP2D=   25610.
 LDataN:  DoStor=T MaxTD1= 6 Len=  172
 NBasis=   416 RedAO= T EigKep=  2.03D-04  NBF=   416
 NBsUse=   416 1.00D-06 EigRej= -1.00D+00 NBFU=   416
 Initial guess from the checkpoint file:  "IRCAttemptEGAttackAxialDeprotonatedSi_Reverse.chk"
 B after Tr=     0.000007   -0.000006    0.000026
         Rot=    1.000000   -0.000018    0.000019    0.000008 Ang=  -0.00 deg.
 ExpMin= 7.01D-02 ExpMax= 4.48D+04 ExpMxC= 1.53D+03 IAcc=3 IRadAn=         5 AccDes= 0.00D+00
 Harris functional with IExCor= 4639 and IRadAn=       5 diagonalized for initial guess.
 HarFok:  IExCor= 4639 AccDes= 0.00D+00 IRadAn=         5 IDoV= 1 UseB2=F ITyADJ=14
 ICtDFT=  3500011 ScaDFX=  1.000000  1.000000  1.000000  1.000000
 FoFCou: FMM=F IPFlag=           0 FMFlag=      100000 FMFlg1=           0
         NFxFlg=           0 DoJE=T BraDBF=F KetDBF=T FulRan=T
         wScrn=  0.000000 ICntrl=       500 IOpCl=  0 I1Cent=   200000004 NGrid=           0
         NMat0=    1 NMatS0=      1 NMatT0=    0 NMatD0=    1 NMtDS0=    0 NMtDT0=    0
 Symmetry not used in FoFCou.
 Requested convergence on RMS density matrix=1.00D-08 within 128 cycles.
 Requested convergence on MAX density matrix=1.00D-06.
 Requested convergence on             energy=1.00D-06.
 No special actions if energy rises.
 Integral accuracy reduced to 1.0D-05 until final iterations.
 Initial convergence to 1.0D-05 achieved.  Increase integral accuracy.
 SCF Done:  E(RwB97XD) =  -822.729165427     A.U. after    9 cycles
            NFock=  9  Conv=0.55D-08     -V/T= 2.0034
 DoSCS=F DFT=T ScalE2(SS,OS)=  1.000000  1.000000
 Range of M.O.s used for correlation:     1   416
 NBasis=   416 NAE=    42 NBE=    42 NFC=     0 NFV=     0
 NROrb=    416 NOA=    42 NOB=    42 NVA=   374 NVB=   374

 **** Warning!!: The largest alpha MO coefficient is  0.12116852D+02

 Symmetrizing basis deriv contribution to polar:
 IMax=3 JMax=2 DiffMx= 0.00D+00
   1 Symmetry operations used in ECPInt.
 ECPInt:  NShTT=   12246 NPrTT=   33908 LenC2=   11761 LenP2D=   25610.
 LDataN:  DoStor=T MaxTD1= 7 Len=  274
 Calling FoFJK, ICntrl=      2127 FMM=F ISym2X=0 I1Cent= 0 IOpClX= 0 NMat=1 NMatS=1 NMatT=0.
 -------------------------------------------------------------------
 Center     Atomic                   Forces (Hartrees/Bohr)
 Number     Number              X              Y              Z
 -------------------------------------------------------------------
      1       14          -0.000922848   -0.000907183   -0.000327241
      2        8          -0.000168800   -0.000365660   -0.000031270
      3        8          -0.000229294    0.001269885    0.000017892
      4        1          -0.000063783    0.000030076   -0.000050738
      5        8           0.000535605    0.000003562    0.000474119
      6        1           0.000164520    0.000063346    0.000149269
      7        8           0.000281852   -0.000123276   -0.000161846
      8        1           0.000001566    0.000007970   -0.000022538
      9        6           0.000008264    0.000025515    0.000032819
     10        1           0.000003656    0.000000224    0.000001413
     11        1           0.000000498    0.000002405    0.000003122
     12        6           0.000070588    0.000030855   -0.000012349
     13        1           0.000002186    0.000001384    0.000004954
     14        1           0.000001644    0.000003836   -0.000009696
     15        8          -0.000052448   -0.000036962   -0.000052504
     16        8           0.000345399   -0.000017307   -0.000024961
     17        1           0.000027234    0.000003514    0.000010438
     18        1          -0.000005836    0.000007817   -0.000000883
 -------------------------------------------------------------------
 Cartesian Forces:  Max     0.001269885 RMS     0.000286760
 IRC-IRC-IRC-IRC-IRC-IRC-IRC-IRC-IRC-IRC-IRC-IRC-IRC-IRC-IRC-IRC-IRC-IRC
 Error in corrector energy =           0.0000001849
 Magnitude of corrector gradient =     0.0021273765
 Magnitude of analytic gradient =      0.0021072493
 Magnitude of difference =             0.0001630668
 Angle between gradients (degrees)=    4.3801
 Pt  1 Step number   2 out of a maximum of 100
 Modified Bulirsch-Stoer Extrapolation Cycles:
    EPS =    0.000010000000000
      PEZero:  N= 2 I= 1 D=  6.89D-04 Err=  3.60D-02
      PEZero:  N= 3 I= 2 D=  6.89D-04 Err=  5.15D-02
      PEZero:  N= 3 I= 1 D=  1.38D-03 Err=  4.12D-02
      PEZero:  N= 4 I= 3 D=  3.45D-04 Err=  2.97D-02
      PEZero:  N= 4 I= 2 D=  1.03D-03 Err=  1.19D-02
      PEZero:  N= 4 I= 1 D=  1.72D-03 Err=  3.90D-02
      PEZero:  N= 5 I= 4 D=  3.45D-04 Err=  3.27D-03
      PEZero:  N= 5 I= 3 D=  6.89D-04 Err=  2.48D-02
      PEZero:  N= 6 I= 5 D=  1.72D-04 Err=  3.43D-04
      PEZero:  N= 6 I= 4 D=  5.17D-04 Err=  2.81D-03
      PEZero:  N= 7 I= 6 D=  1.72D-04 Err=  2.21D-04
      PEZero:  N= 7 I= 5 D=  3.45D-04 Err=  1.03D-05
      PEZero:  N= 7 I= 4 D=  6.89D-04 Err=  5.95D-03
      PEZero:  N= 8 I= 7 D=  8.62D-05 Err=  1.65D-04
      PEZero:  N= 8 I= 6 D=  2.59D-04 Err=  1.98D-06
      PEZero:  N= 8 I= 5 D=  4.31D-04 Err=  3.79D-06
 Maximum DWI energy   std dev =  0.000000367 at pt     3
 Maximum DWI gradient std dev =  0.496618613 at pt     7
 CORRECTOR INTEGRATION CONVERGENCE:
   Recorrection delta-x convergence threshold:    0.010000
   Delta-x Convergence Met
 Point Number:   1          Path Number:   1
   CHANGE IN THE REACTION COORDINATE =    0.26422
   NET REACTION COORDINATE UP TO THIS POINT =    0.26422
  # OF POINTS ALONG THE PATH =   1
  # OF STEPS =   2

 Calculating another point on the path.
 IRC-IRC-IRC-IRC-IRC-IRC-IRC-IRC-IRC-IRC-IRC-IRC-IRC-IRC-IRC-IRC-IRC-IRC
                          Input orientation:                          
 ---------------------------------------------------------------------
 Center     Atomic      Atomic             Coordinates (Angstroms)
 Number     Number       Type             X           Y           Z
 ---------------------------------------------------------------------
      1         14           0        0.908566   -0.489295   -0.126873
      2          8           0        1.688744   -1.635080   -0.771700
      3          8           0        2.196649    1.751909    0.407290
      4          1           0        3.083438    1.656988    0.065207
      5          8           0        0.426472    0.837530   -0.979026
      6          1           0        1.170581    1.476262   -0.552789
      7          8           0        0.842837   -0.201445    1.494279
      8          1           0        1.414430    0.597038    1.548866
      9          6           0       -2.006309   -0.712210    0.720560
     10          1           0       -1.692293   -0.902179    1.743750
     11          1           0       -2.920577   -1.269606    0.501817
     12          6           0       -2.202501    0.778587    0.473275
     13          1           0       -1.394974    1.327451    0.962635
     14          1           0       -3.153084    1.082172    0.922253
     15          8           0       -0.972038   -1.256816   -0.112957
     16          8           0       -2.234709    1.060516   -0.901736
     17          1           0       -1.284552    1.143515   -1.144579
     18          1           0       -1.246002   -1.152904   -1.029915
 ---------------------------------------------------------------------
                    Distance matrix (angstroms):
                    1          2          3          4          5
     1  Si   0.000000
     2  O    1.528824   0.000000
     3  O    2.639599   3.622110   0.000000
     4  H    3.061616   3.671961   0.955210   0.000000
     5  O    1.648952   2.783903   2.427239   2.970084   0.000000
     6  H    2.028169   3.161782   1.431974   2.018317   1.069277
     7  O    1.647821   2.811678   2.613416   3.242886   2.714787
     8  H    2.060126   3.231505   1.802439   2.471907   2.724726
     9  C    3.043737   4.090471   4.882098   5.652266   3.347942
    10  H    3.230197   4.277388   4.894301   5.672253   3.863841
    11  H    3.958090   4.795963   5.943441   6.693562   4.223228
    12  C    3.412688   4.745265   4.506021   5.373942   3.004023
    13  H    3.129519   4.614523   3.659006   4.579317   2.706978
    14  H    4.479640   5.804846   5.416029   6.321324   4.060533
    15  O    2.031245   2.767090   4.400416   4.996887   2.663117
    16  O    3.589221   4.761999   4.672099   5.438147   2.671625
    17  H    2.917457   4.086577   3.859689   4.561422   1.746034
    18  H    2.428585   2.985281   4.728144   5.276252   2.600305
                    6          7          8          9         10
     6  H    0.000000
     7  O    2.666947   0.000000
     8  H    2.291168   0.983500   0.000000
     9  C    4.062445   2.996191   3.755220   0.000000
    10  H    4.373457   2.641998   3.455049   1.087020   0.000000
    11  H    5.038805   4.035993   4.834558   1.092897   1.784960
    12  C    3.594056   3.358124   3.777835   1.523849   2.167808
    13  H    2.983408   2.761878   2.961405   2.143024   2.381133
    14  H    4.585317   4.235832   4.635750   2.139061   2.597387
    15  O    3.500569   2.644010   3.448718   1.435640   2.022844
    16  O    3.448276   4.099357   4.420009   2.413830   3.338411
    17  H    2.547275   3.646680   3.851984   2.728259   3.562803
    18  H    3.602782   3.411757   4.097597   1.958684   2.820507
                   11         12         13         14         15
    11  H    0.000000
    12  C    2.170609   0.000000
    13  H    3.047052   1.092165   0.000000
    14  H    2.400352   1.094236   1.775597   0.000000
    15  O    2.043261   2.449607   2.830938   3.361471   0.000000
    16  O    2.805325   1.403987   2.062108   2.042258   2.754368
    17  H    3.348187   1.895589   2.118107   2.786929   2.631254
    18  H    2.272449   2.627761   3.185061   3.527533   0.962635
                   16         17         18
    16  O    0.000000
    17  H    0.984206   0.000000
    18  H    2.427592   2.299603   0.000000
 Symmetry turned off by external request.
 Stoichiometry    C2H9O6Si(1-)
 Framework group  C1[X(C2H9O6Si)]
 Deg. of freedom    48
 Full point group                 C1      NOp   1
 Rotational constants (GHZ):           1.8295304           1.0157726           0.8686362
 Standard basis: def2TZVPP (5D, 7F)
   416 basis functions,   630 primitive gaussians,   471 cartesian basis functions
    42 alpha electrons       42 beta electrons
       nuclear repulsion energy       641.0030472268 Hartrees.
 NAtoms=   18 NActive=   18 NUniq=   18 SFac= 1.00D+00 NAtFMM=   60 NAOKFM=F Big=F
 Integral buffers will be    131072 words long.
 Raffenetti 2 integral format.
 Two-electron integral symmetry is turned off.
 Nuclear repulsion after empirical dispersion term =      640.9924373911 Hartrees.
 One-electron integrals computed using PRISM.
   1 Symmetry operations used in ECPInt.
 ECPInt:  NShTT=   12246 NPrTT=   33908 LenC2=   11762 LenP2D=   25604.
 LDataN:  DoStor=T MaxTD1= 6 Len=  172
 NBasis=   416 RedAO= T EigKep=  2.04D-04  NBF=   416
 NBsUse=   416 1.00D-06 EigRej= -1.00D+00 NBFU=   416
 Initial guess from the checkpoint file:  "IRCAttemptEGAttackAxialDeprotonatedSi_Reverse.chk"
 B after Tr=     0.000234    0.000138    0.000118
         Rot=    1.000000   -0.000038    0.000016    0.000014 Ang=  -0.01 deg.
 ExpMin= 7.01D-02 ExpMax= 4.48D+04 ExpMxC= 1.53D+03 IAcc=3 IRadAn=         5 AccDes= 0.00D+00
 Harris functional with IExCor= 4639 and IRadAn=       5 diagonalized for initial guess.
 HarFok:  IExCor= 4639 AccDes= 0.00D+00 IRadAn=         5 IDoV= 1 UseB2=F ITyADJ=14
 ICtDFT=  3500011 ScaDFX=  1.000000  1.000000  1.000000  1.000000
 FoFCou: FMM=F IPFlag=           0 FMFlag=      100000 FMFlg1=           0
         NFxFlg=           0 DoJE=T BraDBF=F KetDBF=T FulRan=T
         wScrn=  0.000000 ICntrl=       500 IOpCl=  0 I1Cent=   200000004 NGrid=           0
         NMat0=    1 NMatS0=      1 NMatT0=    0 NMatD0=    1 NMtDS0=    0 NMtDT0=    0
 Symmetry not used in FoFCou.
 Requested convergence on RMS density matrix=1.00D-08 within 128 cycles.
 Requested convergence on MAX density matrix=1.00D-06.
 Requested convergence on             energy=1.00D-06.
 No special actions if energy rises.
 Integral accuracy reduced to 1.0D-05 until final iterations.
 Initial convergence to 1.0D-05 achieved.  Increase integral accuracy.
 SCF Done:  E(RwB97XD) =  -822.729379142     A.U. after   11 cycles
            NFock= 11  Conv=0.64D-08     -V/T= 2.0034
 DoSCS=F DFT=T ScalE2(SS,OS)=  1.000000  1.000000
 Range of M.O.s used for correlation:     1   416
 NBasis=   416 NAE=    42 NBE=    42 NFC=     0 NFV=     0
 NROrb=    416 NOA=    42 NOB=    42 NVA=   374 NVB=   374

 **** Warning!!: The largest alpha MO coefficient is  0.12100220D+02

 Symmetrizing basis deriv contribution to polar:
 IMax=3 JMax=2 DiffMx= 0.00D+00
   1 Symmetry operations used in ECPInt.
 ECPInt:  NShTT=   12246 NPrTT=   33908 LenC2=   11762 LenP2D=   25604.
 LDataN:  DoStor=T MaxTD1= 7 Len=  274
 Calling FoFJK, ICntrl=      2127 FMM=F ISym2X=0 I1Cent= 0 IOpClX= 0 NMat=1 NMatS=1 NMatT=0.
 -------------------------------------------------------------------
 Center     Atomic                   Forces (Hartrees/Bohr)
 Number     Number              X              Y              Z
 -------------------------------------------------------------------
      1       14          -0.001710988   -0.001444566   -0.000762527
      2        8          -0.000352248   -0.000770342   -0.000055876
      3        8          -0.000132808    0.002315170   -0.000318800
      4        1          -0.000596918    0.000058514    0.000096187
      5        8           0.000526683   -0.000783029    0.000769012
      6        1           0.000950408    0.000898729    0.000636019
      7        8           0.000607809   -0.000189802   -0.000304773
      8        1          -0.000077990   -0.000086472   -0.000003680
      9        6           0.000021910    0.000047165    0.000066322
     10        1           0.000011844    0.000003141    0.000008203
     11        1           0.000000516    0.000003596    0.000015931
     12        6           0.000140699    0.000063990   -0.000036404
     13        1           0.000005733    0.000001833    0.000007261
     14        1           0.000005300    0.000005952   -0.000017497
     15        8          -0.000145815   -0.000098021   -0.000099028
     16        8           0.000682222   -0.000031176   -0.000030135
     17        1           0.000072398   -0.000012373    0.000023201
     18        1          -0.000008756    0.000017691    0.000006584
 -------------------------------------------------------------------
 Cartesian Forces:  Max     0.002315170 RMS     0.000558131
 IRC-IRC-IRC-IRC-IRC-IRC-IRC-IRC-IRC-IRC-IRC-IRC-IRC-IRC-IRC-IRC-IRC-IRC
 Pt  2 Step number   1 out of a maximum of 100
 Modified Bulirsch-Stoer Extrapolation Cycles:
    EPS =    0.000010000000000
      PEZero:  N= 2 I= 1 D=  1.38D-03 Err=  7.01D-02
      PEZero:  N= 3 I= 2 D=  1.38D-03 Err=  8.66D-02
      PEZero:  N= 3 I= 1 D=  2.76D-03 Err=  5.98D-02
      PEZero:  N= 4 I= 3 D=  6.89D-04 Err=  3.11D-02
      PEZero:  N= 4 I= 2 D=  2.07D-03 Err=  4.52D-02
      PEZero:  N= 5 I= 4 D=  6.89D-04 Err=  4.22D-05
      PEZero:  N= 5 I= 3 D=  1.38D-03 Err=  3.11D-02
      PEZero:  N= 6 I= 5 D=  3.45D-04 Err=  3.16D-05
      PEZero:  N= 6 I= 4 D=  1.03D-03 Err=  2.00D-07
      PEZero:  N= 6 I= 3 D=  1.72D-03 Err=  3.59D-02
 Maximum DWI energy   std dev =  0.000003217 at pt   190
 Maximum DWI gradient std dev =  0.452728233 at pt   144
 CORRECTOR INTEGRATION CONVERGENCE:
   Recorrection delta-x convergence threshold:    0.010000
   Delta-x Convergence NOT Met
 IRC-IRC-IRC-IRC-IRC-IRC-IRC-IRC-IRC-IRC-IRC-IRC-IRC-IRC-IRC-IRC-IRC-IRC
                          Input orientation:                          
 ---------------------------------------------------------------------
 Center     Atomic      Atomic             Coordinates (Angstroms)
 Number     Number       Type             X           Y           Z
 ---------------------------------------------------------------------
      1         14           0        0.908915   -0.488557   -0.127136
      2          8           0        1.688919   -1.634891   -0.771440
      3          8           0        2.196041    1.751056    0.406345
      4          1           0        3.081648    1.655989    0.062685
      5          8           0        0.426922    0.837631   -0.978504
      6          1           0        1.175141    1.477391   -0.547776
      7          8           0        0.842499   -0.201825    1.494556
      8          1           0        1.413225    0.596262    1.551333
      9          6           0       -2.006334   -0.712248    0.720563
     10          1           0       -1.692280   -0.902074    1.743786
     11          1           0       -2.920722   -1.269579    0.502078
     12          6           0       -2.202554    0.778570    0.473239
     13          1           0       -1.395012    1.327426    0.962601
     14          1           0       -3.153135    1.082163    0.922225
     15          8           0       -0.972206   -1.256976   -0.112857
     16          8           0       -2.234680    1.060557   -0.901724
     17          1           0       -1.284239    1.142926   -1.144356
     18          1           0       -1.245856   -1.152312   -1.029821
 ---------------------------------------------------------------------
                    Distance matrix (angstroms):
                    1          2          3          4          5
     1  Si   0.000000
     2  O    1.528926   0.000000
     3  O    2.637642   3.620633   0.000000
     4  H    3.058738   3.669516   0.954694   0.000000
     5  O    1.648004   2.783680   2.425270   2.966708   0.000000
     6  H    2.027995   3.162324   1.423895   2.009808   1.074547
     7  O    1.648184   2.811555   2.613430   3.242763   2.714627
     8  H    2.061170   3.232542   1.804812   2.474415   2.726010
     9  C    3.044226   4.090506   4.881245   5.650567   3.348087
    10  H    3.230722   4.277369   4.893555   5.670994   3.863736
    11  H    3.958791   4.796258   5.942614   6.691820   4.223645
    12  C    3.412814   4.745269   4.505312   5.372263   3.004195
    13  H    3.129441   4.614417   3.658489   4.578022   2.706886
    14  H    4.479796   5.804857   5.415462   6.319858   4.060711
    15  O    2.032065   2.767334   4.399501   4.994989   2.663509
    16  O    3.589141   4.762043   4.671094   5.435805   2.672025
    17  H    2.916573   4.085952   3.858347   4.558635   1.746077
    18  H    2.428672   2.985389   4.726390   5.273273   2.600133
                    6          7          8          9         10
     6  H    0.000000
     7  O    2.664870   0.000000
     8  H    2.288959   0.982799   0.000000
     9  C    4.065094   2.995905   3.754432   0.000000
    10  H    4.374382   2.641509   3.453435   1.087038   0.000000
    11  H    5.042235   4.035708   4.833776   1.092913   1.784928
    12  C    3.597172   3.358066   3.777483   1.523880   2.167772
    13  H    2.984864   2.761890   2.960979   2.143028   2.381027
    14  H    4.588145   4.235715   4.635032   2.139096   2.597356
    15  O    3.503857   2.643913   3.448812   1.435527   2.022767
    16  O    3.453391   4.099366   4.420438   2.413876   3.338390
    17  H    2.552709   3.646262   3.852518   2.727822   3.562287
    18  H    3.606789   3.411323   4.097631   1.958526   2.820427
                   11         12         13         14         15
    11  H    0.000000
    12  C    2.170602   0.000000
    13  H    3.047016   1.092174   0.000000
    14  H    2.400256   1.094240   1.775608   0.000000
    15  O    2.043286   2.449634   2.830990   3.361460   0.000000
    16  O    2.805504   1.403949   2.062031   2.042257   2.754471
    17  H    3.347985   1.895434   2.117918   2.786973   2.630757
    18  H    2.272805   2.627311   3.184508   3.527190   0.962632
                   16         17         18
    16  O    0.000000
    17  H    0.984375   0.000000
    18  H    2.427133   2.298415   0.000000
 Symmetry turned off by external request.
 Stoichiometry    C2H9O6Si(1-)
 Framework group  C1[X(C2H9O6Si)]
 Deg. of freedom    48
 Full point group                 C1      NOp   1
 Rotational constants (GHZ):           1.8301156           1.0158390           0.8687644
 Standard basis: def2TZVPP (5D, 7F)
   416 basis functions,   630 primitive gaussians,   471 cartesian basis functions
    42 alpha electrons       42 beta electrons
       nuclear repulsion energy       641.0372322494 Hartrees.
 NAtoms=   18 NActive=   18 NUniq=   18 SFac= 1.00D+00 NAtFMM=   60 NAOKFM=F Big=F
 Integral buffers will be    131072 words long.
 Raffenetti 2 integral format.
 Two-electron integral symmetry is turned off.
 Nuclear repulsion after empirical dispersion term =      641.0266274749 Hartrees.
 One-electron integrals computed using PRISM.
   1 Symmetry operations used in ECPInt.
 ECPInt:  NShTT=   12246 NPrTT=   33908 LenC2=   11762 LenP2D=   25604.
 LDataN:  DoStor=T MaxTD1= 6 Len=  172
 NBasis=   416 RedAO= T EigKep=  2.04D-04  NBF=   416
 NBsUse=   416 1.00D-06 EigRej= -1.00D+00 NBFU=   416
 Initial guess from the checkpoint file:  "IRCAttemptEGAttackAxialDeprotonatedSi_Reverse.chk"
 B after Tr=     0.000058    0.000022    0.000078
         Rot=    1.000000   -0.000014    0.000007    0.000004 Ang=  -0.00 deg.
 ExpMin= 7.01D-02 ExpMax= 4.48D+04 ExpMxC= 1.53D+03 IAcc=3 IRadAn=         5 AccDes= 0.00D+00
 Harris functional with IExCor= 4639 and IRadAn=       5 diagonalized for initial guess.
 HarFok:  IExCor= 4639 AccDes= 0.00D+00 IRadAn=         5 IDoV= 1 UseB2=F ITyADJ=14
 ICtDFT=  3500011 ScaDFX=  1.000000  1.000000  1.000000  1.000000
 FoFCou: FMM=F IPFlag=           0 FMFlag=      100000 FMFlg1=           0
         NFxFlg=           0 DoJE=T BraDBF=F KetDBF=T FulRan=T
         wScrn=  0.000000 ICntrl=       500 IOpCl=  0 I1Cent=   200000004 NGrid=           0
         NMat0=    1 NMatS0=      1 NMatT0=    0 NMatD0=    1 NMtDS0=    0 NMtDT0=    0
 Symmetry not used in FoFCou.
 Requested convergence on RMS density matrix=1.00D-08 within 128 cycles.
 Requested convergence on MAX density matrix=1.00D-06.
 Requested convergence on             energy=1.00D-06.
 No special actions if energy rises.
 Integral accuracy reduced to 1.0D-05 until final iterations.
 Initial convergence to 1.0D-05 achieved.  Increase integral accuracy.
 SCF Done:  E(RwB97XD) =  -822.729389493     A.U. after   10 cycles
            NFock= 10  Conv=0.43D-08     -V/T= 2.0034
 DoSCS=F DFT=T ScalE2(SS,OS)=  1.000000  1.000000
 Range of M.O.s used for correlation:     1   416
 NBasis=   416 NAE=    42 NBE=    42 NFC=     0 NFV=     0
 NROrb=    416 NOA=    42 NOB=    42 NVA=   374 NVB=   374

 **** Warning!!: The largest alpha MO coefficient is  0.12093990D+02

 Symmetrizing basis deriv contribution to polar:
 IMax=3 JMax=2 DiffMx= 0.00D+00
   1 Symmetry operations used in ECPInt.
 ECPInt:  NShTT=   12246 NPrTT=   33908 LenC2=   11762 LenP2D=   25604.
 LDataN:  DoStor=T MaxTD1= 7 Len=  274
 Calling FoFJK, ICntrl=      2127 FMM=F ISym2X=0 I1Cent= 0 IOpClX= 0 NMat=1 NMatS=1 NMatT=0.
 -------------------------------------------------------------------
 Center     Atomic                   Forces (Hartrees/Bohr)
 Number     Number              X              Y              Z
 -------------------------------------------------------------------
      1       14          -0.001921998   -0.001665867   -0.000869763
      2        8          -0.000286738   -0.000731870    0.000024209
      3        8          -0.000706462    0.002567888   -0.000296247
      4        1          -0.000130459    0.000023002   -0.000174157
      5        8           0.001052419   -0.000167398    0.001106680
      6        1           0.000685158    0.000417646    0.000489609
      7        8           0.000510013   -0.000407653   -0.000259730
      8        1          -0.000013242    0.000003725    0.000010665
      9        6           0.000012713    0.000042187    0.000086703
     10        1           0.000005932    0.000001914    0.000003669
     11        1          -0.000002390    0.000004168    0.000011182
     12        6           0.000138524    0.000058272   -0.000027831
     13        1           0.000002276    0.000001673    0.000008862
     14        1          -0.000000640    0.000005785   -0.000016002
     15        8          -0.000175702   -0.000138570   -0.000078697
     16        8           0.000774628   -0.000035227   -0.000041451
     17        1           0.000061543   -0.000006271    0.000019717
     18        1          -0.000005576    0.000026595    0.000002581
 -------------------------------------------------------------------
 Cartesian Forces:  Max     0.002567888 RMS     0.000601056
 IRC-IRC-IRC-IRC-IRC-IRC-IRC-IRC-IRC-IRC-IRC-IRC-IRC-IRC-IRC-IRC-IRC-IRC
 Error in corrector energy =           0.0000026917
 Magnitude of corrector gradient =     0.0045569123
 Magnitude of analytic gradient =      0.0044168441
 Magnitude of difference =             0.0009142549
 Angle between gradients (degrees)=   11.5579
 Pt  2 Step number   2 out of a maximum of 100
 Modified Bulirsch-Stoer Extrapolation Cycles:
    EPS =    0.000010000000000
      PEZero:  N= 2 I= 1 D=  1.38D-03 Err=  6.89D-02
      PEZero:  N= 3 I= 2 D=  1.38D-03 Err=  8.45D-02
      PEZero:  N= 3 I= 1 D=  2.76D-03 Err=  5.78D-02
      PEZero:  N= 4 I= 3 D=  6.89D-04 Err=  3.36D-02
      PEZero:  N= 4 I= 2 D=  2.07D-03 Err=  3.97D-02
      PEZero:  N= 5 I= 4 D=  6.89D-04 Err=  5.82D-05
      PEZero:  N= 5 I= 3 D=  1.38D-03 Err=  3.36D-02
      PEZero:  N= 6 I= 5 D=  3.45D-04 Err=  4.36D-05
      PEZero:  N= 6 I= 4 D=  1.03D-03 Err=  3.42D-07
      PEZero:  N= 6 I= 3 D=  1.72D-03 Err=  3.47D-02
 Maximum DWI energy   std dev =  0.000004093 at pt   198
 Maximum DWI gradient std dev =  0.582187445 at pt   142
 CORRECTOR INTEGRATION CONVERGENCE:
   Recorrection delta-x convergence threshold:    0.010000
   Delta-x Convergence Met
 Point Number:   2          Path Number:   1
   CHANGE IN THE REACTION COORDINATE =    0.26361
   NET REACTION COORDINATE UP TO THIS POINT =    0.52783
  # OF POINTS ALONG THE PATH =   2
  # OF STEPS =   2

 Calculating another point on the path.
 IRC-IRC-IRC-IRC-IRC-IRC-IRC-IRC-IRC-IRC-IRC-IRC-IRC-IRC-IRC-IRC-IRC-IRC
                          Input orientation:                          
 ---------------------------------------------------------------------
 Center     Atomic      Atomic             Coordinates (Angstroms)
 Number     Number       Type             X           Y           Z
 ---------------------------------------------------------------------
      1         14           0        0.900723   -0.495418   -0.130719
      2          8           0        1.687157   -1.639983   -0.770905
      3          8           0        2.190597    1.769807    0.402927
      4          1           0        3.065639    1.661955    0.034131
      5          8           0        0.438373    0.840025   -0.968221
      6          1           0        1.210020    1.475007   -0.504323
      7          8           0        0.845783   -0.205452    1.492727
      8          1           0        1.410283    0.594768    1.551282
      9          6           0       -2.006407   -0.711912    0.721463
     10          1           0       -1.691352   -0.901894    1.744313
     11          1           0       -2.921016   -1.268982    0.503614
     12          6           0       -2.201281    0.779068    0.472972
     13          1           0       -1.394720    1.327687    0.964183
     14          1           0       -3.153055    1.083040    0.919251
     15          8           0       -0.973640   -1.258167   -0.113419
     16          8           0       -2.228722    1.060222   -0.902083
     17          1           0       -1.276257    1.143505   -1.140529
     18          1           0       -1.247578   -1.148567   -1.029991
 ---------------------------------------------------------------------
                    Distance matrix (angstroms):
                    1          2          3          4          5
     1  Si   0.000000
     2  O    1.529165   0.000000
     3  O    2.660789   3.641154   0.000000
     4  H    3.060766   3.667572   0.955688   0.000000
     5  O    1.642737   2.783673   2.411397   2.929642   0.000000
     6  H    2.029241   3.162576   1.368043   1.941186   1.101745
     7  O    1.650053   2.808882   2.626373   3.246916   2.704675
     8  H    2.068159   3.234706   1.818881   2.486129   2.711579
     9  C    3.037185   4.090341   4.886230   5.642102   3.352684
    10  H    3.224875   4.276145   4.899677   5.668069   3.863658
    11  H    3.950503   4.795550   5.947518   6.682128   4.230804
    12  C    3.407519   4.745417   4.502784   5.358406   3.008077
    13  H    3.129150   4.616878   3.655814   4.568537   2.707809
    14  H    4.475163   5.805095   5.412288   6.307989   4.064476
    15  O    2.023690   2.767293   4.409947   4.986446   2.669621
    16  O    3.578889   4.758405   4.662290   5.410068   2.676987
    17  H    2.906033   4.082432   3.846243   4.527767   1.749784
    18  H    2.418779   2.986852   4.731935   5.256922   2.607824
                    6          7          8          9         10
     6  H    0.000000
     7  O    2.635302   0.000000
     8  H    2.245093   0.981040   0.000000
     9  C    4.078059   2.997723   3.750971   0.000000
    10  H    4.373097   2.642988   3.449260   1.087003   0.000000
    11  H    5.060718   4.037105   4.830251   1.092838   1.784982
    12  C    3.616132   3.360621   3.773607   1.524055   2.168402
    13  H    2.993807   2.765814   2.958023   2.143138   2.380677
    14  H    4.606150   4.240259   4.632702   2.139106   2.599474
    15  O    3.520144   2.645413   3.447852   1.435977   2.023168
    16  O    3.486432   4.097515   4.413390   2.413665   3.337975
    17  H    2.587706   3.640985   3.842455   2.728132   3.560657
    18  H    3.633078   3.411119   4.094681   1.958080   2.820380
                   11         12         13         14         15
    11  H    0.000000
    12  C    2.171052   0.000000
    13  H    3.047030   1.092159   0.000000
    14  H    2.399709   1.094275   1.775842   0.000000
    15  O    2.042822   2.449751   2.832874   3.361177   0.000000
    16  O    2.807213   1.403773   2.061564   2.042589   2.751754
    17  H    3.350901   1.895223   2.116074   2.787243   2.629555
    18  H    2.273068   2.623780   3.182799   3.522847   0.962891
                   16         17         18
    16  O    0.000000
    17  H    0.985385   0.000000
[...]
      5          8           0        0.442513    0.828057   -0.957129
      6          1           0        1.472962    1.581177   -0.277441
      7          8           0        0.848400   -0.213494    1.495524
      8          1           0        1.381534    0.583563    1.603195
      9          6           0       -2.006511   -0.712408    0.721820
     10          1           0       -1.693028   -0.902146    1.745576
     11          1           0       -2.923810   -1.266822    0.506156
     12          6           0       -2.200933    0.779469    0.471505
     13          1           0       -1.394297    1.327105    0.964572
     14          1           0       -3.154201    1.082295    0.917537
     15          8           0       -0.977990   -1.263857   -0.110995
     16          8           0       -2.221774    1.060500   -0.901685
     17          1           0       -1.253134    1.121023   -1.129802
     18          1           0       -1.237336   -1.121012   -1.027838
 ---------------------------------------------------------------------
                    Distance matrix (angstroms):
                    1          2          3          4          5
     1  Si   0.000000
     2  O    1.534163   0.000000
     3  O    2.685020   3.659029   0.000000
     4  H    3.042037   3.641201   0.948650   0.000000
     5  O    1.613038   2.776187   2.408717   2.876416   0.000000
     6  H    2.160435   3.269220   1.003493   1.582415   1.446026
     7  O    1.665805   2.804484   2.651538   3.251550   2.695381
     8  H    2.113374   3.265795   1.890554   2.553017   2.738028
     9  C    3.027820   4.092446   4.896919   5.618072   3.345089
    10  H    3.224365   4.278137   4.914696   5.657378   3.854705
    11  H    3.941779   4.801268   5.958763   6.656635   4.226328
    12  C    3.395872   4.748466   4.505999   5.329502   3.005190
    13  H    3.122372   4.619176   3.658473   4.547251   2.704785
    14  H    4.465287   5.808416   5.415816   6.283937   4.063910
    15  O    2.017086   2.773889   4.429177   4.962871   2.666435
    16  O    3.556010   4.758398   4.654953   5.361043   2.674982
    17  H    2.855066   4.055420   3.823511   4.459283   1.729412
    18  H    2.383150   2.986129   4.715997   5.193181   2.574056
                    6          7          8          9         10
     6  H    0.000000
     7  O    2.598909   0.000000
     8  H    2.130818   0.964948   0.000000
     9  C    4.285533   2.999675   3.732989   0.000000
    10  H    4.503664   2.644924   3.417679   1.087358   0.000000
    11  H    5.296860   4.039544   4.812837   1.093308   1.784369
    12  C    3.834210   3.366456   3.762070   1.525174   2.170035
    13  H    3.135017   2.772192   2.943795   2.143209   2.380917
    14  H    4.804945   4.246641   4.614299   2.139265   2.599746
    15  O    3.758868   2.649503   3.452356   1.433713   2.022120
    16  O    3.783102   4.098249   4.414263   2.413568   3.337595
    17  H    2.893072   3.617972   3.834007   2.712480   3.543235
    18  H    3.900082   3.397240   4.084898   1.954454   2.819111
                   11         12         13         14         15
    11  H    0.000000
    12  C    2.170497   0.000000
    13  H    3.045982   1.092557   0.000000
    14  H    2.395968   1.095156   1.777472   0.000000
    15  O    2.041347   2.451546   2.836060   3.361280   0.000000
    16  O    2.809146   1.401808   2.058813   2.044374   2.752240
    17  H    3.342053   1.891868   2.109218   2.794128   2.607934
    18  H    2.284424   2.605452   3.160319   3.509048   0.963466
                   16         17         18
    16  O    0.000000
    17  H    0.996977   0.000000
    18  H    2.396671   2.244408   0.000000
 Symmetry turned off by external request.
 Stoichiometry    C2H9O6Si(1-)
 Framework group  C1[X(C2H9O6Si)]
 Deg. of freedom    48
 Full point group                 C1      NOp   1
 Rotational constants (GHZ):           1.8144132           1.0212427           0.8664575
 Standard basis: def2TZVPP (5D, 7F)
   416 basis functions,   630 primitive gaussians,   471 cartesian basis functions
    42 alpha electrons       42 beta electrons
       nuclear repulsion energy       641.2171434283 Hartrees.
 NAtoms=   18 NActive=   18 NUniq=   18 SFac= 1.00D+00 NAtFMM=   60 NAOKFM=F Big=F
 Integral buffers will be    131072 words long.
 Raffenetti 2 integral format.
 Two-electron integral symmetry is turned off.
 Nuclear repulsion after empirical dispersion term =      641.2068391625 Hartrees.
 One-electron integrals computed using PRISM.
   1 Symmetry operations used in ECPInt.
 ECPInt:  NShTT=   12246 NPrTT=   33908 LenC2=   11757 LenP2D=   25557.
 LDataN:  DoStor=T MaxTD1= 6 Len=  172
 NBasis=   416 RedAO= T EigKep=  2.07D-04  NBF=   416
 NBsUse=   416 1.00D-06 EigRej= -1.00D+00 NBFU=   416
 Initial guess from the checkpoint file:  "IRCAttemptEGAttackAxialDeprotonatedSi_Reverse.chk"
 B after Tr=     0.000016    0.000090    0.000353
         Rot=    1.000000   -0.000100    0.000084   -0.000026 Ang=  -0.02 deg.
 ExpMin= 7.01D-02 ExpMax= 4.48D+04 ExpMxC= 1.53D+03 IAcc=3 IRadAn=         5 AccDes= 0.00D+00
 Harris functional with IExCor= 4639 and IRadAn=       5 diagonalized for initial guess.
 HarFok:  IExCor= 4639 AccDes= 0.00D+00 IRadAn=         5 IDoV= 1 UseB2=F ITyADJ=14
 ICtDFT=  3500011 ScaDFX=  1.000000  1.000000  1.000000  1.000000
 FoFCou: FMM=F IPFlag=           0 FMFlag=      100000 FMFlg1=           0
         NFxFlg=           0 DoJE=T BraDBF=F KetDBF=T FulRan=T
         wScrn=  0.000000 ICntrl=       500 IOpCl=  0 I1Cent=   200000004 NGrid=           0
         NMat0=    1 NMatS0=      1 NMatT0=    0 NMatD0=    1 NMtDS0=    0 NMtDT0=    0
 Symmetry not used in FoFCou.
 Requested convergence on RMS density matrix=1.00D-08 within 128 cycles.
 Requested convergence on MAX density matrix=1.00D-06.
 Requested convergence on             energy=1.00D-06.
 No special actions if energy rises.
 Integral accuracy reduced to 1.0D-05 until final iterations.
 Initial convergence to 1.0D-05 achieved.  Increase integral accuracy.
 SCF Done:  E(RwB97XD) =  -822.738296678     A.U. after   11 cycles
            NFock= 11  Conv=0.81D-08     -V/T= 2.0032
 DoSCS=F DFT=T ScalE2(SS,OS)=  1.000000  1.000000
 Range of M.O.s used for correlation:     1   416
 NBasis=   416 NAE=    42 NBE=    42 NFC=     0 NFV=     0
 NROrb=    416 NOA=    42 NOB=    42 NVA=   374 NVB=   374

 **** Warning!!: The largest alpha MO coefficient is  0.12762096D+02

 Symmetrizing basis deriv contribution to polar:
 IMax=3 JMax=2 DiffMx= 0.00D+00
   1 Symmetry operations used in ECPInt.
 ECPInt:  NShTT=   12246 NPrTT=   33908 LenC2=   11757 LenP2D=   25557.
 LDataN:  DoStor=T MaxTD1= 7 Len=  274
 Calling FoFJK, ICntrl=      2127 FMM=F ISym2X=0 I1Cent= 0 IOpClX= 0 NMat=1 NMatS=1 NMatT=0.
 -------------------------------------------------------------------
 Center     Atomic                   Forces (Hartrees/Bohr)
 Number     Number              X              Y              Z
 -------------------------------------------------------------------
      1       14          -0.013134611    0.002152427   -0.014656797
      2        8           0.002045737   -0.001908365    0.004205951
      3        8           0.020394198    0.021053819    0.021323662
      4        1           0.004187553   -0.001415670   -0.004322688
      5        8          -0.008304434   -0.012323117   -0.000469493
      6        1          -0.007347320    0.001908550   -0.010920711
      7        8           0.000881419   -0.005519367    0.001262361
      8        1          -0.000819171   -0.000209383    0.001792160
      9        6          -0.000360199   -0.000263145    0.000370557
     10        1          -0.000081116    0.000006251    0.000037791
     11        1          -0.000124175    0.000079051    0.000077093
     12        6           0.000108578    0.000068792   -0.000498630
     13        1          -0.000016183   -0.000032773    0.000035705
     14        1          -0.000042355   -0.000044893   -0.000050867
     15        8          -0.002744973   -0.003807645    0.001510402
     16        8           0.004546717    0.000151680    0.000126191
     17        1           0.000518710   -0.000991541    0.000248664
     18        1           0.000291626    0.001095329   -0.000071351
 -------------------------------------------------------------------
 Cartesian Forces:  Max     0.021323662 RMS     0.006458654
 IRC-IRC-IRC-IRC-IRC-IRC-IRC-IRC-IRC-IRC-IRC-IRC-IRC-IRC-IRC-IRC-IRC-IRC
 Error in corrector energy =          -0.0007599268
 Magnitude of corrector gradient =     0.0289051396
 Magnitude of analytic gradient =      0.0474612212
 Magnitude of difference =             0.0311038856
 Angle between gradients (degrees)=   39.3856
 Pt  6 Step number  99 out of a maximum of 100
 Modified Bulirsch-Stoer Extrapolation Cycles:
    EPS =    0.000010000000000
      PEZero:  N= 2 I= 1 D=  1.37D-03 Err=  5.33D-04
      PEZero:  N= 3 I= 2 D=  1.37D-03 Err=  3.53D-04
      PEZero:  N= 3 I= 1 D=  2.75D-03 Err=  5.49D-06
 Maximum DWI energy   std dev =  0.000141260 at pt    12
 Maximum DWI gradient std dev =  0.716320051 at pt    26
 CORRECTOR INTEGRATION CONVERGENCE:
   Recorrection delta-x convergence threshold:    0.010000
   Delta-x Convergence NOT Met
 IRC-IRC-IRC-IRC-IRC-IRC-IRC-IRC-IRC-IRC-IRC-IRC-IRC-IRC-IRC-IRC-IRC-IRC
                          Input orientation:                          
 ---------------------------------------------------------------------
 Center     Atomic      Atomic             Coordinates (Angstroms)
 Number     Number       Type             X           Y           Z
 ---------------------------------------------------------------------
      1         14           0        0.886041   -0.493729   -0.145898
      2          8           0        1.690769   -1.644110   -0.764609
      3          8           0        2.192513    1.792907    0.398005
      4          1           0        3.028964    1.647695   -0.047911
      5          8           0        0.441913    0.827660   -0.958026
      6          1           0        1.456504    1.576095   -0.306516
      7          8           0        0.848120   -0.213908    1.495567
      8          1           0        1.380931    0.582555    1.608119
      9          6           0       -2.006617   -0.712396    0.721919
     10          1           0       -1.693184   -0.902161    1.745642
     11          1           0       -2.923971   -1.266688    0.506240
     12          6           0       -2.200962    0.779451    0.471582
     13          1           0       -1.394387    1.327110    0.964693
     14          1           0       -3.154307    1.082175    0.917329
     15          8           0       -0.977943   -1.263817   -0.111034
     16          8           0       -2.221502    1.060470   -0.901707
     17          1           0       -1.252847    1.117935   -1.129413
     18          1           0       -1.236542   -1.117408   -1.028108
 ---------------------------------------------------------------------
                    Distance matrix (angstroms):
                    1          2          3          4          5
     1  Si   0.000000
     2  O    1.534199   0.000000
     3  O    2.689126   3.662854   0.000000
     4  H    3.031074   3.624969   0.958946   0.000000
     5  O    1.613341   2.776094   2.415600   2.862446   0.000000
     6  H    2.152997   3.261050   1.041665   1.595190   1.419160
     7  O    1.665576   2.804270   2.653176   3.256374   2.696291
     8  H    2.116572   3.268620   1.894199   2.567678   2.743525
     9  C    3.027935   4.092496   4.900424   5.614244   3.345039
    10  H    3.224460   4.278199   4.917129   5.658381   3.854963
    11  H    3.941946   4.801388   5.962486   6.651176   4.226055
    12  C    3.395859   4.748409   4.509449   5.326898   3.005145
    13  H    3.122374   4.619180   3.661141   4.549085   2.705235
    14  H    4.465237   5.808297   5.418794   6.283657   4.063808
    15  O    2.017100   2.773772   4.433337   4.953402   2.666020
    16  O    3.555785   4.758089   4.659318   5.351746   2.674164
    17  H    2.852999   4.053005   3.828721   4.447943   1.727960
    18  H    2.381729   2.985967   4.718278   5.176980   2.570100
                    6          7          8          9         10
     6  H    0.000000
     7  O    2.611846   0.000000
     8  H    2.158392   0.964837   0.000000
     9  C    4.276456   2.999424   3.733326   0.000000
    10  H    4.502625   2.644703   3.416647   1.087317   0.000000
    11  H    5.284935   4.039280   4.813109   1.093296   1.784330
    12  C    3.823236   3.366335   3.763036   1.525138   2.169996
    13  H    3.131381   2.772256   2.944613   2.143209   2.380926
    14  H    4.795971   4.246601   4.614672   2.139127   2.599725
    15  O    3.745644   2.649148   3.453819   1.433892   2.022278
    16  O    3.761363   4.097992   4.416463   2.413584   3.337588
    17  H    2.868389   3.616406   3.836339   2.710297   3.541274
    18  H    3.876616   3.395742   4.085429   1.954391   2.819315
                   11         12         13         14         15
    11  H    0.000000
    12  C    2.170398   0.000000
    13  H    3.045914   1.092544   0.000000
    14  H    2.395664   1.095080   1.777514   0.000000
    15  O    2.041582   2.451563   2.836109   3.361215   0.000000
    16  O    2.809171   1.401898   2.058802   2.044380   2.752074
    17  H    3.339826   1.891211   2.109282   2.793919   2.604882
    18  H    2.285590   2.603315   3.157821   3.507237   0.964019
                   16         17         18
    16  O    0.000000
    17  H    0.996717   0.000000
    18  H    2.393590   2.237696   0.000000
 Symmetry turned off by external request.
 Stoichiometry    C2H9O6Si(1-)
 Framework group  C1[X(C2H9O6Si)]
 Deg. of freedom    48
 Full point group                 C1      NOp   1
 Rotational constants (GHZ):           1.8133614           1.0207582           0.8662317
 Standard basis: def2TZVPP (5D, 7F)
   416 basis functions,   630 primitive gaussians,   471 cartesian basis functions
    42 alpha electrons       42 beta electrons
       nuclear repulsion energy       640.9976072989 Hartrees.
 NAtoms=   18 NActive=   18 NUniq=   18 SFac= 1.00D+00 NAtFMM=   60 NAOKFM=F Big=F
 Integral buffers will be    131072 words long.
 Raffenetti 2 integral format.
 Two-electron integral symmetry is turned off.
 Nuclear repulsion after empirical dispersion term =      640.9872908665 Hartrees.
 One-electron integrals computed using PRISM.
   1 Symmetry operations used in ECPInt.
 ECPInt:  NShTT=   12246 NPrTT=   33908 LenC2=   11756 LenP2D=   25554.
 LDataN:  DoStor=T MaxTD1= 6 Len=  172
 NBasis=   416 RedAO= T EigKep=  2.07D-04  NBF=   416
 NBsUse=   416 1.00D-06 EigRej= -1.00D+00 NBFU=   416
 Initial guess from the checkpoint file:  "IRCAttemptEGAttackAxialDeprotonatedSi_Reverse.chk"
 B after Tr=    -0.000016   -0.000090   -0.000353
         Rot=    1.000000    0.000100   -0.000084    0.000026 Ang=   0.02 deg.
 ExpMin= 7.01D-02 ExpMax= 4.48D+04 ExpMxC= 1.53D+03 IAcc=3 IRadAn=         5 AccDes= 0.00D+00
 Harris functional with IExCor= 4639 and IRadAn=       5 diagonalized for initial guess.
 HarFok:  IExCor= 4639 AccDes= 0.00D+00 IRadAn=         5 IDoV= 1 UseB2=F ITyADJ=14
 ICtDFT=  3500011 ScaDFX=  1.000000  1.000000  1.000000  1.000000
 FoFCou: FMM=F IPFlag=           0 FMFlag=      100000 FMFlg1=           0
         NFxFlg=           0 DoJE=T BraDBF=F KetDBF=T FulRan=T
         wScrn=  0.000000 ICntrl=       500 IOpCl=  0 I1Cent=   200000004 NGrid=           0
         NMat0=    1 NMatS0=      1 NMatT0=    0 NMatD0=    1 NMtDS0=    0 NMtDT0=    0
 Symmetry not used in FoFCou.
 Requested convergence on RMS density matrix=1.00D-08 within 128 cycles.
 Requested convergence on MAX density matrix=1.00D-06.
 Requested convergence on             energy=1.00D-06.
 No special actions if energy rises.
 Integral accuracy reduced to 1.0D-05 until final iterations.
 Initial convergence to 1.0D-05 achieved.  Increase integral accuracy.
 SCF Done:  E(RwB97XD) =  -822.738877336     A.U. after   11 cycles
            NFock= 11  Conv=0.95D-08     -V/T= 2.0033
 DoSCS=F DFT=T ScalE2(SS,OS)=  1.000000  1.000000
 Range of M.O.s used for correlation:     1   416
 NBasis=   416 NAE=    42 NBE=    42 NFC=     0 NFV=     0
 NROrb=    416 NOA=    42 NOB=    42 NVA=   374 NVB=   374

 **** Warning!!: The largest alpha MO coefficient is  0.12854758D+02

 Symmetrizing basis deriv contribution to polar:
 IMax=3 JMax=2 DiffMx= 0.00D+00
   1 Symmetry operations used in ECPInt.
 ECPInt:  NShTT=   12246 NPrTT=   33908 LenC2=   11756 LenP2D=   25554.
 LDataN:  DoStor=T MaxTD1= 7 Len=  274
 Calling FoFJK, ICntrl=      2127 FMM=F ISym2X=0 I1Cent= 0 IOpClX= 0 NMat=1 NMatS=1 NMatT=0.
 -------------------------------------------------------------------
 Center     Atomic                   Forces (Hartrees/Bohr)
 Number     Number              X              Y              Z
 -------------------------------------------------------------------
      1       14          -0.011564150    0.000954052   -0.012270012
      2        8           0.001611604   -0.001429303    0.003956106
      3        8           0.015534737    0.014266695   -0.000335625
      4        1          -0.003197977    0.000553362    0.002229188
      5        8          -0.006667074   -0.010008040   -0.000690668
      6        1           0.002425757    0.004632645    0.003630055
      7        8           0.000231693   -0.005815422    0.000886072
      8        1          -0.000363233    0.000114579    0.001104555
      9        6          -0.000445446   -0.000249674    0.000489279
     10        1          -0.000049479    0.000010983    0.000030883
     11        1          -0.000075824    0.000054175    0.000039966
     12        6           0.000066611    0.000041072   -0.000333376
     13        1          -0.000040469   -0.000011759    0.000066969
     14        1          -0.000018543   -0.000017892   -0.000067197
     15        8          -0.002595753   -0.003247142    0.000745999
     16        8           0.004806027   -0.000090797    0.000069674
     17        1           0.000101541   -0.000525890    0.000099205
     18        1           0.000239976    0.000768356    0.000348927
 -------------------------------------------------------------------
 Cartesian Forces:  Max     0.015534737 RMS     0.004367935
 IRC-IRC-IRC-IRC-IRC-IRC-IRC-IRC-IRC-IRC-IRC-IRC-IRC-IRC-IRC-IRC-IRC-IRC
 Error in corrector energy =          -0.0004359037
 Magnitude of corrector gradient =     0.0351565156
 Magnitude of analytic gradient =      0.0320976325
 Magnitude of difference =             0.0134995030
 Angle between gradients (degrees)=   22.5719
 Pt  6 Step number 100 out of a maximum of 100
 Modified Bulirsch-Stoer Extrapolation Cycles:
    EPS =    0.000010000000000
      PEZero:  N= 2 I= 1 D=  1.37D-03 Err=  5.86D-04
      PEZero:  N= 3 I= 2 D=  1.37D-03 Err=  3.90D-04
      PEZero:  N= 3 I= 1 D=  2.75D-03 Err=  2.66D-06
 Maximum DWI energy   std dev =  0.000308748 at pt    48
 Maximum DWI gradient std dev =  0.577719119 at pt    35
 CORRECTOR INTEGRATION CONVERGENCE:
   Recorrection delta-x convergence threshold:    0.010000
   Delta-x Convergence NOT Met
 Maximum number of corrector steps exceded.
 Error termination via Lnk1e in /opt/software/gaussian/g16.c01/l123.exe at Sun Oct 15 03:32:17 2023.
 Job cpu time:       2 days 14 hours 41 minutes 10.7 seconds.
 Elapsed time:       0 days  3 hours 56 minutes 37.3 seconds.
 File lengths (MBytes):  RWF=    265 Int=      0 D2E=      0 Chk=     15 Scr=      1
