 Entering Gaussian System, Link 0=/opt/software/gaussian/g16.c01/g16
 Initial command:
 /opt/software/gaussian/g16.c01/l1.exe "/scratch/arhender/17972277/Gau-29336.inp" -scrdir="/scratch/arhender/17972277/"
 Entering Link 1 = /opt/software/gaussian/g16.c01/l1.exe PID=     29345.
  
 Copyright (c) 1988-2019, Gaussian, Inc.  All Rights Reserved.
  
 This is part of the Gaussian(R) 16 program.  It is based on
 the Gaussian(R) 09 system (copyright 2009, Gaussian, Inc.),
 the Gaussian(R) 03 system (copyright 2003, Gaussian, Inc.),
 the Gaussian(R) 98 system (copyright 1998, Gaussian, Inc.),
 the Gaussian(R) 94 system (copyright 1995, Gaussian, Inc.),
 the Gaussian 92(TM) system (copyright 1992, Gaussian, Inc.),
 the Gaussian 90(TM) system (copyright 1990, Gaussian, Inc.),
 the Gaussian 88(TM) system (copyright 1988, Gaussian, Inc.),
 the Gaussian 86(TM) system (copyright 1986, Carnegie Mellon
 University), and the Gaussian 82(TM) system (copyright 1983,
 Carnegie Mellon University). Gaussian is a federally registered
 trademark of Gaussian, Inc.
  
 This software contains proprietary and confidential information,
 including trade secrets, belonging to Gaussian, Inc.
  
 This software is provided under written license and may be
 used, copied, transmitted, or stored only in accord with that
 written license.
  
 The following legend is applicable only to US Government
 contracts under FAR:
  
                    RESTRICTED RIGHTS LEGEND
  
 Use, reproduction and disclosure by the US Government is
 subject to restrictions as set forth in subparagraphs (a)
 and (c) of the Commercial Computer Software - Restricted
 Rights clause in FAR 52.227-19.
  
 Gaussian, Inc.
 340 Quinnipiac St., Bldg. 40, Wallingford CT 06492
  
  
 ---------------------------------------------------------------
 Warning -- This program may not be used in any manner that
 competes with the business of Gaussian, Inc. or will provide
 assistance to any competitor of Gaussian, Inc.  The licensee
 of this program is prohibited from giving any competitor of
 Gaussian, Inc. access to this program.  By using this program,
 the user acknowledges that Gaussian, Inc. is engaged in the
 business of creating and licensing software in the field of
 computational chemistry and represents and warrants to the
 licensee that it is not a competitor of Gaussian, Inc. and that
 it will not use this program in any manner prohibited above.
 ---------------------------------------------------------------
  

 Cite this work as:
 Gaussian 16, Revision C.01,
 M. J. Frisch, G. W. Trucks, H. B. Schlegel, G. E. Scuseria, 
 M. A. Robb, J. R. Cheeseman, G. Scalmani, V. Barone, 
 G. A. Petersson, H. Nakatsuji, X. Li, M. Caricato, A. V. Marenich, 
 J. Bloino, B. G. Janesko, R. Gomperts, B. Mennucci, H. P. Hratchian, 
 J. V. Ortiz, A. F. Izmaylov, J. L. Sonnenberg, D. Williams-Young, 
 F. Ding, F. Lipparini, F. Egidi, J. Goings, B. Peng, A. Petrone, 
 T. Henderson, D. Ranasinghe, V. G. Zakrzewski, J. Gao, N. Rega, 
 G. Zheng, W. Liang, M. Hada, M. Ehara, K. Toyota, R. Fukuda, 
 J. Hasegawa, M. Ishida, T. Nakajima, Y. Honda, O. Kitao, H. Nakai, 
 T. Vreven, K. Throssell, J. A. Montgomery, Jr., J. E. Peralta, 
 F. Ogliaro, M. J. Bearpark, J. J. Heyd, E. N. Brothers, K. N. Kudin, 
 V. N. Staroverov, T. A. Keith, R. Kobayashi, J. Normand, 
 K. Raghavachari, A. P. Rendell, J. C. Burant, S. S. Iyengar, 
 J. Tomasi, M. Cossi, J. M. Millam, M. Klene, C. Adamo, R. Cammi, 
 J. W. Ochterski, R. L. Martin, K. Morokuma, O. Farkas, 
 J. B. Foresman, and D. J. Fox, Gaussian, Inc., Wallingford CT, 2019.
 
 ******************************************
 Gaussian 16:  ES64L-G16RevC.01  3-Jul-2019
                20-Mar-2024 
 ******************************************
 %chk=IRC_EGdepattackQbiL_forward_ProductOpt.chk
 %mem=1600MB
 %nprocs=4
 Will use up to    4 processors via shared memory.
 ---------------------------------------------
 # opt freq wb97xd/def2tzvpp geom=connectivity
 ---------------------------------------------
 1/18=20,19=15,26=3,38=1,57=2/1,3;
 2/9=110,12=2,17=6,18=5,40=1/2;
 3/5=44,7=202,11=2,25=1,30=1,71=1,74=-58/1,2,3;
 4//1;
 5/5=2,38=5/2;
 6/7=2,8=2,9=2,10=2,28=1/1;
 7//1,2,3,16;
 1/18=20,19=15,26=3/3(2);
 2/9=110/2;
 99//99;
 2/9=110/2;
 3/5=44,7=202,11=2,25=1,30=1,71=1,74=-58/1,2,3;
 4/5=5,16=3,69=1/1;
 5/5=2,38=5/2;
 7//1,2,3,16;
 1/18=20,19=15,26=3/3(-5);
 2/9=110/2;
 6/7=2,8=2,9=2,10=2,19=2,28=1/1;
 99/9=1/99;
 ----------------------------
 IRC for EGOdep attack on QL2
 ----------------------------
 Symbolic Z-matrix:
 Charge = -1 Multiplicity = 1
 Si                    0.80484   0.51951  -0.11561 
 O                     1.65405  -0.67149  -0.97426 
 O                     1.95273   1.26944   0.89829 
 H                     2.09717   0.69293   1.64517 
 O                     0.74157   1.97101  -0.9816 
 O                     0.3968   -0.60737   1.19368 
 C                    -1.8465   -0.67069  -0.58953 
 H                    -1.47146  -1.69246  -0.45584 
 H                    -2.49482  -0.68128  -1.47763 
 C                    -2.68738  -0.30044   0.6265 
 H                    -2.12023  -0.53231   1.53372 
 H                    -3.62263  -0.86887   0.634 
 O                    -0.85402   0.2731   -0.80558 
 H                     0.01698   1.90546  -1.60072 
 O                    -3.01139   1.07419   0.58515 
 H                    -2.23054   1.47703   0.18562 
 C                     0.75929  -1.90638   0.87009 
 H                    -0.0769   -2.60606   1.02564 
 H                     1.58117  -2.24506   1.52151 
 C                     1.22304  -1.94675  -0.60956 
 H                     2.0409   -2.6661   -0.73376 
 H                     0.4007   -2.27403  -1.26091 
 

 GradGradGradGradGradGradGradGradGradGradGradGradGradGradGradGradGradGrad
 Berny optimization.
 Initialization pass.
                           ----------------------------
                           !    Initial Parameters    !
                           ! (Angstroms and Degrees)  !
 --------------------------                            --------------------------
 ! Name  Definition              Value          Derivative Info.                !
 --------------------------------------------------------------------------------
 ! R1    R(1,2)                  1.6961         estimate D2E/DX2                !
 ! R2    R(1,3)                  1.7053         estimate D2E/DX2                !
 ! R3    R(1,5)                  1.6914         estimate D2E/DX2                !
 ! R4    R(1,6)                  1.775          estimate D2E/DX2                !
 ! R5    R(1,13)                 1.8134         estimate D2E/DX2                !
 ! R6    R(2,20)                 1.3947         estimate D2E/DX2                !
 ! R7    R(3,4)                  0.9545         estimate D2E/DX2                !
 ! R8    R(5,14)                 0.9553         estimate D2E/DX2                !
 ! R9    R(6,17)                 1.3869         estimate D2E/DX2                !
 ! R10   R(7,8)                  1.0966         estimate D2E/DX2                !
 ! R11   R(7,9)                  1.0996         estimate D2E/DX2                !
 ! R12   R(7,10)                 1.5241         estimate D2E/DX2                !
 ! R13   R(7,13)                 1.3865         estimate D2E/DX2                !
 ! R14   R(10,11)                1.0947         estimate D2E/DX2                !
 ! R15   R(10,12)                1.0945         estimate D2E/DX2                !
 ! R16   R(10,15)                1.4129         estimate D2E/DX2                !
 ! R17   R(15,16)                0.9652         estimate D2E/DX2                !
 ! R18   R(17,18)                1.1013         estimate D2E/DX2                !
 ! R19   R(17,19)                1.1021         estimate D2E/DX2                !
 ! R20   R(17,20)                1.5511         estimate D2E/DX2                !
 ! R21   R(20,21)                1.0963         estimate D2E/DX2                !
 ! R22   R(20,22)                1.0989         estimate D2E/DX2                !
 ! A1    A(2,1,3)              105.8289         estimate D2E/DX2                !
 ! A2    A(2,1,5)              111.2311         estimate D2E/DX2                !
 ! A3    A(2,1,6)               92.4485         estimate D2E/DX2                !
 ! A4    A(2,1,13)              99.7858         estimate D2E/DX2                !
 ! A5    A(3,1,5)               87.2606         estimate D2E/DX2                !
 ! A6    A(3,1,6)               89.7342         estimate D2E/DX2                !
 ! A7    A(3,1,13)             154.3851         estimate D2E/DX2                !
 ! A8    A(5,1,6)              156.0483         estimate D2E/DX2                !
 ! A9    A(5,1,13)              83.5454         estimate D2E/DX2                !
 ! A10   A(6,1,13)              89.0889         estimate D2E/DX2                !
 ! A11   A(1,2,20)             110.7906         estimate D2E/DX2                !
 ! A12   A(1,3,4)              107.5464         estimate D2E/DX2                !
 ! A13   A(1,5,14)             107.536          estimate D2E/DX2                !
 ! A14   A(1,6,17)             111.2499         estimate D2E/DX2                !
 ! A15   A(8,7,9)              106.9255         estimate D2E/DX2                !
 ! A16   A(8,7,10)             108.5282         estimate D2E/DX2                !
 ! A17   A(8,7,13)             114.1057         estimate D2E/DX2                !
 ! A18   A(9,7,10)             108.7505         estimate D2E/DX2                !
 ! A19   A(9,7,13)             107.6221         estimate D2E/DX2                !
 ! A20   A(10,7,13)            110.7259         estimate D2E/DX2                !
 ! A21   A(7,10,11)            108.8999         estimate D2E/DX2                !
 ! A22   A(7,10,12)            110.5339         estimate D2E/DX2                !
 ! A23   A(7,10,15)            109.8476         estimate D2E/DX2                !
 ! A24   A(11,10,12)           109.088          estimate D2E/DX2                !
 ! A25   A(11,10,15)           110.4333         estimate D2E/DX2                !
 ! A26   A(12,10,15)           108.0309         estimate D2E/DX2                !
 ! A27   A(1,13,7)             133.4717         estimate D2E/DX2                !
 ! A28   A(10,15,16)           103.4528         estimate D2E/DX2                !
 ! A29   A(6,17,18)            111.3237         estimate D2E/DX2                !
 ! A30   A(6,17,19)            110.1713         estimate D2E/DX2                !
 ! A31   A(6,17,20)            108.9702         estimate D2E/DX2                !
 ! A32   A(18,17,19)           106.7083         estimate D2E/DX2                !
 ! A33   A(18,17,20)           110.1932         estimate D2E/DX2                !
 ! A34   A(19,17,20)           109.4448         estimate D2E/DX2                !
 ! A35   A(2,20,17)            108.5451         estimate D2E/DX2                !
 ! A36   A(2,20,21)            109.8652         estimate D2E/DX2                !
 ! A37   A(2,20,22)            110.4014         estimate D2E/DX2                !
 ! A38   A(17,20,21)           110.3772         estimate D2E/DX2                !
 ! A39   A(17,20,22)           110.4526         estimate D2E/DX2                !
 ! A40   A(21,20,22)           107.1994         estimate D2E/DX2                !
 ! D1    D(3,1,2,20)           113.4445         estimate D2E/DX2                !
 ! D2    D(5,1,2,20)          -153.2965         estimate D2E/DX2                !
 ! D3    D(6,1,2,20)            23.0263         estimate D2E/DX2                !
 ! D4    D(13,1,2,20)          -66.4709         estimate D2E/DX2                !
 ! D5    D(2,1,3,4)            -78.3017         estimate D2E/DX2                !
 ! D6    D(5,1,3,4)            170.3972         estimate D2E/DX2                !
 ! D7    D(6,1,3,4)             14.168          estimate D2E/DX2                !
 ! D8    D(13,1,3,4)           101.5054         estimate D2E/DX2                !
 ! D9    D(2,1,5,14)            83.1746         estimate D2E/DX2                !
 ! D10   D(3,1,5,14)          -170.9008         estimate D2E/DX2                !
 ! D11   D(6,1,5,14)           -87.744          estimate D2E/DX2                !
 ! D12   D(13,1,5,14)          -14.8474         estimate D2E/DX2                !
 ! D13   D(2,1,6,17)            -7.9854         estimate D2E/DX2                !
 ! D14   D(3,1,6,17)          -113.8175         estimate D2E/DX2                !
 ! D15   D(5,1,6,17)           163.5464         estimate D2E/DX2                !
 ! D16   D(13,1,6,17)           91.7712         estimate D2E/DX2                !
 ! D17   D(2,1,13,7)            77.2665         estimate D2E/DX2                !
 ! D18   D(3,1,13,7)          -102.5452         estimate D2E/DX2                !
 ! D19   D(5,1,13,7)          -172.2273         estimate D2E/DX2                !
 ! D20   D(6,1,13,7)           -15.0612         estimate D2E/DX2                !
 ! D21   D(1,2,20,17)          -30.4931         estimate D2E/DX2                !
 ! D22   D(1,2,20,21)         -151.2713         estimate D2E/DX2                !
 ! D23   D(1,2,20,22)           90.7055         estimate D2E/DX2                !
 ! D24   D(1,6,17,18)         -129.3294         estimate D2E/DX2                !
 ! D25   D(1,6,17,19)          112.4936         estimate D2E/DX2                !
 ! D26   D(1,6,17,20)           -7.5923         estimate D2E/DX2                !
 ! D27   D(8,7,10,11)           49.8438         estimate D2E/DX2                !
 ! D28   D(8,7,10,12)          -69.9809         estimate D2E/DX2                !
 ! D29   D(8,7,10,15)          170.9013         estimate D2E/DX2                !
 ! D30   D(9,7,10,11)          165.8213         estimate D2E/DX2                !
 ! D31   D(9,7,10,12)           45.9967         estimate D2E/DX2                !
 ! D32   D(9,7,10,15)          -73.1211         estimate D2E/DX2                !
 ! D33   D(13,7,10,11)         -76.1266         estimate D2E/DX2                !
 ! D34   D(13,7,10,12)         164.0487         estimate D2E/DX2                !
 ! D35   D(13,7,10,15)          44.931          estimate D2E/DX2                !
 ! D36   D(8,7,13,1)           -39.1629         estimate D2E/DX2                !
 ! D37   D(9,7,13,1)          -157.6376         estimate D2E/DX2                !
 ! D38   D(10,7,13,1)           83.6246         estimate D2E/DX2                !
 ! D39   D(7,10,15,16)         -34.467          estimate D2E/DX2                !
 ! D40   D(11,10,15,16)         85.6637         estimate D2E/DX2                !
 ! D41   D(12,10,15,16)       -155.109          estimate D2E/DX2                !
 ! D42   D(6,17,20,2)           24.1618         estimate D2E/DX2                !
 ! D43   D(6,17,20,21)         144.623          estimate D2E/DX2                !
 ! D44   D(6,17,20,22)         -97.0054         estimate D2E/DX2                !
 ! D45   D(18,17,20,2)         146.5824         estimate D2E/DX2                !
 ! D46   D(18,17,20,21)        -92.9563         estimate D2E/DX2                !
 ! D47   D(18,17,20,22)         25.4153         estimate D2E/DX2                !
 ! D48   D(19,17,20,2)         -96.3718         estimate D2E/DX2                !
 ! D49   D(19,17,20,21)         24.0895         estimate D2E/DX2                !
 ! D50   D(19,17,20,22)        142.4611         estimate D2E/DX2                !
 --------------------------------------------------------------------------------
 Trust Radius=3.00D-01 FncErr=1.00D-07 GrdErr=1.00D-06 EigMax=2.50D+02 EigMin=1.00D-04
 Number of steps in this run=    122 maximum allowed number of steps=    132.
 GradGradGradGradGradGradGradGradGradGradGradGradGradGradGradGradGradGrad

                          Input orientation:                          
 ---------------------------------------------------------------------
 Center     Atomic      Atomic             Coordinates (Angstroms)
 Number     Number       Type             X           Y           Z
 ---------------------------------------------------------------------
      1         14           0        0.804844    0.519511   -0.115610
      2          8           0        1.654053   -0.671492   -0.974257
      3          8           0        1.952729    1.269438    0.898293
      4          1           0        2.097166    0.692925    1.645168
      5          8           0        0.741566    1.971013   -0.981602
      6          8           0        0.396804   -0.607365    1.193684
      7          6           0       -1.846502   -0.670689   -0.589529
      8          1           0       -1.471461   -1.692457   -0.455842
      9          1           0       -2.494819   -0.681279   -1.477628
     10          6           0       -2.687380   -0.300443    0.626500
     11          1           0       -2.120233   -0.532307    1.533716
     12          1           0       -3.622632   -0.868867    0.634002
     13          8           0       -0.854015    0.273096   -0.805583
     14          1           0        0.016982    1.905459   -1.600724
     15          8           0       -3.011392    1.074191    0.585152
     16          1           0       -2.230541    1.477029    0.185620
     17          6           0        0.759293   -1.906384    0.870087
     18          1           0       -0.076897   -2.606061    1.025638
     19          1           0        1.581165   -2.245055    1.521513
     20          6           0        1.223035   -1.946746   -0.609555
     21          1           0        2.040905   -2.666096   -0.733763
     22          1           0        0.400695   -2.274030   -1.260914
 ---------------------------------------------------------------------
                    Distance matrix (angstroms):
                    1          2          3          4          5
     1  Si   0.000000
     2  O    1.696148   0.000000
     3  O    1.705295   2.713459   0.000000
     4  H    2.191006   2.986531   0.954490   0.000000
     5  O    1.691391   2.795625   2.343742   3.220416   0.000000
     6  O    1.774992   2.506941   2.455717   2.187652   3.390983
     7  C    2.944624   3.521633   4.517949   4.733480   3.718925
     8  H    3.192197   3.328658   4.725630   4.779057   4.312183
     9  H    3.766267   4.179308   5.406568   5.720718   4.213654
    10  C    3.663152   4.641998   4.906018   4.991627   4.416240
    11  H    3.518902   4.533711   4.498785   4.393184   4.558874
    12  H    4.700219   5.519860   5.977194   6.014793   5.451726
    13  O    1.813449   2.685350   3.431283   3.859003   2.336618
    14  H    2.178794   3.116591   3.224395   4.041438   0.955317
    15  O    3.919489   5.219726   4.977818   5.231287   4.164577
    16  H    3.197052   4.588194   4.248617   4.634021   3.231075
    17  C    2.618901   2.393148   3.392776   3.024411   4.296891
    18  H    3.442254   3.276938   4.376653   3.999209   5.064435
    19  H    3.305400   2.951319   3.588610   2.985511   4.974509
    20  C    2.549763   1.394653   3.626279   3.579908   3.964728
    21  H    3.472471   2.045956   4.261433   4.116491   4.822083
    22  H    3.046133   2.054558   4.430254   4.486218   4.267856
                    6          7          8          9         10
     6  O    0.000000
     7  C    2.866405   0.000000
     8  H    2.718230   1.096603   0.000000
     9  H    3.937366   1.099612   1.764593   0.000000
    10  C    3.150887   1.524101   2.141874   2.146968   0.000000
    11  H    2.541010   2.145285   2.392738   3.038207   1.094741
    12  H    4.066632   2.165858   2.548254   2.401277   1.094467
    13  O    2.517306   1.386521   2.089727   2.013632   2.396046
    14  H    3.777203   3.336409   4.058475   3.607702   4.140061
    15  O    3.848862   2.404465   3.333076   2.757460   1.412909
    16  H    3.501976   2.315391   3.321644   2.737614   1.887454
    17  C    1.386926   3.232273   2.603866   4.195461   3.810241
    18  H    2.060926   3.079924   2.230306   3.977119   3.505682
    19  H    2.047489   4.322502   3.678834   5.296592   4.775253
    20  C    2.393380   3.324271   2.710830   4.022113   4.419218
    21  H    3.264428   4.372000   3.655397   5.006558   5.459241
    22  H    2.966958   2.841013   2.119277   3.311770   4.122328
                   11         12         13         14         15
    11  H    0.000000
    12  H    1.783244   0.000000
    13  O    2.779263   3.322909   0.000000
    14  H    4.509446   5.092904   2.013826   0.000000
    15  O    2.067553   2.037517   2.688898   3.826240   0.000000
    16  H    2.422181   2.764451   2.080087   2.902746   0.965211
    17  C    3.258859   4.509262   3.187596   4.602834   4.814881
    18  H    2.955304   3.967803   3.499547   5.221150   4.727530
    19  H    4.078480   5.455371   4.205539   5.424186   5.743322
    20  C    4.215648   5.117494   3.046352   4.156497   5.337018
    21  H    5.197075   6.097251   4.126084   5.074150   6.423005
    22  H    4.147124   4.663941   2.875669   4.210800   5.124537
                   16         17         18         19         20
    16  H    0.000000
    17  C    4.566737   0.000000
    18  H    4.692061   1.101344   0.000000
    19  H    5.492506   1.102056   1.767876   0.000000
    20  C    4.927649   1.551137   2.190519   2.181444   0.000000
    21  H    6.021296   2.189070   2.753939   2.339852   1.096268
    22  H    4.804821   2.192013   2.359377   3.022623   1.098921
                   21         22
    21  H    0.000000
    22  H    1.766888   0.000000
 Stoichiometry    C4H11O6Si(1-)
 Framework group  C1[X(C4H11O6Si)]
 Deg. of freedom    60
 Full point group                 C1      NOp   1
 Largest Abelian subgroup         C1      NOp   1
 Largest concise Abelian subgroup C1      NOp   1
                         Standard orientation:                         
 ---------------------------------------------------------------------
 Center     Atomic      Atomic             Coordinates (Angstroms)
 Number     Number       Type             X           Y           Z
 ---------------------------------------------------------------------
      1         14           0       -0.765855   -0.668570    0.009036
      2          8           0       -1.800821    0.300783   -0.921619
      3          8           0       -1.754020   -1.407305    1.186249
      4          1           0       -1.922841   -0.760311    1.867388
      5          8           0       -0.579213   -2.202134   -0.679549
      6          8           0       -0.420472    0.654285    1.141008
      7          6           0        1.690888    0.741257   -0.795709
      8          1           0        1.204165    1.723207   -0.758131
      9          1           0        2.280220    0.711373   -1.723578
     10          6           0        2.639791    0.625309    0.391315
     11          1           0        2.102864    0.905666    1.303218
     12          1           0        3.498737    1.291276    0.262640
     13          8           0        0.808169   -0.327582   -0.824495
     14          1           0        0.094808   -2.135084   -1.353219
     15          8           0        3.123767   -0.698371    0.491063
     16          1           0        2.375019   -1.233717    0.200524
     17          6           0       -0.954812    1.852706    0.691751
     18          1           0       -0.201170    2.655758    0.701199
     19          1           0       -1.771966    2.177235    1.356182
     20          6           0       -1.505701    1.652277   -0.744346
     21          1           0       -2.409984    2.253750   -0.893704
     22          1           0       -0.768156    1.984123   -1.488343
 ---------------------------------------------------------------------
 Rotational constants (GHZ):           1.3479021           0.8315186           0.6749343
 Standard basis: def2TZVPP (5D, 7F)
 There are   573 symmetry adapted cartesian basis functions of A   symmetry.
 There are   506 symmetry adapted basis functions of A   symmetry.
   506 basis functions,   766 primitive gaussians,   573 cartesian basis functions
    49 alpha electrons       49 beta electrons
       nuclear repulsion energy       870.6833667169 Hartrees.
 NAtoms=   22 NActive=   22 NUniq=   22 SFac= 1.00D+00 NAtFMM=   60 NAOKFM=F Big=F
 Integral buffers will be    131072 words long.
 Raffenetti 2 integral format.
 Two-electron integral symmetry is turned on.
 Nuclear repulsion after empirical dispersion term =      870.6689556509 Hartrees.
 One-electron integrals computed using PRISM.
   1 Symmetry operations used in ECPInt.
 ECPInt:  NShTT=   18145 NPrTT=   50058 LenC2=   17316 LenP2D=   37115.
 LDataN:  DoStor=T MaxTD1= 6 Len=  172
 NBasis=   506 RedAO= T EigKep=  2.16D-04  NBF=   506
 NBsUse=   506 1.00D-06 EigRej= -1.00D+00 NBFU=   506
 ExpMin= 7.01D-02 ExpMax= 4.48D+04 ExpMxC= 1.53D+03 IAcc=3 IRadAn=         5 AccDes= 0.00D+00
 Harris functional with IExCor= 4639 and IRadAn=       5 diagonalized for initial guess.
 HarFok:  IExCor= 4639 AccDes= 0.00D+00 IRadAn=         5 IDoV= 1 UseB2=F ITyADJ=14
 ICtDFT=  3500011 ScaDFX=  1.000000  1.000000  1.000000  1.000000
 FoFCou: FMM=F IPFlag=           0 FMFlag=      100000 FMFlg1=           0
         NFxFlg=           0 DoJE=T BraDBF=F KetDBF=T FulRan=T
         wScrn=  0.000000 ICntrl=       500 IOpCl=  0 I1Cent=   200000004 NGrid=           0
         NMat0=    1 NMatS0=      1 NMatT0=    0 NMatD0=    1 NMtDS0=    0 NMtDT0=    0
 Petite list used in FoFCou.
 Requested convergence on RMS density matrix=1.00D-08 within 128 cycles.
 Requested convergence on MAX density matrix=1.00D-06.
 Requested convergence on             energy=1.00D-06.
 No special actions if energy rises.
 Integral accuracy reduced to 1.0D-05 until final iterations.
 Initial convergence to 1.0D-05 achieved.  Increase integral accuracy.
 SCF Done:  E(RwB97XD) =  -900.186044489     A.U. after   14 cycles
            NFock= 14  Conv=0.34D-08     -V/T= 2.0035

 **********************************************************************

            Population analysis using the SCF Density.

 **********************************************************************

 Orbital symmetries:
       Occupied  (A) (A) (A) (A) (A) (A) (A) (A) (A) (A) (A) (A)
                 (A) (A) (A) (A) (A) (A) (A) (A) (A) (A) (A) (A)
                 (A) (A) (A) (A) (A) (A) (A) (A) (A) (A) (A) (A)
                 (A) (A) (A) (A) (A) (A) (A) (A) (A) (A) (A) (A)
                 (A)
       Virtual   (A) (A) (A) (A) (A) (A) (A) (A) (A) (A) (A) (A)
                 (A) (A) (A) (A) (A) (A) (A) (A) (A) (A) (A) (A)
                 (A) (A) (A) (A) (A) (A) (A) (A) (A) (A) (A) (A)
                 (A) (A) (A) (A) (A) (A) (A) (A) (A) (A) (A) (A)
                 (A) (A) (A) (A) (A) (A) (A) (A) (A) (A) (A) (A)
                 (A) (A) (A) (A) (A) (A) (A) (A) (A) (A) (A) (A)
                 (A) (A) (A) (A) (A) (A) (A) (A) (A) (A) (A) (A)
                 (A) (A) (A) (A) (A) (A) (A) (A) (A) (A) (A) (A)
                 (A) (A) (A) (A) (A) (A) (A) (A) (A) (A) (A) (A)
                 (A) (A) (A) (A) (A) (A) (A) (A) (A) (A) (A) (A)
                 (A) (A) (A) (A) (A) (A) (A) (A) (A) (A) (A) (A)
                 (A) (A) (A) (A) (A) (A) (A) (A) (A) (A) (A) (A)
                 (A) (A) (A) (A) (A) (A) (A) (A) (A) (A) (A) (A)
                 (A) (A) (A) (A) (A) (A) (A) (A) (A) (A) (A) (A)
                 (A) (A) (A) (A) (A) (A) (A) (A) (A) (A) (A) (A)
                 (A) (A) (A) (A) (A) (A) (A) (A) (A) (A) (A) (A)
                 (A) (A) (A) (A) (A) (A) (A) (A) (A) (A) (A) (A)
                 (A) (A) (A) (A) (A) (A) (A) (A) (A) (A) (A) (A)
                 (A) (A) (A) (A) (A) (A) (A) (A) (A) (A) (A) (A)
                 (A) (A) (A) (A) (A) (A) (A) (A) (A) (A) (A) (A)
                 (A) (A) (A) (A) (A) (A) (A) (A) (A) (A) (A) (A)
                 (A) (A) (A) (A) (A) (A) (A) (A) (A) (A) (A) (A)
                 (A) (A) (A) (A) (A) (A) (A) (A) (A) (A) (A) (A)
                 (A) (A) (A) (A) (A) (A) (A) (A) (A) (A) (A) (A)
                 (A) (A) (A) (A) (A) (A) (A) (A) (A) (A) (A) (A)
                 (A) (A) (A) (A) (A) (A) (A) (A) (A) (A) (A) (A)
                 (A) (A) (A) (A) (A) (A) (A) (A) (A) (A) (A) (A)
                 (A) (A) (A) (A) (A) (A) (A) (A) (A) (A) (A) (A)
                 (A) (A) (A) (A) (A) (A) (A) (A) (A) (A) (A) (A)
                 (A) (A) (A) (A) (A) (A) (A) (A) (A) (A) (A) (A)
                 (A) (A) (A) (A) (A) (A) (A) (A) (A) (A) (A) (A)
                 (A) (A) (A) (A) (A) (A) (A) (A) (A) (A) (A) (A)
                 (A) (A) (A) (A) (A) (A) (A) (A) (A) (A) (A) (A)
                 (A) (A) (A) (A) (A) (A) (A) (A) (A) (A) (A) (A)
                 (A) (A) (A) (A) (A) (A) (A) (A) (A) (A) (A) (A)
                 (A) (A) (A) (A) (A) (A) (A) (A) (A) (A) (A) (A)
                 (A) (A) (A) (A) (A) (A) (A) (A) (A) (A) (A) (A)
                 (A) (A) (A) (A) (A) (A) (A) (A) (A) (A) (A) (A)
                 (A)
 The electronic state is 1-A.
 Alpha  occ. eigenvalues --  -66.13881 -19.10433 -19.07019 -19.06333 -19.06004
 Alpha  occ. eigenvalues --  -19.04813 -19.04492 -10.18718 -10.18686 -10.18462
 Alpha  occ. eigenvalues --  -10.18401  -5.24883  -3.59653  -3.59312  -3.59266
 Alpha  occ. eigenvalues --   -0.99099  -0.97783  -0.93331  -0.91916  -0.90962
 Alpha  occ. eigenvalues --   -0.88490  -0.68521  -0.67101  -0.56664  -0.55316
 Alpha  occ. eigenvalues --   -0.48134  -0.45579  -0.44814  -0.43167  -0.41816
 Alpha  occ. eigenvalues --   -0.40593  -0.39876  -0.37104  -0.36012  -0.35045
 Alpha  occ. eigenvalues --   -0.34816  -0.33567  -0.28970  -0.28086  -0.25886
 Alpha  occ. eigenvalues --   -0.25312  -0.24780  -0.23866  -0.23197  -0.21979
 Alpha  occ. eigenvalues --   -0.20762  -0.19304  -0.18768  -0.17103
 Alpha virt. eigenvalues --    0.23549   0.24665   0.25707   0.26771   0.27971
 Alpha virt. eigenvalues --    0.29153   0.29584   0.31366   0.32167   0.32679
 Alpha virt. eigenvalues --    0.33916   0.35107   0.35751   0.36546   0.38538
 Alpha virt. eigenvalues --    0.39332   0.39945   0.40923   0.41955   0.42997
 Alpha virt. eigenvalues --    0.43227   0.45499   0.46419   0.48898   0.49669
 Alpha virt. eigenvalues --    0.49999   0.52614   0.53887   0.55191   0.56133
 Alpha virt. eigenvalues --    0.56348   0.57040   0.57737   0.58166   0.58767
 Alpha virt. eigenvalues --    0.59581   0.60281   0.60887   0.61409   0.62222
 Alpha virt. eigenvalues --    0.62761   0.63741   0.64395   0.65243   0.65730
 Alpha virt. eigenvalues --    0.66201   0.68096   0.68471   0.69620   0.71085
 Alpha virt. eigenvalues --    0.71377   0.72465   0.73388   0.74711   0.74926
 Alpha virt. eigenvalues --    0.75426   0.77009   0.77830   0.79881   0.80613
 Alpha virt. eigenvalues --    0.80922   0.81759   0.82563   0.84888   0.85918
 Alpha virt. eigenvalues --    0.87188   0.88389   0.89092   0.89743   0.91561
 Alpha virt. eigenvalues --    0.92735   0.94046   0.95506   0.97684   1.00289
 Alpha virt. eigenvalues --    1.01107   1.01388   1.02626   1.03329   1.04441
 Alpha virt. eigenvalues --    1.05845   1.06439   1.06991   1.08192   1.09133
 Alpha virt. eigenvalues --    1.10935   1.12332   1.12600   1.13976   1.14744
 Alpha virt. eigenvalues --    1.16486   1.17321   1.19074   1.20763   1.21575
 Alpha virt. eigenvalues --    1.22254   1.23027   1.25122   1.25465   1.26128
 Alpha virt. eigenvalues --    1.27041   1.29429   1.30369   1.31576   1.32286
 Alpha virt. eigenvalues --    1.33632   1.34348   1.34936   1.36066   1.36727
 Alpha virt. eigenvalues --    1.37740   1.39490   1.42079   1.42760   1.44688
 Alpha virt. eigenvalues --    1.44731   1.46873   1.48874   1.50391   1.51455
 Alpha virt. eigenvalues --    1.51693   1.53624   1.54677   1.55159   1.56354
 Alpha virt. eigenvalues --    1.57111   1.57707   1.59416   1.60877   1.61941
 Alpha virt. eigenvalues --    1.63149   1.63422   1.64552   1.65509   1.67610
 Alpha virt. eigenvalues --    1.68695   1.70864   1.71842   1.73334   1.73804
 Alpha virt. eigenvalues --    1.75606   1.76908   1.78498   1.79865   1.81090
 Alpha virt. eigenvalues --    1.83710   1.85387   1.89307   1.92368   1.94138
 Alpha virt. eigenvalues --    1.97813   1.98445   2.00604   2.03731   2.04425
 Alpha virt. eigenvalues --    2.09417   2.10108   2.11090   2.13892   2.14754
 Alpha virt. eigenvalues --    2.17167   2.19076   2.19836   2.20211   2.22038
 Alpha virt. eigenvalues --    2.22931   2.24603   2.25948   2.27223   2.30007
 Alpha virt. eigenvalues --    2.31126   2.32811   2.33524   2.34356   2.37164
 Alpha virt. eigenvalues --    2.39258   2.40275   2.41197   2.43175   2.46004
 Alpha virt. eigenvalues --    2.47685   2.50070   2.51264   2.53707   2.54748
 Alpha virt. eigenvalues --    2.57218   2.57923   2.63011   2.63914   2.65355
 Alpha virt. eigenvalues --    2.66274   2.70980   2.73036   2.73961   2.76110
 Alpha virt. eigenvalues --    2.80634   2.82743   2.84137   2.84510   2.86240
 Alpha virt. eigenvalues --    2.87500   2.88904   2.89825   2.91907   2.94478
 Alpha virt. eigenvalues --    2.96267   2.97646   2.99422   3.01093   3.02799
 Alpha virt. eigenvalues --    3.04593   3.05077   3.05637   3.08591   3.09696
 Alpha virt. eigenvalues --    3.10149   3.11051   3.12879   3.14675   3.16063
 Alpha virt. eigenvalues --    3.19281   3.19910   3.21730   3.23926   3.25033
 Alpha virt. eigenvalues --    3.26382   3.27058   3.27815   3.29525   3.30436
 Alpha virt. eigenvalues --    3.32348   3.33822   3.35420   3.35916   3.37016
 Alpha virt. eigenvalues --    3.37994   3.39592   3.41398   3.43015   3.45464
 Alpha virt. eigenvalues --    3.46017   3.47639   3.48563   3.50262   3.52899
 Alpha virt. eigenvalues --    3.54217   3.56060   3.57329   3.58068   3.61630
 Alpha virt. eigenvalues --    3.62227   3.62686   3.64423   3.65196   3.66170
 Alpha virt. eigenvalues --    3.66876   3.68704   3.69803   3.71253   3.73171
 Alpha virt. eigenvalues --    3.74964   3.76368   3.77764   3.79152   3.81957
 Alpha virt. eigenvalues --    3.83573   3.84775   3.86158   3.87504   3.88725
 Alpha virt. eigenvalues --    3.89297   3.89506   3.90805   3.91844   3.93695
 Alpha virt. eigenvalues --    3.96114   3.96554   3.97583   3.98596   3.99688
 Alpha virt. eigenvalues --    4.00727   4.02121   4.03094   4.05220   4.07587
 Alpha virt. eigenvalues --    4.09536   4.11021   4.12557   4.16478   4.16815
 Alpha virt. eigenvalues --    4.17876   4.19104   4.22433   4.23806   4.24366
 Alpha virt. eigenvalues --    4.25537   4.26779   4.27598   4.30197   4.30301
 Alpha virt. eigenvalues --    4.31769   4.32654   4.34327   4.34795   4.36398
 Alpha virt. eigenvalues --    4.38291   4.40260   4.42226   4.43296   4.43656
 Alpha virt. eigenvalues --    4.45747   4.46842   4.47802   4.49996   4.51735
 Alpha virt. eigenvalues --    4.52214   4.54602   4.55446   4.59021   4.59723
 Alpha virt. eigenvalues --    4.62717   4.65474   4.70580   4.71833   4.73783
 Alpha virt. eigenvalues --    4.74779   4.79331   4.79928   4.80640   4.84904
 Alpha virt. eigenvalues --    4.87518   4.88670   4.90382   4.92663   4.95097
 Alpha virt. eigenvalues --    4.98838   5.00417   5.01895   5.03861   5.05119
 Alpha virt. eigenvalues --    5.05990   5.06910   5.08733   5.13257   5.14689
 Alpha virt. eigenvalues --    5.15581   5.15980   5.17836   5.20493   5.21743
 Alpha virt. eigenvalues --    5.23709   5.25967   5.29571   5.30566   5.31990
 Alpha virt. eigenvalues --    5.33508   5.35746   5.38068   5.38540   5.44221
 Alpha virt. eigenvalues --    5.46503   5.48562   5.50394   5.52563   5.55518
 Alpha virt. eigenvalues --    5.55883   5.57783   5.59300   5.60013   5.61868
 Alpha virt. eigenvalues --    5.62555   5.64269   5.68751   5.70396   5.72315
 Alpha virt. eigenvalues --    5.73973   5.74946   5.75231   5.76860   5.78660
 Alpha virt. eigenvalues --    5.81533   5.82248   5.84860   5.85686   5.88433
 Alpha virt. eigenvalues --    5.89962   5.91646   5.93314   5.96992   6.00138
 Alpha virt. eigenvalues --    6.01769   6.04621   6.14751   6.19843   6.22678
 Alpha virt. eigenvalues --    6.25978   6.30280   6.32284   6.33869   6.35684
 Alpha virt. eigenvalues --    6.41698   6.47596   6.52342   6.59392   6.71550
 Alpha virt. eigenvalues --    6.72886   6.75087   6.80190   6.85751   6.87276
 Alpha virt. eigenvalues --    6.88485   6.89859   6.90234   6.91985   6.92338
 Alpha virt. eigenvalues --    6.93575   6.94825   6.95049   6.96730   6.98578
 Alpha virt. eigenvalues --    6.99984   7.01622   7.04304   7.05511   7.09295
 Alpha virt. eigenvalues --    7.13289   7.14729   7.18134   7.21933   7.27278
 Alpha virt. eigenvalues --    7.30436   7.34535   7.36428   7.39460   7.42657
 Alpha virt. eigenvalues --    7.49229   7.51859   7.57776   7.58710   7.66086
 Alpha virt. eigenvalues --    7.67566   7.71159   7.74891   7.80180   7.82222
 Alpha virt. eigenvalues --    7.95987  12.32948  23.51493  23.55303  23.64797
 Alpha virt. eigenvalues --   23.70446  44.06658  44.15201  44.25908  44.38534
 Alpha virt. eigenvalues --   44.47086  44.56885
          Condensed to atoms (all electrons):
               1          2          3          4          5          6
     1  Si  11.530637   0.372704   0.451386  -0.042147   0.449210   0.310509
     2  O    0.372704   7.987840  -0.036536  -0.000103  -0.026084  -0.014660
     3  O    0.451386  -0.036536   7.868891   0.312617  -0.063421  -0.070125
     4  H   -0.042147  -0.000103   0.312617   0.575778   0.005117   0.012410
     5  O    0.449210  -0.026084  -0.063421   0.005117   7.893684  -0.001830
     6  O    0.310509  -0.014660  -0.070125   0.012410  -0.001830   8.177312
     7  C   -0.029839   0.006239   0.000900  -0.000446   0.005588   0.030143
     8  H   -0.016129   0.001857  -0.000120  -0.000023  -0.000244  -0.004843
     9  H    0.001617  -0.000381   0.000018  -0.000003   0.000252   0.000116
    10  C    0.001950  -0.001603  -0.000598   0.000136  -0.002632  -0.021465
    11  H   -0.007902   0.000224   0.000205   0.000020   0.000125   0.017663
    12  H    0.001137  -0.000007  -0.000009  -0.000002  -0.000009   0.000811
    13  O    0.251700  -0.030799  -0.002793   0.000162  -0.088155  -0.048834
    14  H   -0.043477  -0.000132   0.004569  -0.000803   0.309255   0.000423
    15  O    0.004391  -0.000011   0.000005   0.000001  -0.000294   0.000073
    16  H   -0.002131   0.000066  -0.000584  -0.000057   0.004825   0.000441
    17  C   -0.046457  -0.091069   0.008877   0.001607  -0.000970   0.296636
    18  H   -0.001643   0.005554  -0.000645   0.000500   0.000049  -0.051515
    19  H    0.010141   0.006450   0.001199  -0.002481   0.000013  -0.052787
    20  C   -0.044358   0.329627  -0.005006   0.000547  -0.001906  -0.079049
    21  H   -0.000248  -0.042079   0.000251   0.000023  -0.000158   0.004808
    22  H   -0.004668  -0.056131  -0.000435  -0.000136   0.000392   0.008293
               7          8          9         10         11         12
     1  Si  -0.029839  -0.016129   0.001617   0.001950  -0.007902   0.001137
     2  O    0.006239   0.001857  -0.000381  -0.001603   0.000224  -0.000007
     3  O    0.000900  -0.000120   0.000018  -0.000598   0.000205  -0.000009
     4  H   -0.000446  -0.000023  -0.000003   0.000136   0.000020  -0.000002
     5  O    0.005588  -0.000244   0.000252  -0.002632   0.000125  -0.000009
     6  O    0.030143  -0.004843   0.000116  -0.021465   0.017663   0.000811
     7  C    4.684291   0.412830   0.394778   0.338346  -0.037756  -0.018557
     8  H    0.412830   0.787812  -0.046704  -0.079323   0.000747   0.002529
     9  H    0.394778  -0.046704   0.685094  -0.049197   0.011910  -0.011951
    10  C    0.338346  -0.079323  -0.049197   4.802439   0.397544   0.376658
    11  H   -0.037756   0.000747   0.011910   0.397544   0.661928  -0.051803
    12  H   -0.018557   0.002529  -0.011951   0.376658  -0.051803   0.694327
    13  O    0.272677  -0.059566  -0.038898  -0.066351   0.000379   0.006503
    14  H    0.002821   0.000693  -0.000646  -0.001093   0.000045  -0.000025
    15  O   -0.043962   0.006918   0.006860   0.285815  -0.049334  -0.039344
    16  H   -0.009207   0.003231  -0.000122  -0.075504   0.001814   0.010733
    17  C   -0.016003  -0.005585   0.000340   0.004615  -0.001105  -0.000185
    18  H   -0.008768   0.003374  -0.000186   0.005066  -0.004250  -0.000338
    19  H    0.001988  -0.000297  -0.000010  -0.000308   0.000016   0.000019
    20  C   -0.008663  -0.008506   0.000446  -0.000221   0.001242   0.000203
    21  H    0.001663  -0.000037  -0.000028  -0.000179  -0.000005  -0.000002
    22  H   -0.010184  -0.005202   0.001373   0.001486  -0.000271  -0.000010
              13         14         15         16         17         18
     1  Si   0.251700  -0.043477   0.004391  -0.002131  -0.046457  -0.001643
     2  O   -0.030799  -0.000132  -0.000011   0.000066  -0.091069   0.005554
     3  O   -0.002793   0.004569   0.000005  -0.000584   0.008877  -0.000645
     4  H    0.000162  -0.000803   0.000001  -0.000057   0.001607   0.000500
     5  O   -0.088155   0.309255  -0.000294   0.004825  -0.000970   0.000049
     6  O   -0.048834   0.000423   0.000073   0.000441   0.296636  -0.051515
     7  C    0.272677   0.002821  -0.043962  -0.009207  -0.016003  -0.008768
     8  H   -0.059566   0.000693   0.006918   0.003231  -0.005585   0.003374
     9  H   -0.038898  -0.000646   0.006860  -0.000122   0.000340  -0.000186
    10  C   -0.066351  -0.001093   0.285815  -0.075504   0.004615   0.005066
    11  H    0.000379   0.000045  -0.049334   0.001814  -0.001105  -0.004250
    12  H    0.006503  -0.000025  -0.039344   0.010733  -0.000185  -0.000338
    13  O    8.251000   0.013269  -0.021842   0.038608   0.006052   0.001386
    14  H    0.013269   0.566326  -0.000039   0.001225  -0.000640  -0.000013
    15  O   -0.021842  -0.000039   7.925050   0.344583  -0.000190  -0.000033
    16  H    0.038608   0.001225   0.344583   0.481171  -0.000411  -0.000000
    17  C    0.006052  -0.000640  -0.000190  -0.000411   4.816779   0.388745
    18  H    0.001386  -0.000013  -0.000033  -0.000000   0.388745   0.777086
    19  H   -0.000871   0.000024   0.000005   0.000009   0.393154  -0.077005
    20  C    0.020355  -0.001021   0.000066   0.000141   0.270478  -0.041945
    21  H   -0.000298  -0.000024   0.000002   0.000002  -0.014303   0.011676
    22  H    0.004104   0.000236  -0.000018  -0.000013  -0.075122  -0.016811
              19         20         21         22
     1  Si   0.010141  -0.044358  -0.000248  -0.004668
     2  O    0.006450   0.329627  -0.042079  -0.056131
     3  O    0.001199  -0.005006   0.000251  -0.000435
     4  H   -0.002481   0.000547   0.000023  -0.000136
     5  O    0.000013  -0.001906  -0.000158   0.000392
     6  O   -0.052787  -0.079049   0.004808   0.008293
     7  C    0.001988  -0.008663   0.001663  -0.010184
     8  H   -0.000297  -0.008506  -0.000037  -0.005202
     9  H   -0.000010   0.000446  -0.000028   0.001373
    10  C   -0.000308  -0.000221  -0.000179   0.001486
    11  H    0.000016   0.001242  -0.000005  -0.000271
    12  H    0.000019   0.000203  -0.000002  -0.000010
    13  O   -0.000871   0.020355  -0.000298   0.004104
    14  H    0.000024  -0.001021  -0.000024   0.000236
    15  O    0.000005   0.000066   0.000002  -0.000018
    16  H    0.000009   0.000141   0.000002  -0.000013
    17  C    0.393154   0.270478  -0.014303  -0.075122
    18  H   -0.077005  -0.041945   0.011676  -0.016811
    19  H    0.740025  -0.041578  -0.021220   0.015730
    20  C   -0.041578   4.749213   0.378743   0.432231
    21  H   -0.021220   0.378743   0.727955  -0.074995
    22  H    0.015730   0.432231  -0.074995   0.752832
 Mulliken charges:
               1
     1  Si   0.853617
     2  O   -0.410966
     3  O   -0.468646
     4  H    0.137284
     5  O   -0.482808
     6  O   -0.514529
     7  C    0.031121
     8  H    0.006586
     9  H    0.045322
    10  C    0.084419
    11  H    0.058564
    12  H    0.029323
    13  O   -0.507788
    14  H    0.149027
    15  O   -0.418701
    16  H    0.201182
    17  C    0.064759
    18  H    0.009715
    19  H    0.027783
    20  C    0.048963
    21  H    0.028453
    22  H    0.027319
 Sum of Mulliken charges =  -1.00000
 Mulliken charges with hydrogens summed into heavy atoms:
               1
     1  Si   0.853617
     2  O   -0.410966
     3  O   -0.331362
     5  O   -0.333781
     6  O   -0.514529
     7  C    0.083030
    10  C    0.172306
    13  O   -0.507788
    15  O   -0.217519
    17  C    0.102257
    20  C    0.104735
 Electronic spatial extent (au):  <R**2>=           1905.3348
 Charge=             -1.0000 electrons
 Dipole moment (field-independent basis, Debye):
    X=              1.3437    Y=              5.1250    Z=             -0.6243  Tot=              5.3349
 Quadrupole moment (field-independent basis, Debye-Ang):
   XX=            -97.4439   YY=            -86.0565   ZZ=            -79.7246
   XY=             -4.5007   XZ=             -4.6190   YZ=              1.5911
 Traceless Quadrupole moment (field-independent basis, Debye-Ang):
   XX=             -9.7022   YY=              1.6852   ZZ=              8.0170
   XY=             -4.5007   XZ=             -4.6190   YZ=              1.5911
 Octapole moment (field-independent basis, Debye-Ang**2):
  XXX=            -37.5522  YYY=              9.1272  ZZZ=              1.6228  XYY=             17.3040
  XXY=             20.6530  XXZ=             -2.8510  XZZ=             -0.6533  YZZ=             -6.4784
  YYZ=             -6.4433  XYZ=             -0.2982
 Hexadecapole moment (field-independent basis, Debye-Ang**3):
 XXXX=          -1536.2069 YYYY=           -845.5932 ZZZZ=           -372.7094 XXXY=             32.8988
 XXXZ=            -46.2806 YYYX=            -43.8180 YYYZ=              9.4031 ZZZX=            -17.4551
 ZZZY=              7.9399 XXYY=           -370.5368 XXZZ=           -292.9067 YYZZ=           -198.0854
 XXYZ=             18.3019 YYXZ=              4.5399 ZZXY=             -4.1370
 N-N= 8.706689556509D+02 E-N=-3.885510289124D+03  KE= 8.970016955983D+02
   1 Symmetry operations used in ECPInt.
 ECPInt:  NShTT=   18145 NPrTT=   50058 LenC2=   17316 LenP2D=   37115.
 LDataN:  DoStor=T MaxTD1= 7 Len=  274
 Calling FoFJK, ICntrl=      2127 FMM=F ISym2X=0 I1Cent= 0 IOpClX= 0 NMat=1 NMatS=1 NMatT=0.
 ***** Axes restored to original set *****
 -------------------------------------------------------------------
 Center     Atomic                   Forces (Hartrees/Bohr)
 Number     Number              X              Y              Z
 -------------------------------------------------------------------
      1       14          -0.001419913   -0.000262040   -0.001192670
      2        8          -0.000423244    0.000233041   -0.000753353
      3        8          -0.004127405   -0.000033408    0.003345418
      4        1          -0.000510008    0.000544290   -0.000403040
      5        8           0.003252581   -0.001370984   -0.004280838
      6        8          -0.000803196   -0.002257308   -0.001173425
      7        6           0.000643619    0.000770096    0.001556886
      8        1           0.000152301    0.000059578    0.000170944
      9        1           0.000077837   -0.000062296    0.000080624
     10        6          -0.000282397    0.000646559    0.000910858
     11        1           0.000116007    0.000130593    0.000145379
     12        1           0.000001415   -0.000001307    0.000060252
     13        8          -0.000640896    0.002857220    0.002065953
     14        1           0.000908598   -0.000163845    0.000383142
     15        8          -0.001486589    0.000596865   -0.000054384
     16        1          -0.000095729    0.000041041   -0.000037510
     17        6           0.002259450   -0.000976115   -0.000347380
     18        1           0.000269248   -0.000326208    0.000067384
     19        1           0.000347398    0.000047805   -0.000018748
     20        6           0.001423317   -0.000367917   -0.000409652
     21        1           0.000205732    0.000033791   -0.000094428
     22        1           0.000131876   -0.000139451   -0.000021413
 -------------------------------------------------------------------
 Cartesian Forces:  Max     0.004280838 RMS     0.001239324

 GradGradGradGradGradGradGradGradGradGradGradGradGradGradGradGradGradGrad
 Berny optimization.
 FormGI is forming the generalized inverse of G from B-inverse, IUseBI=4.
 Internal  Forces:  Max     0.008087952 RMS     0.001913283
 Search for a local minimum.
 Step number   1 out of a maximum of  122
 All quantities printed in internal units (Hartrees-Bohrs-Radians)
 Mixed Optimization -- RFO/linear search
 Second derivative matrix not updated -- first step.
 ITU=  0
     Eigenvalues ---    0.00447   0.00786   0.01516   0.01521   0.01870
     Eigenvalues ---    0.02401   0.02946   0.03130   0.04258   0.04572
     Eigenvalues ---    0.04605   0.04937   0.05089   0.05225   0.05896
     Eigenvalues ---    0.05912   0.06132   0.06206   0.10723   0.11369
     Eigenvalues ---    0.11385   0.11425   0.11442   0.11936   0.13113
     Eigenvalues ---    0.13774   0.13898   0.15596   0.16000   0.16000
     Eigenvalues ---    0.16000   0.17048   0.18586   0.19642   0.21997
     Eigenvalues ---    0.22001   0.22058   0.25000   0.25085   0.26435
     Eigenvalues ---    0.27909   0.29975   0.33456   0.33534   0.33725
     Eigenvalues ---    0.33802   0.34061   0.34098   0.34270   0.34301
     Eigenvalues ---    0.34795   0.35261   0.36947   0.43546   0.44287
     Eigenvalues ---    0.46636   0.47929   0.54367   0.56493   0.56676
 RFO step:  Lambda=-4.11178583D-03 EMin= 4.47134975D-03
 Linear search not attempted -- first point.
 Iteration  1 RMS(Cart)=  0.14587765 RMS(Int)=  0.00492099
 Iteration  2 RMS(Cart)=  0.00766840 RMS(Int)=  0.00016010
 Iteration  3 RMS(Cart)=  0.00002396 RMS(Int)=  0.00015903
 Iteration  4 RMS(Cart)=  0.00000000 RMS(Int)=  0.00015903
 Variable       Old X    -DE/DX   Delta X   Delta X   Delta X     New X
                                 (Linear)    (Quad)   (Total)
    R1        3.20526   0.00110   0.00000   0.00356   0.00355   3.20880
    R2        3.22254  -0.00115   0.00000  -0.00322  -0.00322   3.21932
    R3        3.19627   0.00052   0.00000   0.00140   0.00140   3.19766
    R4        3.35425   0.00157   0.00000   0.00637   0.00633   3.36058
    R5        3.42692  -0.00116   0.00000  -0.00455  -0.00455   3.42237
    R6        2.63551  -0.00128   0.00000  -0.00318  -0.00317   2.63234
    R7        1.80373  -0.00072   0.00000  -0.00126  -0.00126   1.80246
    R8        1.80529  -0.00093   0.00000  -0.00163  -0.00163   1.80366
    R9        2.62091   0.00275   0.00000   0.00556   0.00557   2.62648
   R10        2.07228   0.00002   0.00000   0.00005   0.00005   2.07233
   R11        2.07797  -0.00011   0.00000  -0.00032  -0.00032   2.07764
   R12        2.88013   0.00212   0.00000   0.00698   0.00698   2.88711
   R13        2.62014  -0.00042   0.00000  -0.00087  -0.00087   2.61927
   R14        2.06876   0.00015   0.00000   0.00044   0.00044   2.06920
   R15        2.06824  -0.00000   0.00000  -0.00000  -0.00000   2.06824
   R16        2.67001   0.00099   0.00000   0.00225   0.00225   2.67226
   R17        1.82398  -0.00004   0.00000  -0.00008  -0.00008   1.82390
   R18        2.08124   0.00001   0.00000   0.00004   0.00004   2.08128
   R19        2.08258   0.00023   0.00000   0.00069   0.00069   2.08327
   R20        2.93122  -0.00036   0.00000  -0.00223  -0.00218   2.92904
   R21        2.07165   0.00014   0.00000   0.00041   0.00041   2.07206
   R22        2.07666  -0.00005   0.00000  -0.00013  -0.00013   2.07653
    A1        1.84706   0.00229   0.00000   0.01049   0.01042   1.85749
    A2        1.94135  -0.00517   0.00000  -0.03472  -0.03464   1.90671
    A3        1.61353  -0.00167   0.00000  -0.00684  -0.00691   1.60662
    A4        1.74159   0.00580   0.00000   0.03948   0.03961   1.78120
    A5        1.52298  -0.00008   0.00000   0.00175   0.00240   1.52538
    A6        1.56616  -0.00016   0.00000  -0.00157  -0.00169   1.56447
    A7        2.69453  -0.00809   0.00000  -0.04998  -0.05006   2.64447
    A8        2.72356   0.00695   0.00000   0.04216   0.04213   2.76569
    A9        1.45814  -0.00087   0.00000  -0.00165  -0.00033   1.45781
   A10        1.55489   0.00085   0.00000  -0.00087  -0.00060   1.55430
   A11        1.93366   0.00272   0.00000   0.01558   0.01546   1.94912
   A12        1.87704  -0.00024   0.00000  -0.00145  -0.00145   1.87559
   A13        1.87686  -0.00017   0.00000  -0.00106  -0.00106   1.87580
   A14        1.94168  -0.00015   0.00000   0.00219   0.00194   1.94362
   A15        1.86620   0.00011   0.00000   0.00004   0.00005   1.86625
   A16        1.89417   0.00054   0.00000   0.00397   0.00397   1.89815
   A17        1.99152  -0.00088   0.00000  -0.00592  -0.00592   1.98560
   A18        1.89805  -0.00096   0.00000  -0.00589  -0.00589   1.89216
   A19        1.87836   0.00038   0.00000   0.00401   0.00402   1.88238
   A20        1.93253   0.00074   0.00000   0.00344   0.00344   1.93597
   A21        1.90066  -0.00019   0.00000   0.00192   0.00189   1.90255
   A22        1.92918  -0.00031   0.00000  -0.00361  -0.00360   1.92558
   A23        1.91720   0.00127   0.00000   0.00593   0.00592   1.92312
   A24        1.90395   0.00013   0.00000  -0.00058  -0.00058   1.90337
   A25        1.92742  -0.00001   0.00000   0.00476   0.00473   1.93215
   A26        1.88550  -0.00089   0.00000  -0.00850  -0.00849   1.87701
   A27        2.32952  -0.00363   0.00000  -0.01427  -0.01427   2.31525
   A28        1.80559   0.00014   0.00000   0.00084   0.00084   1.80643
   A29        1.94296   0.00028   0.00000   0.00178   0.00181   1.94477
   A30        1.92285  -0.00039   0.00000   0.00004   0.00008   1.92293
   A31        1.90189   0.00053   0.00000   0.00177   0.00167   1.90355
   A32        1.86241   0.00005   0.00000  -0.00082  -0.00083   1.86158
   A33        1.92323  -0.00030   0.00000  -0.00328  -0.00329   1.91995
   A34        1.91017  -0.00019   0.00000   0.00043   0.00048   1.91066
   A35        1.89447  -0.00129   0.00000  -0.00675  -0.00681   1.88766
   A36        1.91751   0.00036   0.00000  -0.00126  -0.00125   1.91626
   A37        1.92687   0.00037   0.00000   0.00337   0.00340   1.93027
   A38        1.92645   0.00037   0.00000   0.00251   0.00254   1.92898
   A39        1.92776   0.00040   0.00000   0.00174   0.00174   1.92950
   A40        1.87098  -0.00019   0.00000   0.00055   0.00054   1.87152
    D1        1.97998  -0.00050   0.00000  -0.02551  -0.02577   1.95421
    D2       -2.67553  -0.00125   0.00000  -0.02993  -0.02983  -2.70535
    D3        0.40189   0.00003   0.00000  -0.02241  -0.02244   0.37945
    D4       -1.16014  -0.00078   0.00000  -0.02198  -0.02198  -1.18212
    D5       -1.36662  -0.00124   0.00000  -0.01043  -0.01040  -1.37702
    D6        2.97399   0.00404   0.00000   0.02460   0.02441   2.99841
    D7        0.24728  -0.00299   0.00000  -0.01790  -0.01802   0.22926
    D8        1.77160  -0.00054   0.00000  -0.01810  -0.01783   1.75378
    D9        1.45167   0.00104   0.00000   0.00495   0.00493   1.45660
   D10       -2.98278   0.00315   0.00000   0.01478   0.01491  -2.96787
   D11       -1.53142   0.00035   0.00000   0.00145   0.00155  -1.52987
   D12       -0.25914  -0.00517   0.00000  -0.03892  -0.03913  -0.29826
   D13       -0.13937   0.00060   0.00000   0.03210   0.03197  -0.10740
   D14       -1.98649  -0.00168   0.00000   0.02171   0.02165  -1.96484
   D15        2.85442   0.00095   0.00000   0.03339   0.03328   2.88771
   D16        1.60171   0.00645   0.00000   0.07164   0.07166   1.67337
   D17        1.34855   0.00348   0.00000   0.12424   0.12420   1.47275
   D18       -1.78975   0.00281   0.00000   0.13174   0.13149  -1.65826
   D19       -3.00593  -0.00223   0.00000   0.08649   0.08675  -2.91918
   D20       -0.26287   0.00508   0.00000   0.13168   0.13171  -0.13116
   D21       -0.53221  -0.00006   0.00000   0.01053   0.01058  -0.52162
   D22       -2.64018   0.00007   0.00000   0.01241   0.01243  -2.62775
   D23        1.58311  -0.00015   0.00000   0.01046   0.01047   1.59358
   D24       -2.25722  -0.00045   0.00000  -0.02682  -0.02683  -2.28406
   D25        1.96338  -0.00044   0.00000  -0.02693  -0.02698   1.93640
   D26       -0.13251  -0.00029   0.00000  -0.02859  -0.02866  -0.16117
   D27        0.86994   0.00009   0.00000   0.04217   0.04217   0.91211
   D28       -1.22140   0.00025   0.00000   0.04388   0.04389  -1.17751
   D29        2.98279   0.00074   0.00000   0.05289   0.05290   3.03569
   D30        2.89413  -0.00000   0.00000   0.04120   0.04119   2.93532
   D31        0.80279   0.00015   0.00000   0.04291   0.04291   0.84570
   D32       -1.27620   0.00065   0.00000   0.05192   0.05192  -1.22428
   D33       -1.32866   0.00031   0.00000   0.04451   0.04450  -1.28416
   D34        2.86319   0.00047   0.00000   0.04622   0.04622   2.90941
   D35        0.78419   0.00096   0.00000   0.05523   0.05523   0.83943
   D36       -0.68352   0.00126   0.00000   0.06507   0.06507  -0.61845
   D37       -2.75129   0.00139   0.00000   0.06586   0.06587  -2.68543
   D38        1.45952   0.00190   0.00000   0.06861   0.06860   1.52813
   D39       -0.60156  -0.00021   0.00000  -0.00299  -0.00301  -0.60457
   D40        1.49511   0.00036   0.00000   0.00621   0.00623   1.50134
   D41       -2.70716  -0.00003   0.00000   0.00309   0.00309  -2.70407
   D42        0.42170  -0.00035   0.00000   0.00931   0.00933   0.43103
   D43        2.52415  -0.00049   0.00000   0.00505   0.00507   2.52921
   D44       -1.69306  -0.00024   0.00000   0.00839   0.00842  -1.68464
   D45        2.55835   0.00015   0.00000   0.01057   0.01056   2.56891
   D46       -1.62239   0.00001   0.00000   0.00632   0.00630  -1.61610
   D47        0.44358   0.00026   0.00000   0.00966   0.00965   0.45323
   D48       -1.68200  -0.00008   0.00000   0.00791   0.00792  -1.67409
   D49        0.42044  -0.00022   0.00000   0.00366   0.00365   0.42410
   D50        2.48641   0.00003   0.00000   0.00699   0.00701   2.49342
         Item               Value     Threshold  Converged?
 Maximum Force            0.008088     0.000450     NO 
 RMS     Force            0.001913     0.000300     NO 
 Maximum Displacement     0.559970     0.001800     NO 
 RMS     Displacement     0.145729     0.001200     NO 
 Predicted change in Energy=-2.292291D-03
 GradGradGradGradGradGradGradGradGradGradGradGradGradGradGradGradGradGrad

                          Input orientation:                          
 ---------------------------------------------------------------------
 Center     Atomic      Atomic             Coordinates (Angstroms)
 Number     Number       Type             X           Y           Z
 ---------------------------------------------------------------------
      1         14           0        0.785863    0.467723   -0.087006
      2          8           0        1.693952   -0.651111   -0.985269
      3          8           0        1.874455    1.222180    0.984436
      4          1           0        2.020381    0.623734    1.712684
      5          8           0        0.717664    1.934323   -0.928278
      6          8           0        0.412250   -0.741689    1.162089
      7          6           0       -1.890844   -0.664853   -0.480971
      8          1           0       -1.530317   -1.666507   -0.217711
      9          1           0       -2.508298   -0.773971   -1.384085
     10          6           0       -2.778063   -0.148925    0.650762
     11          1           0       -2.235036   -0.235983    1.597602
     12          1           0       -3.698375   -0.738190    0.711174
     13          8           0       -0.877276    0.236719   -0.765588
     14          1           0        0.010337    1.866587   -1.565526
     15          8           0       -3.147155    1.194357    0.407790
     16          1           0       -2.369406    1.566862   -0.025681
     17          6           0        0.870680   -2.002580    0.799128
     18          1           0        0.087188   -2.766632    0.923089
     19          1           0        1.710414   -2.302940    1.447174
     20          6           0        1.344722   -1.963673   -0.676074
     21          1           0        2.210048   -2.621695   -0.819252
     22          1           0        0.550181   -2.320345   -1.346120
 ---------------------------------------------------------------------
                    Distance matrix (angstroms):
                    1          2          3          4          5
     1  Si   0.000000
     2  O    1.698026   0.000000
     3  O    1.703593   2.724251   0.000000
     4  H    2.187981   3.001789   0.953822   0.000000
     5  O    1.692131   2.764210   2.346016   3.223259   0.000000
     6  O    1.778342   2.502421   2.454870   2.180280   3.409392
     7  C    2.933035   3.620120   4.459349   4.665861   3.709463
     8  H    3.152254   3.466422   4.624083   4.645329   4.303987
     9  H    3.751761   4.222919   5.366846   5.661492   4.236679
    10  C    3.691357   4.788288   4.861809   4.974911   4.365020
    11  H    3.529722   4.720222   4.403422   4.342917   4.450701
    12  H    4.711656   5.653555   5.913895   5.963390   5.415860
    13  O    1.811040   2.729050   3.406720   3.832496   2.334987
    14  H    2.178138   3.083839   3.223741   4.041240   0.954456
    15  O    4.030069   5.364950   5.054688   5.360205   4.155654
    16  H    3.341794   4.727694   4.376014   4.814731   3.237238
    17  C    2.625799   2.385019   3.382451   3.008973   4.301924
    18  H    3.459695   3.270925   4.371350   3.981868   5.091565
    19  H    3.299253   2.940338   3.559144   2.954995   4.958097
    20  C    2.563398   1.392976   3.631469   3.585715   3.956158
    21  H    3.479797   2.043800   4.259259   4.120617   4.795456
    22  H    3.068263   2.055424   4.442373   4.492813   4.278417
                    6          7          8          9         10
     6  O    0.000000
     7  C    2.830158   0.000000
     8  H    2.555915   1.096629   0.000000
     9  H    3.874745   1.099442   1.764510   0.000000
    10  C    3.284954   1.527795   2.148061   2.145707   0.000000
    11  H    2.730116   2.150084   2.416275   3.042132   1.094972
    12  H    4.135284   2.166507   2.534773   2.409912   1.094467
    13  O    2.517160   1.386059   2.085402   2.016003   2.401616
    14  H    3.795329   3.346482   4.083255   3.653627   4.092602
    15  O    4.121482   2.413478   3.345140   2.737384   1.414098
    16  H    3.804972   2.327414   3.345985   2.709991   1.889047
    17  C    1.389871   3.324784   2.629010   4.206352   4.095287
    18  H    2.064747   3.209590   2.264514   4.003785   3.890529
    19  H    2.050367   4.401151   3.698544   5.305780   5.041872
    20  C    2.396161   3.491975   2.926475   4.094195   4.695866
    21  H    3.269894   4.556422   3.906989   5.098618   5.758192
    22  H    2.966866   3.073718   2.455460   3.427391   4.447450
                   11         12         13         14         15
    11  H    0.000000
    12  H    1.783067   0.000000
    13  O    2.766157   3.330146   0.000000
    14  H    4.412242   5.071762   2.020947   0.000000
    15  O    2.072074   2.032394   2.728780   3.783600   0.000000
    16  H    2.429682   2.760865   2.131477   2.850286   0.965169
    17  C    3.661133   4.741590   3.243169   4.615434   5.149423
    18  H    3.500267   4.299996   3.577979   5.259832   5.139644
    19  H    4.456625   5.678479   4.247625   5.417710   6.075145
    20  C    4.579211   5.372066   3.128420   4.152421   5.596863
    21  H    5.593887   6.387429   4.207728   5.053744   6.690853
    22  H    4.557137   4.978544   2.985503   4.227289   5.394407
                   16         17         18         19         20
    16  H    0.000000
    17  C    4.890744   0.000000
    18  H    5.070915   1.101364   0.000000
    19  H    5.812882   1.102421   1.767636   0.000000
    20  C    5.165504   1.549984   2.187111   2.181057   0.000000
    21  H    6.256609   2.190061   2.750144   2.342632   1.096486
    22  H    5.037651   2.192210   2.358568   3.024720   1.098851
                   21         22
    21  H    0.000000
    22  H    1.767359   0.000000
 Stoichiometry    C4H11O6Si(1-)
 Framework group  C1[X(C4H11O6Si)]
 Deg. of freedom    60
 Full point group                 C1      NOp   1
 Largest Abelian subgroup         C1      NOp   1
 Largest concise Abelian subgroup C1      NOp   1
                         Standard orientation:                         
 ---------------------------------------------------------------------
 Center     Atomic      Atomic             Coordinates (Angstroms)
 Number     Number       Type             X           Y           Z
 ---------------------------------------------------------------------
      1         14           0       -0.695570   -0.699819    0.019268
      2          8           0       -1.864776    0.088362   -0.926787
      3          8           0       -1.544833   -1.538138    1.235081
      4          1           0       -1.785895   -0.903669    1.905242
      5          8           0       -0.345511   -2.206273   -0.667289
      6          8           0       -0.540818    0.698374    1.107207
      7          6           0        1.648962    0.921374   -0.671818
      8          1           0        1.090158    1.847353   -0.490437
      9          1           0        2.187370    1.053147   -1.621304
     10          6           0        2.676311    0.740918    0.444491
     11          1           0        2.169502    0.820376    1.411857
     12          1           0        3.447336    1.515044    0.380399
     13          8           0        0.845434   -0.201670   -0.791298
     14          1           0        0.301230   -2.064614   -1.354780
     15          8           0        3.319017   -0.512343    0.318255
     16          1           0        2.623211   -1.089337   -0.020100
     17          6           0       -1.279218    1.782171    0.646887
     18          1           0       -0.676978    2.704239    0.636948
     19          1           0       -2.135005    1.970807    1.315748
     20          6           0       -1.797612    1.472009   -0.780529
     21          1           0       -2.791261    1.910095   -0.932266
     22          1           0       -1.130439    1.908702   -1.536606
 ---------------------------------------------------------------------
 Rotational constants (GHZ):           1.3748420           0.7917438           0.6473090
 Standard basis: def2TZVPP (5D, 7F)
 There are   573 symmetry adapted cartesian basis functions of A   symmetry.
 There are   506 symmetry adapted basis functions of A   symmetry.
   506 basis functions,   766 primitive gaussians,   573 cartesian basis functions
    49 alpha electrons       49 beta electrons
       nuclear repulsion energy       864.9953573422 Hartrees.
 NAtoms=   22 NActive=   22 NUniq=   22 SFac= 1.00D+00 NAtFMM=   60 NAOKFM=F Big=F
 Integral buffers will be    131072 words long.
 Raffenetti 2 integral format.
 Two-electron integral symmetry is turned on.
 Nuclear repulsion after empirical dispersion term =      864.9813767617 Hartrees.
 One-electron integrals computed using PRISM.
   1 Symmetry operations used in ECPInt.
 ECPInt:  NShTT=   18145 NPrTT=   50058 LenC2=   17250 LenP2D=   36871.
 LDataN:  DoStor=T MaxTD1= 6 Len=  172
 NBasis=   506 RedAO= T EigKep=  2.26D-04  NBF=   506
 NBsUse=   506 1.00D-06 EigRej= -1.00D+00 NBFU=   506
 Initial guess from the checkpoint file:  "IRC_EGdepattackQbiL_forward_ProductOpt.chk"
 B after Tr=    -0.000000   -0.000000    0.000000
         Rot=    0.998854   -0.001508   -0.003709   -0.047690 Ang=  -5.49 deg.
 ExpMin= 7.01D-02 ExpMax= 4.48D+04 ExpMxC= 1.53D+03 IAcc=3 IRadAn=         5 AccDes= 0.00D+00
 Harris functional with IExCor= 4639 and IRadAn=       5 diagonalized for initial guess.
 HarFok:  IExCor= 4639 AccDes= 0.00D+00 IRadAn=         5 IDoV= 1 UseB2=F ITyADJ=14
 ICtDFT=  3500011 ScaDFX=  1.000000  1.000000  1.000000  1.000000
 FoFCou: FMM=F IPFlag=           0 FMFlag=      100000 FMFlg1=           0
         NFxFlg=           0 DoJE=T BraDBF=F KetDBF=T FulRan=T
         wScrn=  0.000000 ICntrl=       500 IOpCl=  0 I1Cent=   200000004 NGrid=           0
         NMat0=    1 NMatS0=      1 NMatT0=    0 NMatD0=    1 NMtDS0=    0 NMtDT0=    0
 Petite list used in FoFCou.
 Requested convergence on RMS density matrix=1.00D-08 within 128 cycles.
 Requested convergence on MAX density matrix=1.00D-06.
 Requested convergence on             energy=1.00D-06.
 No special actions if energy rises.
 Integral accuracy reduced to 1.0D-05 until final iterations.
 Initial convergence to 1.0D-05 achieved.  Increase integral accuracy.
 SCF Done:  E(RwB97XD) =  -900.189100620     A.U. after   13 cycles
            NFock= 13  Conv=0.27D-08     -V/T= 2.0036
   1 Symmetry operations used in ECPInt.
 ECPInt:  NShTT=   18145 NPrTT=   50058 LenC2=   17250 LenP2D=   36871.
 LDataN:  DoStor=T MaxTD1= 7 Len=  274
 Calling FoFJK, ICntrl=      2127 FMM=F ISym2X=0 I1Cent= 0 IOpClX= 0 NMat=1 NMatS=1 NMatT=0.
 ***** Axes restored to original set *****
 -------------------------------------------------------------------
 Center     Atomic                   Forces (Hartrees/Bohr)
 Number     Number              X              Y              Z
 -------------------------------------------------------------------
      1       14          -0.002849214    0.000693505   -0.000883981
      2        8          -0.002165201    0.001575189   -0.002012168
      3        8          -0.004779057    0.000360486    0.003057200
      4        1          -0.000498501    0.000133910    0.000342778
      5        8           0.005224670   -0.000588887   -0.005317594
      6        8          -0.000275784   -0.005296659   -0.002887018
      7        6           0.000853335   -0.000878268    0.001960705
      8        1           0.000668288   -0.000075725    0.001036171
      9        1          -0.000101131    0.000225110   -0.000226890
     10        6           0.000598918   -0.000446245   -0.002034115
     11        1           0.000491651    0.000111598    0.000171713
     12        1           0.000445345   -0.000512005    0.000583953
     13        8          -0.000048652    0.002294106    0.004475380
     14        1           0.000543928    0.000245335   -0.000038121
     15        8           0.000921065    0.000527249   -0.001261843
     16        1          -0.000073995    0.000360807    0.000950574
     17        6           0.001507605   -0.000189393    0.000695752
     18        1           0.000042861    0.000124121    0.000292388
     19        1           0.000326013    0.000171616   -0.000125903
     20        6           0.000729404    0.001089990    0.001195912
     21        1          -0.000131615   -0.000197080   -0.000010814
     22        1          -0.001429930    0.000271240    0.000035921
 -------------------------------------------------------------------
 Cartesian Forces:  Max     0.005317594 RMS     0.001724293

 GradGradGradGradGradGradGradGradGradGradGradGradGradGradGradGradGradGrad
 Berny optimization.
 Using GEDIIS/GDIIS optimizer.
 FormGI is forming the generalized inverse of G from B-inverse, IUseBI=4.
 Internal  Forces:  Max     0.009576281 RMS     0.002021797
 Search for a local minimum.
 Step number   2 out of a maximum of  122
 All quantities printed in internal units (Hartrees-Bohrs-Radians)
 Mixed Optimization -- RFO/linear search
 Update second derivatives using D2CorX and points    1    2
 DE= -3.06D-03 DEPred=-2.29D-03 R= 1.33D+00
 TightC=F SS=  1.41D+00  RLast= 3.40D-01 DXNew= 5.0454D-01 1.0201D+00
 Trust test= 1.33D+00 RLast= 3.40D-01 DXMaxT set to 5.05D-01
 ITU=  1  0
 Use linear search instead of GDIIS.
     Eigenvalues ---    0.00475   0.00674   0.01138   0.01588   0.01796
     Eigenvalues ---    0.02265   0.02947   0.03128   0.04059   0.04555
     Eigenvalues ---    0.04814   0.04961   0.05068   0.05501   0.05902
     Eigenvalues ---    0.05917   0.06200   0.06227   0.08070   0.10734
     Eigenvalues ---    0.11356   0.11416   0.11426   0.11474   0.12235
     Eigenvalues ---    0.13632   0.13814   0.14153   0.16000   0.16000
     Eigenvalues ---    0.16016   0.17281   0.19000   0.19796   0.22007
     Eigenvalues ---    0.22056   0.22858   0.25036   0.26407   0.27872
     Eigenvalues ---    0.28226   0.32870   0.33456   0.33535   0.33731
     Eigenvalues ---    0.33938   0.34095   0.34134   0.34281   0.34303
     Eigenvalues ---    0.35237   0.35627   0.37508   0.43533   0.44712
     Eigenvalues ---    0.47268   0.48604   0.54377   0.56493   0.56721
 RFO step:  Lambda=-9.25371407D-03 EMin= 4.74807448D-03
 Quartic linear search produced a step of  1.59886.
 Iteration  1 RMS(Cart)=  0.26067554 RMS(Int)=  0.03216639
 Iteration  2 RMS(Cart)=  0.08034995 RMS(Int)=  0.00416378
 Iteration  3 RMS(Cart)=  0.00361573 RMS(Int)=  0.00353369
 Iteration  4 RMS(Cart)=  0.00001942 RMS(Int)=  0.00353368
 Iteration  5 RMS(Cart)=  0.00000030 RMS(Int)=  0.00353368
 Variable       Old X    -DE/DX   Delta X   Delta X   Delta X     New X
                                 (Linear)    (Quad)   (Total)
    R1        3.20880  -0.00147   0.00567  -0.00582  -0.00043   3.20838
    R2        3.21932  -0.00101  -0.00514  -0.00708  -0.01222   3.20710
    R3        3.19766   0.00213   0.00223   0.01242   0.01465   3.21231
    R4        3.36058   0.00198   0.01012   0.01884   0.02808   3.38866
    R5        3.42237  -0.00577  -0.00728  -0.04860  -0.05588   3.36649
    R6        2.63234  -0.00028  -0.00507  -0.00257  -0.00717   2.62518
    R7        1.80246   0.00010  -0.00202  -0.00007  -0.00209   1.80037
    R8        1.80366  -0.00040  -0.00260  -0.00204  -0.00464   1.79902
    R9        2.62648  -0.00100   0.00890  -0.00288   0.00594   2.63241
   R10        2.07233   0.00054   0.00008   0.00327   0.00335   2.07568
   R11        2.07764   0.00022  -0.00052   0.00124   0.00072   2.07836
   R12        2.88711  -0.00255   0.01116  -0.01497  -0.00381   2.88330
   R13        2.61927  -0.00209  -0.00139  -0.00939  -0.01078   2.60849
   R14        2.06920   0.00038   0.00070   0.00246   0.00316   2.07235
   R15        2.06824  -0.00007  -0.00000  -0.00040  -0.00040   2.06784
   R16        2.67226   0.00068   0.00359   0.00402   0.00761   2.67987
   R17        1.82390  -0.00035  -0.00013  -0.00136  -0.00148   1.82242
   R18        2.08128  -0.00008   0.00006  -0.00050  -0.00044   2.08084
   R19        2.08327   0.00013   0.00110   0.00103   0.00213   2.08540
   R20        2.92904  -0.00104  -0.00348  -0.01177  -0.01428   2.91476
   R21        2.07206   0.00002   0.00066   0.00024   0.00090   2.07296
   R22        2.07653   0.00092  -0.00021   0.00558   0.00537   2.08190
    A1        1.85749   0.00488   0.01667   0.06727   0.08247   1.93995
    A2        1.90671  -0.00608  -0.05538  -0.09001  -0.14518   1.76153
    A3        1.60662  -0.00105  -0.01105  -0.01371  -0.02452   1.58210
    A4        1.78120   0.00073   0.06333   0.02620   0.09041   1.87161
    A5        1.52538  -0.00122   0.00383   0.00979   0.03134   1.55672
    A6        1.56447   0.00086  -0.00270  -0.01340  -0.02112   1.54335
    A7        2.64447  -0.00562  -0.08004  -0.09399  -0.17686   2.46761
    A8        2.76569   0.00715   0.06736   0.10371   0.17101   2.93670
    A9        1.45781   0.00302  -0.00053   0.04872   0.07140   1.52921
   A10        1.55430  -0.00136  -0.00096  -0.03245  -0.03448   1.51981
   A11        1.94912   0.00053   0.02472   0.00901   0.03143   1.98055
   A12        1.87559  -0.00014  -0.00232  -0.00229  -0.00461   1.87097
   A13        1.87580   0.00062  -0.00169   0.00739   0.00570   1.88149
   A14        1.94362   0.00091   0.00310   0.00982   0.00843   1.95204
   A15        1.86625   0.00023   0.00008   0.01666   0.01675   1.88300
   A16        1.89815   0.00040   0.00635   0.00018   0.00632   1.90447
   A17        1.98560   0.00079  -0.00947  -0.00272  -0.01232   1.97328
   A18        1.89216   0.00069  -0.00941   0.00698  -0.00240   1.88977
   A19        1.88238   0.00088   0.00642   0.01040   0.01682   1.89919
   A20        1.93597  -0.00285   0.00549  -0.02910  -0.02372   1.91225
   A21        1.90255   0.00006   0.00303  -0.00416  -0.00120   1.90135
   A22        1.92558  -0.00002  -0.00576   0.00079  -0.00497   1.92060
   A23        1.92312  -0.00069   0.00946  -0.00365   0.00578   1.92889
   A24        1.90337  -0.00015  -0.00092  -0.00318  -0.00410   1.89927
   A25        1.93215  -0.00006   0.00756  -0.00512   0.00239   1.93454
   A26        1.87701   0.00087  -0.01357   0.01551   0.00196   1.87897
   A27        2.31525  -0.00958  -0.02282  -0.08332  -0.10614   2.20910
   A28        1.80643   0.00053   0.00134   0.00687   0.00822   1.81465
   A29        1.94477  -0.00006   0.00289  -0.00758  -0.00435   1.94042
   A30        1.92293   0.00071   0.00012   0.01319   0.01385   1.93678
   A31        1.90355  -0.00119   0.00266  -0.01605  -0.01503   1.88852
   A32        1.86158  -0.00006  -0.00133   0.00393   0.00247   1.86405
   A33        1.91995   0.00008  -0.00525  -0.00195  -0.00706   1.91289
   A34        1.91066   0.00057   0.00077   0.00936   0.01070   1.92135
   A35        1.88766   0.00081  -0.01089  -0.00013  -0.01183   1.87583
   A36        1.91626  -0.00027  -0.00199   0.00103  -0.00072   1.91555
   A37        1.93027   0.00002   0.00543   0.00177   0.00737   1.93764
   A38        1.92898  -0.00024   0.00406   0.00083   0.00510   1.93408
   A39        1.92950  -0.00082   0.00278  -0.01160  -0.00868   1.92082
   A40        1.87152   0.00048   0.00086   0.00816   0.00894   1.88047
    D1        1.95421  -0.00017  -0.04120  -0.03914  -0.08769   1.86653
    D2       -2.70535  -0.00164  -0.04769  -0.03200  -0.08114  -2.78649
    D3        0.37945  -0.00094  -0.03587  -0.02361  -0.05866   0.32079
    D4       -1.18212   0.00066  -0.03515   0.01163  -0.01801  -1.20013
    D5       -1.37702  -0.00127  -0.01663  -0.00824  -0.02511  -1.40214
    D6        2.99841   0.00517   0.03904   0.07912   0.11268   3.11109
    D7        0.22926  -0.00209  -0.02881  -0.02621  -0.05910   0.17016
    D8        1.75378  -0.00286  -0.02850  -0.11044  -0.12915   1.62463
    D9        1.45660  -0.00093   0.00787  -0.01803  -0.01166   1.44493
   D10       -2.96787   0.00348   0.02384   0.05172   0.07385  -2.89402
   D11       -1.52987  -0.00003   0.00248   0.00006   0.00259  -1.52728
   D12       -0.29826  -0.00302  -0.06256  -0.06662  -0.12601  -0.42427
   D13       -0.10740   0.00131   0.05112   0.05883   0.10866   0.00126
   D14       -1.96484  -0.00360   0.03461  -0.00796   0.02632  -1.93853
[...]
 6059,0.00011291,0.00044195,0.02223320,0.01502522,-0.00278186,-0.000292
 09,-0.00085296,0.00069862,-0.00082880,0.00085626,0.00043689,0.04757163
 ,0.02481764,-0.06568664,-0.02030546,-0.01121031,0.00736128,-0.05726687
 ,-0.03279273,0.06618251,-0.14930253,-0.01067002,-0.04399714,-0.0160907
 7,0.00882890,-0.00252457,-0.00255726,-0.00426099,-0.01088451,-0.001819
 16,-0.00025320,0.00035230,-0.02338520,-0.01820794,0.00478307,-0.007249
 04,0.01477011,-0.01500973,-0.17979011,-0.08157311,0.04552296,0.0014598
 7,-0.01236697,0.00438037,-0.03761825,-0.02778125,0.01183856,-0.0300863
 9,-0.01566578,0.01743495,0.00180734,0.00101683,0.00160393,-0.00166094,
 0.00215976,0.00535283,0.44843729,-0.01687731,-0.03929192,-0.00314959,0
 .00445868,0.00531717,0.00009827,-0.00854602,0.00188150,-0.00900691,-0.
 00082292,-0.00195578,-0.00052847,-0.02157386,-0.00852403,0.00397608,0.
 01066820,-0.00420409,0.01152606,-0.07559920,-0.12621315,0.04569044,-0.
 03281065,-0.02397721,0.01653060,-0.01461151,-0.00516824,0.00140501,0.0
 0018771,-0.00174159,0.00280437,0.00024479,0.00061014,0.00092596,0.0011
 5570,0.00011467,-0.00154529,0.15337818,0.19178743,-0.03779540,-0.00078
 442,-0.05507561,0.00551428,-0.00277224,0.00465448,-0.01278443,-0.00516
 522,-0.00515232,-0.00003033,-0.00038568,0.00121874,0.01054303,0.006475
 73,0.00389700,-0.01385930,0.01605341,-0.00470053,0.03326160,0.03427183
 ,-0.09392908,0.00756509,0.00895802,-0.00189635,-0.01009301,-0.01005897
 ,0.01388668,0.03418036,0.01993149,-0.01227590,-0.00137883,0.00118228,0
 .00377597,0.00391468,-0.00319735,-0.00498353,-0.01587585,-0.06856245,0
 .15490302,0.00122028,0.00164222,0.00872899,-0.00229167,0.00177804,-0.0
 0047153,0.00064949,-0.00034093,-0.00070630,0.00102144,0.00012625,-0.00
 029917,-0.05985680,0.05021447,0.15611397,-0.00055855,0.00023207,0.0000
 7716,-0.00060842,-0.00089367,-0.00041261,0.00002719,0.00012368,-0.0000
 4697,-0.00004541,-0.00004278,0.00005493,0.00023555,0.00020615,0.000014
 73,-0.00002345,-0.00001202,-0.00005037,0.00007657,-0.00002806,-0.00007
 946,-0.00049095,-0.00040945,-0.00134816,0.06111381,-0.00880603,0.00414
 591,0.02069596,0.00067293,-0.00073784,-0.00144640,-0.00045383,-0.00107
 260,0.00364870,-0.00015543,0.00075430,0.00098927,0.06132067,-0.0862602
 7,-0.17518954,0.00075402,-0.00034225,-0.00097491,-0.00048083,-0.000447
 74,-0.00029459,-0.00006124,-0.00005550,0.00002023,-0.00001533,-0.00004
 608,0.00004414,0.00005986,0.00019039,-0.00000792,-0.00000478,0.0000185
 4,0.00002402,0.00003863,-0.00001635,-0.00003664,-0.00019105,-0.0013831
 1,-0.00026158,-0.05262202,0.08639146,0.00672636,-0.00790443,-0.0173069
 9,0.00074780,-0.00630240,0.00104067,0.00058684,0.00300871,-0.00382047,
 0.00043138,-0.00072957,-0.00089874,0.15462441,-0.14115535,-0.43890254,
 -0.00044221,0.00052448,0.00074627,0.00020881,0.00021135,0.00011442,0.0
 0000259,-0.00004315,0.00002793,-0.00011680,-0.00001731,-0.00002131,-0.
 00009184,-0.00014457,-0.00005898,0.00001008,-0.00003040,0.00000096,-0.
 00003023,0.00001969,0.00005608,-0.00143266,-0.00037204,0.00034909,-0.1
 6163263,0.15333316,0.45811482,0.00282311,0.00026772,-0.00111048,-0.000
 62893,0.00031333,0.00028127,-0.00148098,0.00036416,0.00031917,0.000362
 09,-0.00006145,0.00019913,-0.00031662,-0.00057952,0.00064801,-0.001020
 34,0.00096531,0.00004512,-0.00549904,0.01760372,0.00049196,-0.00008197
 ,0.00157921,0.00305098,0.00051866,-0.00039386,0.00102438,-0.10038639,0
 .01227696,0.00710022,0.00010690,0.02835521,-0.00303416,0.01191446,-0.0
 2894073,0.00457020,-0.00029477,0.00559154,0.00066169,0.00001328,0.0000
 9470,-0.00005468,0.44255412,-0.00266241,-0.00539939,-0.00016381,0.0004
 2052,0.00093916,-0.00057555,-0.00077948,0.00266361,0.00111808,-0.00030
 510,-0.00097315,-0.00017846,0.00041851,0.00160270,-0.00027762,0.002823
 73,0.00080465,-0.00050279,0.00961479,-0.04325748,0.00386756,0.00262896
 ,-0.00114875,-0.00623903,-0.00173490,0.00158181,0.00009543,0.05737360,
 -0.22397881,0.01652545,0.00996995,-0.02212231,0.00973421,0.00402026,-0
 .02927092,0.00431531,-0.00033315,0.00723759,0.00207698,-0.00004005,-0.
 00020897,0.00014117,0.07881610,0.41894348,-0.00388221,-0.00125978,-0.0
 0467916,0.00063461,-0.00021724,0.00050156,-0.00085173,0.00094351,0.001
 77484,0.00073040,-0.00023387,-0.00015176,0.00076526,0.00017332,0.00056
 596,0.00011918,0.00037349,0.00182585,0.00990201,-0.02882812,0.00674015
 ,0.00335944,-0.00342660,-0.00489250,-0.00056935,0.00133943,0.00390261,
 -0.00199673,0.04114629,-0.07644169,-0.00422256,0.02953687,0.00140633,-
 0.00202684,0.01433267,-0.00028233,0.00373163,-0.00463277,0.00231838,-0
 .00017340,-0.00001422,0.00005925,-0.18970486,-0.12383556,0.17472718,-0
 .00408790,0.00403568,0.00125430,0.00044666,-0.00079902,-0.00005789,0.0
 0190385,-0.00117784,0.00028696,0.00011902,0.00023425,-0.00025559,0.000
 61605,-0.00001143,-0.00082274,-0.00017451,-0.00125626,0.00025283,0.002
 61142,0.00468344,0.00032423,-0.00084816,-0.00041211,0.00067422,-0.0004
 0528,-0.00045615,-0.00024862,0.00747142,0.00282664,-0.00378815,-0.0002
 0332,0.00172555,-0.00096923,0.00101901,0.00185451,0.00032668,-0.001021
 49,-0.00329983,-0.00185375,0.00010603,-0.00005851,0.00004906,-0.348890
 22,-0.15969669,0.18442545,0.34144584,0.00598226,0.00175862,0.00111216,
 -0.00079444,-0.00002938,0.00002000,-0.00075341,-0.00130248,-0.00075609
 ,0.00023838,0.00011430,0.00020225,-0.00050412,-0.00124774,0.00030696,-
 0.00085976,0.00034045,-0.00058150,-0.00300274,-0.00286526,-0.00027792,
 -0.00029820,0.00090378,0.00053785,0.00031033,-0.00009685,-0.00005227,-
 0.03623238,-0.03046951,0.02195161,0.00007817,0.00052816,0.00042917,0.0
 0260655,-0.00681666,0.00121513,-0.00299394,0.00328080,0.00114969,0.000
 10037,0.00009160,-0.00007466,-0.11555858,-0.10806087,0.07453420,0.1514
 5671,0.14434052,0.00429676,0.00128026,0.00565868,-0.00069875,0.0003488
 7,-0.00042639,0.00187249,-0.00156525,-0.00218750,-0.00067170,0.0004800
 5,-0.00007973,-0.00107925,0.00003298,-0.00077344,-0.00033264,-0.000197
 30,-0.00111652,-0.00147111,-0.00454586,0.00198148,0.00037544,0.0008803
 4,-0.00048043,0.00010524,-0.00004442,-0.00026629,0.00552540,0.00742344
 ,-0.00151211,0.00068694,0.00013980,-0.00026070,-0.00106879,-0.00107105
 ,-0.00012430,-0.00366745,0.00289961,-0.00194848,0.00017212,0.00000521,
 -0.00010019,0.17553161,0.09375809,-0.10742206,-0.17960608,-0.09965308,
 0.10908557,0.00448155,0.01655071,-0.01710178,-0.00620788,-0.00502668,0
 .01713087,-0.00079760,-0.01069605,-0.00141975,0.00009635,0.00235959,0.
 00251895,-0.00122727,-0.00025848,0.00136837,-0.14542807,0.09741256,0.0
 2287211,-0.00053963,0.00090641,-0.00006262,-0.00119786,-0.00056285,-0.
 00051466,0.00061140,-0.00047083,0.00028767,-0.00054234,0.00038342,0.00
 021034,-0.00030105,0.00019502,0.00011061,0.00017838,0.00006403,-0.0000
 0175,0.00145667,-0.00093556,0.00149920,0.00014016,-0.00007536,0.000141
 58,0.00050074,-0.00079123,-0.00010159,-0.00022103,0.00030840,-0.000013
 64,0.52745115,0.00290664,-0.03205449,0.02144109,0.00114403,-0.03451976
 ,0.03353729,-0.00150994,0.00223188,-0.00124190,0.00037831,-0.00346429,
 -0.00056489,0.00125799,-0.00008346,-0.00185332,0.08801964,-0.18868447,
 -0.01178118,0.00120854,0.00062432,-0.00036470,0.00039295,0.00087900,0.
 00038647,-0.00060551,0.00048282,-0.00046216,0.00069659,-0.00061115,0.0
 0053920,0.00048575,-0.00040561,-0.00080163,-0.00059165,-0.00005819,-0.
 00013789,-0.00336329,0.00172464,-0.00312836,-0.00025077,0.00055595,-0.
 00044758,-0.00074860,0.00094225,-0.00016140,0.00025537,-0.00039663,0.0
 0006205,0.03258190,0.57274103,-0.00827896,0.00149720,0.00964402,0.0118
 9796,0.02014396,-0.01997619,-0.00029231,0.00064590,0.00054491,0.001074
 30,0.00031632,0.00049425,0.00071491,-0.00126344,-0.00033903,0.02851754
 ,-0.03143813,-0.08557884,0.00078682,0.00054642,-0.00033421,-0.00023130
 ,0.00002338,0.00029192,-0.00014353,0.00002482,-0.00003698,0.00010234,-
 0.00011772,-0.00013251,-0.00007083,0.00000629,0.00004527,0.00000196,0.
 00002028,0.00006443,-0.00254841,0.00194661,-0.00456791,-0.00000966,0.0
 0027781,-0.00021736,-0.00001372,-0.00004259,0.00005436,0.00006160,-0.0
 0006126,-0.00004832,0.04042656,-0.03475927,0.48236905,-0.00153018,0.00
 069984,0.00301961,0.00161909,-0.00082543,0.00196993,0.00023212,0.00165
 543,0.00029983,-0.00005270,-0.00004491,-0.00036325,0.00018749,-0.00036
 077,-0.00013614,0.01216287,0.02780101,-0.00565749,0.00024038,0.0003574
 4,-0.00003333,0.00016011,-0.00036615,0.00006306,0.00005956,-0.00012626
 ,0.00003158,-0.00002175,0.00004674,0.00007956,0.00000259,0.00002274,0.
 00002345,0.00003035,0.00000261,0.00000025,-0.00020071,-0.00005282,-0.0
 0030205,-0.00002910,0.00015083,-0.00013140,0.00003768,-0.00011330,-0.0
 0005179,0.00000640,0.00002393,0.00002645,-0.10988272,-0.10204585,0.022
 85787,0.11208190,-0.00046129,0.00399476,-0.00748194,-0.00036015,0.0016
 1771,0.00118325,0.00020958,-0.00378792,-0.00077240,-0.00012887,0.00055
 862,0.00091790,-0.00006704,-0.00034211,0.00057605,0.00522395,-0.038654
 82,0.00538235,-0.00062640,-0.00079935,0.00039340,0.00004431,-0.0000615
 7,-0.00005846,0.00019301,0.00000535,0.00007681,-0.00012359,0.00001020,
 -0.00015169,-0.00013471,0.00002595,0.00013094,0.00018081,0.00001772,0.
 00000740,0.00175030,0.00023366,0.00078188,0.00000189,0.00005705,-0.000
 02366,0.00017932,0.00006252,-0.00000035,-0.00017950,0.00007108,-0.0000
 1582,-0.09907113,-0.20868293,0.03876258,0.10126268,0.24859073,0.001970
 36,-0.00015984,-0.00277433,0.00082106,0.00370520,-0.00617813,-0.000213
 79,-0.00032531,0.00028507,-0.00007057,0.00008319,0.00010078,-0.0003197
 3,0.00061097,0.00011176,-0.00081153,-0.00939624,0.00501201,0.00016181,
 0.00040507,-0.00016631,-0.00003585,-0.00013284,0.00004471,-0.00000174,
 -0.00005265,-0.00000340,-0.00001693,-0.00001295,0.00010545,-0.00001145
 ,-0.00001438,-0.00002409,-0.00001373,0.00000282,0.00001178,-0.00053420
 ,-0.00016456,0.00018350,0.00005408,-0.00024945,0.00020442,-0.00000989,
 -0.00005411,-0.00003506,0.00002432,0.00000463,-0.00001210,0.01951822,0
 .03664314,-0.05963811,-0.02260421,-0.04172194,0.06004166,-0.00337106,-
 0.00573302,0.00436931,0.00113659,0.00062134,-0.00150568,0.00039507,0.0
 0201522,0.00055050,-0.00026348,-0.00067030,-0.00069834,0.00041779,0.00
 042060,-0.00032066,-0.02478342,0.02479814,-0.00653339,0.00081181,0.000
 03086,0.00007452,0.00021729,0.00013410,0.00017935,-0.00018447,0.000106
 73,-0.00010921,0.00018054,-0.00023101,0.00001773,0.00009918,-0.0000678
 4,-0.00018071,-0.00013688,-0.00000466,-0.00001198,-0.00127235,0.001112
 05,-0.00147958,-0.00007753,-0.00006053,0.00002211,-0.00022404,0.000374
 89,0.00006884,0.00008349,-0.00016875,-0.00006008,-0.18804579,-0.023791
 18,-0.10470281,-0.01321693,-0.00549829,-0.01127251,0.21953113,0.003214
 01,0.00264623,-0.00202622,-0.00081609,0.00168015,-0.00009352,-0.000637
 86,-0.00024706,-0.00029199,0.00031881,0.00027326,0.00007852,-0.0002413
 3,-0.00001746,0.00007519,0.03415265,-0.00887823,0.01466760,-0.00038206
 ,-0.00041980,0.00018561,-0.00001973,-0.00010002,-0.00009955,0.00008131
 ,-0.00004725,0.00006679,-0.00009193,0.00013647,-0.00008114,-0.00003816
 ,0.00004300,0.00012647,0.00008743,-0.00000599,0.00001027,0.00112256,-0
 .00067354,0.00114244,0.00002832,-0.00003927,0.00001554,0.00008571,-0.0
 0013733,-0.00001481,-0.00001788,0.00007356,0.00003485,-0.02361252,-0.0
 5274549,-0.01037631,-0.02220507,-0.00206290,-0.01546072,0.00718479,0.0
 5932454,-0.00012471,-0.00096347,0.00014205,0.00151483,0.00117928,0.002
 22903,0.00013986,0.00076667,0.00010389,-0.00005466,-0.00030572,-0.0002
 3811,0.00005410,0.00032394,-0.00006815,0.00443672,0.00407590,0.0119995
 7,0.00010752,-0.00002680,-0.00003616,0.00003757,0.00007068,-0.00003955
 ,-0.00002709,0.00001871,-0.00001818,0.00007265,-0.00004146,-0.00003212
 ,0.00003252,-0.00000757,-0.00000747,-0.00003573,-0.00000623,-0.0000002
 2,-0.00016277,0.00007893,0.00018338,-0.00003137,-0.00010058,0.00001788
 ,-0.00007036,0.00011146,0.00004679,0.00002849,-0.00005235,-0.00002213,
 -0.10033679,-0.01042236,-0.12710156,0.00459013,0.00090140,0.00410925,0
 .11466904,0.01176886,0.13487178,0.00046316,0.01302552,-0.00072834,-0.0
 7925844,-0.01204240,0.00854229,0.00011501,-0.00016061,-0.00019589,-0.0
 0022393,-0.00037159,-0.00007205,0.00086312,0.00476787,0.00009075,-0.01
 838793,0.01864289,0.03348374,-0.00033886,0.00075847,-0.00006969,-0.000
 16870,-0.00022293,0.00028942,-0.00008419,-0.00002681,-0.00002644,-0.00
 007898,-0.00005471,0.00041096,0.00006915,-0.00007127,-0.00016885,-0.00
 003230,0.00000589,-0.00002953,-0.00118756,-0.00146956,-0.00021380,-0.0
 0056324,-0.00012405,0.00046332,0.00006365,-0.00028293,-0.00025417,0.00
 003666,0.00013368,0.00010038,-0.07835385,-0.00206191,0.00845474,-0.003
 03090,-0.00313695,0.01337525,0.00556132,0.00117436,-0.02688650,0.59367
 640,0.02688705,-0.03298204,-0.02101849,0.00057084,-0.24595353,0.021911
 55,-0.00175703,-0.00042172,0.00277168,0.00022790,0.00083400,0.00017007
 ,-0.00060821,0.00412394,-0.00020700,0.01217800,-0.02296843,-0.01837514
 ,0.00248903,0.00330836,-0.00149075,-0.00013883,-0.00097193,0.00059855,
 -0.00055039,-0.00021179,-0.00007015,-0.00037934,-0.00009937,0.00022658
 ,0.00003943,0.00002062,0.00001007,-0.00023860,0.00002978,0.00021981,-0
 .00829148,-0.00016510,0.00213352,0.00031006,-0.00232486,0.00085085,-0.
 00028142,-0.00043839,0.00018605,0.00047416,-0.00020488,-0.00027728,-0.
 00981815,-0.06277389,0.01243606,-0.00678138,-0.00131572,0.02704675,-0.
 00015129,-0.00001295,-0.00808498,-0.03651850,0.52126908,-0.00400712,-0
 .00583646,0.00621223,0.00139984,0.03992089,-0.08397116,0.00027788,0.00
 138626,-0.00059213,0.00021795,-0.00048123,-0.00036130,0.00137445,-0.00
 194736,0.00217780,0.02197824,-0.01062277,-0.01760771,-0.00021539,-0.00
 031282,0.00021172,0.00007252,0.00005983,0.00034202,-0.00005870,0.00011
 705,-0.00005890,0.00010211,-0.00013179,0.00021809,-0.00001907,-0.00005
 488,-0.00013480,0.00004182,0.00000102,-0.00003473,0.00042186,-0.000117
 69,-0.00146920,0.00009501,-0.00056667,0.00059689,0.00002956,0.00001241
 ,-0.00021921,-0.00003865,0.00006962,0.00012241,0.01316859,-0.00316965,
 -0.17462306,-0.00401896,-0.00083286,-0.00161238,0.00583934,0.00081835,
 -0.02090602,0.01399825,0.05528393,0.48226767,0.00115729,-0.00287439,-0
 .00098166,0.00887124,0.00533840,-0.00120258,0.00001928,0.00053958,0.00
 023982,-0.00002471,-0.00021222,-0.00017375,-0.00002831,0.00069206,-0.0
 0019764,0.00080856,0.00054296,0.00254882,0.00033761,-0.00009219,0.0000
 4450,0.00007723,0.00010240,-0.00004626,-0.00009078,0.00001915,-0.00004
 492,0.00008495,-0.00006900,-0.00007030,0.00003049,-0.00000881,-0.00002
 779,-0.00006697,-0.00000900,0.00000914,-0.00054257,0.00027399,0.000008
 49,-0.00001218,-0.00019936,0.00016101,-0.00013704,0.00020739,0.0000757
 7,0.00006888,-0.00009796,-0.00003991,-0.00656167,0.00234888,-0.0039424
 6,-0.00008854,-0.00011621,0.00083716,0.00171668,0.00004520,0.00052944,
 -0.25006927,0.08353444,0.04363650,0.26573083,-0.00344848,0.00048575,0.
 00557383,0.03250034,-0.03446242,-0.00680905,0.00015805,-0.00005344,-0.
 00066264,0.00003013,-0.00009153,-0.00003328,0.00026804,-0.00283965,0.0
 0026353,0.00000388,0.00175537,0.00049293,-0.00033986,-0.00054740,0.000
 21373,0.00004764,0.00014352,-0.00009349,0.00011481,0.00005161,0.000005
 07,0.00006419,0.00002801,-0.00002437,-0.00001747,-0.00000571,0.0000019
 9,0.00004751,-0.00000087,-0.00003746,0.00168391,0.00024274,-0.00029137
 ,0.00014045,0.00039659,-0.00044612,0.00006617,0.00003946,-0.00004152,-
 0.00009179,0.00004225,0.00005981,-0.00144860,0.00303135,-0.00158575,0.
 00042381,-0.00054721,-0.00087022,-0.00024829,0.00041488,-0.00044561,0.
 07742506,-0.07924864,-0.01828906,-0.09736032,0.10401479,0.00096104,0.0
 0091610,-0.00292010,-0.00739241,0.00767502,0.00421718,-0.00011921,-0.0
 0062811,0.00011074,0.00008261,0.00034238,0.00019669,-0.00005719,0.0004
 3495,0.00015783,0.00312122,-0.00270058,-0.00640643,-0.00006274,-0.0001
 0459,0.00000384,-0.00001342,0.00001052,-0.00010787,0.00004747,-0.00002
 598,0.00003698,-0.00007222,0.00008549,-0.00014333,-0.00003374,0.000038
 67,0.00009749,0.00003104,0.00000476,0.00002476,0.00035678,-0.00009811,
 0.00043171,-0.00005052,-0.00005266,0.00009146,0.00004316,-0.00005260,0
 .00007790,-0.00001600,0.00001022,-0.00003408,0.02649451,-0.01383723,-0
 .00036977,0.00014514,0.00125946,-0.00090248,-0.00076990,-0.00051499,0.
 00103746,0.04122398,-0.01960251,-0.06051519,-0.04606050,0.02071316,0.0
 6060223,-0.00296373,0.00213389,0.00203824,0.00799959,-0.01016038,0.002
 55534,0.00016587,-0.00015855,-0.00020727,-0.00002409,0.00006730,0.0000
 5130,0.00031084,-0.00083640,0.00013718,0.00117029,-0.00111242,-0.00130
 462,-0.00054353,-0.00045168,0.00020715,-0.00000633,0.00014686,-0.00012
 400,0.00012107,0.00000757,0.00002664,0.00002065,0.00003523,-0.00009869
 ,-0.00001785,0.00001333,0.00004921,0.00005250,-0.00000328,-0.00002460,
 0.00140887,-0.00006215,-0.00013392,-0.00004650,0.00021670,-0.00024292,
 0.00006564,0.00007055,0.00002264,-0.00008282,0.00002549,0.00001657,0.0
 0439035,0.00329212,0.00533741,0.00123296,0.00085828,-0.00084614,0.0014
 2507,0.00056747,0.00151710,-0.16907032,-0.06119630,-0.09429603,-0.0212
 8100,-0.01001917,-0.01785910,0.17567246,-0.00896412,0.00099666,0.00278
 384,-0.02152108,-0.04128981,-0.01726632,0.00079120,-0.00025383,-0.0005
 8680,-0.00005406,-0.00007818,0.00004398,0.00149090,-0.00156152,0.00064
 702,0.00033263,0.00149198,-0.00062899,-0.00008669,-0.00048215,0.000114
 36,0.00007669,0.00018221,-0.00021019,0.00010966,0.00002357,0.00001956,
 0.00004154,0.00000274,-0.00017011,-0.00001705,0.00000737,0.00006229,0.
 00002953,0.00000155,-0.00000658,0.00124162,0.00086743,0.00045039,-0.00
 026424,0.00033305,-0.00041373,0.00000499,0.00017914,0.00010041,-0.0000
 8930,-0.00005485,-0.00003529,0.00200541,0.00126712,0.00299684,0.000474
 88,0.00100916,0.00011345,-0.00017358,0.00079522,0.00116127,-0.05938952
 ,-0.07949254,-0.05530614,0.00739501,0.00715054,0.00612660,0.07656556,0
 .10890514,-0.00135087,0.00050120,-0.00005474,0.00658761,0.00098594,0.0
 1083474,0.00023615,-0.00021719,0.00001037,-0.00009218,0.00010709,0.000
 01939,0.00009984,-0.00034073,-0.00001899,0.00182511,-0.00002138,0.0025
 2227,-0.00019137,-0.00067228,0.00026587,0.00005806,0.00021092,-0.00025
 427,0.00004377,0.00003308,0.00001730,0.00001988,0.00003960,-0.00024358
 ,-0.00001064,0.00002333,0.00007841,0.00002651,-0.00000331,-0.00000579,
 0.00085804,0.00029594,0.00019694,0.00000117,0.00015664,-0.00009354,0.0
 0000169,0.00016598,0.00012261,-0.00005144,-0.00003436,-0.00003336,-0.0
 2619499,-0.00947572,-0.02054437,0.00019176,0.00068569,0.00113600,0.001
 85411,-0.00003124,-0.00627142,-0.09178783,-0.05471919,-0.13004305,0.00
 469710,0.00230588,0.00431297,0.10317850,0.06000411,0.13804625\\0.00000
 949,-0.00000169,0.00002095,0.00000776,0.00001039,-0.00001210,0.0000017
 4,0.00000491,-0.00000225,-0.00000280,0.00000418,-0.00000234,-0.0000024
 8,-0.00001018,0.00000522,0.00000098,0.00000797,-0.00001137,0.00002846,
 0.00001630,-0.00001172,-0.00000437,-0.00000263,0.00000194,-0.00000437,
 -0.00000246,-0.00000128,-0.00000677,0.00001818,-0.00000024,-0.00000017
 ,0.00000211,0.00000252,-0.00000063,0.00000046,-0.00000322,-0.00002469,
 -0.00001351,0.00000064,0.00000270,-0.00000228,-0.00000306,0.00000705,-
 0.00000617,0.00000285,-0.00000244,-0.00000156,-0.00000711,-0.00000485,
 0.00000806,-0.00000148,-0.00000133,-0.00000237,0.00000440,0.00000125,-
 0.00000133,0.00000239,-0.00000453,-0.00002798,0.00000565,-0.00000061,-
 0.00000042,0.00000441,0.00000060,0.00000001,0.00000519\\\@
 The archive entry for this job was punched.


 THE WISE MAN HAS THE POWER TO REASON AWAY
 WHAT A FOOL BELIEVES.
                     - DOOBIE BROTHERS
 Job cpu time:       0 days  5 hours 30 minutes  4.6 seconds.
 Elapsed time:       0 days  1 hours 22 minutes 44.4 seconds.
 File lengths (MBytes):  RWF=    456 Int=      0 D2E=      0 Chk=     21 Scr=      1
 Normal termination of Gaussian 16 at Wed Mar 20 13:14:48 2024.
