 Entering Gaussian System, Link 0=/opt/software/gaussian/g16.c01/g16
 Initial command:
 /opt/software/gaussian/g16.c01/l1.exe "/scratch/arhender/25094683/Gau-260053.inp" -scrdir="/scratch/arhender/25094683/"
 Entering Link 1 = /opt/software/gaussian/g16.c01/l1.exe PID=    260054.
  
 Copyright (c) 1988-2019, Gaussian, Inc.  All Rights Reserved.
  
 This is part of the Gaussian(R) 16 program.  It is based on
 the Gaussian(R) 09 system (copyright 2009, Gaussian, Inc.),
 the Gaussian(R) 03 system (copyright 2003, Gaussian, Inc.),
 the Gaussian(R) 98 system (copyright 1998, Gaussian, Inc.),
 the Gaussian(R) 94 system (copyright 1995, Gaussian, Inc.),
 the Gaussian 92(TM) system (copyright 1992, Gaussian, Inc.),
 the Gaussian 90(TM) system (copyright 1990, Gaussian, Inc.),
 the Gaussian 88(TM) system (copyright 1988, Gaussian, Inc.),
 the Gaussian 86(TM) system (copyright 1986, Carnegie Mellon
 University), and the Gaussian 82(TM) system (copyright 1983,
 Carnegie Mellon University). Gaussian is a federally registered
 trademark of Gaussian, Inc.
  
 This software contains proprietary and confidential information,
 including trade secrets, belonging to Gaussian, Inc.
  
 This software is provided under written license and may be
 used, copied, transmitted, or stored only in accord with that
 written license.
  
 The following legend is applicable only to US Government
 contracts under FAR:
  
                    RESTRICTED RIGHTS LEGEND
  
 Use, reproduction and disclosure by the US Government is
 subject to restrictions as set forth in subparagraphs (a)
 and (c) of the Commercial Computer Software - Restricted
 Rights clause in FAR 52.227-19.
  
 Gaussian, Inc.
 340 Quinnipiac St., Bldg. 40, Wallingford CT 06492
  
  
 ---------------------------------------------------------------
 Warning -- This program may not be used in any manner that
 competes with the business of Gaussian, Inc. or will provide
 assistance to any competitor of Gaussian, Inc.  The licensee
 of this program is prohibited from giving any competitor of
 Gaussian, Inc. access to this program.  By using this program,
 the user acknowledges that Gaussian, Inc. is engaged in the
 business of creating and licensing software in the field of
 computational chemistry and represents and warrants to the
 licensee that it is not a competitor of Gaussian, Inc. and that
 it will not use this program in any manner prohibited above.
 ---------------------------------------------------------------
  

 Cite this work as:
 Gaussian 16, Revision C.01,
 M. J. Frisch, G. W. Trucks, H. B. Schlegel, G. E. Scuseria, 
 M. A. Robb, J. R. Cheeseman, G. Scalmani, V. Barone, 
 G. A. Petersson, H. Nakatsuji, X. Li, M. Caricato, A. V. Marenich, 
 J. Bloino, B. G. Janesko, R. Gomperts, B. Mennucci, H. P. Hratchian, 
 J. V. Ortiz, A. F. Izmaylov, J. L. Sonnenberg, D. Williams-Young, 
 F. Ding, F. Lipparini, F. Egidi, J. Goings, B. Peng, A. Petrone, 
 T. Henderson, D. Ranasinghe, V. G. Zakrzewski, J. Gao, N. Rega, 
 G. Zheng, W. Liang, M. Hada, M. Ehara, K. Toyota, R. Fukuda, 
 J. Hasegawa, M. Ishida, T. Nakajima, Y. Honda, O. Kitao, H. Nakai, 
 T. Vreven, K. Throssell, J. A. Montgomery, Jr., J. E. Peralta, 
 F. Ogliaro, M. J. Bearpark, J. J. Heyd, E. N. Brothers, K. N. Kudin, 
 V. N. Staroverov, T. A. Keith, R. Kobayashi, J. Normand, 
 K. Raghavachari, A. P. Rendell, J. C. Burant, S. S. Iyengar, 
 J. Tomasi, M. Cossi, J. M. Millam, M. Klene, C. Adamo, R. Cammi, 
 J. W. Ochterski, R. L. Martin, K. Morokuma, O. Farkas, 
 J. B. Foresman, and D. J. Fox, Gaussian, Inc., Wallingford CT, 2019.
 
 ******************************************
 Gaussian 16:  ES64L-G16RevC.01  3-Jul-2019
                12-Feb-2024 
 ******************************************
 %chk=PL3HL3_IRC_reverse_ReactantOpt.chk
 %mem=1600MB
 %nprocs=4
 Will use up to    4 processors via shared memory.
 ---------------------------------------------
 # opt freq wb97xd/def2tzvpp geom=connectivity
 ---------------------------------------------
 1/18=20,19=15,26=3,38=1,57=2/1,3;
 2/9=110,12=2,17=6,18=5,40=1/2;
 3/5=44,7=202,11=2,25=1,30=1,71=1,74=-58/1,2,3;
 4//1;
 5/5=2,38=5/2;
 6/7=2,8=2,9=2,10=2,28=1/1;
 7//1,2,3,16;
 1/18=20,19=15,26=3/3(2);
 2/9=110/2;
 99//99;
 2/9=110/2;
 3/5=44,7=202,11=2,25=1,30=1,71=1,74=-58/1,2,3;
 4/5=5,16=3,69=1/1;
 5/5=2,38=5/2;
 7//1,2,3,16;
 1/18=20,19=15,26=3/3(-5);
 2/9=110/2;
 6/7=2,8=2,9=2,10=2,19=2,28=1/1;
 99/9=1/99;
 --------------------------
 IRC P(=L)2(L) to H(=L)3 TS
 --------------------------
 Symbolic Z-matrix:
 Charge = -2 Multiplicity = 1
 Si                   -0.48238  -0.2      -0.06766 
 O                     0.49172  -1.08976  -1.24789 
 O                    -1.61995   0.46281   1.13207 
 O                    -1.86926  -0.53434  -1.06649 
 O                     0.19203   1.29344  -0.35425 
 O                     2.93999   0.9506    1.01815 
 O                     0.09702  -1.23432   1.14703 
 C                     2.49897   1.95959   0.28333 
 H                     3.31413   2.5097   -0.31866 
 H                     2.01469   2.80379   0.86873 
 C                     1.47103   1.63065  -0.82659 
 H                     1.87907   0.82092  -1.44363 
 H                     1.35771   2.52954  -1.46224 
 C                     1.31706  -1.83471   0.80118 
 H                     2.13621  -1.12384   0.99046 
 H                     1.45742  -2.75665   1.38946 
 C                     1.22142  -2.12289  -0.69881 
 H                     2.2266   -2.18299  -1.14684 
 H                     0.72211  -3.09983  -0.87467 
 C                    -3.07891  -0.07026  -0.57788 
 H                    -3.68257   0.37824  -1.38444 
 H                    -3.66864  -0.90106  -0.14775 
 C                    -2.74797   0.94448   0.52173 
 H                    -2.58168   1.94041   0.06582 
 H                    -3.58383   1.04514   1.23586 
 

 GradGradGradGradGradGradGradGradGradGradGradGradGradGradGradGradGradGrad
 Berny optimization.
 Initialization pass.
                           ----------------------------
                           !    Initial Parameters    !
                           ! (Angstroms and Degrees)  !
 --------------------------                            --------------------------
 ! Name  Definition              Value          Derivative Info.                !
 --------------------------------------------------------------------------------
 ! R1    R(1,2)                  1.7702         estimate D2E/DX2                !
 ! R2    R(1,3)                  1.7812         estimate D2E/DX2                !
 ! R3    R(1,4)                  1.7415         estimate D2E/DX2                !
 ! R4    R(1,5)                  1.6635         estimate D2E/DX2                !
 ! R5    R(1,7)                  1.6973         estimate D2E/DX2                !
 ! R6    R(2,17)                 1.3789         estimate D2E/DX2                !
 ! R7    R(3,23)                 1.37           estimate D2E/DX2                !
 ! R8    R(4,20)                 1.3847         estimate D2E/DX2                !
 ! R9    R(5,11)                 1.4045         estimate D2E/DX2                !
 ! R10   R(6,8)                  1.3238         estimate D2E/DX2                !
 ! R11   R(7,14)                 1.4031         estimate D2E/DX2                !
 ! R12   R(8,9)                  1.153          estimate D2E/DX2                !
 ! R13   R(8,10)                 1.1357         estimate D2E/DX2                !
 ! R14   R(8,11)                 1.5482         estimate D2E/DX2                !
 ! R15   R(11,12)                1.0968         estimate D2E/DX2                !
 ! R16   R(11,13)                1.1067         estimate D2E/DX2                !
 ! R17   R(14,15)                1.101          estimate D2E/DX2                !
 ! R18   R(14,16)                1.1026         estimate D2E/DX2                !
 ! R19   R(14,17)                1.5304         estimate D2E/DX2                !
 ! R20   R(17,18)                1.1021         estimate D2E/DX2                !
 ! R21   R(17,19)                1.1111         estimate D2E/DX2                !
 ! R22   R(20,21)                1.1028         estimate D2E/DX2                !
 ! R23   R(20,22)                1.1059         estimate D2E/DX2                !
 ! R24   R(20,23)                1.5324         estimate D2E/DX2                !
 ! R25   R(23,24)                1.1079         estimate D2E/DX2                !
 ! R26   R(23,25)                1.104          estimate D2E/DX2                !
 ! A1    A(2,1,4)               87.6693         estimate D2E/DX2                !
 ! A2    A(2,1,5)               96.5049         estimate D2E/DX2                !
 ! A3    A(2,1,7)               89.026          estimate D2E/DX2                !
 ! A4    A(3,1,4)               87.0853         estimate D2E/DX2                !
 ! A5    A(3,1,5)               92.3433         estimate D2E/DX2                !
 ! A6    A(3,1,7)               87.8652         estimate D2E/DX2                !
 ! A7    A(4,1,5)              113.353          estimate D2E/DX2                !
 ! A8    A(4,1,7)              124.4238         estimate D2E/DX2                !
 ! A9    A(5,1,7)              122.1382         estimate D2E/DX2                !
 ! A10   A(1,2,17)             113.7227         estimate D2E/DX2                !
 ! A11   A(1,3,23)             110.8919         estimate D2E/DX2                !
 ! A12   A(1,4,20)             115.4024         estimate D2E/DX2                !
 ! A13   A(1,5,11)             129.9905         estimate D2E/DX2                !
 ! A14   A(1,7,14)             112.4078         estimate D2E/DX2                !
 ! A15   A(6,8,9)              114.7024         estimate D2E/DX2                !
 ! A16   A(6,8,10)             114.9912         estimate D2E/DX2                !
 ! A17   A(6,8,11)             117.2071         estimate D2E/DX2                !
 ! A18   A(9,8,10)             102.4699         estimate D2E/DX2                !
 ! A19   A(9,8,11)             101.3311         estimate D2E/DX2                !
 ! A20   A(10,8,11)            104.143          estimate D2E/DX2                !
 ! A21   A(5,11,8)             114.4905         estimate D2E/DX2                !
 ! A22   A(5,11,12)            110.533          estimate D2E/DX2                !
 ! A23   A(5,11,13)            107.1523         estimate D2E/DX2                !
 ! A24   A(8,11,12)            108.2509         estimate D2E/DX2                !
 ! A25   A(8,11,13)            107.8891         estimate D2E/DX2                !
 ! A26   A(12,11,13)           108.3371         estimate D2E/DX2                !
 ! A27   A(7,14,15)            109.1655         estimate D2E/DX2                !
 ! A28   A(7,14,16)            109.6933         estimate D2E/DX2                !
 ! A29   A(7,14,17)            105.5349         estimate D2E/DX2                !
 ! A30   A(15,14,16)           110.698          estimate D2E/DX2                !
 ! A31   A(15,14,17)           109.6681         estimate D2E/DX2                !
 ! A32   A(16,14,17)           111.9273         estimate D2E/DX2                !
 ! A33   A(2,17,14)            106.3965         estimate D2E/DX2                !
 ! A34   A(2,17,18)            111.1997         estimate D2E/DX2                !
 ! A35   A(2,17,19)            110.973          estimate D2E/DX2                !
 ! A36   A(14,17,18)           110.591          estimate D2E/DX2                !
 ! A37   A(14,17,19)           110.4118         estimate D2E/DX2                !
 ! A38   A(18,17,19)           107.3103         estimate D2E/DX2                !
 ! A39   A(4,20,21)            110.8811         estimate D2E/DX2                !
 ! A40   A(4,20,22)            110.5675         estimate D2E/DX2                !
 ! A41   A(4,20,23)            106.6467         estimate D2E/DX2                !
 ! A42   A(21,20,22)           107.3438         estimate D2E/DX2                !
 ! A43   A(21,20,23)           111.9457         estimate D2E/DX2                !
 ! A44   A(22,20,23)           109.4825         estimate D2E/DX2                !
 ! A45   A(3,23,20)            105.3472         estimate D2E/DX2                !
 ! A46   A(3,23,24)            112.0737         estimate D2E/DX2                !
 ! A47   A(3,23,25)            111.5474         estimate D2E/DX2                !
 ! A48   A(20,23,24)           109.4139         estimate D2E/DX2                !
 ! A49   A(20,23,25)           111.1638         estimate D2E/DX2                !
 ! A50   A(24,23,25)           107.3305         estimate D2E/DX2                !
 ! A51   L(2,1,3,4,-1)         174.7546         estimate D2E/DX2                !
 ! A52   L(2,1,3,4,-2)         172.624          estimate D2E/DX2                !
 ! D1    D(4,1,2,17)          -124.8217         estimate D2E/DX2                !
 ! D2    D(5,1,2,17)           121.9339         estimate D2E/DX2                !
 ! D3    D(7,1,2,17)            -0.3116         estimate D2E/DX2                !
 ! D4    D(4,1,3,23)           -27.771          estimate D2E/DX2                !
 ! D5    D(5,1,3,23)            85.5048         estimate D2E/DX2                !
 ! D6    D(7,1,3,23)          -152.4051         estimate D2E/DX2                !
 ! D7    D(2,1,4,20)           177.7893         estimate D2E/DX2                !
 ! D8    D(3,1,4,20)             5.1653         estimate D2E/DX2                !
 ! D9    D(5,1,4,20)           -86.1303         estimate D2E/DX2                !
 ! D10   D(7,1,4,20)            90.5703         estimate D2E/DX2                !
 ! D11   D(2,1,5,11)           -27.1295         estimate D2E/DX2                !
 ! D12   D(3,1,5,11)           154.7685         estimate D2E/DX2                !
 ! D13   D(4,1,5,11)          -117.3957         estimate D2E/DX2                !
 ! D14   D(7,1,5,11)            65.8183         estimate D2E/DX2                !
 ! D15   D(2,1,7,14)            22.9077         estimate D2E/DX2                !
 ! D16   D(3,1,7,14)          -165.5917         estimate D2E/DX2                !
 ! D17   D(4,1,7,14)           109.4127         estimate D2E/DX2                !
 ! D18   D(5,1,7,14)           -74.1649         estimate D2E/DX2                !
 ! D19   D(1,2,17,14)          -19.6151         estimate D2E/DX2                !
 ! D20   D(1,2,17,18)         -140.1023         estimate D2E/DX2                !
 ! D21   D(1,2,17,19)          100.5264         estimate D2E/DX2                !
 ! D22   D(1,3,23,20)           40.3927         estimate D2E/DX2                !
 ! D23   D(1,3,23,24)          -78.5047         estimate D2E/DX2                !
 ! D24   D(1,3,23,25)          161.1159         estimate D2E/DX2                !
 ! D25   D(1,4,20,21)          137.7203         estimate D2E/DX2                !
 ! D26   D(1,4,20,22)         -103.3376         estimate D2E/DX2                !
 ! D27   D(1,4,20,23)           15.6094         estimate D2E/DX2                !
 ! D28   D(1,5,11,8)           -95.7629         estimate D2E/DX2                !
 ! D29   D(1,5,11,12)           26.7915         estimate D2E/DX2                !
 ! D30   D(1,5,11,13)          144.6432         estimate D2E/DX2                !
 ! D31   D(1,7,14,15)           80.6686         estimate D2E/DX2                !
 ! D32   D(1,7,14,16)         -157.8766         estimate D2E/DX2                !
 ! D33   D(1,7,14,17)          -37.1353         estimate D2E/DX2                !
 ! D34   D(6,8,11,5)            71.5734         estimate D2E/DX2                !
 ! D35   D(6,8,11,12)          -52.2101         estimate D2E/DX2                !
 ! D36   D(6,8,11,13)         -169.2457         estimate D2E/DX2                !
 ! D37   D(9,8,11,5)          -162.8176         estimate D2E/DX2                !
 ! D38   D(9,8,11,12)           73.3988         estimate D2E/DX2                !
 ! D39   D(9,8,11,13)          -43.6368         estimate D2E/DX2                !
 ! D40   D(10,8,11,5)          -56.7008         estimate D2E/DX2                !
 ! D41   D(10,8,11,12)         179.5156         estimate D2E/DX2                !
 ! D42   D(10,8,11,13)          62.48           estimate D2E/DX2                !
 ! D43   D(7,14,17,2)           34.881          estimate D2E/DX2                !
 ! D44   D(7,14,17,18)         155.7597         estimate D2E/DX2                !
 ! D45   D(7,14,17,19)         -85.623          estimate D2E/DX2                !
 ! D46   D(15,14,17,2)         -82.5845         estimate D2E/DX2                !
 ! D47   D(15,14,17,18)         38.2942         estimate D2E/DX2                !
 ! D48   D(15,14,17,19)        156.9115         estimate D2E/DX2                !
 ! D49   D(16,14,17,2)         154.1518         estimate D2E/DX2                !
 ! D50   D(16,14,17,18)        -84.9694         estimate D2E/DX2                !
 ! D51   D(16,14,17,19)         33.6479         estimate D2E/DX2                !
 ! D52   D(4,20,23,3)          -35.1184         estimate D2E/DX2                !
 ! D53   D(4,20,23,24)          85.5397         estimate D2E/DX2                !
 ! D54   D(4,20,23,25)        -156.0927         estimate D2E/DX2                !
 ! D55   D(21,20,23,3)        -156.5553         estimate D2E/DX2                !
 ! D56   D(21,20,23,24)        -35.8972         estimate D2E/DX2                !
 ! D57   D(21,20,23,25)         82.4704         estimate D2E/DX2                !
 ! D58   D(22,20,23,3)          84.5333         estimate D2E/DX2                !
 ! D59   D(22,20,23,24)       -154.8086         estimate D2E/DX2                !
 ! D60   D(22,20,23,25)        -36.441          estimate D2E/DX2                !
 --------------------------------------------------------------------------------
 Trust Radius=3.00D-01 FncErr=1.00D-07 GrdErr=1.00D-06 EigMax=2.50D+02 EigMin=1.00D-04
 Number of steps in this run=    148 maximum allowed number of steps=    150.
 GradGradGradGradGradGradGradGradGradGradGradGradGradGradGradGradGradGrad

                          Input orientation:                          
 ---------------------------------------------------------------------
 Center     Atomic      Atomic             Coordinates (Angstroms)
 Number     Number       Type             X           Y           Z
 ---------------------------------------------------------------------
      1         14           0       -0.482384   -0.200004   -0.067656
      2          8           0        0.491723   -1.089759   -1.247893
      3          8           0       -1.619945    0.462805    1.132068
      4          8           0       -1.869257   -0.534336   -1.066488
      5          8           0        0.192034    1.293444   -0.354246
      6          8           0        2.939991    0.950602    1.018153
      7          8           0        0.097022   -1.234316    1.147025
      8          6           0        2.498965    1.959591    0.283332
      9          1           0        3.314131    2.509704   -0.318659
     10          1           0        2.014686    2.803788    0.868728
     11          6           0        1.471025    1.630651   -0.826591
     12          1           0        1.879072    0.820920   -1.443628
     13          1           0        1.357706    2.529543   -1.462235
     14          6           0        1.317062   -1.834709    0.801184
     15          1           0        2.136210   -1.123841    0.990455
     16          1           0        1.457422   -2.756652    1.389457
     17          6           0        1.221418   -2.122889   -0.698807
     18          1           0        2.226600   -2.182993   -1.146836
     19          1           0        0.722106   -3.099827   -0.874668
     20          6           0       -3.078912   -0.070258   -0.577883
     21          1           0       -3.682569    0.378240   -1.384444
     22          1           0       -3.668636   -0.901059   -0.147745
     23          6           0       -2.747974    0.944482    0.521730
     24          1           0       -2.581682    1.940406    0.065820
     25          1           0       -3.583832    1.045139    1.235864
 ---------------------------------------------------------------------
                    Distance matrix (angstroms):
                    1          2          3          4          5
     1  Si   0.000000
     2  O    1.770172   0.000000
     3  O    1.781207   3.540312   0.000000
     4  O    1.741511   2.432207   2.426952   0.000000
     5  O    1.663539   2.562826   2.486435   2.845521   0.000000
     6  O    3.770348   3.910506   4.587367   5.447902   3.090677
     7  O    1.697340   2.431526   2.414212   3.042345   2.941498
     8  C    3.698038   3.958814   4.463871   5.207979   2.484389
     9  H    4.671086   4.667504   5.535297   6.057470   3.350827
    10  H    4.016832   4.686065   4.331292   5.474774   2.664369
    11  C    2.782640   2.921842   3.841133   3.987757   1.404506
    12  H    2.917543   2.369334   4.359539   4.003614   2.063039
    13  H    3.575082   3.727629   4.457378   4.467355   2.028391
    14  C    2.581695   2.331277   3.743536   3.915584   3.519382
    15  H    2.971550   2.777715   4.079976   4.541178   3.381022
    16  H    3.524553   3.265995   4.461092   4.694374   4.587481
    17  C    2.645521   1.378879   4.255733   3.494419   3.584646
    18  H    3.526396   2.053088   5.195148   4.415945   4.105274
    19  H    3.242073   2.057364   4.712169   3.651534   4.455631
    20  C    2.649363   3.773292   2.310124   1.384691   3.550885
    21  H    3.508487   4.427006   3.254904   2.054748   4.112354
    22  H    3.263448   4.307496   2.774019   2.053373   4.445589
    23  C    2.605786   4.214895   1.370027   2.341257   3.087516
    24  H    3.001037   4.511492   2.060371   2.813187   2.878978
    25  H    3.587273   5.228478   2.051034   3.276482   4.104543
                    6          7          8          9         10
     6  O    0.000000
     7  O    3.587889   0.000000
     8  C    1.323830   4.088562   0.000000
     9  H    2.087545   5.149340   1.153045   0.000000
    10  H    2.076732   4.478970   1.135730   1.784637   0.000000
    11  C    2.454263   3.740465   1.548157   2.104226   2.132117
    12  H    2.683791   3.756485   2.159451   2.485345   3.049122
    13  H    3.339013   4.750179   2.162018   2.266221   2.437257
    14  C    3.230934   1.403059   4.007715   4.910831   4.691151
    15  H    2.224892   2.048172   3.184206   4.037812   3.931394
    16  H    4.009939   2.055959   4.954924   5.839481   5.612503
    17  C    3.917626   2.336862   4.389005   5.097536   5.230544
    18  H    3.874987   3.270610   4.390964   4.887740   5.382879
    19  H    4.990768   2.821011   5.485973   6.204400   6.289902
    20  C    6.310046   3.796959   5.997890   6.898869   6.024746
    21  H    7.068124   4.826384   6.594961   7.391404   6.589293
    22  H    6.961459   3.995957   6.812375   7.773130   6.859975
    23  C    5.709590   3.637603   5.349547   6.317063   5.124486
    24  H    5.689949   4.292239   5.085337   5.935700   4.745175
    25  H    6.528139   4.330415   6.224465   7.221038   5.879714
                   11         12         13         14         15
    11  C    0.000000
    12  H    1.096769   0.000000
    13  H    1.106748   1.786494   0.000000
    14  C    3.831720   3.522414   4.916443   0.000000
    15  H    3.366208   3.126176   4.468666   1.100982   0.000000
    16  H    4.915230   4.582923   6.007158   1.102608   1.812740
    17  C    3.764000   3.106973   4.716622   1.530414   2.165305
    18  H    3.900940   3.038479   4.802338   2.177922   2.387045
    19  H    4.789636   4.127292   5.695527   2.182424   3.063151
    20  C    4.863833   5.111293   5.217722   4.933528   5.546821
    21  H    5.332848   5.579545   5.480742   5.888160   6.461779
    22  H    5.769446   5.951604   6.225836   5.160364   5.919575
    23  C    4.482048   5.028663   4.827540   4.932192   5.324746
    24  H    4.161343   4.840455   4.266241   5.476537   5.701146
    25  H    5.490731   6.088782   5.822542   5.700985   6.122384
                   16         17         18         19         20
    16  H    0.000000
    17  C    2.195040   0.000000
    18  H    2.711734   1.102149   0.000000
    19  H    2.405145   1.111147   1.782740   0.000000
    20  C    5.627208   4.766629   5.738973   4.869713   0.000000
    21  H    6.628845   5.547507   6.444738   5.635422   1.102766
    22  H    5.664158   5.070421   6.115173   4.964032   1.105904
    23  C    5.668924   5.162804   6.108322   5.508885   1.532438
    24  H    6.334724   5.617703   6.449227   6.099466   2.168954
    25  H    6.315968   6.072049   7.061106   6.338469   2.188317
                   21         22         23         24         25
    21  H    0.000000
    22  H    1.779389   0.000000
    23  C    2.197179   2.168372   0.000000
    24  H    2.399079   3.049754   1.107868   0.000000
    25  H    2.705645   2.389404   1.103983   1.781800   0.000000
 Stoichiometry    C6H12O6Si(2-)
 Framework group  C1[X(C6H12O6Si)]
 Deg. of freedom    69
 Full point group                 C1      NOp   1
 Largest Abelian subgroup         C1      NOp   1
 Largest concise Abelian subgroup C1      NOp   1
                         Standard orientation:                         
 ---------------------------------------------------------------------
 Center     Atomic      Atomic             Coordinates (Angstroms)
 Number     Number       Type             X           Y           Z
 ---------------------------------------------------------------------
      1         14           0        0.512298    0.154781   -0.012794
      2          8           0       -0.275512    1.224339   -1.182798
      3          8           0        1.485895   -0.709791    1.202658
      4          8           0        1.992058    0.391396   -0.900026
      5          8           0       -0.301732   -1.229976   -0.445419
      6          8           0       -3.081758   -0.663252    0.780374
      7          8           0       -0.030474    1.168493    1.235705
      8          6           0       -2.705925   -1.666832    0.003133
      9          1           0       -3.534111   -2.080032   -0.684535
     10          1           0       -2.358490   -2.596845    0.554720
     11          6           0       -1.575145   -1.387272   -1.016657
     12          1           0       -1.848646   -0.498133   -1.597631
     13          1           0       -1.518841   -2.250512   -1.706975
     14          6           0       -1.150601    1.925776    0.860987
     15          1           0       -2.054082    1.302825    0.949392
     16          1           0       -1.227966    2.818012    1.504163
     17          6           0       -0.922337    2.296880   -0.606101
     18          1           0       -1.882075    2.500495   -1.108274
     19          1           0       -0.307567    3.219400   -0.681351
     20          6           0        3.107247   -0.238738   -0.374047
     21          1           0        3.711017   -0.700723   -1.172873
     22          1           0        3.754488    0.489606    0.149038
     23          6           0        2.592670   -1.277395    0.628333
     24          1           0        2.348835   -2.216319    0.093227
     25          1           0        3.362004   -1.518898    1.382376
 ---------------------------------------------------------------------
 Rotational constants (GHZ):           1.0844890           0.6149347           0.5037364
 Standard basis: def2TZVPP (5D, 7F)
 There are   660 symmetry adapted cartesian basis functions of A   symmetry.
 There are   582 symmetry adapted basis functions of A   symmetry.
   582 basis functions,   885 primitive gaussians,   660 cartesian basis functions
    56 alpha electrons       56 beta electrons
       nuclear repulsion energy      1076.4920417339 Hartrees.
 NAtoms=   25 NActive=   25 NUniq=   25 SFac= 1.00D+00 NAtFMM=   60 NAOKFM=F Big=F
 Integral buffers will be    131072 words long.
 Raffenetti 2 integral format.
 Two-electron integral symmetry is turned on.
 Nuclear repulsion after empirical dispersion term =     1076.4766422611 Hartrees.
 One-electron integrals computed using PRISM.
   1 Symmetry operations used in ECPInt.
 ECPInt:  NShTT=   23871 NPrTT=   66401 LenC2=   22187 LenP2D=   46810.
 LDataN:  DoStor=T MaxTD1= 6 Len=  172
 NBasis=   582 RedAO= T EigKep=  2.26D-04  NBF=   582
 NBsUse=   582 1.00D-06 EigRej= -1.00D+00 NBFU=   582
 ExpMin= 7.01D-02 ExpMax= 4.48D+04 ExpMxC= 1.53D+03 IAcc=3 IRadAn=         5 AccDes= 0.00D+00
 Harris functional with IExCor= 4639 and IRadAn=       5 diagonalized for initial guess.
 HarFok:  IExCor= 4639 AccDes= 0.00D+00 IRadAn=         5 IDoV= 1 UseB2=F ITyADJ=14
 ICtDFT=  3500011 ScaDFX=  1.000000  1.000000  1.000000  1.000000
 FoFCou: FMM=F IPFlag=           0 FMFlag=      100000 FMFlg1=           0
         NFxFlg=           0 DoJE=T BraDBF=F KetDBF=T FulRan=T
         wScrn=  0.000000 ICntrl=       500 IOpCl=  0 I1Cent=   200000004 NGrid=           0
         NMat0=    1 NMatS0=      1 NMatT0=    0 NMatD0=    1 NMtDS0=    0 NMtDT0=    0
 Petite list used in FoFCou.
 Requested convergence on RMS density matrix=1.00D-08 within 128 cycles.
 Requested convergence on MAX density matrix=1.00D-06.
 Requested convergence on             energy=1.00D-06.
 No special actions if energy rises.
 Integral accuracy reduced to 1.0D-05 until final iterations.
 Initial convergence to 1.0D-05 achieved.  Increase integral accuracy.
 SCF Done:  E(RwB97XD) =  -976.861315984     A.U. after   18 cycles
            NFock= 18  Conv=0.15D-08     -V/T= 2.0036

 **********************************************************************

            Population analysis using the SCF Density.

 **********************************************************************

 Orbital symmetries:
       Occupied  (A) (A) (A) (A) (A) (A) (A) (A) (A) (A) (A) (A)
                 (A) (A) (A) (A) (A) (A) (A) (A) (A) (A) (A) (A)
                 (A) (A) (A) (A) (A) (A) (A) (A) (A) (A) (A) (A)
                 (A) (A) (A) (A) (A) (A) (A) (A) (A) (A) (A) (A)
                 (A) (A) (A) (A) (A) (A) (A) (A)
       Virtual   (A) (A) (A) (A) (A) (A) (A) (A) (A) (A) (A) (A)
                 (A) (A) (A) (A) (A) (A) (A) (A) (A) (A) (A) (A)
                 (A) (A) (A) (A) (A) (A) (A) (A) (A) (A) (A) (A)
                 (A) (A) (A) (A) (A) (A) (A) (A) (A) (A) (A) (A)
                 (A) (A) (A) (A) (A) (A) (A) (A) (A) (A) (A) (A)
                 (A) (A) (A) (A) (A) (A) (A) (A) (A) (A) (A) (A)
                 (A) (A) (A) (A) (A) (A) (A) (A) (A) (A) (A) (A)
                 (A) (A) (A) (A) (A) (A) (A) (A) (A) (A) (A) (A)
                 (A) (A) (A) (A) (A) (A) (A) (A) (A) (A) (A) (A)
                 (A) (A) (A) (A) (A) (A) (A) (A) (A) (A) (A) (A)
                 (A) (A) (A) (A) (A) (A) (A) (A) (A) (A) (A) (A)
                 (A) (A) (A) (A) (A) (A) (A) (A) (A) (A) (A) (A)
                 (A) (A) (A) (A) (A) (A) (A) (A) (A) (A) (A) (A)
                 (A) (A) (A) (A) (A) (A) (A) (A) (A) (A) (A) (A)
                 (A) (A) (A) (A) (A) (A) (A) (A) (A) (A) (A) (A)
                 (A) (A) (A) (A) (A) (A) (A) (A) (A) (A) (A) (A)
                 (A) (A) (A) (A) (A) (A) (A) (A) (A) (A) (A) (A)
                 (A) (A) (A) (A) (A) (A) (A) (A) (A) (A) (A) (A)
                 (A) (A) (A) (A) (A) (A) (A) (A) (A) (A) (A) (A)
                 (A) (A) (A) (A) (A) (A) (A) (A) (A) (A) (A) (A)
                 (A) (A) (A) (A) (A) (A) (A) (A) (A) (A) (A) (A)
                 (A) (A) (A) (A) (A) (A) (A) (A) (A) (A) (A) (A)
                 (A) (A) (A) (A) (A) (A) (A) (A) (A) (A) (A) (A)
                 (A) (A) (A) (A) (A) (A) (A) (A) (A) (A) (A) (A)
                 (A) (A) (A) (A) (A) (A) (A) (A) (A) (A) (A) (A)
                 (A) (A) (A) (A) (A) (A) (A) (A) (A) (A) (A) (A)
                 (A) (A) (A) (A) (A) (A) (A) (A) (A) (A) (A) (A)
                 (A) (A) (A) (A) (A) (A) (A) (A) (A) (A) (A) (A)
                 (A) (A) (A) (A) (A) (A) (A) (A) (A) (A) (A) (A)
                 (A) (A) (A) (A) (A) (A) (A) (A) (A) (A) (A) (A)
                 (A) (A) (A) (A) (A) (A) (A) (A) (A) (A) (A) (A)
                 (A) (A) (A) (A) (A) (A) (A) (A) (A) (A) (A) (A)
                 (A) (A) (A) (A) (A) (A) (A) (A) (A) (A) (A) (A)
                 (A) (A) (A) (A) (A) (A) (A) (A) (A) (A) (A) (A)
                 (A) (A) (A) (A) (A) (A) (A) (A) (A) (A) (A) (A)
                 (A) (A) (A) (A) (A) (A) (A) (A) (A) (A) (A) (A)
                 (A) (A) (A) (A) (A) (A) (A) (A) (A) (A) (A) (A)
                 (A) (A) (A) (A) (A) (A) (A) (A) (A) (A) (A) (A)
                 (A) (A) (A) (A) (A) (A) (A) (A) (A) (A) (A) (A)
                 (A) (A) (A) (A) (A) (A) (A) (A) (A) (A) (A) (A)
                 (A) (A) (A) (A) (A) (A) (A) (A) (A) (A) (A) (A)
                 (A) (A) (A) (A) (A) (A) (A) (A) (A) (A) (A) (A)
                 (A) (A) (A) (A) (A) (A) (A) (A) (A) (A) (A) (A)
                 (A) (A) (A) (A) (A) (A) (A) (A) (A) (A)
 The electronic state is 1-A.
 Alpha  occ. eigenvalues --  -66.00209 -18.94738 -18.93349 -18.92378 -18.92208
 Alpha  occ. eigenvalues --  -18.91909 -18.81121 -10.06947 -10.06160 -10.04843
 Alpha  occ. eigenvalues --  -10.03220 -10.01346  -9.99563  -5.11242  -3.45831
 Alpha  occ. eigenvalues --   -3.45796  -3.45693  -0.85588  -0.82913  -0.79157
 Alpha  occ. eigenvalues --   -0.78735  -0.76855  -0.69326  -0.55530  -0.52562
 Alpha  occ. eigenvalues --   -0.48883  -0.43345  -0.40493  -0.36235  -0.33220
 Alpha  occ. eigenvalues --   -0.31597  -0.29913  -0.29520  -0.28190  -0.26525
 Alpha  occ. eigenvalues --   -0.24225  -0.24066  -0.22682  -0.22179  -0.20335
 Alpha  occ. eigenvalues --   -0.18577  -0.17734  -0.15759  -0.12014  -0.11827
 Alpha  occ. eigenvalues --   -0.11164  -0.10307  -0.09728  -0.09081  -0.07778
 Alpha  occ. eigenvalues --   -0.07080  -0.06034  -0.04223  -0.03951   0.04897
 Alpha  occ. eigenvalues --    0.05000
 Alpha virt. eigenvalues --    0.34498   0.36637   0.37847   0.38715   0.39040
 Alpha virt. eigenvalues --    0.40419   0.40668   0.42176   0.43588   0.43677
 Alpha virt. eigenvalues --    0.44494   0.46015   0.47734   0.48331   0.48554
 Alpha virt. eigenvalues --    0.49087   0.50582   0.51402   0.51828   0.52655
 Alpha virt. eigenvalues --    0.52934   0.54309   0.55087   0.55994   0.57499
 Alpha virt. eigenvalues --    0.58893   0.59295   0.59471   0.61197   0.62875
 Alpha virt. eigenvalues --    0.63679   0.64121   0.65387   0.66069   0.67443
 Alpha virt. eigenvalues --    0.68108   0.68634   0.69728   0.70409   0.71808
 Alpha virt. eigenvalues --    0.72303   0.72483   0.73439   0.73757   0.73964
 Alpha virt. eigenvalues --    0.74897   0.74994   0.75716   0.76242   0.77276
 Alpha virt. eigenvalues --    0.77492   0.77930   0.78480   0.78857   0.79751
 Alpha virt. eigenvalues --    0.80808   0.82010   0.82680   0.83534   0.84195
 Alpha virt. eigenvalues --    0.84569   0.85448   0.86332   0.87019   0.88933
 Alpha virt. eigenvalues --    0.90191   0.90708   0.91345   0.92785   0.94190
 Alpha virt. eigenvalues --    0.96020   0.96690   0.97823   1.00021   1.00366
 Alpha virt. eigenvalues --    1.01551   1.02190   1.03724   1.05004   1.05387
 Alpha virt. eigenvalues --    1.05968   1.08330   1.09507   1.10147   1.12393
 Alpha virt. eigenvalues --    1.12733   1.12940   1.14867   1.15348   1.15634
 Alpha virt. eigenvalues --    1.15833   1.16477   1.17469   1.18910   1.19654
 Alpha virt. eigenvalues --    1.21297   1.22159   1.23056   1.23785   1.23963
 Alpha virt. eigenvalues --    1.26358   1.27286   1.28260   1.29711   1.30569
 Alpha virt. eigenvalues --    1.31702   1.32361   1.33206   1.34208   1.35116
 Alpha virt. eigenvalues --    1.36839   1.37385   1.39124   1.39388   1.40557
 Alpha virt. eigenvalues --    1.41040   1.41482   1.42257   1.42911   1.43775
 Alpha virt. eigenvalues --    1.44859   1.45900   1.46768   1.48560   1.48783
 Alpha virt. eigenvalues --    1.50036   1.50150   1.51407   1.52173   1.52687
 Alpha virt. eigenvalues --    1.53943   1.54953   1.55636   1.56948   1.58031
 Alpha virt. eigenvalues --    1.59724   1.60809   1.61397   1.61923   1.63414
 Alpha virt. eigenvalues --    1.63832   1.64366   1.65673   1.66976   1.67481
 Alpha virt. eigenvalues --    1.68494   1.70193   1.70820   1.71819   1.72905
 Alpha virt. eigenvalues --    1.73344   1.74592   1.75543   1.76257   1.77143
 Alpha virt. eigenvalues --    1.78414   1.80266   1.81420   1.83090   1.84062
 Alpha virt. eigenvalues --    1.85042   1.86552   1.87715   1.87836   1.89061
 Alpha virt. eigenvalues --    1.90155   1.91396   1.92601   1.95012   1.95262
 Alpha virt. eigenvalues --    1.97154   1.97918   1.99401   2.01094   2.03251
 Alpha virt. eigenvalues --    2.06286   2.07818   2.11186   2.15031   2.16118
 Alpha virt. eigenvalues --    2.17034   2.17380   2.19311   2.21824   2.23530
 Alpha virt. eigenvalues --    2.25359   2.26585   2.29005   2.29901   2.31944
 Alpha virt. eigenvalues --    2.33205   2.36197   2.37240   2.38134   2.39363
 Alpha virt. eigenvalues --    2.40203   2.40853   2.41416   2.42276   2.45714
 Alpha virt. eigenvalues --    2.46405   2.47947   2.48904   2.49970   2.51655
 Alpha virt. eigenvalues --    2.53423   2.55169   2.58259   2.60417   2.61281
 Alpha virt. eigenvalues --    2.63195   2.64486   2.66650   2.68106   2.68869
 Alpha virt. eigenvalues --    2.70122   2.72060   2.72486   2.74491   2.77528
 Alpha virt. eigenvalues --    2.80802   2.81735   2.83019   2.83456   2.84326
 Alpha virt. eigenvalues --    2.87143   2.91075   2.93327   2.95866   2.96721
 Alpha virt. eigenvalues --    2.97682   2.98165   2.99092   3.01228   3.01951
 Alpha virt. eigenvalues --    3.03918   3.04545   3.06464   3.07970   3.11379
 Alpha virt. eigenvalues --    3.12260   3.13494   3.13990   3.15196   3.15932
 Alpha virt. eigenvalues --    3.17069   3.17582   3.18725   3.19649   3.22412
 Alpha virt. eigenvalues --    3.23984   3.24971   3.26170   3.27028   3.28084
 Alpha virt. eigenvalues --    3.29786   3.30497   3.30981   3.32335   3.33064
 Alpha virt. eigenvalues --    3.34374   3.35420   3.36917   3.38341   3.38686
 Alpha virt. eigenvalues --    3.40106   3.40845   3.43026   3.44132   3.45041
 Alpha virt. eigenvalues --    3.45809   3.46730   3.47735   3.48111   3.49195
 Alpha virt. eigenvalues --    3.50040   3.50454   3.51271   3.52935   3.53392
 Alpha virt. eigenvalues --    3.54599   3.55410   3.56574   3.57011   3.57396
 Alpha virt. eigenvalues --    3.59667   3.60899   3.62901   3.63999   3.64543
 Alpha virt. eigenvalues --    3.66133   3.67174   3.68547   3.70183   3.71543
 Alpha virt. eigenvalues --    3.71770   3.73176   3.75862   3.76474   3.79913
 Alpha virt. eigenvalues --    3.81262   3.82497   3.83177   3.84311   3.86401
 Alpha virt. eigenvalues --    3.88479   3.89638   3.90494   3.90736   3.92481
 Alpha virt. eigenvalues --    3.94337   3.95279   3.95620   3.96754   3.97403
 Alpha virt. eigenvalues --    3.99110   4.00686   4.00975   4.02747   4.03258
 Alpha virt. eigenvalues --    4.04745   4.05452   4.05779   4.06698   4.08182
 Alpha virt. eigenvalues --    4.09649   4.10369   4.11008   4.13173   4.13847
 Alpha virt. eigenvalues --    4.14614   4.16066   4.17028   4.18710   4.20009
 Alpha virt. eigenvalues --    4.21606   4.22356   4.24434   4.24880   4.27514
 Alpha virt. eigenvalues --    4.29575   4.30489   4.31976   4.32822   4.33268
 Alpha virt. eigenvalues --    4.35674   4.36607   4.38535   4.40384   4.41289
 Alpha virt. eigenvalues --    4.42848   4.44982   4.47314   4.47529   4.47802
 Alpha virt. eigenvalues --    4.49362   4.49687   4.50935   4.52823   4.54707
 Alpha virt. eigenvalues --    4.55580   4.57954   4.59023   4.59789   4.60611
 Alpha virt. eigenvalues --    4.61705   4.63059   4.63870   4.65490   4.67736
 Alpha virt. eigenvalues --    4.69436   4.71193   4.72306   4.74784   4.75455
 Alpha virt. eigenvalues --    4.78606   4.82537   4.84296   4.87854   4.89476
 Alpha virt. eigenvalues --    4.91657   4.92417   4.93813   4.94985   4.99502
 Alpha virt. eigenvalues --    5.00636   5.02347   5.03507   5.04869   5.06112
 Alpha virt. eigenvalues --    5.07914   5.08690   5.11684   5.11741   5.12701
 Alpha virt. eigenvalues --    5.13018   5.13596   5.16331   5.18338   5.20053
 Alpha virt. eigenvalues --    5.20847   5.22181   5.23535   5.24835   5.26238
 Alpha virt. eigenvalues --    5.27841   5.28802   5.29482   5.31342   5.34332
 Alpha virt. eigenvalues --    5.36203   5.37232   5.40606   5.41702   5.43601
 Alpha virt. eigenvalues --    5.45380   5.46260   5.46998   5.49535   5.51697
 Alpha virt. eigenvalues --    5.54914   5.55560   5.57815   5.59940   5.61965
 Alpha virt. eigenvalues --    5.63130   5.64259   5.65344   5.67173   5.69949
 Alpha virt. eigenvalues --    5.71840   5.74023   5.74480   5.75285   5.76845
 Alpha virt. eigenvalues --    5.77742   5.78050   5.78924   5.80812   5.82577
 Alpha virt. eigenvalues --    5.83912   5.85696   5.86672   5.87451   5.89131
 Alpha virt. eigenvalues --    5.90372   5.91862   5.95429   5.95598   5.97076
 Alpha virt. eigenvalues --    5.98894   5.99831   6.02089   6.03068   6.04557
 Alpha virt. eigenvalues --    6.07897   6.09676   6.10448   6.11861   6.16518
 Alpha virt. eigenvalues --    6.20632   6.33098   6.34048   6.35902   6.39185
 Alpha virt. eigenvalues --    6.40876   6.42395   6.43942   6.45271   6.49222
 Alpha virt. eigenvalues --    6.50801   6.52847   6.53868   6.57094   6.58342
 Alpha virt. eigenvalues --    6.62340   6.66263   6.70717   6.72732   6.74111
 Alpha virt. eigenvalues --    6.96977   6.99405   7.00487   7.02679   7.04079
 Alpha virt. eigenvalues --    7.06091   7.06843   7.08371   7.13462   7.15706
 Alpha virt. eigenvalues --    7.17643   7.20689   7.28186   7.29401   7.33366
 Alpha virt. eigenvalues --    7.36650   7.38236   7.41145   7.43627   7.44033
 Alpha virt. eigenvalues --    7.48000   7.48497   7.51221   7.53033   7.54540
 Alpha virt. eigenvalues --    7.58188   7.64890   7.73125   7.78610   7.82327
 Alpha virt. eigenvalues --    7.91280   7.94054   8.05928  12.81660  23.63080
 Alpha virt. eigenvalues --   23.64765  23.71452  23.78374  23.79598  23.82575
 Alpha virt. eigenvalues --   44.35796  44.47249  44.52313  44.60073  44.65811
 Alpha virt. eigenvalues --   44.73185
          Condensed to atoms (all electrons):
               1          2          3          4          5          6
     1  Si  11.538166   0.365987   0.402451   0.373574   0.441868   0.025064
     2  O    0.365987   8.083764   0.002916  -0.042171  -0.038603  -0.001678
     3  O    0.402451   0.002916   8.044451  -0.038327  -0.045237  -0.000272
     4  O    0.373574  -0.042171  -0.038327   8.015603  -0.024153  -0.000002
     5  O    0.441868  -0.038603  -0.045237  -0.024153   7.929980   0.009836
     6  O    0.025064  -0.001678  -0.000272  -0.000002   0.009836   8.450098
     7  O    0.414063  -0.035195  -0.044493  -0.012830  -0.019277   0.000001
     8  C    0.003782  -0.003107   0.000176  -0.000224  -0.068632   0.601324
     9  H    0.007522  -0.000228  -0.000032   0.000007   0.016321  -0.075108
    10  H   -0.003481  -0.000132   0.000064  -0.000003   0.012662  -0.077379
    11  C   -0.089219  -0.004221   0.001418  -0.001523   0.239392  -0.256067
    12  H   -0.021855   0.019767  -0.000406   0.000588  -0.046417   0.026565
    13  H    0.010187   0.000351  -0.000135   0.000193  -0.035926   0.019949
    14  C   -0.059301  -0.085973   0.003362  -0.004725  -0.003571  -0.056720
    15  H   -0.010669   0.006021   0.000094  -0.000168   0.001470   0.073912
    16  H    0.004900   0.008931   0.000127   0.000114  -0.000437   0.002601
    17  C   -0.031228   0.346824  -0.001293   0.005668   0.002792   0.008267
    18  H    0.001119  -0.048906   0.000050  -0.000475  -0.000566   0.001445
    19  H   -0.007764  -0.058604   0.000003   0.001340  -0.000425  -0.000020
    20  C   -0.075594   0.003600  -0.121508   0.368445  -0.003025   0.000021
    21  H   -0.003296  -0.000241   0.008037  -0.048949   0.000345   0.000000
    22  H    0.014009   0.000078   0.014946  -0.062658  -0.000415   0.000000
    23  C   -0.064712  -0.001357   0.381238  -0.099004  -0.007030  -0.000167
    24  H    0.018999   0.000057  -0.061829   0.007553   0.012391   0.000010
    25  H   -0.002105   0.000066  -0.052059   0.005563  -0.000489  -0.000000
               7          8          9         10         11         12
     1  Si   0.414063   0.003782   0.007522  -0.003481  -0.089219  -0.021855
     2  O   -0.035195  -0.003107  -0.000228  -0.000132  -0.004221   0.019767
     3  O   -0.044493   0.000176  -0.000032   0.000064   0.001418  -0.000406
     4  O   -0.012830  -0.000224   0.000007  -0.000003  -0.001523   0.000588
     5  O   -0.019277  -0.068632   0.016321   0.012662   0.239392  -0.046417
     6  O    0.000001   0.601324  -0.075108  -0.077379  -0.256067   0.026565
     7  O    7.980193   0.000309  -0.000079   0.000108  -0.005000   0.001218
     8  C    0.000309   4.731084   0.087634   0.299693   0.211113  -0.061143
     9  H   -0.000079   0.087634   1.420574  -0.172112  -0.129417  -0.007639
    10  H    0.000108   0.299693  -0.172112   1.240476  -0.233699   0.034755
    11  C   -0.005000   0.211113  -0.129417  -0.233699   5.694654   0.309685
    12  H    0.001218  -0.061143  -0.007639   0.034755   0.309685   0.781161
    13  H   -0.000321  -0.009837   0.038369   0.027718   0.128586  -0.032562
    14  C    0.309361   0.004929  -0.000779  -0.003588   0.012184  -0.002414
    15  H   -0.039060  -0.012713   0.001341   0.005237  -0.009200   0.005301
    16  H   -0.046508  -0.000178   0.000032   0.000106  -0.000476   0.000389
    17  C   -0.099253   0.002903   0.000147   0.000246  -0.007957  -0.004506
    18  H    0.006544  -0.000418   0.000029   0.000170   0.004386  -0.000470
    19  H    0.009800  -0.000114  -0.000015   0.000009   0.000308   0.000997
    20  C   -0.000886   0.000030   0.000011   0.000015  -0.000775  -0.000108
    21  H   -0.000194  -0.000003   0.000000  -0.000000   0.000061   0.000018
    22  H    0.000531   0.000001   0.000000  -0.000000  -0.000064   0.000005
    23  C    0.002878  -0.000126  -0.000056  -0.000089   0.000553  -0.000412
    24  H   -0.000333  -0.000192   0.000004   0.000291   0.000039   0.000347
    25  H    0.000081   0.000002   0.000000  -0.000004   0.000024   0.000000
              13         14         15         16         17         18
     1  Si   0.010187  -0.059301  -0.010669   0.004900  -0.031228   0.001119
     2  O    0.000351  -0.085973   0.006021   0.008931   0.346824  -0.048906
     3  O   -0.000135   0.003362   0.000094   0.000127  -0.001293   0.000050
     4  O    0.000193  -0.004725  -0.000168   0.000114   0.005668  -0.000475
     5  O   -0.035926  -0.003571   0.001470  -0.000437   0.002792  -0.000566
     6  O    0.019949  -0.056720   0.073912   0.002601   0.008267   0.001445
     7  O   -0.000321   0.309361  -0.039060  -0.046508  -0.099253   0.006544
     8  C   -0.009837   0.004929  -0.012713  -0.000178   0.002903  -0.000418
     9  H    0.038369  -0.000779   0.001341   0.000032   0.000147   0.000029
    10  H    0.027718  -0.003588   0.005237   0.000106   0.000246   0.000170
    11  C    0.128586   0.012184  -0.009200  -0.000476  -0.007957   0.004386
    12  H   -0.032562  -0.002414   0.005301   0.000389  -0.004506  -0.000470
    13  H    0.907833  -0.000618   0.001121   0.000027   0.000272   0.000001
    14  C   -0.000618   5.002963   0.392360   0.283653   0.227914  -0.038949
    15  H    0.001121   0.392360   0.608887  -0.051627  -0.059083  -0.012199
    16  H    0.000027   0.283653  -0.051627   0.849793  -0.012473   0.013324
    17  C    0.000272   0.227914  -0.059083  -0.012473   4.816291   0.367953
    18  H    0.000001  -0.038949  -0.012199   0.013324   0.367953   0.827830
    19  H    0.000044  -0.028307   0.016635  -0.020266   0.323089  -0.108049
    20  C    0.000170  -0.001883  -0.000130   0.000170   0.001525   0.000031
    21  H    0.000003  -0.000042  -0.000003   0.000000  -0.000056  -0.000007
    22  H    0.000010   0.000618   0.000013  -0.000005  -0.000305  -0.000002
    23  C   -0.000321  -0.000915  -0.000058  -0.000032  -0.000794   0.000008
    24  H    0.000299   0.000188   0.000002   0.000006  -0.000056  -0.000001
    25  H   -0.000030   0.000071   0.000002  -0.000005   0.000001   0.000001
              19         20         21         22         23         24
     1  Si  -0.007764  -0.075594  -0.003296   0.014009  -0.064712   0.018999
     2  O   -0.058604   0.003600  -0.000241   0.000078  -0.001357   0.000057
     3  O    0.000003  -0.121508   0.008037   0.014946   0.381238  -0.061829
     4  O    0.001340   0.368445  -0.048949  -0.062658  -0.099004   0.007553
     5  O   -0.000425  -0.003025   0.000345  -0.000415  -0.007030   0.012391
     6  O   -0.000020   0.000021   0.000000   0.000000  -0.000167   0.000010
     7  O    0.009800  -0.000886  -0.000194   0.000531   0.002878  -0.000333
     8  C   -0.000114   0.000030  -0.000003   0.000001  -0.000126  -0.000192
     9  H   -0.000015   0.000011   0.000000   0.000000  -0.000056   0.000004
    10  H    0.000009   0.000015  -0.000000  -0.000000  -0.000089   0.000291
    11  C    0.000308  -0.000775   0.000061  -0.000064   0.000553   0.000039
    12  H    0.000997  -0.000108   0.000018   0.000005  -0.000412   0.000347
    13  H    0.000044   0.000170   0.000003   0.000010  -0.000321   0.000299
    14  C   -0.028307  -0.001883  -0.000042   0.000618  -0.000915   0.000188
    15  H    0.016635  -0.000130  -0.000003   0.000013  -0.000058   0.000002
    16  H   -0.020266   0.000170   0.000000  -0.000005  -0.000032   0.000006
    17  C    0.323089   0.001525  -0.000056  -0.000305  -0.000794  -0.000056
    18  H   -0.108049   0.000031  -0.000007  -0.000002   0.000008  -0.000001
    19  H    0.909494  -0.000520   0.000009   0.000002  -0.000067   0.000001
    20  C   -0.000520   4.847517   0.332145   0.351428   0.298342  -0.094595
    21  H    0.000009   0.332145   0.854306  -0.102692  -0.014098  -0.013105
    22  H    0.000002   0.351428  -0.102692   0.860450  -0.052603   0.022387
    23  C   -0.000067   0.298342  -0.014098  -0.052603   4.763895   0.379525
    24  H    0.000001  -0.094595  -0.013105   0.022387   0.379525   0.845652
    25  H   -0.000003  -0.011557   0.013454  -0.026751   0.329242  -0.107033
              25
     1  Si  -0.002105
     2  O    0.000066
     3  O   -0.052059
     4  O    0.005563
     5  O   -0.000489
     6  O   -0.000000
     7  O    0.000081
     8  C    0.000002
     9  H    0.000000
    10  H   -0.000004
    11  C    0.000024
    12  H    0.000000
    13  H   -0.000030
    14  C    0.000071
    15  H    0.000002
    16  H   -0.000005
    17  C    0.000001
    18  H    0.000001
    19  H   -0.000003
    20  C   -0.011557
    21  H    0.013454
    22  H   -0.026751
    23  C    0.329242
    24  H   -0.107033
    25  H    0.872069
 Mulliken charges:
               1
     1  Si   0.747531
     2  O   -0.517945
     3  O   -0.493740
     4  O   -0.443435
     5  O   -0.372854
     6  O   -0.751680
     7  O   -0.421658
     8  C    0.213709
     9  H   -0.186527
    10  H   -0.131062
    11  C    0.135216
    12  H   -0.002866
    13  H   -0.055384
    14  C    0.050183
    15  H    0.082517
    16  H   -0.032164
    17  C    0.113112
    18  H   -0.012848
    19  H   -0.037577
    20  C    0.107132
    21  H   -0.025691
    22  H   -0.018983
    23  C    0.086162
    24  H   -0.010608
    25  H   -0.020541
 Sum of Mulliken charges =  -2.00000
 Mulliken charges with hydrogens summed into heavy atoms:
               1
     1  Si   0.747531
     2  O   -0.517945
     3  O   -0.493740
     4  O   -0.443435
     5  O   -0.372854
     6  O   -0.751680
     7  O   -0.421658
     8  C   -0.103880
    11  C    0.076966
    14  C    0.100536
    17  C    0.062687
    20  C    0.062458
    23  C    0.055013
 Electronic spatial extent (au):  <R**2>=           2566.8880
 Charge=             -2.0000 electrons
 Dipole moment (field-independent basis, Debye):
    X=              7.7390    Y=              2.7533    Z=             -2.1048  Tot=              8.4796
 Quadrupole moment (field-independent basis, Debye-Ang):
   XX=           -143.4914   YY=           -109.2431   ZZ=           -107.8423
   XY=            -12.3749   XZ=              6.5165   YZ=              3.3719
 Traceless Quadrupole moment (field-independent basis, Debye-Ang):
   XX=            -23.2991   YY=             10.9491   ZZ=             12.3499
   XY=            -12.3749   XZ=              6.5165   YZ=              3.3719
 Octapole moment (field-independent basis, Debye-Ang**2):
  XXX=            121.0335  YYY=             17.7445  ZZZ=             -0.0595  XYY=             25.3541
  XXY=             46.5649  XXZ=            -19.2582  XZZ=              7.2957  YZZ=              0.4062
  YYZ=              4.4654  XYZ=              2.8546
 Hexadecapole moment (field-independent basis, Debye-Ang**3):
 XXXX=          -2658.2518 YYYY=          -1205.8180 ZZZZ=           -516.7680 XXXY=           -145.2555
 XXXZ=             74.0209 YYYX=            -50.0311 YYYZ=             -3.2419 ZZZX=             -9.4932
 ZZZY=             -2.8328 XXYY=           -617.3489 XXZZ=           -483.8743 YYZZ=           -288.8673
 XXYZ=             11.4947 YYXZ=            -13.0304 ZZXY=            -16.8977
 N-N= 1.076476642261D+03 E-N=-4.493582119818D+03  KE= 9.733160048144D+02
   1 Symmetry operations used in ECPInt.
 ECPInt:  NShTT=   23871 NPrTT=   66401 LenC2=   22187 LenP2D=   46810.
 LDataN:  DoStor=T MaxTD1= 7 Len=  274
 Calling FoFJK, ICntrl=      2127 FMM=F ISym2X=0 I1Cent= 0 IOpClX= 0 NMat=1 NMatS=1 NMatT=0.
 ***** Axes restored to original set *****
 -------------------------------------------------------------------
 Center     Atomic                   Forces (Hartrees/Bohr)
 Number     Number              X              Y              Z
 -------------------------------------------------------------------
      1       14          -0.000886070   -0.000559681    0.000288041
      2        8          -0.000717582   -0.000114458    0.000071367
      3        8          -0.000777482   -0.000579749    0.000015474
      4        8          -0.000106392    0.000466602   -0.000593116
      5        8           0.000151099   -0.000311398    0.001399380
      6        8           0.001787743    0.000731772   -0.000950350
      7        8          -0.000053022   -0.000291453    0.000250375
      8        6           0.000761227    0.000027312   -0.000226958
      9        1          -0.000125115   -0.000122050    0.000100440
     10        1           0.000150050   -0.000092522    0.000013494
     11        6          -0.000015363   -0.000247512    0.000358887
     12        1           0.000057848   -0.000197733   -0.000125907
     13        1          -0.000020600    0.000085518   -0.000102519
     14        6           0.000990717    0.000743670    0.000554017
     15        1          -0.000687346   -0.000676921   -0.000030762
     16        1          -0.000200481    0.000937369   -0.000637676
     17        6           0.000430615    0.000295552    0.000443289
     18        1           0.000064340    0.000046725    0.000001089
     19        1          -0.000014235   -0.000179984    0.000052241
     20        6          -0.000143385    0.000263322   -0.000643183
     21        1          -0.000038700    0.000088903   -0.000127977
     22        1          -0.000109153   -0.000087591   -0.000038223
     23        6          -0.000425380   -0.000228512   -0.000084883
     24        1          -0.000003891    0.000043796    0.000009220
     25        1          -0.000069441   -0.000040978    0.000004241
 -------------------------------------------------------------------
 Cartesian Forces:  Max     0.001787743 RMS     0.000468737

 GradGradGradGradGradGradGradGradGradGradGradGradGradGradGradGradGradGrad
 Berny optimization.
 FormGI is forming the generalized inverse of G from B-inverse, IUseBI=4.
 Internal  Forces:  Max     0.007618971 RMS     0.001019865
 Search for a local minimum.
 Step number   1 out of a maximum of  148
 All quantities printed in internal units (Hartrees-Bohrs-Radians)
 Mixed Optimization -- RFO/linear search
 Second derivative matrix not updated -- first step.
 ITU=  0
     Eigenvalues ---    0.00230   0.00969   0.00990   0.01632   0.02306
     Eigenvalues ---    0.02432   0.03499   0.04627   0.04711   0.04813
     Eigenvalues ---    0.04890   0.05013   0.05036   0.05923   0.05933
     Eigenvalues ---    0.05979   0.06264   0.06366   0.06905   0.07337
     Eigenvalues ---    0.08470   0.10253   0.10456   0.11095   0.11133
     Eigenvalues ---    0.11230   0.11238   0.11286   0.11443   0.11806
     Eigenvalues ---    0.12359   0.13829   0.14106   0.14568   0.16000
     Eigenvalues ---    0.16000   0.17151   0.19796   0.21726   0.21884
     Eigenvalues ---    0.22131   0.22584   0.25000   0.26312   0.27323
     Eigenvalues ---    0.27808   0.28236   0.28437   0.28755   0.30021
     Eigenvalues ---    0.30666   0.32479   0.32827   0.32947   0.33038
     Eigenvalues ---    0.33245   0.33378   0.33395   0.33446   0.33574
     Eigenvalues ---    0.34042   0.34592   0.40662   0.43139   0.44882
     Eigenvalues ---    0.45849   0.47528   0.48923   0.60987
 RFO step:  Lambda=-1.70956183D-03 EMin= 2.30000000D-03
 Linear search not attempted -- first point.
 Iteration  1 RMS(Cart)=  0.07415602 RMS(Int)=  0.00453141
 Iteration  2 RMS(Cart)=  0.00514847 RMS(Int)=  0.00004860
 Iteration  3 RMS(Cart)=  0.00002855 RMS(Int)=  0.00004435
 Iteration  4 RMS(Cart)=  0.00000000 RMS(Int)=  0.00004435
 Variable       Old X    -DE/DX   Delta X   Delta X   Delta X     New X
                                 (Linear)    (Quad)   (Total)
    R1        3.34514  -0.00046   0.00000  -0.00119  -0.00120   3.34394
    R2        3.36599   0.00069   0.00000   0.00228   0.00228   3.36827
    R3        3.29098   0.00077   0.00000   0.00231   0.00231   3.29329
    R4        3.14363   0.00092   0.00000   0.00225   0.00225   3.14588
    R5        3.20751  -0.00009   0.00000  -0.00032  -0.00034   3.20717
    R6        2.60570   0.00014   0.00000   0.00043   0.00044   2.60614
    R7        2.58898   0.00082   0.00000   0.00150   0.00150   2.59048
    R8        2.61669  -0.00026   0.00000  -0.00043  -0.00043   2.61625
    R9        2.65413   0.00272   0.00000   0.00603   0.00603   2.66016
   R10        2.50168  -0.00049   0.00000  -0.00080  -0.00080   2.50088
   R11        2.65140  -0.00032   0.00000  -0.00089  -0.00089   2.65051
   R12        2.17894  -0.00020   0.00000  -0.00070  -0.00070   2.17824
   R13        2.14622  -0.00012   0.00000  -0.00041  -0.00041   2.14581
   R14        2.92559   0.00107   0.00000   0.00382   0.00382   2.92941
   R15        2.07259   0.00024   0.00000   0.00069   0.00069   2.07328
   R16        2.09145   0.00013   0.00000   0.00039   0.00039   2.09184
   R17        2.08055  -0.00095   0.00000  -0.00283  -0.00283   2.07773
   R18        2.08363  -0.00115   0.00000  -0.00343  -0.00343   2.08020
   R19        2.89206  -0.00016   0.00000  -0.00086  -0.00084   2.89122
   R20        2.08276   0.00006   0.00000   0.00017   0.00017   2.08293
   R21        2.09976   0.00016   0.00000   0.00048   0.00048   2.10024
   R22        2.08393   0.00015   0.00000   0.00045   0.00045   2.08438
   R23        2.08986   0.00011   0.00000   0.00033   0.00033   2.09018
   R24        2.89589  -0.00013   0.00000  -0.00006  -0.00006   2.89583
   R25        2.09357   0.00003   0.00000   0.00010   0.00010   2.09367
   R26        2.08622   0.00005   0.00000   0.00015   0.00015   2.08638
    A1        1.53012  -0.00013   0.00000  -0.00439  -0.00437   1.52575
    A2        1.68433  -0.00114   0.00000  -0.00640  -0.00642   1.67791
    A3        1.55380   0.00028   0.00000  -0.00024  -0.00025   1.55354
    A4        1.51993  -0.00051   0.00000  -0.00282  -0.00282   1.51710
    A5        1.61169   0.00150   0.00000   0.01338   0.01339   1.62509
    A6        1.53354   0.00013   0.00000   0.00178   0.00182   1.53536
    A7        1.97838  -0.00048   0.00000  -0.00409  -0.00411   1.97427
    A8        2.17161   0.00100   0.00000   0.00858   0.00856   2.18017
    A9        2.13171  -0.00046   0.00000  -0.00382  -0.00386   2.12786
   A10        1.98484  -0.00025   0.00000  -0.00037  -0.00042   1.98442
   A11        1.93543  -0.00007   0.00000   0.00184   0.00183   1.93726
   A12        2.01415   0.00078   0.00000   0.00434   0.00432   2.01847
   A13        2.26876   0.00170   0.00000   0.00675   0.00675   2.27551
   A14        1.96189  -0.00032   0.00000  -0.00321  -0.00326   1.95862
   A15        2.00193  -0.00114   0.00000  -0.01320  -0.01319   1.98874
   A16        2.00698  -0.00021   0.00000   0.00767   0.00753   2.01451
   A17        2.04565   0.00183   0.00000   0.00850   0.00843   2.05408
   A18        1.78844  -0.00008   0.00000  -0.00206  -0.00204   1.78640
   A19        1.76856  -0.00070   0.00000  -0.00855  -0.00854   1.76002
   A20        1.81764   0.00012   0.00000   0.00601   0.00593   1.82357
   A21        1.99824   0.00762   0.00000   0.03663   0.03656   2.03479
   A22        1.92916  -0.00194   0.00000   0.00011  -0.00013   1.92903
   A23        1.87016  -0.00285   0.00000  -0.01680  -0.01669   1.85347
   A24        1.88933  -0.00198   0.00000  -0.00483  -0.00507   1.88426
   A25        1.88302  -0.00175   0.00000  -0.01115  -0.01106   1.87196
   A26        1.89084   0.00065   0.00000  -0.00627  -0.00638   1.88446
   A27        1.90530   0.00001   0.00000   0.00116   0.00117   1.90646
   A28        1.91451  -0.00012   0.00000  -0.00113  -0.00114   1.91337
   A29        1.84193   0.00013   0.00000  -0.00079  -0.00081   1.84112
   A30        1.93204  -0.00003   0.00000  -0.00016  -0.00016   1.93189
   A31        1.91407   0.00018   0.00000   0.00279   0.00278   1.91685
   A32        1.95350  -0.00017   0.00000  -0.00182  -0.00181   1.95169
   A33        1.85697   0.00001   0.00000   0.00027   0.00026   1.85722
   A34        1.94080  -0.00008   0.00000   0.00010   0.00010   1.94090
   A35        1.93684   0.00014   0.00000   0.00047   0.00048   1.93732
   A36        1.93018  -0.00000   0.00000   0.00069   0.00069   1.93087
   A37        1.92705  -0.00010   0.00000  -0.00165  -0.00165   1.92540
   A38        1.87292   0.00003   0.00000   0.00010   0.00010   1.87302
   A39        1.93524   0.00024   0.00000   0.00075   0.00075   1.93599
   A40        1.92977  -0.00004   0.00000  -0.00067  -0.00066   1.92911
   A41        1.86134  -0.00037   0.00000  -0.00085  -0.00087   1.86047
   A42        1.87350  -0.00006   0.00000  -0.00005  -0.00005   1.87346
   A43        1.95382   0.00023   0.00000   0.00116   0.00117   1.95499
   A44        1.91083  -0.00001   0.00000  -0.00037  -0.00037   1.91046
   A45        1.83866   0.00038   0.00000   0.00253   0.00251   1.84117
   A46        1.95605  -0.00028   0.00000  -0.00139  -0.00138   1.95467
   A47        1.94687   0.00006   0.00000   0.00057   0.00057   1.94744
   A48        1.90963  -0.00012   0.00000  -0.00104  -0.00104   1.90859
   A49        1.94017  -0.00010   0.00000  -0.00033  -0.00032   1.93985
   A50        1.87327   0.00005   0.00000  -0.00038  -0.00038   1.87289
   A51        3.05004  -0.00064   0.00000  -0.00721  -0.00719   3.04285
   A52        3.01286  -0.00013   0.00000  -0.00465  -0.00469   3.00817
    D1       -2.17855  -0.00115   0.00000  -0.02208  -0.02208  -2.20063
    D2        2.12815  -0.00065   0.00000  -0.01747  -0.01749   2.11066
    D3       -0.00544  -0.00016   0.00000  -0.01326  -0.01326  -0.01870
    D4       -0.48470   0.00019   0.00000   0.00036   0.00037  -0.48433
    D5        1.49234  -0.00036   0.00000  -0.00430  -0.00433   1.48801
    D6       -2.65997  -0.00085   0.00000  -0.00833  -0.00830  -2.66827
    D7        3.10301   0.00011   0.00000   0.00135   0.00132   3.10433
    D8        0.09015   0.00024   0.00000   0.00600   0.00601   0.09616
    D9       -1.50326  -0.00120   0.00000  -0.00754  -0.00754  -1.51079
   D10        1.58075  -0.00007   0.00000   0.00530   0.00533   1.58608
   D11       -0.47350   0.00198   0.00000   0.05772   0.05773  -0.41577
   D12        2.70122   0.00260   0.00000   0.06319   0.06320   2.76442
   D13       -2.04894   0.00268   0.00000   0.06577   0.06573  -1.98321
   D14        1.14875   0.00153   0.00000   0.05281   0.05283   1.20158
   D15        0.39981   0.00020   0.00000   0.01316   0.01315   0.41297
   D16       -2.89012  -0.00046   0.00000   0.00411   0.00412  -2.88600
   D17        1.90961   0.00017   0.00000   0.00715   0.00713   1.91674
   D18       -1.29442   0.00140   0.00000   0.02111   0.02112  -1.27331
   D19       -0.34235   0.00006   0.00000   0.00934   0.00935  -0.33300
   D20       -2.44525   0.00010   0.00000   0.00828   0.00829  -2.43696
   D21        1.75452   0.00002   0.00000   0.00777   0.00777   1.76229
   D22        0.70499  -0.00013   0.00000  -0.00454  -0.00455   0.70043
   D23       -1.37017  -0.00007   0.00000  -0.00409  -0.00410  -1.37426
   D24        2.81200   0.00002   0.00000  -0.00305  -0.00306   2.80895
   D25        2.40367  -0.00019   0.00000  -0.00866  -0.00867   2.39500
   D26       -1.80358  -0.00013   0.00000  -0.00867  -0.00867  -1.81226
   D27        0.27244  -0.00038   0.00000  -0.00998  -0.00999   0.26245
   D28       -1.67138  -0.00013   0.00000   0.00350   0.00336  -1.66802
   D29        0.46760   0.00135   0.00000   0.02413   0.02419   0.49179
   D30        2.52450  -0.00060   0.00000   0.00681   0.00690   2.53140
   D31        1.40793   0.00008   0.00000  -0.00687  -0.00686   1.40107
   D32       -2.75547  -0.00002   0.00000  -0.00704  -0.00703  -2.76250
   D33       -0.64813  -0.00021   0.00000  -0.01028  -0.01026  -0.65840
   D34        1.24919   0.00158   0.00000   0.13503   0.13512   1.38432
   D35       -0.91124   0.00029   0.00000   0.11290   0.11292  -0.79832
   D36       -2.95390   0.00151   0.00000   0.12882   0.12882  -2.82508
   D37       -2.84170   0.00071   0.00000   0.11669   0.11676  -2.72495
   D38        1.28105  -0.00059   0.00000   0.09457   0.09455   1.37560
   D39       -0.76161   0.00063   0.00000   0.11049   0.11045  -0.65116
   D40       -0.98962   0.00043   0.00000   0.11345   0.11347  -0.87614
   D41        3.13314  -0.00086   0.00000   0.09132   0.09127  -3.05878
   D42        1.09048   0.00036   0.00000   0.10725   0.10717   1.19765
   D43        0.60879   0.00022   0.00000   0.00072   0.00072   0.60951
   D44        2.71852   0.00013   0.00000   0.00140   0.00140   2.71992
   D45       -1.49440   0.00010   0.00000   0.00092   0.00092  -1.49349
   D46       -1.44137   0.00004   0.00000  -0.00160  -0.00159  -1.44297
   D47        0.66836  -0.00005   0.00000  -0.00092  -0.00092   0.66744
   D48        2.73862  -0.00008   0.00000  -0.00140  -0.00140   2.73722
   D49        2.69046   0.00006   0.00000  -0.00213  -0.00213   2.68833
   D50       -1.48300  -0.00003   0.00000  -0.00145  -0.00145  -1.48445
   D51        0.58727  -0.00006   0.00000  -0.00193  -0.00193   0.58533
   D52       -0.61293   0.00042   0.00000   0.00991   0.00990  -0.60303
   D53        1.49295   0.00024   0.00000   0.00916   0.00916   1.50210
   D54       -2.72433   0.00016   0.00000   0.00785   0.00784  -2.71649
   D55       -2.73241   0.00023   0.00000   0.00885   0.00885  -2.72355
   D56       -0.62652   0.00005   0.00000   0.00810   0.00810  -0.61842
   D57        1.43938  -0.00003   0.00000   0.00679   0.00679   1.44617
   D58        1.47538   0.00016   0.00000   0.00843   0.00842   1.48380
   D59       -2.70192  -0.00002   0.00000   0.00767   0.00767  -2.69425
   D60       -0.63602  -0.00010   0.00000   0.00636   0.00636  -0.62966
         Item               Value     Threshold  Converged?
 Maximum Force            0.007619     0.000450     NO 
 RMS     Force            0.001020     0.000300     NO 
 Maximum Displacement     0.423363     0.001800     NO 
 RMS     Displacement     0.074394     0.001200     NO 
 Predicted change in Energy=-9.723240D-04
 GradGradGradGradGradGradGradGradGradGradGradGradGradGradGradGradGradGrad

                          Input orientation:                          
 ---------------------------------------------------------------------
 Center     Atomic      Atomic             Coordinates (Angstroms)
 Number     Number       Type             X           Y           Z
 ---------------------------------------------------------------------
      1         14           0       -0.497693   -0.201376   -0.039878
      2          8           0        0.495671   -1.076094   -1.214340
      3          8           0       -1.667103    0.437255    1.144025
      4          8           0       -1.862610   -0.519387   -1.075733
      5          8           0        0.188841    1.292128   -0.303392
      6          8           0        3.164025    0.888807    0.796289
      7          8           0        0.066491   -1.247048    1.171990
      8          6           0        2.565906    1.925520    0.231589
      9          1           0        3.273291    2.595167   -0.384720
     10          1           0        2.094229    2.667232    0.950456
     11          6           0        1.455785    1.636636   -0.811112
     12          1           0        1.823468    0.856635   -1.489427
     13          1           0        1.310768    2.561882   -1.401233
     14          6           0        1.300799   -1.825283    0.841263
     15          1           0        2.105541   -1.106227    1.051539
     16          1           0        1.443579   -2.749533    1.421889
     17          6           0        1.232384   -2.102687   -0.661791
     18          1           0        2.244875   -2.145070   -1.095377
     19          1           0        0.750000   -3.085868   -0.851185
     20          6           0       -3.084886   -0.061607   -0.613979
     21          1           0       -3.663778    0.405552   -1.428391
     22          1           0       -3.688908   -0.899747   -0.218904
     23          6           0       -2.783010    0.927614    0.516768
     24          1           0       -2.609155    1.934077    0.087466
     25          1           0       -3.636529    1.010095    1.212225
 ---------------------------------------------------------------------
                    Distance matrix (angstroms):
                    1          2          3          4          5
     1  Si   0.000000
     2  O    1.769537   0.000000
     3  O    1.782413   3.539732   0.000000
     4  O    1.742735   2.427061   2.425018   0.000000
     5  O    1.664729   2.555865   2.504068   2.843686   0.000000
     6  O    3.910991   3.876025   4.864629   5.545677   3.197450
     7  O    1.697162   2.430636   2.417231   3.050111   2.939241
     8  C    3.739388   3.922533   4.578847   5.224789   2.517504
     9  H    4.707430   4.677777   5.603672   6.046109   3.349382
    10  H    3.990957   4.610229   4.376972   5.469604   2.663372
    11  C    2.790908   2.905738   3.874727   3.966133   1.407697
    12  H    2.934002   2.360965   4.392612   3.956230   2.065996
    13  H    3.572032   3.732851   4.456467   4.435144   2.018972
    14  C    2.578382   2.331312   3.744219   3.922677   3.502133
    15  H    2.964249   2.779711   4.077220   4.540472   3.355843
    16  H    3.521137   3.263224   4.461969   4.705588   4.570119
    17  C    2.644792   1.379112   4.256677   3.501025   3.569622
    18  H    3.523308   2.053430   5.194891   4.417540   4.082750
    19  H    3.245804   2.058095   4.715468   3.669193   4.447676
    20  C    2.653807   3.769616   2.312909   1.384462   3.556170
    21  H    3.510046   4.420646   3.256538   2.055258   4.110269
    22  H    3.271639   4.304962   2.780799   2.052850   4.455153
    23  C    2.609051   4.214419   1.370822   2.340300   3.104421
    24  H    3.005769   4.516168   2.060159   2.815998   2.897180
    25  H    3.589947   5.226421   2.052179   3.274272   4.124330
                    6          7          8          9         10
     6  O    0.000000
     7  O    3.781236   0.000000
     8  C    1.323407   4.146881   0.000000
     9  H    2.078073   5.241139   1.152674   0.000000
    10  H    2.081112   4.413886   1.135512   1.782716   0.000000
    11  C    2.461924   3.765431   1.550177   2.098552   2.138424
    12  H    2.650023   3.820418   2.157690   2.518900   3.050345
    13  H    3.326085   4.762106   2.155559   2.210408   2.480998
    14  C    3.292403   1.402587   4.005087   4.993410   4.563348
    15  H    2.272818   2.047453   3.174231   4.138454   3.774830
    16  H    4.072939   2.053359   4.953035   5.931063   5.476034
    17  C    3.847891   2.335418   4.336226   5.129513   5.108253
    18  H    3.691564   3.269977   4.293437   4.902298   5.231288
    19  H    4.933530   2.818098   5.439110   6.233679   6.176651
    20  C    6.476189   3.811316   6.049389   6.894738   6.059476
    21  H    7.197334   4.838178   6.623805   7.348917   6.627877
    22  H    7.154874   4.019729   6.878065   7.791927   6.894593
    23  C    5.953727   3.643916   5.448674   6.346038   5.196327
    24  H    5.909706   4.295908   5.177075   5.938280   4.837777
    25  H    6.814341   4.336896   6.345853   7.266932   5.971283
                   11         12         13         14         15
    11  C    0.000000
    12  H    1.097135   0.000000
    13  H    1.106956   1.782837   0.000000
    14  C    3.839173   3.591377   4.927079   0.000000
    15  H    3.378602   3.223182   4.483612   1.099485   0.000000
    16  H    4.921883   4.650218   6.016543   1.100796   1.809919
    17  C    3.748966   3.129209   4.723465   1.529970   2.165833
    18  H    3.873600   3.056647   4.808482   2.178100   2.389112
    19  H    4.775121   4.135579   5.702112   2.181017   3.062160
    20  C    4.851864   5.069666   5.179211   4.945959   5.550289
    21  H    5.301559   5.506094   5.421863   5.897031   6.459145
    22  H    5.766439   5.923293   6.194960   5.184375   5.935679
    23  C    4.498151   5.024888   4.807138   4.935710   5.321693
    24  H    4.173685   4.826554   4.239830   5.476197   5.692208
    25  H    5.515261   6.093771   5.806372   5.705627   6.121765
                   16         17         18         19         20
    16  H    0.000000
    17  C    2.191971   0.000000
    18  H    2.709996   1.102238   0.000000
    19  H    2.400216   1.111400   1.783082   0.000000
    20  C    5.645945   4.775679   5.742726   4.889659   0.000000
    21  H    6.645581   5.554398   6.444280   5.657262   1.103005
    22  H    5.697046   5.085502   6.126076   4.988267   1.106077
    23  C    5.674919   5.166732   6.109011   5.519193   1.532408
    24  H    6.335735   5.622657   6.449819   6.112678   2.168202
    25  H    6.323469   6.075168   7.061940   6.346354   2.188121
                   21         22         23         24         25
    21  H    0.000000
    22  H    1.779690   0.000000
    23  C    2.198168   2.168204   0.000000
    24  H    2.397173   3.047997   1.107923   0.000000
    25  H    2.709071   2.387126   1.104065   1.781663   0.000000
 Stoichiometry    C6H12O6Si(2-)
 Framework group  C1[X(C6H12O6Si)]
 Deg. of freedom    69
 Full point group                 C1      NOp   1
 Largest Abelian subgroup         C1      NOp   1
 Largest concise Abelian subgroup C1      NOp   1
                         Standard orientation:                         
 ---------------------------------------------------------------------
 Center     Atomic      Atomic             Coordinates (Angstroms)
 Number     Number       Type             X           Y           Z
 ---------------------------------------------------------------------
      1         14           0        0.532062    0.151214    0.005826
      2          8           0       -0.303039    1.154382   -1.188963
      3          8           0        1.565843   -0.635851    1.226000
      4          8           0        1.974870    0.351196   -0.950959
      5          8           0       -0.289832   -1.255288   -0.337050
      6          8           0       -3.261202   -0.571635    0.625893
      7          8           0        0.015803    1.218966    1.219804
      8          6           0       -2.744231   -1.650451    0.059940
      9          1           0       -3.483524   -2.226732   -0.610882
     10          1           0       -2.389752   -2.455358    0.778171
     11          6           0       -1.557153   -1.452656   -0.917183
     12          1           0       -1.806517   -0.621566   -1.588609
     13          1           0       -1.477440   -2.372704   -1.527519
     14          6           0       -1.133373    1.931100    0.846294
     15          1           0       -2.017779    1.294876    0.994319
     16          1           0       -1.210469    2.850167    1.447231
     17          6           0       -0.958082    2.237913   -0.642311
     18          1           0       -1.936705    2.396753   -1.123971
     19          1           0       -0.367776    3.169855   -0.777338
     20          6           0        3.117629   -0.243252   -0.443543
     21          1           0        3.687230   -0.747464   -1.242258
     22          1           0        3.783194    0.516953    0.006476
     23          6           0        2.656666   -1.223939    0.639988
     24          1           0        2.402851   -2.195530    0.171925
     25          1           0        3.459529   -1.412698    1.373976
 ---------------------------------------------------------------------
 Rotational constants (GHZ):           1.1108255           0.5967066           0.4928212
 Standard basis: def2TZVPP (5D, 7F)
 There are   660 symmetry adapted cartesian basis functions of A   symmetry.
 There are   582 symmetry adapted basis functions of A   symmetry.
   582 basis functions,   885 primitive gaussians,   660 cartesian basis functions
    56 alpha electrons       56 beta electrons
       nuclear repulsion energy      1073.3906729168 Hartrees.
 NAtoms=   25 NActive=   25 NUniq=   25 SFac= 1.00D+00 NAtFMM=   60 NAOKFM=F Big=F
 Integral buffers will be    131072 words long.
 Raffenetti 2 integral format.
 Two-electron integral symmetry is turned on.
 Nuclear repulsion after empirical dispersion term =     1073.3753455384 Hartrees.
 One-electron integrals computed using PRISM.
   1 Symmetry operations used in ECPInt.
 ECPInt:  NShTT=   23871 NPrTT=   66401 LenC2=   22161 LenP2D=   46728.
 LDataN:  DoStor=T MaxTD1= 6 Len=  172
 NBasis=   582 RedAO= T EigKep=  2.38D-04  NBF=   582
 NBsUse=   582 1.00D-06 EigRej= -1.00D+00 NBFU=   582
 Initial guess from the checkpoint file:  "PL3HL3_IRC_reverse_ReactantOpt.chk"
 B after Tr=     0.000000   -0.000000    0.000000
[...]
 438,-0.00013424,0.00024132,0.00026498,-0.00215979,0.00134507,-0.000026
 54,0.00085334,0.00117326,-0.00018286,-0.00048967,-0.00108786,-0.000838
 28,0.00142177,-0.00055217,0.00093548,-0.00026845,0.00055785,0.00025098
 ,0.00007579,0.00006540,-0.00006311,0.00007188,0.00002755,-0.00009814,-
 0.00039491,0.00007432,0.00080954,-0.00021080,0.00015188,-0.00012116,0.
 00004556,0.00000993,-0.00010309,-0.00139377,-0.00304734,0.00234183,0.0
 0110397,-0.00013530,-0.00036868,-0.00062980,0.00051330,0.00111638,-0.2
 2699318,-0.07933928,0.06853315,0.26307261,0.00072858,0.00265712,0.0020
 8751,0.02725217,0.00648291,-0.00540592,-0.00004101,-0.00017854,-0.0001
 1236,0.00127231,-0.00086917,0.00001964,-0.00080816,-0.00080177,0.00010
 129,-0.00001394,0.00119363,0.00046249,0.00077217,-0.00014825,-0.001736
 47,0.00076680,-0.00169534,0.00068200,0.00006812,0.00031741,-0.00033999
 ,-0.00014931,0.00051343,0.00016661,0.00050435,0.00009993,-0.00076218,0
 .00012502,0.00036553,0.00032446,-0.00009017,0.00021344,0.00008870,0.00
 309501,0.00216487,-0.00278335,0.00028378,0.00071674,-0.00064769,0.0001
 6693,0.00038354,-0.00060020,-0.09107997,-0.08986623,0.03254885,0.08210
 176,0.09157596,-0.00050586,0.00081180,-0.00319841,-0.01876740,-0.00170
 204,0.00752178,0.00045809,-0.00045410,0.00022382,-0.00046570,0.0002067
 8,0.00021454,-0.00040607,-0.00038407,0.00023831,-0.00043381,0.00218187
 ,-0.00041845,0.00295578,-0.00217177,-0.00470134,0.00115159,-0.00130472
 ,0.00074480,0.00000298,0.00031348,-0.00028130,-0.00028716,0.00039257,0
 .00010840,0.00006416,0.00005542,0.00010738,0.00001511,-0.00012837,-0.0
 0013056,-0.00009633,-0.00000688,-0.00002465,0.02707176,0.01061944,-0.0
 0890906,0.00104181,-0.00009669,0.00051653,-0.00065607,0.00064653,-0.00
 231526,0.06605000,0.02955270,-0.07397845,-0.06925072,-0.03290782,0.080
 60096,0.00164053,0.00040130,-0.00394481,-0.00726018,0.03734834,0.00371
 282,-0.00002482,-0.00002538,0.00017918,-0.00095949,0.00011475,0.000043
 38,0.00065032,0.00167334,0.00058522,0.00006162,-0.00152900,-0.00036636
 ,0.00064005,-0.00128421,0.00061583,-0.00069585,0.00101532,-0.00037985,
 0.00001908,-0.00016380,0.00015771,0.00017538,-0.00025015,-0.00010258,-
 0.00049961,-0.00003019,0.00063347,-0.00012158,-0.00004620,-0.00006924,
 0.00005989,-0.00000884,-0.00003917,0.00062420,0.00336289,0.00078991,0.
 00022353,0.00018226,0.00011362,0.00075292,-0.00002599,-0.00078917,-0.0
 5473576,-0.03333880,-0.00385561,0.00057482,-0.02508381,-0.00780592,0.0
 5890255,-0.00595146,0.00188581,0.00666266,0.02454450,-0.02513176,0.003
 96582,0.00069311,-0.00016884,-0.00033259,0.00222196,-0.00060113,0.0001
 0794,-0.00012365,-0.00215720,-0.00103755,-0.00044181,-0.00118066,-0.00
 026270,0.00074852,0.00057046,-0.00153320,-0.00021548,0.00089995,-0.000
 27690,-0.00016879,-0.00029829,0.00027166,0.00008144,-0.00025506,-0.000
 19207,0.00050761,0.00075744,-0.00030395,0.00016629,0.00030182,-0.00011
 025,-0.00000489,-0.00031425,0.00004901,-0.00312772,-0.00373979,0.00141
 711,0.00051787,0.00132427,-0.00157443,-0.00028983,0.00266952,-0.001094
 71,-0.03314792,-0.23555101,-0.06119214,-0.00356794,-0.01297124,-0.0057
 5176,0.01784934,0.27370574,0.00013314,0.00074152,-0.00266525,-0.003676
 29,0.01786669,0.00843067,0.00027078,-0.00021451,0.00014057,-0.00014315
 ,0.00004499,0.00010884,0.00005293,0.00039708,0.00065731,-0.00007243,-0
 .00021201,0.00064174,0.00252402,-0.00001066,-0.00004927,-0.00015086,0.
 00028461,-0.00012768,-0.00001144,-0.00012239,0.00010812,0.00000558,0.0
 0001048,0.00000116,-0.00000483,-0.00005460,-0.00012955,-0.00004069,-0.
 00005364,0.00002748,0.00001118,-0.00003092,0.00002108,-0.00874672,-0.0
 2997343,-0.00881869,0.00100415,-0.00033948,-0.00586198,0.00016749,0.00
 065869,0.00120286,-0.00309858,-0.05855383,-0.06815577,0.00116212,0.008
 58505,0.00381323,0.01064658,0.06105700,0.07072609,-0.03836907,0.005352
 43,-0.02565502,0.00416996,-0.00030002,-0.00047548,-0.02568287,0.007154
 14,-0.02081633,-0.22249555,0.05663225,0.02945967,0.00491762,0.00286046
 ,0.00232972,0.00051286,0.00038442,0.00017145,0.00084694,-0.00057643,0.
 00189496,-0.00020511,-0.00044508,-0.00027225,0.00039114,0.00037269,-0.
 00027085,-0.00003505,0.00028119,0.00030615,-0.00157347,-0.00151089,0.0
 0189856,-0.00011190,-0.00001225,-0.00010252,0.00002085,0.00052182,-0.0
 0029818,-0.00042104,0.00046089,0.00012549,0.00014339,-0.00004676,0.000
 05473,0.00016190,-0.00036045,0.00029753,-0.00166605,0.00128568,-0.0003
 2205,0.00050605,-0.00015016,-0.00003653,0.00015310,-0.00074285,-0.0000
 1203,0.53743761,0.00987567,0.00053495,0.01337667,-0.00024104,0.0007034
 9,-0.00021121,0.01597184,0.00570672,0.01094645,0.06587569,-0.10178275,
 -0.01337750,-0.00192252,-0.00216010,-0.00215009,-0.00001208,-0.0002696
 9,0.00003545,0.00021896,-0.00066667,-0.00049140,-0.00006531,0.00014826
 ,-0.00001712,-0.00013030,-0.00013534,0.00012199,0.00001895,-0.00007810
 ,-0.00007729,0.00061057,0.00070563,-0.00067403,0.00014610,0.00005535,0
 .00003351,-0.00002222,-0.00031826,0.00012569,0.00008472,-0.00020204,-0
 .00014136,-0.00004586,0.00003916,-0.00003102,0.00002101,0.00003299,-0.
 00006220,0.00097349,0.00067337,0.00007988,0.00003711,-0.00009711,0.000
 08971,-0.00017900,0.00019833,-0.00010197,0.00794422,0.52884378,-0.0051
 7492,0.00613911,0.00945126,-0.00447353,0.00147440,-0.00002796,-0.02383
 629,0.00293360,-0.04288494,0.05045198,-0.02672582,-0.09460680,-0.00046
 976,-0.00116938,-0.00156817,-0.00006622,-0.00015912,-0.00010129,0.0008
 7056,-0.00036722,-0.00063510,0.00000345,0.00022834,0.00012086,-0.00002
 552,-0.00003627,0.00000189,0.00003478,-0.00013579,-0.00013617,0.000101
 53,-0.00000056,-0.00004331,0.00009071,-0.00000736,-0.00007254,-0.00001
 409,0.00004612,0.00000779,0.00010611,-0.00018098,0.00028540,-0.0000109
 6,-0.00000401,-0.00001881,0.00003885,0.00004172,-0.00008000,-0.0000072
 9,-0.00042923,0.00122239,-0.00038367,0.00023372,-0.00009775,-0.0001414
 7,0.00026026,-0.00004666,0.03929835,-0.05753166,0.48975421,0.00365044,
 0.00373230,0.00455256,-0.00240554,0.00071107,-0.00006829,0.00114551,-0
 .00058859,-0.00177988,-0.02828673,0.02686791,-0.02059023,-0.00062523,-
 0.00096305,-0.00003425,0.00000392,-0.00025466,0.00005199,-0.00050498,0
 .00015767,-0.00044508,-0.00009666,0.00015741,-0.00004587,-0.00006767,-
 0.00009597,0.00008379,0.00001927,-0.00004659,-0.00003811,0.00029622,0.
 00036255,-0.00033244,0.00000634,0.00005909,0.00001573,-0.00001598,-0.0
 0021615,0.00007836,0.00018972,-0.00012458,0.00003073,-0.00005835,0.000
 04263,-0.00003486,-0.00005693,0.00008964,-0.00007422,0.00015143,-0.000
 51766,0.00041269,-0.00026029,0.00015310,-0.00002670,-0.00005689,0.0001
 9734,0.00000690,-0.06287928,0.03370946,-0.04267971,0.08293345,-0.00378
 112,-0.00217553,-0.00446340,0.00160100,-0.00051571,0.00010509,-0.00175
 822,0.00092164,-0.00284215,0.02088868,-0.00759320,0.00524334,0.0007390
 6,0.00066081,0.00016109,0.00004887,0.00019204,-0.00002867,0.00029877,-
 0.00001970,0.00028241,0.00003078,-0.00014927,0.00003511,0.00007449,0.0
 0009539,-0.00008474,-0.00001019,0.00004703,0.00004123,-0.00032039,-0.0
 0033181,0.00033008,-0.00000593,-0.00003813,-0.00002335,0.00000510,0.00
 016220,-0.00006432,-0.00015299,0.00011155,0.00000139,0.00004435,-0.000
 02961,0.00002050,0.00003066,-0.00006701,0.00005825,-0.00021790,0.00037
 501,-0.00026742,0.00017987,-0.00009142,0.00001769,0.00004116,-0.000154
 06,0.00000105,0.03712226,-0.14043413,0.10403819,-0.05272806,0.15582866
 ,0.00331183,-0.00071561,-0.00175185,-0.00016317,0.00012821,0.00014352,
 -0.00405867,-0.00247737,-0.00533856,0.00202066,-0.00802653,0.01311948,
 -0.00085155,-0.00066501,0.00046748,-0.00004150,-0.00014724,0.00006128,
 -0.00090018,0.00052414,0.00000168,-0.00003113,0.00009031,-0.00003661,-
 0.00007762,-0.00008925,0.00008145,0.00000654,-0.00001986,-0.00001858,0
 .00029694,0.00035162,-0.00035532,-0.00003594,0.00001696,0.00006322,-0.
 00001915,-0.00018497,0.00008938,0.00032626,-0.00011108,-0.00006774,-0.
 00005326,0.00002605,-0.00001696,-0.00007679,0.00008889,-0.00002765,0.0
 0011327,-0.00008610,-0.00004202,-0.00004137,0.00001028,0.00004660,-0.0
 0001303,0.00008278,0.00001733,-0.04558991,0.10130545,-0.16486839,0.053
 86892,-0.11358922,0.17380627,0.00403301,-0.00206777,0.00920912,-0.0020
 2074,0.00137990,-0.00045019,0.00134580,0.00032005,-0.00134404,-0.04801
 529,-0.00814268,0.00666438,-0.00181033,-0.00116550,-0.00099168,-0.0002
 2316,-0.00001842,-0.00008421,-0.00014566,0.00050887,-0.00061818,0.0001
 2197,0.00005580,0.00009624,-0.00013980,-0.00010844,0.00008527,-0.00000
 174,-0.00005557,-0.00006852,0.00060892,0.00046164,-0.00065909,0.000034
 23,0.00002615,0.00006053,-0.00001423,-0.00013872,0.00007434,0.00010638
 ,-0.00007003,0.00006681,-0.00001555,-0.00001661,-0.00001262,-0.0000515
 7,0.00012321,-0.00010889,0.00053703,-0.00042544,0.00033812,-0.00017468
 ,0.00007463,-0.00001159,-0.00013233,0.00035677,-0.00001244,-0.12803807
 ,-0.10447712,0.00631790,0.00738028,0.00344525,-0.00077164,0.16642667,0
 .00241579,-0.00035078,0.00054420,-0.00056407,0.00016451,0.00004007,-0.
 00066896,0.00226812,-0.00082204,0.00869646,0.02011982,-0.00096577,-0.0
 0039859,0.00011912,0.00016627,-0.00016557,0.00007054,-0.00005185,-0.00
 032343,0.00034767,-0.00016445,0.00012779,-0.00000422,0.00001519,-0.000
 05009,-0.00003782,0.00003662,-0.00001420,0.00000190,-0.00000348,0.0002
 1795,0.00006135,-0.00015221,-0.00003134,0.00000391,0.00003580,-0.00000
 108,0.00001618,-0.00000125,0.00011823,-0.00007717,-0.00001244,-0.00002
 470,-0.00000406,0.00000237,-0.00004615,0.00007785,-0.00003998,0.000166
 91,-0.00028979,0.00008070,-0.00007063,0.00002580,-0.00000004,-0.000008
 63,0.00012417,0.00001782,-0.10371461,-0.17566271,0.01573253,-0.0127940
 3,-0.01707978,0.00271836,0.11477525,0.18584361,-0.00159655,-0.00001865
 ,-0.00269618,0.00048232,-0.00024414,0.00008795,0.00120903,0.00196793,0
 .00117517,0.01355919,0.00245562,0.00466215,0.00023226,0.00042164,0.000
 35746,0.00003114,0.00003875,0.00002262,0.00005759,-0.00001009,0.000169
 76,-0.00001337,-0.00006543,-0.00003974,0.00001484,0.00001700,-0.000005
 71,-0.00000743,0.00003983,0.00004203,-0.00004397,-0.00002357,0.0000274
 7,-0.00002938,0.00000834,0.00000958,0.00001287,-0.00000344,-0.00001216
 ,-0.00004014,0.00003174,-0.00000662,0.00001320,-0.00000321,0.00000489,
 0.00000859,-0.00002318,0.00002304,-0.00013610,0.00008126,-0.00006934,0
 .00004193,-0.00001898,-0.00000181,0.00002887,-0.00007204,0.00000821,0.
 00976854,0.01841830,-0.05470566,0.01317138,0.01994928,-0.00223650,-0.0
 1855360,-0.01555991,0.05317953,-0.03325686,0.02154460,0.01699994,-0.00
 030339,-0.00059884,-0.00128255,-0.17916866,0.07460241,-0.04697893,-0.0
 1778960,0.02723029,0.01970067,0.00461341,0.00296329,-0.00402108,0.0004
 4146,0.00007257,-0.00001888,0.00140691,-0.00103378,0.00000735,-0.00011
 046,-0.00004867,-0.00031956,0.00041651,0.00033169,-0.00023358,-0.00002
 259,0.00004743,0.00007065,-0.00075957,-0.00123258,0.00191242,0.0003752
 9,-0.00003961,-0.00046844,0.00017962,0.00050888,-0.00032096,-0.0006066
 3,0.00141119,0.00028836,0.00032152,-0.00012490,-0.00005065,0.00007089,
 -0.00029133,0.00009880,-0.00015454,0.00016056,-0.00010459,0.00004688,0
 .00003011,-0.00014245,0.00002169,-0.00024778,-0.00006489,-0.06831136,-
 0.01988625,-0.01864580,-0.00033543,-0.00663831,-0.00752481,-0.00227534
 ,-0.00854292,-0.01648086,0.56447842,0.02365042,-0.00795254,-0.01385541
 ,-0.00105160,0.00021566,0.00069199,0.07380618,-0.12837604,0.04279965,0
 .01554772,-0.00840644,-0.01090216,-0.00450484,-0.00604484,0.00444978,0
 .00019111,-0.00078236,0.00025391,-0.00075868,0.00210830,0.00003083,-0.
 00045913,0.00050589,0.00019149,-0.00021968,-0.00026087,0.00012506,0.00
 011756,-0.00024813,-0.00026270,0.00014043,0.00117622,-0.00075738,-0.00
 011873,-0.00007918,0.00021696,-0.00026333,-0.00069871,0.00048000,0.001
 47385,-0.00049896,-0.00010176,-0.00013600,0.00006482,-0.00008715,-0.00
 022266,0.00025759,-0.00006211,0.00012629,-0.00019569,0.00013375,-0.000
 15656,0.00008047,0.00011823,-0.00002721,0.00016362,0.00004767,-0.01602
 454,-0.10130330,-0.03851028,0.00278342,0.00866187,0.02264162,-0.004871
 98,-0.01561602,-0.02473616,-0.00873038,0.54216674,-0.00366686,-0.00178
 855,0.01723533,-0.00085239,0.00026030,-0.00109027,-0.06907473,0.053579
 09,-0.12204178,0.01438126,-0.01480155,-0.03270339,0.00364148,0.0026287
 3,-0.00354990,-0.00001665,0.00038632,-0.00019239,0.00493651,-0.0033978
 4,-0.00003206,0.00023758,-0.00021447,-0.00007925,0.00017349,0.00018233
 ,-0.00011323,-0.00005313,0.00007012,0.00007442,-0.00045840,-0.00076427
 ,0.00076861,0.00019079,0.00000015,-0.00022777,0.00011757,0.00049179,-0
 .00030501,-0.00076971,0.00007708,0.00121093,0.00021259,-0.00011727,-0.
 00001142,0.00048106,-0.00035158,-0.00000386,-0.00016147,0.00005568,0.0
 0025499,-0.00001151,0.00002972,-0.00012532,-0.00002570,-0.00007576,-0.
 00006614,-0.00418023,-0.04611557,-0.13372788,-0.00503626,-0.00938252,-
 0.01352458,0.00255731,0.00328930,0.00268433,-0.06400058,-0.00938366,0.
 46573423,0.00174456,0.00257158,-0.00240894,0.00007748,-0.00025115,0.00
 009576,0.00438408,0.03290232,-0.00796154,0.00145662,-0.00065560,0.0001
 8587,0.00055521,-0.00007338,-0.00046093,0.00008131,-0.00008906,0.00005
 408,-0.00096873,0.00005263,0.00016031,-0.00006731,0.00005027,-0.000081
 85,0.00005814,0.00002855,-0.00001074,0.00000758,-0.00000365,0.00001408
 ,-0.00022617,-0.00047377,0.00030082,0.00011375,0.00003413,-0.00014085,
 0.00001029,0.00006868,-0.00003274,0.00000003,-0.00007364,-0.00010385,-
 0.00007503,0.00006463,-0.00000587,-0.00004332,0.00002427,0.00000429,-0
 .00007736,0.00005678,-0.00007282,0.00000306,0.00000975,0.00002665,0.00
 000798,-0.00001858,0.00001413,-0.00302902,-0.00547822,0.00066038,0.000
 22172,0.00011542,-0.00051432,0.00081235,-0.00024758,-0.00179943,-0.076
 73115,-0.07389630,0.01466367,0.08061186,-0.00683784,-0.00193046,0.0065
 3819,0.00048257,0.00018135,-0.00028204,0.01753654,-0.02728345,0.012703
 16,0.00077822,0.00145764,-0.00119256,0.00057581,0.00267906,-0.00099572
 ,-0.00018953,0.00052385,-0.00016747,0.00220666,-0.00084084,-0.00020545
 ,0.00029938,-0.00036341,0.00002062,0.00003660,0.00010322,-0.00006009,-
 0.00005959,0.00013924,0.00013024,0.00011369,-0.00031755,-0.00003102,-0
 .00002662,0.00001724,-0.00000890,0.00013427,0.00024099,-0.00017127,-0.
 00057045,0.00026230,0.00023878,0.00016003,-0.00010887,0.00003763,0.000
 15867,-0.00013517,0.00002346,-0.00003447,0.00003285,0.00004174,0.00007
 603,-0.00004854,-0.00007909,0.00000516,-0.00004308,-0.00003379,-0.0085
 7462,-0.01412036,0.00279681,-0.00042020,0.00171531,-0.00089080,-0.0002
 0103,-0.00060446,-0.00309530,-0.07161672,-0.23426246,0.02023515,0.0689
 6288,0.27236657,0.00285174,-0.00020734,-0.00330835,0.00002133,-0.00003
 853,0.00020558,-0.00587126,0.02337508,-0.00117469,0.00117524,0.0017705
 5,0.00160643,-0.00026854,-0.00070563,0.00039492,0.00000058,-0.00014560
 ,0.00001639,-0.00098973,0.00045834,0.00010189,-0.00006908,0.00016616,0
 .00008562,-0.00003023,-0.00004354,0.00000763,0.00002859,-0.00007380,-0
 .00007132,0.00000079,0.00001058,-0.00016421,-0.00000436,-0.00000033,-0
 .00000242,-0.00002862,-0.00002779,0.00003524,0.00022345,-0.00013286,-0
 .00010571,-0.00007249,0.00003598,0.00000202,-0.00006941,0.00006520,-0.
 00001012,-0.00001539,-0.00001721,-0.00004746,-0.00001113,0.00000594,0.
 00003578,0.00000027,0.00003238,0.00001837,-0.01318728,-0.02713513,0.00
 229737,0.00006606,0.00027018,0.00160389,-0.00117170,-0.00415219,-0.004
 30681,0.01464812,0.02488993,-0.05511482,-0.00671461,-0.03541334,0.0599
 2335,0.00373056,-0.00281369,-0.00670301,-0.00034190,0.00039020,0.00039
 192,-0.03496830,0.01605357,0.00580462,0.00221958,-0.00038558,0.0000120
 6,-0.00201971,-0.00071577,0.00110162,-0.00024301,-0.00008369,-0.000043
 95,-0.00214172,0.00161668,-0.00010998,0.00008518,0.00014285,0.00010949
 ,-0.00015069,-0.00013215,0.00009055,0.00001657,-0.00006716,-0.00007758
 ,0.00071358,0.00025150,-0.00065438,-0.00010222,0.00002197,0.00012346,-
 0.00005815,-0.00019812,0.00013255,0.00067251,-0.00004689,-0.00029894,-
 0.00009166,0.00001964,-0.00000452,-0.00024224,0.00025227,-0.00004641,0
 .00019316,-0.00024844,0.00003324,-0.00007157,0.00001191,0.00005439,-0.
 00002114,0.00016392,0.00003536,0.00355642,-0.00302787,-0.00204538,-0.0
 0034835,0.00094740,0.00081962,0.00165183,0.00114818,0.00006909,-0.1925
 4702,-0.00639536,0.10671432,-0.00892792,-0.00299547,0.00948766,0.22943
 622,-0.00097988,-0.00065079,0.00195759,0.00025809,-0.00001342,-0.00005
 864,0.02389912,-0.00272576,-0.00933810,0.00077632,-0.00086539,-0.00327
 426,0.00034562,0.00125537,-0.00052877,-0.00005971,0.00013071,-0.000045
 59,0.00101272,-0.00067249,0.00007326,0.00008938,-0.00006318,0.00000243
 ,0.00001275,0.00002516,-0.00001065,-0.00001406,0.00003090,0.00002815,0
 .00011885,0.00001413,-0.00003381,-0.00002415,-0.00000226,0.00001175,0.
 00005841,0.00006985,-0.00005680,-0.00021120,-0.00008786,0.00017270,0.0
 0003299,-0.00002333,0.00001609,0.00011625,-0.00007537,0.00001373,-0.00
 005365,0.00006256,0.00000824,0.00003269,-0.00002317,-0.00001888,0.0000
 0735,-0.00003477,-0.00001141,0.01208622,-0.00041146,-0.00866713,-0.000
 27407,-0.00009218,-0.00098162,0.00023177,0.00048226,0.00044441,-0.0098
 7095,-0.05067564,0.00510729,-0.02368096,0.00033905,0.01701297,-0.00390
 989,0.05400708,-0.00213406,0.00017130,-0.00345542,0.00074527,-0.000309
 34,0.00024563,-0.01955049,0.00160706,0.01425252,0.00108559,-0.00453178
 ,-0.00444100,0.00039574,0.00005220,0.00033190,0.00009203,0.00003354,0.
 00004359,-0.00028387,0.00025288,0.00022640,-0.00005287,-0.00006581,-0.
 00003742,0.00004654,0.00004387,-0.00003184,-0.00000191,0.00003740,0.00
 004198,-0.00016737,-0.00016287,0.00020743,-0.00001236,-0.00000148,-0.0
 0000528,-0.00000915,0.00002621,-0.00000901,0.00001158,0.00012619,-0.00
 010287,0.00001421,0.00000108,0.00000259,-0.00002975,-0.00002478,0.0000
 5077,-0.00016676,0.00022447,-0.00011080,0.00007794,-0.00003131,0.00001
 024,0.00002603,-0.00009653,-0.00000204,0.02561350,0.00358446,-0.009519
 73,-0.00115318,0.00019091,-0.00121682,-0.00061164,-0.00075364,0.001626
 33,0.10693231,0.00158790,-0.12505378,0.00412847,-0.00013896,-0.0020285
 8,-0.11499580,-0.00182295,0.12897520\\-0.00002518,0.00002497,-0.000004
 45,0.00000862,0.00000028,-0.00000614,0.00001276,-0.00001350,0.00000546
 ,0.00001430,-0.00000549,0.00001026,-0.00000839,-0.00001324,0.00001163,
 0.00000557,-0.00001177,0.00000517,0.00000705,-0.00000218,0.00000501,-0
 .00000485,0.00001065,-0.00000275,-0.00000230,-0.00000590,0.00000073,0.
 00000136,-0.00000531,-0.00000142,0.00000639,0.00000967,-0.00002593,-0.
 00000458,-0.00000243,0.00000314,0.00000457,-0.00000138,0.00000803,-0.0
 0000716,-0.00000266,-0.00000876,0.00000237,0.00000286,0.00000207,0.000
 00054,0.00000023,0.00000143,0.00000749,-0.00000866,-0.00000646,-0.0000
 0510,0.00000176,-0.00000013,-0.00000574,-0.00000072,0.00000176,-0.0000
 0481,0.00000492,0.00000396,0.00000101,0.00000255,0.00000206,0.00000047
 ,0.00000326,-0.00000117,-0.00001027,0.00001398,-0.00000733,0.00000179,
 -0.00000182,0.00000201,0.00000408,-0.00000008,0.00000182\\\@
 The archive entry for this job was punched.


 WE HAVE SEEN THAT MAN ON THE AVERAGE DOES NOT LIVE ABOVE
 TWO-AND-TWENTY YEARS.  DURING THESE TWO AND TWENTY
 YEARS HE IS LIABLE TO TWO AND TWENTY THOUSAND EVILS,
 MANY OF WHICH ARE INCURABLE.  YET EVEN IN THIS DREADFUL STATE
 MEN STILL STRUT AND POSE ON THE STAGE OF LIFE.
 THEY MAKE LOVE AT THE RISK OF DESTRUCTION,
 INTRIGUE, CARRY ON WAR, AND FORM PROJECTS, JUST AS IF THEY
 WERE TO LIVE IN LUXURY AND HAPPINESS FOR A THOUSAND
 AGES.

                                              -- VOLTAIRE
 Job cpu time:       0 days  8 hours 50 minutes  4.2 seconds.
 Elapsed time:       0 days  2 hours 12 minutes 52.4 seconds.
 File lengths (MBytes):  RWF=    752 Int=      0 D2E=      0 Chk=     28 Scr=      1
 Normal termination of Gaussian 16 at Tue Feb 13 05:45:50 2024.
