 Entering Gaussian System, Link 0=/opt/software/gaussian/g16.c01/g16
 Initial command:
 /opt/software/gaussian/g16.c01/l1.exe "/scratch/arhender/23776156/Gau-7435.inp" -scrdir="/scratch/arhender/23776156/"
 Entering Link 1 = /opt/software/gaussian/g16.c01/l1.exe PID=      7436.
  
 Copyright (c) 1988-2019, Gaussian, Inc.  All Rights Reserved.
  
 This is part of the Gaussian(R) 16 program.  It is based on
 the Gaussian(R) 09 system (copyright 2009, Gaussian, Inc.),
 the Gaussian(R) 03 system (copyright 2003, Gaussian, Inc.),
 the Gaussian(R) 98 system (copyright 1998, Gaussian, Inc.),
 the Gaussian(R) 94 system (copyright 1995, Gaussian, Inc.),
 the Gaussian 92(TM) system (copyright 1992, Gaussian, Inc.),
 the Gaussian 90(TM) system (copyright 1990, Gaussian, Inc.),
 the Gaussian 88(TM) system (copyright 1988, Gaussian, Inc.),
 the Gaussian 86(TM) system (copyright 1986, Carnegie Mellon
 University), and the Gaussian 82(TM) system (copyright 1983,
 Carnegie Mellon University). Gaussian is a federally registered
 trademark of Gaussian, Inc.
  
 This software contains proprietary and confidential information,
 including trade secrets, belonging to Gaussian, Inc.
  
 This software is provided under written license and may be
 used, copied, transmitted, or stored only in accord with that
 written license.
  
 The following legend is applicable only to US Government
 contracts under FAR:
  
                    RESTRICTED RIGHTS LEGEND
  
 Use, reproduction and disclosure by the US Government is
 subject to restrictions as set forth in subparagraphs (a)
 and (c) of the Commercial Computer Software - Restricted
 Rights clause in FAR 52.227-19.
  
 Gaussian, Inc.
 340 Quinnipiac St., Bldg. 40, Wallingford CT 06492
  
  
 ---------------------------------------------------------------
 Warning -- This program may not be used in any manner that
 competes with the business of Gaussian, Inc. or will provide
 assistance to any competitor of Gaussian, Inc.  The licensee
 of this program is prohibited from giving any competitor of
 Gaussian, Inc. access to this program.  By using this program,
 the user acknowledges that Gaussian, Inc. is engaged in the
 business of creating and licensing software in the field of
 computational chemistry and represents and warrants to the
 licensee that it is not a competitor of Gaussian, Inc. and that
 it will not use this program in any manner prohibited above.
 ---------------------------------------------------------------
  

 Cite this work as:
 Gaussian 16, Revision C.01,
 M. J. Frisch, G. W. Trucks, H. B. Schlegel, G. E. Scuseria, 
 M. A. Robb, J. R. Cheeseman, G. Scalmani, V. Barone, 
 G. A. Petersson, H. Nakatsuji, X. Li, M. Caricato, A. V. Marenich, 
 J. Bloino, B. G. Janesko, R. Gomperts, B. Mennucci, H. P. Hratchian, 
 J. V. Ortiz, A. F. Izmaylov, J. L. Sonnenberg, D. Williams-Young, 
 F. Ding, F. Lipparini, F. Egidi, J. Goings, B. Peng, A. Petrone, 
 T. Henderson, D. Ranasinghe, V. G. Zakrzewski, J. Gao, N. Rega, 
 G. Zheng, W. Liang, M. Hada, M. Ehara, K. Toyota, R. Fukuda, 
 J. Hasegawa, M. Ishida, T. Nakajima, Y. Honda, O. Kitao, H. Nakai, 
 T. Vreven, K. Throssell, J. A. Montgomery, Jr., J. E. Peralta, 
 F. Ogliaro, M. J. Bearpark, J. J. Heyd, E. N. Brothers, K. N. Kudin, 
 V. N. Staroverov, T. A. Keith, R. Kobayashi, J. Normand, 
 K. Raghavachari, A. P. Rendell, J. C. Burant, S. S. Iyengar, 
 J. Tomasi, M. Cossi, J. M. Millam, M. Klene, C. Adamo, R. Cammi, 
 J. W. Ochterski, R. L. Martin, K. Morokuma, O. Farkas, 
 J. B. Foresman, and D. J. Fox, Gaussian, Inc., Wallingford CT, 2019.
 
 ******************************************
 Gaussian 16:  ES64L-G16RevC.01  3-Jul-2019
                28-Jan-2024 
 ******************************************
 %chk=IRC_PmonoL1toHbiL1_reverse.chk
 %mem=1600MB
 %nprocs=4
 Will use up to    4 processors via shared memory.
 ----------------------------------------------------------------------
 # irc=(reverse,calcfc,maxpoints=30) wb97xd/Def2TZVPP geom=connectivity
 ----------------------------------------------------------------------
 1/10=4,18=10,22=2,26=3,38=1,42=30,44=3,57=2,172=1/1,23;
 2/12=2,17=6,18=5,29=1,40=1/2;
 3/5=44,7=202,11=2,25=1,30=1,71=2,74=-58,140=1/1,2,3;
 4//1;
 5/5=2,38=5/2;
 8/6=4,10=90,11=11/1;
 11/6=1,8=1,9=11,15=111,16=1/1,2,10;
 10/6=1,13=1/2;
 6/7=2,8=2,9=2,10=2,28=1/1;
 7/10=1,25=1/1,2,3,16;
 1/10=4,18=10,22=2,26=3,42=30,44=3/23(2);
 2/29=1/2;
 99/5=20/99;
 2/29=1/2;
 3/5=44,7=202,11=2,25=1,30=1,71=2,74=-58,140=1/1,2,3;
 4/5=5,16=3,69=1/1;
 5/5=2,38=5/2;
 8/6=4,10=90,11=11/1;
 11/6=1,8=1,9=11,15=111,16=1/1,2,10;
 10/6=1,13=1/2;
 7/10=1,25=1/1,2,3,16;
 1/18=10,22=2,26=3,42=30,44=3/23(-8);
 2/29=1/2;
 6/7=2,8=2,9=2,10=2,19=2,28=1/1;
 99/5=20,9=1/99;
 ----------------------------------------------
 IRC Forward of possible PL1 collapse to HL1 TS
 ----------------------------------------------
 Symbolic Z-matrix:
 Charge = -2 Multiplicity = 1
 Si                   -0.64801   1.7894    0. 
 O                    -0.9371    1.81203   1.75819 
 O                    -0.83539   1.26367  -1.64401 
 O                     0.49486   3.06154  -0.15873 
 O                    -1.99953   3.01986  -0.21693 
 O                    -2.62937   0.39965   0.237 
 O                     0.48769   0.473     0.27048 
 C                    -3.62075   1.24812  -0.12364 
 H                    -4.6122    1.0298    0.36696 
 H                    -3.83714   1.22785  -1.22501 
 C                    -3.25833   2.70597   0.22353 
 H                    -3.34642   2.82106   1.32713 
 H                    -4.01248   3.38769  -0.22777 
 H                     0.54456   0.45577   1.22437 
 H                    -1.69032   1.21232   1.7983 
 H                    -0.06217   3.83713  -0.21148 
 H                    -1.47001   0.55166  -1.53586 
 
 IRC-IRC-IRC-IRC-IRC-IRC-IRC-IRC-IRC-IRC-IRC-IRC-IRC-IRC-IRC-IRC-IRC-IRC
 ------------------------------------------------------------------------
 INPUT DATA FOR L123
 ------------------------------------------------------------------------
 GENERAL PARAMETERS:
 Rxn path following direction = Reverse
 Maximum points per path      =  30
 Step size                    =   0.100 bohr
 Integration scheme           = HPC                                 
    Redo corrector integration= Yes                                 
    DWI Weight Power          =  2
    DWI will use Hessian update vectors when possible.
    Max correction cycles     =  20
 Initial Hessian              = CalcFC
 Hessian evaluation           = All updating
 Hessian updating method      = Bofill                              
 ------------------------------------------------------------------------
 IRC-IRC-IRC-IRC-IRC-IRC-IRC-IRC-IRC-IRC-IRC-IRC-IRC-IRC-IRC-IRC-IRC-IRC
                          Input orientation:                          
 ---------------------------------------------------------------------
 Center     Atomic      Atomic             Coordinates (Angstroms)
 Number     Number       Type             X           Y           Z
 ---------------------------------------------------------------------
      1         14           0       -0.648012    1.789396    0.000000
      2          8           0       -0.937101    1.812026    1.758192
      3          8           0       -0.835390    1.263671   -1.644011
      4          8           0        0.494861    3.061539   -0.158725
      5          8           0       -1.999530    3.019855   -0.216927
      6          8           0       -2.629373    0.399651    0.236999
      7          8           0        0.487690    0.472997    0.270482
      8          6           0       -3.620746    1.248121   -0.123637
      9          1           0       -4.612203    1.029795    0.366956
     10          1           0       -3.837144    1.227853   -1.225012
     11          6           0       -3.258329    2.705973    0.223534
     12          1           0       -3.346417    2.821057    1.327125
     13          1           0       -4.012485    3.387694   -0.227766
     14          1           0        0.544557    0.455772    1.224370
     15          1           0       -1.690317    1.212322    1.798297
     16          1           0       -0.062175    3.837133   -0.211480
     17          1           0       -1.470006    0.551663   -1.535859
 ---------------------------------------------------------------------
                    Distance matrix (angstroms):
                    1          2          3          4          5
     1  Si   0.000000
     2  O    1.781944   0.000000
     3  O    1.736165   3.447611   0.000000
     4  O    1.717469   2.699327   2.684767   0.000000
     5  O    1.840567   2.547293   2.544793   2.495418   0.000000
     6  O    2.431738   2.678174   2.739179   4.123480   2.732804
     7  O    1.759513   2.456890   2.457842   2.623894   3.593093
     8  C    3.024138   3.325841   3.173324   4.497548   2.403349
     9  H    4.052957   4.006719   4.285207   5.521452   3.335764
    10  H    3.462159   4.201311   3.031067   4.823447   2.757595
    11  C    2.775578   2.922741   3.382099   3.789325   1.370074
    12  H    3.179147   2.647407   4.190269   4.125651   2.058573
    13  H    3.731771   3.985567   4.075679   4.519658   2.046316
    14  H    2.167915   2.078389   3.283986   2.950499   3.888989
    15  H    2.157148   0.963633   3.547255   3.467642   2.724686
    16  H    2.140363   2.957391   3.045113   0.956357   2.102693
    17  H    2.136942   3.566970   0.959890   3.472273   2.848148
                    6          7          8          9         10
     6  O    0.000000
     7  O    3.118106   0.000000
     8  C    1.353802   4.199452   0.000000
     9  H    2.084607   5.131105   1.127535   0.000000
    10  H    2.069325   4.637941   1.122616   1.781658   0.000000
    11  C    2.390583   4.361312   1.541819   2.159425   2.148988
    12  H    2.750588   4.618469   2.157335   2.394318   3.048363
    13  H    3.325268   5.384727   2.177631   2.504604   2.385405
    14  H    3.324437   0.955737   4.449122   5.258977   5.078866
    15  H    1.994972   2.761256   2.724274   3.258753   3.708032
    16  H    4.313690   3.442681   4.401605   5.377591   4.699572
    17  H    2.123738   2.664888   2.665541   3.704419   2.481371
                   11         12         13         14         15
    11  C    0.000000
    12  H    1.113066   0.000000
    13  H    1.112280   1.783931   0.000000
    14  H    4.530675   4.554647   5.609946   0.000000
    15  H    2.677598   2.356416   3.772219   2.428255   0.000000
    16  H    3.418210   3.766426   3.975828   3.723358   3.685062
    17  H    3.306753   4.107036   4.027205   3.418556   3.406113
                   16         17
    16  H    0.000000
    17  H    3.811861   0.000000
 Symmetry turned off by external request.
 Stoichiometry    C2H8O6Si(2-)
 Framework group  C1[X(C2H8O6Si)]
 Deg. of freedom    45
 Full point group                 C1      NOp   1
 Rotational constants (GHZ):           2.0550382           1.2380411           1.1484973
 Standard basis: def2TZVPP (5D, 7F)
   402 basis functions,   613 primitive gaussians,   456 cartesian basis functions
    42 alpha electrons       42 beta electrons
       nuclear repulsion energy       659.7009954701 Hartrees.
 NAtoms=   17 NActive=   17 NUniq=   17 SFac= 1.00D+00 NAtFMM=   60 NAOKFM=F Big=F
 Integral buffers will be    131072 words long.
 Raffenetti 2 integral format.
 Two-electron integral symmetry is turned off.
 Nuclear repulsion after empirical dispersion term =      659.6918526123 Hartrees.
 One-electron integrals computed using PRISM.
   1 Symmetry operations used in ECPInt.
 ECPInt:  NShTT=   11325 NPrTT=   31861 LenC2=   10993 LenP2D=   24453.
 LDataN:  DoStor=T MaxTD1= 6 Len=  172
 NBasis=   402 RedAO= T EigKep=  2.83D-04  NBF=   402
 NBsUse=   402 1.00D-06 EigRej= -1.00D+00 NBFU=   402
 ExpMin= 7.01D-02 ExpMax= 4.48D+04 ExpMxC= 1.53D+03 IAcc=3 IRadAn=         5 AccDes= 0.00D+00
 Harris functional with IExCor= 4639 and IRadAn=       5 diagonalized for initial guess.
 HarFok:  IExCor= 4639 AccDes= 0.00D+00 IRadAn=         5 IDoV= 1 UseB2=F ITyADJ=14
 ICtDFT=  3500011 ScaDFX=  1.000000  1.000000  1.000000  1.000000
 FoFCou: FMM=F IPFlag=           0 FMFlag=      100000 FMFlg1=           0
         NFxFlg=           0 DoJE=T BraDBF=F KetDBF=T FulRan=T
         wScrn=  0.000000 ICntrl=       500 IOpCl=  0 I1Cent=   200000004 NGrid=           0
         NMat0=    1 NMatS0=      1 NMatT0=    0 NMatD0=    1 NMtDS0=    0 NMtDT0=    0
 Symmetry not used in FoFCou.
 Requested convergence on RMS density matrix=1.00D-08 within 128 cycles.
 Requested convergence on MAX density matrix=1.00D-06.
 Requested convergence on             energy=1.00D-06.
 No special actions if energy rises.
 Integral accuracy reduced to 1.0D-05 until final iterations.
 Initial convergence to 1.0D-05 achieved.  Increase integral accuracy.
 SCF Done:  E(RwB97XD) =  -822.053320188     A.U. after   16 cycles
            NFock= 16  Conv=0.44D-08     -V/T= 2.0033
 DoSCS=F DFT=T ScalE2(SS,OS)=  1.000000  1.000000
 Range of M.O.s used for correlation:     1   402
 NBasis=   402 NAE=    42 NBE=    42 NFC=     0 NFV=     0
 NROrb=    402 NOA=    42 NOB=    42 NVA=   360 NVB=   360

 **** Warning!!: The largest alpha MO coefficient is  0.11483635D+02

   1 Symmetry operations used in ECPInt.
 ECPInt:  NShTT=   11325 NPrTT=   31861 LenC2=   10993 LenP2D=   24453.
 LDataN:  DoStor=T MaxTD1= 7 Len=  274
 Symmetrizing basis deriv contribution to polar:
 IMax=3 JMax=2 DiffMx= 0.00D+00
 G2DrvN: will do    18 centers at a time, making    1 passes.
 Calling FoFCou, ICntrl=  3107 FMM=F I1Cent=   0 AccDes= 0.00D+00.
 End of G2Drv F.D. properties file   721 does not exist.
 End of G2Drv F.D. properties file   722 does not exist.
 End of G2Drv F.D. properties file   788 does not exist.
          IDoAtm=11111111111111111
          Differentiating once with respect to nuclear coordinates.
 CalDSu exits because no D1Ps are significant.
          There are    54 degrees of freedom in the 1st order CPHF.  IDoFFX=6 NUNeed=     0.
     48 vectors produced by pass  0 Test12= 2.80D-14 1.85D-09 XBig12= 8.38D-02 4.84D-02.
 AX will form    48 AO Fock derivatives at one time.
     48 vectors produced by pass  1 Test12= 2.80D-14 1.85D-09 XBig12= 2.69D-02 2.14D-02.
     48 vectors produced by pass  2 Test12= 2.80D-14 1.85D-09 XBig12= 6.55D-04 3.83D-03.
     48 vectors produced by pass  3 Test12= 2.80D-14 1.85D-09 XBig12= 8.80D-06 3.86D-04.
     48 vectors produced by pass  4 Test12= 2.80D-14 1.85D-09 XBig12= 1.16D-07 4.79D-05.
     48 vectors produced by pass  5 Test12= 2.80D-14 1.85D-09 XBig12= 1.21D-09 3.73D-06.
     48 vectors produced by pass  6 Test12= 2.80D-14 1.85D-09 XBig12= 9.61D-12 3.57D-07.
     28 vectors produced by pass  7 Test12= 2.80D-14 1.85D-09 XBig12= 6.68D-14 2.49D-08.
      3 vectors produced by pass  8 Test12= 2.80D-14 1.85D-09 XBig12= 6.17D-16 2.84D-09.
 InvSVY:  IOpt=1 It=  1 EMax= 2.50D-16
 Solved reduced A of dimension   367 with    54 vectors.
 End of Minotr F.D. properties file   721 does not exist.
 End of Minotr F.D. properties file   722 does not exist.
 End of Minotr F.D. properties file   788 does not exist.

 **********************************************************************

            Population analysis using the SCF Density.

 **********************************************************************

 Alpha  occ. eigenvalues --  -65.96156 -18.88207 -18.87206 -18.86339 -18.86253
 Alpha  occ. eigenvalues --  -18.85768 -18.84299 -10.00653 -10.00199  -5.06805
 Alpha  occ. eigenvalues --   -3.41549  -3.41277  -3.41214  -0.77344  -0.73819
 Alpha  occ. eigenvalues --   -0.72566  -0.71128  -0.70474  -0.69031  -0.47536
 Alpha  occ. eigenvalues --   -0.35445  -0.27932  -0.24665  -0.22820  -0.21718
 Alpha  occ. eigenvalues --   -0.21449  -0.19389  -0.17837  -0.15832  -0.14349
 Alpha  occ. eigenvalues --   -0.11374  -0.09952  -0.08864  -0.08228  -0.05170
 Alpha  occ. eigenvalues --   -0.04664  -0.03136  -0.02759  -0.01224   0.00457
 Alpha  occ. eigenvalues --    0.01983   0.03094
 Alpha virt. eigenvalues --    0.38617   0.41826   0.42128   0.43219   0.45001
 Alpha virt. eigenvalues --    0.46429   0.48898   0.50147   0.51769   0.53765
 Alpha virt. eigenvalues --    0.54768   0.55544   0.55856   0.56771   0.58599
 Alpha virt. eigenvalues --    0.59815   0.67959   0.68580   0.70498   0.71364
 Alpha virt. eigenvalues --    0.72445   0.73034   0.73986   0.74912   0.75456
 Alpha virt. eigenvalues --    0.75839   0.76641   0.77052   0.78902   0.79262
 Alpha virt. eigenvalues --    0.80283   0.81321   0.82980   0.84616   0.85133
 Alpha virt. eigenvalues --    0.85357   0.86357   0.87894   0.89682   0.90550
 Alpha virt. eigenvalues --    0.91930   0.92470   0.94563   0.95685   0.96689
 Alpha virt. eigenvalues --    0.98080   0.99886   1.01205   1.02162   1.04761
 Alpha virt. eigenvalues --    1.06838   1.07177   1.08643   1.09816   1.10780
 Alpha virt. eigenvalues --    1.12102   1.13835   1.15292   1.16365   1.17973
 Alpha virt. eigenvalues --    1.18435   1.19659   1.21824   1.22827   1.24699
 Alpha virt. eigenvalues --    1.26829   1.28851   1.30360   1.30789   1.31383
 Alpha virt. eigenvalues --    1.33283   1.35144   1.37942   1.39157   1.40453
 Alpha virt. eigenvalues --    1.43240   1.43916   1.46088   1.46326   1.47952
 Alpha virt. eigenvalues --    1.49584   1.51603   1.52542   1.53197   1.55694
 Alpha virt. eigenvalues --    1.56869   1.58403   1.60008   1.62753   1.63212
 Alpha virt. eigenvalues --    1.66813   1.67760   1.70582   1.70805   1.72548
 Alpha virt. eigenvalues --    1.73565   1.74700   1.75910   1.76507   1.77415
 Alpha virt. eigenvalues --    1.80196   1.81247   1.83104   1.87180   1.87643
 Alpha virt. eigenvalues --    1.91089   1.91847   1.93106   1.96786   1.99212
 Alpha virt. eigenvalues --    2.03728   2.06906   2.09019   2.10991   2.16952
 Alpha virt. eigenvalues --    2.20145   2.20534   2.24855   2.26171   2.29979
 Alpha virt. eigenvalues --    2.31820   2.32871   2.34257   2.36581   2.37779
 Alpha virt. eigenvalues --    2.38210   2.40225   2.41426   2.43606   2.44014
 Alpha virt. eigenvalues --    2.44883   2.46311   2.48988   2.51284   2.52007
 Alpha virt. eigenvalues --    2.52804   2.54942   2.55960   2.58609   2.63650
 Alpha virt. eigenvalues --    2.65313   2.68806   2.69354   2.70581   2.73236
 Alpha virt. eigenvalues --    2.77816   2.79268   2.80087   2.83415   2.85932
 Alpha virt. eigenvalues --    2.91341   2.93717   2.96759   3.01322   3.02040
 Alpha virt. eigenvalues --    3.04189   3.05770   3.08207   3.11877   3.15853
 Alpha virt. eigenvalues --    3.18366   3.21590   3.21924   3.22715   3.25693
 Alpha virt. eigenvalues --    3.29619   3.31707   3.33259   3.34082   3.37620
 Alpha virt. eigenvalues --    3.38997   3.39790   3.42685   3.44709   3.46635
 Alpha virt. eigenvalues --    3.47695   3.49787   3.51105   3.52188   3.53585
 Alpha virt. eigenvalues --    3.54784   3.59514   3.61135   3.62827   3.65531
 Alpha virt. eigenvalues --    3.66969   3.68437   3.72256   3.72697   3.73356
 Alpha virt. eigenvalues --    3.75918   3.78600   3.80310   3.80555   3.82948
 Alpha virt. eigenvalues --    3.84207   3.85195   3.85965   3.88674   3.91446
 Alpha virt. eigenvalues --    3.92301   3.94001   3.95240   3.98769   3.99339
 Alpha virt. eigenvalues --    4.01539   4.03241   4.06345   4.08276   4.10893
 Alpha virt. eigenvalues --    4.12080   4.12626   4.14637   4.16991   4.19763
 Alpha virt. eigenvalues --    4.23265   4.24245   4.26742   4.27679   4.34640
 Alpha virt. eigenvalues --    4.35932   4.38052   4.38509   4.39183   4.40906
 Alpha virt. eigenvalues --    4.42091   4.44758   4.45829   4.48275   4.48433
 Alpha virt. eigenvalues --    4.51615   4.52736   4.55671   4.56576   4.59467
 Alpha virt. eigenvalues --    4.60307   4.64594   4.65375   4.66266   4.67954
 Alpha virt. eigenvalues --    4.69193   4.70344   4.71291   4.72342   4.75564
 Alpha virt. eigenvalues --    4.78281   4.79973   4.84444   4.86584   4.95081
 Alpha virt. eigenvalues --    4.97314   5.00711   5.01480   5.03189   5.08141
 Alpha virt. eigenvalues --    5.10017   5.18247   5.21041   5.23593   5.28604
 Alpha virt. eigenvalues --    5.30818   5.33940   5.34960   5.36345   5.37762
 Alpha virt. eigenvalues --    5.40186   5.42375   5.45117   5.47686   5.54245
 Alpha virt. eigenvalues --    5.55255   5.62587   5.63793   5.66240   5.69122
 Alpha virt. eigenvalues --    5.71295   5.72559   5.75291   5.76716   5.78043
 Alpha virt. eigenvalues --    5.78921   5.82482   5.83461   5.85317   5.87183
 Alpha virt. eigenvalues --    5.91006   5.91688   5.92904   5.93857   5.96567
 Alpha virt. eigenvalues --    5.98747   5.99826   6.00998   6.02590   6.03377
 Alpha virt. eigenvalues --    6.09172   6.12170   6.13658   6.25614   6.40181
 Alpha virt. eigenvalues --    6.44519   6.51658   6.55846   6.59509   6.65333
 Alpha virt. eigenvalues --    6.67555   6.85563   6.87799   6.90870   6.92377
 Alpha virt. eigenvalues --    6.93920   6.95260   6.96630   6.98037   6.99982
 Alpha virt. eigenvalues --    7.02509   7.03344   7.05863   7.07235   7.07846
 Alpha virt. eigenvalues --    7.09129   7.11461   7.12807   7.14522   7.15758
 Alpha virt. eigenvalues --    7.15996   7.18464   7.19634   7.23419   7.24787
 Alpha virt. eigenvalues --    7.26436   7.30902   7.32463   7.35899   7.42661
 Alpha virt. eigenvalues --    7.46887   7.48178   7.52086   7.54257   7.59811
 Alpha virt. eigenvalues --    7.62995   7.64434   7.67100   7.80749   7.81811
 Alpha virt. eigenvalues --    7.82855   7.88366   7.95104   8.01342   8.03725
 Alpha virt. eigenvalues --    8.12723  12.10895  23.73075  23.84253  44.20103
 Alpha virt. eigenvalues --   44.22386  44.32694  44.38753  44.53920  44.69490
          Condensed to atoms (all electrons):
               1          2          3          4          5          6
     1  Si  11.524311   0.291046   0.349085   0.423532   0.246847   0.105013
     2  O    0.291046   8.199142   0.003308  -0.039539  -0.062141  -0.056357
     3  O    0.349085   0.003308   8.087385  -0.043993  -0.053415  -0.047073
     4  O    0.423532  -0.039539  -0.043993   8.030833  -0.075274   0.000383
     5  O    0.246847  -0.062141  -0.053415  -0.075274   8.275307   0.000596
     6  O    0.105013  -0.056357  -0.047073   0.000383   0.000596   8.541035
     7  O    0.413695  -0.099839  -0.088882  -0.060891   0.004218  -0.013927
     8  C   -0.045671   0.004231   0.029164  -0.002870  -0.137412   0.393097
     9  H    0.006838  -0.000464  -0.000871   0.000028   0.010093  -0.040821
    10  H    0.004593  -0.001613   0.011642  -0.000061   0.020887  -0.084969
    11  C   -0.064479   0.018714  -0.010301   0.001422   0.374720  -0.189821
    12  H    0.004795   0.017486  -0.001015   0.000584  -0.076706   0.017359
    13  H    0.003541   0.000053  -0.000686  -0.000306  -0.037851   0.015091
    14  H   -0.063187   0.030360   0.006347   0.002244   0.000465   0.002243
    15  H   -0.050881   0.297921  -0.000979   0.001420   0.010387   0.054559
    16  H   -0.050535   0.002809   0.002640   0.295168   0.020165  -0.000392
    17  H   -0.047809  -0.001391   0.305570   0.002212   0.004912   0.032295
               7          8          9         10         11         12
     1  Si   0.413695  -0.045671   0.006838   0.004593  -0.064479   0.004795
     2  O   -0.099839   0.004231  -0.000464  -0.001613   0.018714   0.017486
     3  O   -0.088882   0.029164  -0.000871   0.011642  -0.010301  -0.001015
     4  O   -0.060891  -0.002870   0.000028  -0.000061   0.001422   0.000584
     5  O    0.004218  -0.137412   0.010093   0.020887   0.374720  -0.076706
     6  O   -0.013927   0.393097  -0.040821  -0.084969  -0.189821   0.017359
     7  O    8.098964   0.000552  -0.000104   0.000189  -0.002863   0.000392
     8  C    0.000552   4.954064   0.174223   0.347183   0.248971  -0.122461
     9  H   -0.000104   0.174223   1.118205  -0.129268  -0.036885  -0.006583
    10  H    0.000189   0.347183  -0.129268   1.073742  -0.171851   0.031971
    11  C   -0.002863   0.248971  -0.036885  -0.171851   5.151971   0.332836
    12  H    0.000392  -0.122461  -0.006583   0.031971   0.332836   0.946432
    13  H    0.000024  -0.005163   0.022002  -0.006588   0.217602  -0.093791
    14  H    0.293896  -0.000040   0.000005   0.000050  -0.000792  -0.000065
    15  H    0.005794   0.003107  -0.004556   0.006025  -0.030726   0.011110
    16  H    0.003363   0.001744  -0.000083  -0.000174   0.002874  -0.000862
    17  H    0.001630  -0.005446   0.001664  -0.015652   0.010860  -0.000470
              13         14         15         16         17
     1  Si   0.003541  -0.063187  -0.050881  -0.050535  -0.047809
     2  O    0.000053   0.030360   0.297921   0.002809  -0.001391
     3  O   -0.000686   0.006347  -0.000979   0.002640   0.305570
     4  O   -0.000306   0.002244   0.001420   0.295168   0.002212
     5  O   -0.037851   0.000465   0.010387   0.020165   0.004912
     6  O    0.015091   0.002243   0.054559  -0.000392   0.032295
     7  O    0.000024   0.293896   0.005794   0.003363   0.001630
     8  C   -0.005163  -0.000040   0.003107   0.001744  -0.005446
     9  H    0.022002   0.000005  -0.004556  -0.000083   0.001664
    10  H   -0.006588   0.000050   0.006025  -0.000174  -0.015652
    11  C    0.217602  -0.000792  -0.030726   0.002874   0.010860
    12  H   -0.093791  -0.000065   0.011110  -0.000862  -0.000470
    13  H    0.956645  -0.000004   0.000936  -0.001082  -0.000397
    14  H   -0.000004   0.614501   0.002730  -0.000901  -0.000922
    15  H    0.000936   0.002730   0.538256  -0.000748  -0.002051
    16  H   -0.001082  -0.000901  -0.000748   0.597505  -0.000362
    17  H   -0.000397  -0.000922  -0.002051  -0.000362   0.547308
 Mulliken charges:
               1
     1  Si   0.949266
     2  O   -0.603727
     3  O   -0.547925
     4  O   -0.534892
     5  O   -0.525798
     6  O   -0.728311
     7  O   -0.556211
     8  C    0.162727
     9  H   -0.113422
    10  H   -0.086105
    11  C    0.147746
    12  H   -0.061010
    13  H   -0.070026
    14  H    0.113071
    15  H    0.157696
    16  H    0.128870
    17  H    0.168050
 Sum of Mulliken charges =  -2.00000
 Mulliken charges with hydrogens summed into heavy atoms:
               1
     1  Si   0.949266
     2  O   -0.446030
     3  O   -0.379875
     4  O   -0.406021
     5  O   -0.525798
     6  O   -0.728311
     7  O   -0.443140
     8  C   -0.036800
    11  C    0.016710
 APT charges:
               1
     1  Si   0.099510
     2  O   -0.487048
     3  O   -0.473385
     4  O   -0.791498
     5  O   -0.329453
     6  O   -0.666807
     7  O   -0.758255
     8  C   -0.382033
     9  H    0.203008
    10  H    0.123668
    11  C   -0.709134
    12  H    0.229117
    13  H    0.479106
    14  H    0.324195
    15  H    0.245509
    16  H    0.608171
    17  H    0.285328
 Sum of APT charges =  -2.00000
 APT charges with hydrogens summed into heavy atoms:
               1
     1  Si   0.099510
     2  O   -0.241539
     3  O   -0.188056
     4  O   -0.183327
     5  O   -0.329453
     6  O   -0.666807
     7  O   -0.434059
     8  C   -0.055357
    11  C   -0.000911
 Electronic spatial extent (au):  <R**2>=           2739.7756
 Charge=             -2.0000 electrons
 Dipole moment (field-independent basis, Debye):
    X=             10.7769    Y=            -15.3013    Z=              0.4800  Tot=             18.7217
 Quadrupole moment (field-independent basis, Debye-Ang):
   XX=           -107.6606   YY=           -104.5250   ZZ=            -79.8144
   XY=             15.6032   XZ=              1.7958   YZ=             -0.4504
 Traceless Quadrupole moment (field-independent basis, Debye-Ang):
   XX=            -10.3273   YY=             -7.1917   ZZ=             17.5189
   XY=             15.6032   XZ=              1.7958   YZ=             -0.4504
 Octapole moment (field-independent basis, Debye-Ang**2):
  XXX=            424.6178  YYY=           -447.2687  ZZZ=             -8.9381  XYY=            140.5885
  XXY=           -177.7545  XXZ=             -4.7549  XZZ=            109.3871  YZZ=           -145.9515
  YYZ=             -8.1002  XYZ=              0.2531
 Hexadecapole moment (field-independent basis, Debye-Ang**3):
 XXXX=          -2324.0759 YYYY=          -1897.4443 ZZZZ=           -408.0455 XXXY=            700.5780
 XXXZ=             21.1050 YYYX=            647.0785 YYYZ=            -35.0781 ZZZX=             15.1786
 ZZZY=            -31.5203 XXYY=           -749.5886 XXZZ=           -372.3692 YYZZ=           -392.3041
 XXYZ=             -3.3862 YYXZ=              9.9619 ZZXY=            199.9994
 N-N= 6.596918526123D+02 E-N=-3.297104594669D+03  KE= 8.193378705053D+02
  Exact polarizability:       0.000       0.000       0.000       0.000       0.000       0.000
 Approx polarizability:      94.573      -1.617      83.422       0.118      -1.252      85.775
   1 Symmetry operations used in ECPInt.
 ECPInt:  NShTT=   11325 NPrTT=   31861 LenC2=   10993 LenP2D=   24453.
 LDataN:  DoStor=T MaxTD1= 8 Len=  415
 Calling FoFJK, ICntrl=    100127 FMM=F ISym2X=0 I1Cent= 0 IOpClX= 0 NMat=1 NMatS=1 NMatT=0.
 -------------------------------------------------------------------
 Center     Atomic                   Forces (Hartrees/Bohr)
 Number     Number              X              Y              Z
 -------------------------------------------------------------------
      1       14           0.000000105    0.000001016   -0.000000834
      2        8          -0.000001035    0.000001310   -0.000002471
      3        8           0.000000148   -0.000000143    0.000000568
      4        8          -0.000000924    0.000000818   -0.000002121
      5        8           0.000000330   -0.000002378   -0.000001178
      6        8          -0.000002133   -0.000000900    0.000001110
      7        8           0.000001219    0.000000631    0.000001319
      8        6          -0.000000396   -0.000000677    0.000001511
      9        1           0.000000338   -0.000000415    0.000001991
     10        1          -0.000000099   -0.000002468    0.000001300
     11        6          -0.000001040    0.000000439   -0.000000839
     12        1          -0.000000481    0.000001019   -0.000001343
     13        1          -0.000000762   -0.000001296   -0.000001342
     14        1           0.000000762    0.000002323    0.000001365
     15        1           0.000004918    0.000004356    0.000003774
     16        1          -0.000000700   -0.000000233   -0.000003294
     17        1          -0.000000251   -0.000003402    0.000000486
 -------------------------------------------------------------------
 Cartesian Forces:  Max     0.000004918 RMS     0.000001697
 IRC-IRC-IRC-IRC-IRC-IRC-IRC-IRC-IRC-IRC-IRC-IRC-IRC-IRC-IRC-IRC-IRC-IRC
          ******** Start new reaction path calculation ********
 Supplied step size of   0.1000 bohr.
    Integration on MW PES will use step size of   0.2813 sqrt(amu)*bohr.
 Point Number:   0          Path Number:   1
 Calculating another point on the path.
 IRC-IRC-IRC-IRC-IRC-IRC-IRC-IRC-IRC-IRC-IRC-IRC-IRC-IRC-IRC-IRC-IRC-IRC
                          Input orientation:                          
 ---------------------------------------------------------------------
 Center     Atomic      Atomic             Coordinates (Angstroms)
 Number     Number       Type             X           Y           Z
 ---------------------------------------------------------------------
      1         14           0        0.663724    0.037656   -0.042527
      2          8           0        0.387178    0.073330    1.720979
      3          8           0        0.487246   -0.477612   -1.693275
      4          8           0        1.812192    1.307731   -0.200507
      5          8           0       -0.682521    1.274710   -0.258820
      6          8           0       -1.287349   -1.337550    0.192200
      7          8           0        1.795706   -1.281735    0.228233
      8          6           0       -2.291832   -0.501840   -0.165599
      9          1           0       -3.277256   -0.733347    0.329371
     10          1           0       -2.511205   -0.525717   -1.265943
     11          6           0       -1.940631    0.958668    0.180149
     12          1           0       -2.031156    1.075316    1.283570
     13          1           0       -2.697046    1.636148   -0.273723
     14          1           0        1.855568   -1.295148    1.182045
     15          1           0       -0.364471   -0.526519    1.771374
     16          1           0        1.257953    2.085536   -0.248657
     17          1           0       -0.136386   -1.199991   -1.593135
 ---------------------------------------------------------------------
                    Distance matrix (angstroms):
                    1          2          3          4          5
     1  Si   0.000000
     2  O    1.785415   0.000000
     3  O    1.738279   3.459868   0.000000
     4  O    1.719601   2.691936   2.677926   0.000000
     5  O    1.841049   2.550916   2.548853   2.495613   0.000000
     6  O    2.398536   2.670541   2.728314   4.093762   2.719033
     7  O    1.759400   2.459359   2.459853   2.624771   3.593639
     8  C    3.006911   3.326724   3.171381   4.485396   2.398896
     9  H    4.032874   4.001921   4.281118   5.509015   3.333303
    10  H    3.448813   4.204900   3.029131   4.815438   2.756795
    11  C    2.771374   2.928596   3.386326   3.788196   1.369459
    12  H    3.177680   2.653986   4.197088   4.126479   2.058529
    13  H    3.728726   3.991700   4.077109   4.521774   2.046746
    14  H    2.167126   2.078305   3.287573   2.947594   3.888722
    15  H    2.160027   0.962982   3.568137   3.462752   2.732631
    16  H    2.142291   2.947319   3.041487   0.956285   2.103089
    17  H    2.139236   3.588707   0.959571   3.467714   2.864055
                    6          7          8          9         10
     6  O    0.000000
     7  O    3.083771   0.000000
     8  C    1.354776   4.179870   0.000000
     9  H    2.084132   5.103519   1.126788   0.000000
    10  H    2.069560   4.620996   1.122253   1.781845   0.000000
    11  C    2.387370   4.356826   1.541417   2.161422   2.149450
    12  H    2.750683   4.616741   2.157652   2.394686   3.048569
    13  H    3.323734   5.380596   2.178734   2.512941   2.385937
    14  H    3.295378   0.955783   4.432427   5.233407   5.064916
    15  H    2.000816   2.760072   2.732617   3.256757   3.719377
    16  H    4.288408   3.443126   4.393449   5.371065   4.696815
    17  H    2.128629   2.656509   2.677914   3.711988   2.490274
                   11         12         13         14         15
    11  C    0.000000
    12  H    1.113257   0.000000
    13  H    1.112269   1.784125   0.000000
    14  H    4.527097   4.553683   5.606964   0.000000
    15  H    2.687389   2.362556   3.781594   2.422120   0.000000
    16  H    3.418282   3.766498   3.980527   3.719285   3.679078
    17  H    3.325605   4.128270   4.042464   3.417390   3.438823
                   16         17
    16  H    0.000000
    17  H    3.813987   0.000000
 Symmetry turned off by external request.
 Stoichiometry    C2H8O6Si(2-)
 Framework group  C1[X(C2H8O6Si)]
 Deg. of freedom    45
 Full point group                 C1      NOp   1
 Rotational constants (GHZ):           2.0517407           1.2432598           1.1557956
 Standard basis: def2TZVPP (5D, 7F)
   402 basis functions,   613 primitive gaussians,   456 cartesian basis functions
    42 alpha electrons       42 beta electrons
       nuclear repulsion energy       660.3380378661 Hartrees.
 NAtoms=   17 NActive=   17 NUniq=   17 SFac= 1.00D+00 NAtFMM=   60 NAOKFM=F Big=F
 Integral buffers will be    131072 words long.
 Raffenetti 2 integral format.
 Two-electron integral symmetry is turned off.
 Nuclear repulsion after empirical dispersion term =      660.3288991325 Hartrees.
 One-electron integrals computed using PRISM.
   1 Symmetry operations used in ECPInt.
 ECPInt:  NShTT=   11325 NPrTT=   31861 LenC2=   10997 LenP2D=   24459.
 LDataN:  DoStor=T MaxTD1= 6 Len=  172
 NBasis=   402 RedAO= T EigKep=  2.84D-04  NBF=   402
 NBsUse=   402 1.00D-06 EigRej= -1.00D+00 NBFU=   402
 Initial guess from the checkpoint file:  "IRC_PmonoL1toHbiL1_reverse.chk"
 B after Tr=     2.495931   -3.301495   -0.080264
         Rot=    1.000000    0.000028    0.000026   -0.000098 Ang=   0.01 deg.
 ExpMin= 7.01D-02 ExpMax= 4.48D+04 ExpMxC= 1.53D+03 IAcc=3 IRadAn=         5 AccDes= 0.00D+00
 Harris functional with IExCor= 4639 and IRadAn=       5 diagonalized for initial guess.
 HarFok:  IExCor= 4639 AccDes= 0.00D+00 IRadAn=         5 IDoV= 1 UseB2=F ITyADJ=14
 ICtDFT=  3500011 ScaDFX=  1.000000  1.000000  1.000000  1.000000
 FoFCou: FMM=F IPFlag=           0 FMFlag=      100000 FMFlg1=           0
         NFxFlg=           0 DoJE=T BraDBF=F KetDBF=T FulRan=T
         wScrn=  0.000000 ICntrl=       500 IOpCl=  0 I1Cent=   200000004 NGrid=           0
         NMat0=    1 NMatS0=      1 NMatT0=    0 NMatD0=    1 NMtDS0=    0 NMtDT0=    0
 Symmetry not used in FoFCou.
 Requested convergence on RMS density matrix=1.00D-08 within 128 cycles.
 Requested convergence on MAX density matrix=1.00D-06.
 Requested convergence on             energy=1.00D-06.
 No special actions if energy rises.
 Integral accuracy reduced to 1.0D-05 until final iterations.
 Initial convergence to 1.0D-05 achieved.  Increase integral accuracy.
 SCF Done:  E(RwB97XD) =  -822.053349824     A.U. after   12 cycles
            NFock= 12  Conv=0.74D-08     -V/T= 2.0033
 DoSCS=F DFT=T ScalE2(SS,OS)=  1.000000  1.000000
 Range of M.O.s used for correlation:     1   402
 NBasis=   402 NAE=    42 NBE=    42 NFC=     0 NFV=     0
 NROrb=    402 NOA=    42 NOB=    42 NVA=   360 NVB=   360

 **** Warning!!: The largest alpha MO coefficient is  0.11623653D+02

 Symmetrizing basis deriv contribution to polar:
 IMax=3 JMax=2 DiffMx= 0.00D+00
   1 Symmetry operations used in ECPInt.
 ECPInt:  NShTT=   11325 NPrTT=   31861 LenC2=   10997 LenP2D=   24459.
 LDataN:  DoStor=T MaxTD1= 7 Len=  274
 Calling FoFJK, ICntrl=      2127 FMM=F ISym2X=0 I1Cent= 0 IOpClX= 0 NMat=1 NMatS=1 NMatT=0.
 -------------------------------------------------------------------
 Center     Atomic                   Forces (Hartrees/Bohr)
 Number     Number              X              Y              Z
 -------------------------------------------------------------------
      1       14          -0.000368986   -0.000201258    0.000029141
      2        8           0.000050867    0.000145775    0.000091043
      3        8          -0.000044218    0.000027207   -0.000117293
      4        8          -0.000077986   -0.000128633    0.000014825
      5        8          -0.000079172    0.000074633    0.000009630
      6        8           0.000418838    0.000266475   -0.000070432
      7        8          -0.000255814   -0.000155476    0.000024757
      8        6           0.000148378   -0.000071106    0.000039725
      9        1           0.000081147   -0.000016115   -0.000008177
     10        1           0.000019855   -0.000019242    0.000020078
     11        6          -0.000038700   -0.000021794   -0.000008541
     12        1          -0.000009549    0.000002404   -0.000005147
     13        1          -0.000003834   -0.000017242   -0.000003746
     14        1          -0.000011360   -0.000002359   -0.000011083
     15        1           0.000042224    0.000037446    0.000026408
     16        1           0.000007620   -0.000020575    0.000007284
     17        1           0.000120692    0.000099861   -0.000038469
 -------------------------------------------------------------------
 Cartesian Forces:  Max     0.000418838 RMS     0.000114823
 IRC-IRC-IRC-IRC-IRC-IRC-IRC-IRC-IRC-IRC-IRC-IRC-IRC-IRC-IRC-IRC-IRC-IRC
 Pt  1 Step number   1 out of a maximum of  20
 Modified Bulirsch-Stoer Extrapolation Cycles:
    EPS =    0.000010000000000
      PEZero:  N= 2 I= 1 D=  7.32D-04 Err=  1.04D-02
      PEZero:  N= 3 I= 2 D=  7.32D-04 Err=  1.58D-02
      PEZero:  N= 3 I= 1 D=  1.46D-03 Err=  1.33D-02
      PEZero:  N= 4 I= 3 D=  3.66D-04 Err=  2.66D-02
      PEZero:  N= 4 I= 2 D=  1.10D-03 Err=  1.96D-02
      PEZero:  N= 4 I= 1 D=  1.83D-03 Err=  1.55D-02
      PEZero:  N= 5 I= 4 D=  3.66D-04 Err=  4.05D-02
      PEZero:  N= 5 I= 3 D=  7.32D-04 Err=  3.41D-02
      PEZero:  N= 5 I= 2 D=  1.46D-03 Err=  2.43D-02
      PEZero:  N= 5 I= 1 D=  2.20D-03 Err=  1.91D-02
      PEZero:  N= 6 I= 5 D=  1.83D-04 Err=  6.01D-02
      PEZero:  N= 6 I= 4 D=  5.49D-04 Err=  3.97D-02
      PEZero:  N= 6 I= 3 D=  9.16D-04 Err=  2.72D-02
      PEZero:  N= 6 I= 2 D=  1.65D-03 Err=  1.61D-02
      PEZero:  N= 6 I= 1 D=  2.38D-03 Err=  1.04D-02
      PEZero:  N= 7 I= 6 D=  1.83D-04 Err=  1.84D-02
      PEZero:  N= 7 I= 5 D=  3.66D-04 Err=  3.25D-02
      PEZero:  N= 8 I= 7 D=  9.16D-05 Err=  2.85D-04
      PEZero:  N= 8 I= 6 D=  2.75D-04 Err=  1.80D-02
      PEZero:  N= 9 I= 8 D=  9.16D-05 Err=  1.19D-04
      PEZero:  N= 9 I= 7 D=  1.83D-04 Err=  1.07D-04
      PEZero:  N= 9 I= 6 D=  3.66D-04 Err=  2.00D-02
      PEZero:  N=10 I= 9 D=  4.58D-05 Err=  8.49D-05
      PEZero:  N=10 I= 8 D=  1.37D-04 Err=  5.43D-06
      PEZero:  N=10 I= 7 D=  2.29D-04 Err=  5.77D-05
 Maximum DWI energy   std dev =  0.000000199 at pt    20
 Maximum DWI gradient std dev =  0.403058855 at pt     9
 CORRECTOR INTEGRATION CONVERGENCE:
   Recorrection delta-x convergence threshold:    0.010000
   Delta-x Convergence Met
 Point Number:   1          Path Number:   1
   CHANGE IN THE REACTION COORDINATE =    0.28121
   NET REACTION COORDINATE UP TO THIS POINT =    0.28121
  # OF POINTS ALONG THE PATH =   1
  # OF STEPS =   1

 Calculating another point on the path.
 IRC-IRC-IRC-IRC-IRC-IRC-IRC-IRC-IRC-IRC-IRC-IRC-IRC-IRC-IRC-IRC-IRC-IRC
                          Input orientation:                          
 ---------------------------------------------------------------------
 Center     Atomic      Atomic             Coordinates (Angstroms)
 Number     Number       Type             X           Y           Z
 ---------------------------------------------------------------------
      1         14           0        0.654925    0.032996   -0.042269
      2          8           0        0.390886    0.081453    1.726275
      3          8           0        0.489485   -0.471842   -1.699691
      4          8           0        1.808820    1.301243   -0.199638
      5          8           0       -0.686001    1.276989   -0.258094
      6          8           0       -1.265326   -1.327562    0.190179
      7          8           0        1.784011   -1.288833    0.228655
      8          6           0       -2.282928   -0.504855   -0.164704
      9          1           0       -3.261905   -0.749680    0.334862
     10          1           0       -2.505332   -0.532677   -1.263940
     11          6           0       -1.943318    0.958398    0.179368
     12          1           0       -2.036434    1.076817    1.282583
     13          1           0       -2.702269    1.631175   -0.277260
     14          1           0        1.847126   -1.298275    1.182354
     15          1           0       -0.358988   -0.518641    1.787094
     16          1           0        1.257217    2.081085   -0.243499
     17          1           0       -0.122198   -1.205068   -1.607841
 ---------------------------------------------------------------------
                    Distance matrix (angstroms):
                    1          2          3          4          5
     1  Si   0.000000
     2  O    1.788802   0.000000
     3  O    1.740483   3.471758   0.000000
     4  O    1.721828   2.684691   2.671074   0.000000
     5  O    1.841788   2.554743   2.553112   2.495624   0.000000
     6  O    2.364849   2.662321   2.717210   4.063613   2.705596
     7  O    1.759394   2.461980   2.462071   2.625366   3.594625
     8  C    2.989189   3.326987   3.169156   4.472763   2.394549
     9  H    4.012027   3.996210   4.276626   5.495837   3.330805
    10  H    3.435067   4.207923   3.026964   4.807068   2.756189
    11  C    2.767012   2.934358   3.390425   3.786783   1.368838
    12  H    3.176194   2.660732   4.203876   4.127145   2.058500
    13  H    3.725607   3.997924   4.078393   4.523804   2.047230
    14  H    2.166408   2.078494   3.291255   2.944293   3.888908
    15  H    2.163074   0.962353   3.588840   3.458103   2.741171
    16  H    2.144277   2.937528   3.037655   0.956213   2.103065
    17  H    2.141901   3.610364   0.959278   3.463158   2.881024
                    6          7          8          9         10
     6  O    0.000000
     7  O    3.049825   0.000000
     8  C    1.355840   4.160450   0.000000
     9  H    2.083557   5.075749   1.126011   0.000000
    10  H    2.069762   4.604136   1.121854   1.782038   0.000000
    11  C    2.384408   4.352637   1.541048   2.163419   2.149954
    12  H    2.751180   4.615502   2.158029   2.395005   3.048789
    13  H    3.322263   5.376719   2.179712   2.521182   2.386332
    14  H    3.266898   0.955831   4.416042   5.207821   5.051176
    15  H    2.006474   2.759415   2.740666   3.254118   3.730388
    16  H    4.262649   3.443369   4.384738   5.363786   4.693594
    17  H    2.134156   2.648277   2.691040   3.720112   2.499940
                   11         12         13         14         15
    11  C    0.000000
    12  H    1.113453   0.000000
    13  H    1.112271   1.784310   0.000000
    14  H    4.523938   4.553366   5.604386   0.000000
    15  H    2.697504   2.369355   3.791337   2.416708   0.000000
    16  H    3.417992   3.766380   3.985109   3.714987   3.673419
    17  H    3.345322   4.150404   4.058509   3.416447   3.471720
                   16         17
    16  H    0.000000
    17  H    3.816153   0.000000
 Symmetry turned off by external request.
 Stoichiometry    C2H8O6Si(2-)
 Framework group  C1[X(C2H8O6Si)]
 Deg. of freedom    45
 Full point group                 C1      NOp   1
 Rotational constants (GHZ):           2.0486038           1.2485339           1.1631434
 Standard basis: def2TZVPP (5D, 7F)
   402 basis functions,   613 primitive gaussians,   456 cartesian basis functions
    42 alpha electrons       42 beta electrons
       nuclear repulsion energy       660.9903950165 Hartrees.
 NAtoms=   17 NActive=   17 NUniq=   17 SFac= 1.00D+00 NAtFMM=   60 NAOKFM=F Big=F
 Integral buffers will be    131072 words long.
 Raffenetti 2 integral format.
 Two-electron integral symmetry is turned off.
 Nuclear repulsion after empirical dispersion term =      660.9812608252 Hartrees.
 One-electron integrals computed using PRISM.
   1 Symmetry operations used in ECPInt.
 ECPInt:  NShTT=   11325 NPrTT=   31861 LenC2=   10998 LenP2D=   24464.
 LDataN:  DoStor=T MaxTD1= 6 Len=  172
 NBasis=   402 RedAO= T EigKep=  2.84D-04  NBF=   402
 NBsUse=   402 1.00D-06 EigRej= -1.00D+00 NBFU=   402
 Initial guess from the checkpoint file:  "IRC_PmonoL1toHbiL1_reverse.chk"
 B after Tr=     0.000249   -0.000337    0.000114
         Rot=    1.000000    0.000042    0.000021   -0.000174 Ang=   0.02 deg.
 ExpMin= 7.01D-02 ExpMax= 4.48D+04 ExpMxC= 1.53D+03 IAcc=3 IRadAn=         5 AccDes= 0.00D+00
 Harris functional with IExCor= 4639 and IRadAn=       5 diagonalized for initial guess.
 HarFok:  IExCor= 4639 AccDes= 0.00D+00 IRadAn=         5 IDoV= 1 UseB2=F ITyADJ=14
 ICtDFT=  3500011 ScaDFX=  1.000000  1.000000  1.000000  1.000000
 FoFCou: FMM=F IPFlag=           0 FMFlag=      100000 FMFlg1=           0
         NFxFlg=           0 DoJE=T BraDBF=F KetDBF=T FulRan=T
         wScrn=  0.000000 ICntrl=       500 IOpCl=  0 I1Cent=   200000004 NGrid=           0
         NMat0=    1 NMatS0=      1 NMatT0=    0 NMatD0=    1 NMtDS0=    0 NMtDT0=    0
 Symmetry not used in FoFCou.
 Requested convergence on RMS density matrix=1.00D-08 within 128 cycles.
 Requested convergence on MAX density matrix=1.00D-06.
 Requested convergence on             energy=1.00D-06.
 No special actions if energy rises.
 Integral accuracy reduced to 1.0D-05 until final iterations.
 Initial convergence to 1.0D-05 achieved.  Increase integral accuracy.
 SCF Done:  E(RwB97XD) =  -822.053436727     A.U. after   12 cycles
            NFock= 12  Conv=0.66D-08     -V/T= 2.0033
 DoSCS=F DFT=T ScalE2(SS,OS)=  1.000000  1.000000
 Range of M.O.s used for correlation:     1   402
 NBasis=   402 NAE=    42 NBE=    42 NFC=     0 NFV=     0
 NROrb=    402 NOA=    42 NOB=    42 NVA=   360 NVB=   360

 **** Warning!!: The largest alpha MO coefficient is  0.11784347D+02

 Symmetrizing basis deriv contribution to polar:
 IMax=3 JMax=2 DiffMx= 0.00D+00
   1 Symmetry operations used in ECPInt.
 ECPInt:  NShTT=   11325 NPrTT=   31861 LenC2=   10998 LenP2D=   24464.
 LDataN:  DoStor=T MaxTD1= 7 Len=  274
 Calling FoFJK, ICntrl=      2127 FMM=F ISym2X=0 I1Cent= 0 IOpClX= 0 NMat=1 NMatS=1 NMatT=0.
 -------------------------------------------------------------------
 Center     Atomic                   Forces (Hartrees/Bohr)
 Number     Number              X              Y              Z
 -------------------------------------------------------------------
      1       14          -0.000709115   -0.000427009    0.000006853
      2        8           0.000100604    0.000292388    0.000215746
      3        8          -0.000118125    0.000021944   -0.000215190
      4        8          -0.000157229   -0.000254253    0.000037423
      5        8          -0.000173955    0.000134172    0.000019741
      6        8           0.000810776    0.000566803   -0.000130881
      7        8          -0.000489507   -0.000304453    0.000054062
      8        6           0.000304853   -0.000142342    0.000074056
      9        1           0.000160912   -0.000026829   -0.000022683
     10        1           0.000041059   -0.000032004    0.000036368
     11        6          -0.000077873   -0.000041351   -0.000021794
     12        1          -0.000020259    0.000001682   -0.000011139
     13        1          -0.000003777   -0.000032468   -0.000003445
     14        1          -0.000023218   -0.000009665   -0.000028601
     15        1           0.000081398    0.000064262    0.000043462
     16        1           0.000015271   -0.000037532    0.000022730
     17        1           0.000258186    0.000226654   -0.000076708
 -------------------------------------------------------------------
 Cartesian Forces:  Max     0.000810776 RMS     0.000228310
 IRC-IRC-IRC-IRC-IRC-IRC-IRC-IRC-IRC-IRC-IRC-IRC-IRC-IRC-IRC-IRC-IRC-IRC
 Pt  2 Step number   1 out of a maximum of  20
 Modified Bulirsch-Stoer Extrapolation Cycles:
    EPS =    0.000010000000000
      PEZero:  N= 2 I= 1 D=  1.46D-03 Err=  1.22D-02
      PEZero:  N= 3 I= 2 D=  1.46D-03 Err=  2.55D-02
      PEZero:  N= 3 I= 1 D=  2.93D-03 Err=  2.60D-02
      PEZero:  N= 4 I= 3 D=  7.32D-04 Err=  4.77D-02
      PEZero:  N= 4 I= 2 D=  2.20D-03 Err=  3.82D-02
      PEZero:  N= 4 I= 1 D=  3.66D-03 Err=  3.05D-02
      PEZero:  N= 5 I= 4 D=  7.32D-04 Err=  7.61D-02
      PEZero:  N= 5 I= 3 D=  1.46D-03 Err=  6.63D-02
      PEZero:  N= 5 I= 2 D=  2.93D-03 Err=  4.73D-02
      PEZero:  N= 5 I= 1 D=  4.39D-03 Err=  3.71D-02
      PEZero:  N= 6 I= 5 D=  3.66D-04 Err=  1.15D-01
      PEZero:  N= 6 I= 4 D=  1.10D-03 Err=  7.73D-02
      PEZero:  N= 6 I= 3 D=  1.83D-03 Err=  5.30D-02
      PEZero:  N= 6 I= 2 D=  3.29D-03 Err=  3.14D-02
      PEZero:  N= 6 I= 1 D=  4.76D-03 Err=  2.04D-02
      PEZero:  N= 7 I= 6 D=  3.66D-04 Err=  2.95D-02
      PEZero:  N= 7 I= 5 D=  7.32D-04 Err=  7.09D-02
      PEZero:  N= 8 I= 7 D=  1.83D-04 Err=  2.13D-06
      PEZero:  N= 8 I= 6 D=  5.49D-04 Err=  2.95D-02
 Maximum DWI energy   std dev =  0.000000158 at pt   176
 Maximum DWI gradient std dev =  0.308840998 at pt   214
 CORRECTOR INTEGRATION CONVERGENCE:
   Recorrection delta-x convergence threshold:    0.010000
   Delta-x Convergence Met
 Point Number:   2          Path Number:   1
   CHANGE IN THE REACTION COORDINATE =    0.28114
   NET REACTION COORDINATE UP TO THIS POINT =    0.56235
  # OF POINTS ALONG THE PATH =   2
  # OF STEPS =   1

 Calculating another point on the path.
 IRC-IRC-IRC-IRC-IRC-IRC-IRC-IRC-IRC-IRC-IRC-IRC-IRC-IRC-IRC-IRC-IRC-IRC
                          Input orientation:                          
 ---------------------------------------------------------------------
 Center     Atomic      Atomic             Coordinates (Angstroms)
 Number     Number       Type             X           Y           Z
 ---------------------------------------------------------------------
      1         14           0        0.645987    0.028017   -0.041997
      2          8           0        0.394542    0.089136    1.731513
      3          8           0        0.491586   -0.466241   -1.705939
      4          8           0        1.805285    1.294613   -0.198591
      5          8           0       -0.689476    1.279566   -0.257354
      6          8           0       -1.243436   -1.317035    0.188272
      7          8           0        1.772741   -1.295895    0.228994
      8          6           0       -2.273764   -0.507520   -0.164107
      9          1           0       -3.246093   -0.765717    0.339594
     10          1           0       -2.498515   -0.539365   -1.262297
     11          6           0       -1.945970    0.958293    0.178470
     12          1           0       -2.041910    1.078302    1.281475
     13          1           0       -2.707513    1.626256   -0.280898
     14          1           0        1.839163   -1.301413    1.182525
     15          1           0       -0.353424   -0.511159    1.802884
     16          1           0        1.256250    2.076478   -0.236907
     17          1           0       -0.107356   -1.210385   -1.622891
 ---------------------------------------------------------------------
                    Distance matrix (angstroms):
                    1          2          3          4          5
     1  Si   0.000000
     2  O    1.792289   0.000000
     3  O    1.742651   3.483381   0.000000
     4  O    1.724169   2.677438   2.664303   0.000000
     5  O    1.842883   2.558869   2.557567   2.495499   0.000000
     6  O    2.330689   2.653655   2.705954   4.032998   2.692173
     7  O    1.759475   2.464814   2.464478   2.625761   3.596116
     8  C    2.970970   3.327046   3.166404   4.459542   2.390050
     9  H    3.990478   3.990293   4.271315   5.481881   3.328035
    10  H    3.420372   4.210426   3.023717   4.797670   2.755184
    11  C    2.762655   2.940301   3.394403   3.785129   1.368187
    12  H    3.174818   2.667823   4.210565   4.127747   2.058538
    13  H    3.722554   4.004408   4.079647   4.525717   2.047736
    14  H    2.165758   2.078928   3.294951   2.940745   3.889565
    15  H    2.166361   0.961717   3.609418   3.453511   2.750311
    16  H    2.146300   2.926901   3.034500   0.956149   2.102698
    17  H    2.144852   3.632174   0.958842   3.458589   2.898863
                    6          7          8          9         10
     6  O    0.000000
     7  O    3.016526   0.000000
     8  C    1.356857   4.141288   0.000000
     9  H    2.082663   5.047971   1.125079   0.000000
    10  H    2.069817   4.586928   1.121404   1.782179   0.000000
    11  C    2.381337   4.348876   1.540589   2.165292   2.150371
    12  H    2.751416   4.614768   2.158308   2.395329   3.048952
    13  H    3.320633   5.373233   2.180545   2.529152   2.386784
    14  H    3.239012   0.955857   4.399983   5.182406   5.037193
    15  H    2.012096   2.759260   2.748959   3.251700   3.741329
    16  H    4.236171   3.443360   4.375311   5.355513   4.689597
    17  H    2.140646   2.640371   2.704699   3.728370   2.509569
                   11         12         13         14         15
    11  C    0.000000
    12  H    1.113654   0.000000
    13  H    1.112269   1.784458   0.000000
    14  H    4.521241   4.553631   5.602242   0.000000
    15  H    2.708175   2.376812   3.801635   2.411801   0.000000
    16  H    3.417176   3.765594   3.989494   3.710084   3.667106
    17  H    3.365793   4.173239   4.075327   3.415784   3.505054
                   16         17
    16  H    0.000000
    17  H    3.818879   0.000000
 Symmetry turned off by external request.
 Stoichiometry    C2H8O6Si(2-)
 Framework group  C1[X(C2H8O6Si)]
 Deg. of freedom    45
 Full point group                 C1      NOp   1
 Rotational constants (GHZ):           2.0456983           1.2537941           1.1705393
 Standard basis: def2TZVPP (5D, 7F)
   402 basis functions,   613 primitive gaussians,   456 cartesian basis functions
    42 alpha electrons       42 beta electrons
       nuclear repulsion energy       661.6609720723 Hartrees.
 NAtoms=   17 NActive=   17 NUniq=   17 SFac= 1.00D+00 NAtFMM=   60 NAOKFM=F Big=F
 Integral buffers will be    131072 words long.
 Raffenetti 2 integral format.
 Two-electron integral symmetry is turned off.
 Nuclear repulsion after empirical dispersion term =      661.6518424516 Hartrees.
 One-electron integrals computed using PRISM.
   1 Symmetry operations used in ECPInt.
 ECPInt:  NShTT=   11325 NPrTT=   31861 LenC2=   11000 LenP2D=   24474.
 LDataN:  DoStor=T MaxTD1= 6 Len=  172
 NBasis=   402 RedAO= T EigKep=  2.84D-04  NBF=   402
 NBsUse=   402 1.00D-06 EigRej= -1.00D+00 NBFU=   402
 Initial guess from the checkpoint file:  "IRC_PmonoL1toHbiL1_reverse.chk"
 B after Tr=     0.000286   -0.000354    0.000119
         Rot=    1.000000    0.000008    0.000046   -0.000145 Ang=   0.02 deg.
 ExpMin= 7.01D-02 ExpMax= 4.48D+04 ExpMxC= 1.53D+03 IAcc=3 IRadAn=         5 AccDes= 0.00D+00
 Harris functional with IExCor= 4639 and IRadAn=       5 diagonalized for initial guess.
 HarFok:  IExCor= 4639 AccDes= 0.00D+00 IRadAn=         5 IDoV= 1 UseB2=F ITyADJ=14
 ICtDFT=  3500011 ScaDFX=  1.000000  1.000000  1.000000  1.000000
 FoFCou: FMM=F IPFlag=           0 FMFlag=      100000 FMFlg1=           0
         NFxFlg=           0 DoJE=T BraDBF=F KetDBF=T FulRan=T
         wScrn=  0.000000 ICntrl=       500 IOpCl=  0 I1Cent=   200000004 NGrid=           0
         NMat0=    1 NMatS0=      1 NMatT0=    0 NMatD0=    1 NMtDS0=    0 NMtDT0=    0
 Symmetry not used in FoFCou.
 Requested convergence on RMS density matrix=1.00D-08 within 128 cycles.
 Requested convergence on MAX density matrix=1.00D-06.
 Requested convergence on             energy=1.00D-06.
 No special actions if energy rises.
 Integral accuracy reduced to 1.0D-05 until final iterations.
 Initial convergence to 1.0D-05 achieved.  Increase integral accuracy.
 SCF Done:  E(RwB97XD) =  -822.053582730     A.U. after   12 cycles
            NFock= 12  Conv=0.61D-08     -V/T= 2.0033
 DoSCS=F DFT=T ScalE2(SS,OS)=  1.000000  1.000000
 Range of M.O.s used for correlation:     1   402
 NBasis=   402 NAE=    42 NBE=    42 NFC=     0 NFV=     0
 NROrb=    402 NOA=    42 NOB=    42 NVA=   360 NVB=   360

 **** Warning!!: The largest alpha MO coefficient is  0.12423840D+02

 Symmetrizing basis deriv contribution to polar:
 IMax=3 JMax=2 DiffMx= 0.00D+00
   1 Symmetry operations used in ECPInt.
 ECPInt:  NShTT=   11325 NPrTT=   31861 LenC2=   11000 LenP2D=   24474.
 LDataN:  DoStor=T MaxTD1= 7 Len=  274
 Calling FoFJK, ICntrl=      2127 FMM=F ISym2X=0 I1Cent= 0 IOpClX= 0 NMat=1 NMatS=1 NMatT=0.
 -------------------------------------------------------------------
 Center     Atomic                   Forces (Hartrees/Bohr)
 Number     Number              X              Y              Z
 -------------------------------------------------------------------
      1       14          -0.001094649   -0.000669906    0.000009604
      2        8           0.000180217    0.000445753    0.000343781
      3        8          -0.000097609    0.000115566   -0.000358747
      4        8          -0.000243855   -0.000383107    0.000061887
      5        8          -0.000254457    0.000154309    0.000046604
      6        8           0.001320466    0.000871756   -0.000170546
      7        8          -0.000714320   -0.000456938    0.000059317
      8        6           0.000445488   -0.000171547    0.000073863
      9        1           0.000178316   -0.000047462   -0.000013968
     10        1           0.000050041   -0.000040430    0.000037681
     11        6          -0.000121517   -0.000033742   -0.000040663
     12        1          -0.000028513    0.000004826   -0.000015260
     13        1          -0.000009573   -0.000039459   -0.000009459
     14        1          -0.000029138   -0.000009975   -0.000028089
     15        1           0.000095285    0.000078697    0.000063443
     16        1           0.000023917   -0.000058002    0.000030769
     17        1           0.000299900    0.000239660   -0.000090216
 -------------------------------------------------------------------
 Cartesian Forces:  Max     0.001320466 RMS     0.000348077
 IRC-IRC-IRC-IRC-IRC-IRC-IRC-IRC-IRC-IRC-IRC-IRC-IRC-IRC-IRC-IRC-IRC-IRC
 Pt  3 Step number   1 out of a maximum of  20
 Modified Bulirsch-Stoer Extrapolation Cycles:
    EPS =    0.000010000000000
      PEZero:  N= 2 I= 1 D=  1.46D-03 Err=  3.57D-02
      PEZero:  N= 3 I= 2 D=  1.46D-03 Err=  5.82D-02
      PEZero:  N= 3 I= 1 D=  2.93D-03 Err=  5.17D-02
      PEZero:  N= 4 I= 3 D=  7.32D-04 Err=  1.00D-01
      PEZero:  N= 4 I= 2 D=  2.20D-03 Err=  7.54D-02
      PEZero:  N= 4 I= 1 D=  3.66D-03 Err=  5.95D-02
      PEZero:  N= 5 I= 4 D=  7.32D-04 Err=  5.65D-02
      PEZero:  N= 5 I= 3 D=  1.46D-03 Err=  1.55D-02
      PEZero:  N= 5 I= 2 D=  2.93D-03 Err=  5.32D-02
      PEZero:  N= 6 I= 5 D=  3.66D-04 Err=  5.42D-06
      PEZero:  N= 6 I= 4 D=  1.10D-03 Err=  5.65D-02
 Maximum DWI energy   std dev =  0.000000419 at pt    95
 Maximum DWI gradient std dev =  0.208960348 at pt   111
 CORRECTOR INTEGRATION CONVERGENCE:
   Recorrection delta-x convergence threshold:    0.010000
   Delta-x Convergence Met
 Point Number:   3          Path Number:   1
   CHANGE IN THE REACTION COORDINATE =    0.28115
   NET REACTION COORDINATE UP TO THIS POINT =    0.84350
  # OF POINTS ALONG THE PATH =   3
  # OF STEPS =   1

 Calculating another point on the path.
 IRC-IRC-IRC-IRC-IRC-IRC-IRC-IRC-IRC-IRC-IRC-IRC-IRC-IRC-IRC-IRC-IRC-IRC
                          Input orientation:                          
 ---------------------------------------------------------------------
 Center     Atomic      Atomic             Coordinates (Angstroms)
 Number     Number       Type             X           Y           Z
 ---------------------------------------------------------------------
      1         14           0        0.636868    0.022680   -0.041719
      2          8           0        0.398302    0.096433    1.736790
      3          8           0        0.493575   -0.461039   -1.712085
      4          8           0        1.801558    1.287910   -0.197564
      5          8           0       -0.692953    1.281980   -0.256608
      6          8           0       -1.221581   -1.305664    0.186386
      7          8           0        1.762105   -1.302735    0.229301
      8          6           0       -2.264728   -0.509764   -0.163557
      9          1           0       -3.230036   -0.781488    0.344403
     10          1           0       -2.491742   -0.545884   -1.260660
     11          6           0       -1.948695    0.958442    0.177452
     12          1           0       -2.047658    1.080122    1.280215
     13          1           0       -2.712624    1.621665   -0.284819
     14          1           0        1.832255   -1.303905    1.182621
     15          1           0       -0.347786   -0.503828    1.818901
     16          1           0        1.255011    2.071671   -0.230211
     17          1           0       -0.092135   -1.216018   -1.637919
 ---------------------------------------------------------------------
                    Distance matrix (angstroms):
                    1          2          3          4          5
     1  Si   0.000000
     2  O    1.795953   0.000000
     3  O    1.744890   3.494938   0.000000
     4  O    1.726730   2.670294   2.657709   0.000000
     5  O    1.844029   2.563200   2.562104   2.495217   0.000000
     6  O    2.295727   2.644550   2.694317   4.001676   2.677983
     7  O    1.759640   2.467823   2.467104   2.625873   3.597801
     8  C    2.952559   3.327239   3.163629   4.446062   2.385264
     9  H    3.968466   3.984259   4.265807   5.467456   3.325042
    10  H    3.405479   4.213031   3.020447   4.788047   2.754061
    11  C    2.758410   2.946691   3.398523   3.783329   1.367469
    12  H    3.173700   2.675598   4.217452   4.128373   2.058591
    13  H    3.719536   4.011370   4.080986   4.527343   2.048231
    14  H    2.165129   2.079488   3.298759   2.936555   3.890355
    15  H    2.169945   0.961094   3.630094   3.449077   2.759709
    16  H    2.148487   2.916267   3.031560   0.956065   2.102112
    17  H    2.147946   3.654000   0.958410   3.454034   2.917019
                    6          7          8          9         10
     6  O    0.000000
     7  O    2.983996   0.000000
     8  C    1.357967   4.122927   0.000000
     9  H    2.081735   5.020600   1.124134   0.000000
    10  H    2.069908   4.570342   1.120926   1.782363   0.000000
    11  C    2.378014   4.345762   1.540063   2.167272   2.150829
    12  H    2.751516   4.614837   2.158550   2.395696   3.049124
    13  H    3.318810   5.370254   2.181354   2.537475   2.387326
    14  H    3.212227   0.955898   4.384989   5.157744   5.024059
    15  H    2.017811   2.759840   2.757688   3.249401   3.752601
    16  H    4.208735   3.443096   4.365412   5.346620   4.685251
    17  H    2.147504   2.632914   2.718952   3.736956   2.519825
                   11         12         13         14         15
    11  C    0.000000
    12  H    1.113861   0.000000
    13  H    1.112271   1.784595   0.000000
    14  H    4.519310   4.554869   5.600738   0.000000
    15  H    2.719467   2.385089   3.812587   2.407811   0.000000
    16  H    3.416021   3.764595   3.993446   3.704567   3.660740
    17  H    3.386837   4.196646   4.092711   3.415618   3.538669
                   16         17
    16  H    0.000000
    17  H    3.821694   0.000000
 Symmetry turned off by external request.
 Stoichiometry    C2H8O6Si(2-)
 Framework group  C1[X(C2H8O6Si)]
 Deg. of freedom    45
 Full point group                 C1      NOp   1
 Rotational constants (GHZ):           2.0432298           1.2588782           1.1779557
 Standard basis: def2TZVPP (5D, 7F)
   402 basis functions,   613 primitive gaussians,   456 cartesian basis functions
    42 alpha electrons       42 beta electrons
       nuclear repulsion energy       662.3479252825 Hartrees.
 NAtoms=   17 NActive=   17 NUniq=   17 SFac= 1.00D+00 NAtFMM=   60 NAOKFM=F Big=F
 Integral buffers will be    131072 words long.
 Raffenetti 2 integral format.
 Two-electron integral symmetry is turned off.
 Nuclear repulsion after empirical dispersion term =      662.3388010484 Hartrees.
 One-electron integrals computed using PRISM.
   1 Symmetry operations used in ECPInt.
 ECPInt:  NShTT=   11325 NPrTT=   31861 LenC2=   11001 LenP2D=   24487.
 LDataN:  DoStor=T MaxTD1= 6 Len=  172
 NBasis=   402 RedAO= T EigKep=  2.84D-04  NBF=   402
 NBsUse=   402 1.00D-06 EigRej= -1.00D+00 NBFU=   402
 Initial guess from the checkpoint file:  "IRC_PmonoL1toHbiL1_reverse.chk"
 B after Tr=     0.000302   -0.000348    0.000117
         Rot=    1.000000    0.000026    0.000040   -0.000121 Ang=   0.01 deg.
 ExpMin= 7.01D-02 ExpMax= 4.48D+04 ExpMxC= 1.53D+03 IAcc=3 IRadAn=         5 AccDes= 0.00D+00
 Harris functional with IExCor= 4639 and IRadAn=       5 diagonalized for initial guess.
 HarFok:  IExCor= 4639 AccDes= 0.00D+00 IRadAn=         5 IDoV= 1 UseB2=F ITyADJ=14
 ICtDFT=  3500011 ScaDFX=  1.000000  1.000000  1.000000  1.000000
 FoFCou: FMM=F IPFlag=           0 FMFlag=      100000 FMFlg1=           0
         NFxFlg=           0 DoJE=T BraDBF=F KetDBF=T FulRan=T
         wScrn=  0.000000 ICntrl=       500 IOpCl=  0 I1Cent=   200000004 NGrid=           0
         NMat0=    1 NMatS0=      1 NMatT0=    0 NMatD0=    1 NMtDS0=    0 NMtDT0=    0
 Symmetry not used in FoFCou.
 Requested convergence on RMS density matrix=1.00D-08 within 128 cycles.
 Requested convergence on MAX density matrix=1.00D-06.
 Requested convergence on             energy=1.00D-06.
 No special actions if energy rises.
 Integral accuracy reduced to 1.0D-05 until final iterations.
 Initial convergence to 1.0D-05 achieved.  Increase integral accuracy.
 SCF Done:  E(RwB97XD) =  -822.053788885     A.U. after   12 cycles
            NFock= 12  Conv=0.63D-08     -V/T= 2.0033
 DoSCS=F DFT=T ScalE2(SS,OS)=  1.000000  1.000000
 Range of M.O.s used for correlation:     1   402
 NBasis=   402 NAE=    42 NBE=    42 NFC=     0 NFV=     0
 NROrb=    402 NOA=    42 NOB=    42 NVA=   360 NVB=   360

 **** Warning!!: The largest alpha MO coefficient is  0.12953178D+02

 Symmetrizing basis deriv contribution to polar:
 IMax=3 JMax=2 DiffMx= 0.00D+00
   1 Symmetry operations used in ECPInt.
 ECPInt:  NShTT=   11325 NPrTT=   31861 LenC2=   11001 LenP2D=   24487.
 LDataN:  DoStor=T MaxTD1= 7 Len=  274
 Calling FoFJK, ICntrl=      2127 FMM=F ISym2X=0 I1Cent= 0 IOpClX= 0 NMat=1 NMatS=1 NMatT=0.
 -------------------------------------------------------------------
 Center     Atomic                   Forces (Hartrees/Bohr)
 Number     Number              X              Y              Z
 -------------------------------------------------------------------
      1       14          -0.001452903   -0.000872707    0.000056532
      2        8           0.000260382    0.000584281    0.000449094
      3        8          -0.000070224    0.000206387   -0.000501582
      4        8          -0.000345622   -0.000552616    0.000083091
      5        8          -0.000333465    0.000229310    0.000064485
      6        8           0.001813699    0.001145935   -0.000242130
      7        8          -0.000932719   -0.000614545    0.000078980
      8        6           0.000611161   -0.000216598    0.000088747
      9        1           0.000211691   -0.000065243   -0.000011244
     10        1           0.000063456   -0.000050232    0.000043565
     11        6          -0.000177135   -0.000016548   -0.000061153
     12        1          -0.000037815    0.000008440   -0.000017827
     13        1          -0.000018145   -0.000044385   -0.000015942
     14        1          -0.000036042   -0.000010824   -0.000041777
     15        1           0.000104187    0.000093796    0.000084689
     16        1           0.000018369   -0.000061611    0.000040633
     17        1           0.000321126    0.000237159   -0.000098161
 -------------------------------------------------------------------
 Cartesian Forces:  Max     0.001813699 RMS     0.000465076
 IRC-IRC-IRC-IRC-IRC-IRC-IRC-IRC-IRC-IRC-IRC-IRC-IRC-IRC-IRC-IRC-IRC-IRC
 Pt  4 Step number   1 out of a maximum of  20
 Modified Bulirsch-Stoer Extrapolation Cycles:
    EPS =    0.000010000000000
      PEZero:  N= 2 I= 1 D=  1.46D-03 Err=  5.92D-02
      PEZero:  N= 3 I= 2 D=  1.46D-03 Err=  8.99D-02
      PEZero:  N= 3 I= 1 D=  2.93D-03 Err=  7.56D-02
      PEZero:  N= 4 I= 3 D=  7.32D-04 Err=  4.46D-02
      PEZero:  N= 4 I= 2 D=  2.20D-03 Err=  3.04D-02
      PEZero:  N= 4 I= 1 D=  3.66D-03 Err=  8.18D-02
      PEZero:  N= 5 I= 4 D=  7.32D-04 Err=  6.27D-06
      PEZero:  N= 5 I= 3 D=  1.46D-03 Err=  4.46D-02
 Maximum DWI energy   std dev =  0.000000307 at pt    39
 Maximum DWI gradient std dev =  0.151984261 at pt   112
 CORRECTOR INTEGRATION CONVERGENCE:
   Recorrection delta-x convergence threshold:    0.010000
   Delta-x Convergence Met
 Point Number:   4          Path Number:   1
   CHANGE IN THE REACTION COORDINATE =    0.28117
   NET REACTION COORDINATE UP TO THIS POINT =    1.12467
  # OF POINTS ALONG THE PATH =   4
  # OF STEPS =   1

 Calculating another point on the path.
 IRC-IRC-IRC-IRC-IRC-IRC-IRC-IRC-IRC-IRC-IRC-IRC-IRC-IRC-IRC-IRC-IRC-IRC
                          Input orientation:                          
 ---------------------------------------------------------------------
 Center     Atomic      Atomic             Coordinates (Angstroms)
 Number     Number       Type             X           Y           Z
 ---------------------------------------------------------------------
      1         14           0        0.627704    0.017254   -0.041355
      2          8           0        0.401999    0.103493    1.741964
      3          8           0        0.495307   -0.456083   -1.718017
      4          8           0        1.797738    1.281174   -0.196557
      5          8           0       -0.696469    1.284594   -0.255803
      6          8           0       -1.199666   -1.294024    0.184242
      7          8           0        1.751782   -1.309505    0.229636
      8          6           0       -2.255536   -0.511909   -0.163078
      9          1           0       -3.213451   -0.797230    0.349235
     10          1           0       -2.484770   -0.552380   -1.259039
     11          6           0       -1.951448    0.958670    0.176372
     12          1           0       -2.053648    1.082051    1.278870
     13          1           0       -2.717838    1.616960   -0.288907
     14          1           0        1.825945   -1.306151    1.182675
     15          1           0       -0.342169   -0.496603    1.834912
     16          1           0        1.253649    2.066781   -0.223311
     17          1           0       -0.076829   -1.221672   -1.652351
 ---------------------------------------------------------------------
                    Distance matrix (angstroms):
                    1          2          3          4          5
     1  Si   0.000000
     2  O    1.799614   0.000000
     3  O    1.747218   3.506181   0.000000
     4  O    1.729324   2.663247   2.651270   0.000000
     5  O    1.845420   2.567627   2.566779   2.494913   0.000000
     6  O    2.260448   2.635314   2.682101   3.970023   2.663854
     7  O    1.759908   2.470955   2.469901   2.625904   3.599852
     8  C    2.933924   3.327221   3.160395   4.432302   2.380486
     9  H    3.945937   3.977747   4.259671   5.452492   3.321936
    10  H    3.390389   4.215404   3.016753   4.778145   2.752994
    11  C    2.754214   2.953153   3.402476   3.781465   1.366738
    12  H    3.172765   2.683697   4.224258   4.129129   2.058684
    13  H    3.716584   4.018507   4.082177   4.528986   2.048779
    14  H    2.164585   2.080270   3.302609   2.932121   3.891498
    15  H    2.173726   0.960490   3.650523   3.444788   2.769347
    16  H    2.150692   2.905531   3.028873   0.955995   2.101388
    17  H    2.150956   3.675148   0.958007   3.449286   2.935246
                    6          7          8          9         10
     6  O    0.000000
     7  O    2.951838   0.000000
     8  C    1.359117   4.104752   0.000000
     9  H    2.080711   4.993022   1.123153   0.000000
    10  H    2.069926   4.553874   1.120410   1.782547   0.000000
    11  C    2.374840   4.342967   1.539577   2.169267   2.151304
    12  H    2.751949   4.615380   2.158860   2.396051   3.049297
    13  H    3.317008   5.367550   2.182118   2.545814   2.387784
    14  H    3.186115   0.955926   4.370396   5.133140   5.011228
    15  H    2.023831   2.760861   2.766437   3.246825   3.763826
    16  H    4.180892   3.442761   4.355187   5.337167   4.680653
    17  H    2.153850   2.625530   2.732849   3.744982   2.529986
                   11         12         13         14         15
    11  C    0.000000
    12  H    1.114078   0.000000
    13  H    1.112288   1.784713   0.000000
    14  H    4.517826   4.556753   5.599651   0.000000
    15  H    2.730998   2.393844   3.823815   2.404475   0.000000
    16  H    3.414718   3.763569   3.997418   3.698782   3.654293
    17  H    3.407684   4.219835   4.109956   3.415414   3.571713
                   16         17
    16  H    0.000000
    17  H    3.824427   0.000000
 Symmetry turned off by external request.
 Stoichiometry    C2H8O6Si(2-)
 Framework group  C1[X(C2H8O6Si)]
 Deg. of freedom    45
 Full point group                 C1      NOp   1
 Rotational constants (GHZ):           2.0409831           1.2639496           1.1853630
 Standard basis: def2TZVPP (5D, 7F)
   402 basis functions,   613 primitive gaussians,   456 cartesian basis functions
    42 alpha electrons       42 beta electrons
       nuclear repulsion energy       663.0512564378 Hartrees.
 NAtoms=   17 NActive=   17 NUniq=   17 SFac= 1.00D+00 NAtFMM=   60 NAOKFM=F Big=F
 Integral buffers will be    131072 words long.
 Raffenetti 2 integral format.
 Two-electron integral symmetry is turned off.
 Nuclear repulsion after empirical dispersion term =      663.0421377762 Hartrees.
 One-electron integrals computed using PRISM.
   1 Symmetry operations used in ECPInt.
 ECPInt:  NShTT=   11325 NPrTT=   31861 LenC2=   11001 LenP2D=   24485.
 LDataN:  DoStor=T MaxTD1= 6 Len=  172
 NBasis=   402 RedAO= T EigKep=  2.84D-04  NBF=   402
 NBsUse=   402 1.00D-06 EigRej= -1.00D+00 NBFU=   402
 Initial guess from the checkpoint file:  "IRC_PmonoL1toHbiL1_reverse.chk"
 B after Tr=     0.000312   -0.000346    0.000123
         Rot=    1.000000    0.000024    0.000045   -0.000121 Ang=   0.02 deg.
 ExpMin= 7.01D-02 ExpMax= 4.48D+04 ExpMxC= 1.53D+03 IAcc=3 IRadAn=         5 AccDes= 0.00D+00
 Harris functional with IExCor= 4639 and IRadAn=       5 diagonalized for initial guess.
 HarFok:  IExCor= 4639 AccDes= 0.00D+00 IRadAn=         5 IDoV= 1 UseB2=F ITyADJ=14
 ICtDFT=  3500011 ScaDFX=  1.000000  1.000000  1.000000  1.000000
 FoFCou: FMM=F IPFlag=           0 FMFlag=      100000 FMFlg1=           0
         NFxFlg=           0 DoJE=T BraDBF=F KetDBF=T FulRan=T
         wScrn=  0.000000 ICntrl=       500 IOpCl=  0 I1Cent=   200000004 NGrid=           0
         NMat0=    1 NMatS0=      1 NMatT0=    0 NMatD0=    1 NMtDS0=    0 NMtDT0=    0
 Symmetry not used in FoFCou.
 Requested convergence on RMS density matrix=1.00D-08 within 128 cycles.
 Requested convergence on MAX density matrix=1.00D-06.
 Requested convergence on             energy=1.00D-06.
 No special actions if energy rises.
 Integral accuracy reduced to 1.0D-05 until final iterations.
 Initial convergence to 1.0D-05 achieved.  Increase integral accuracy.
 SCF Done:  E(RwB97XD) =  -822.054052424     A.U. after   12 cycles
            NFock= 12  Conv=0.66D-08     -V/T= 2.0033
 DoSCS=F DFT=T ScalE2(SS,OS)=  1.000000  1.000000
 Range of M.O.s used for correlation:     1   402
[...]
 ---------------------------------------------------------------------
 Center     Atomic      Atomic             Coordinates (Angstroms)
 Number     Number       Type             X           Y           Z
 ---------------------------------------------------------------------
      1         14           0        0.565543   -0.021240   -0.039220
      2          8           0        0.430948    0.153436    1.776852
      3          8           0        0.502053   -0.421216   -1.757201
      4          8           0        1.769514    1.232663   -0.189316
      5          8           0       -0.722879    1.310632   -0.249514
      6          8           0       -1.054490   -1.215036    0.172466
      7          8           0        1.684000   -1.357688    0.231488
      8          6           0       -2.186648   -0.527608   -0.162633
      9          1           0       -3.089003   -0.904559    0.374415
     10          1           0       -2.420067   -0.600965   -1.251516
     11          6           0       -1.971477    0.958343    0.166174
     12          1           0       -2.101885    1.092167    1.266176
     13          1           0       -2.758994    1.574066   -0.322409
     14          1           0        1.792188   -1.317608    1.180399
     15          1           0       -0.299010   -0.437630    1.957089
     16          1           0        1.243901    2.029248   -0.148832
     17          1           0        0.072351   -1.285425   -1.753974
 ---------------------------------------------------------------------
                    Distance matrix (angstroms):
                    1          2          3          4          5
     1  Si   0.000000
     2  O    1.829411   0.000000
     3  O    1.765070   3.581174   0.000000
     4  O    1.744806   2.611954   2.607688   0.000000
     5  O    1.864977   2.603186   2.602475   2.494339   0.000000
     6  O    2.023479   2.579399   2.603188   3.754612   2.582060
     7  O    1.763610   2.498356   2.495768   2.625701   3.625515
     8  C    2.801106   3.328248   3.127791   4.330183   2.351446
     9  H    3.782466   3.933985   4.203937   5.337668   3.300742
    10  H    3.274082   4.227105   2.970996   4.695003   2.745662
    11  C    2.727313   3.002300   3.423581   3.767843   1.362315
    12  H    3.171577   2.749045   4.267508   4.138348   2.060752
    13  H    3.698343   4.074410   4.083406   4.543309   2.054380
    14  H    2.161642   2.091100   3.331285   2.894912   3.908690
    15  H    2.214967   0.956391   3.799726   3.416976   2.846960
    16  H    2.162565   2.808527   3.023568   0.955226   2.096371
    17  H    2.186729   3.829575   0.965148   3.416033   3.104079
                    6          7          8          9         10
     6  O    0.000000
     7  O    2.742838   0.000000
     8  C    1.366246   3.978226   0.000000
     9  H    2.067951   4.796594   1.115687   0.000000
    10  H    2.066303   4.428916   1.116033   1.784179   0.000000
    11  C    2.358915   4.327907   1.537031   2.182345   2.154650
    12  H    2.759787   4.626585   2.161562   2.399282   3.050689
    13  H    3.305953   5.351839   2.184066   2.595775   2.389324
    14  H    3.021594   0.955900   4.273052   4.964499   4.916389
    15  H    2.088059   2.785056   2.839805   3.241441   3.849767
    16  H    3.988887   3.436520   4.278595   5.258809   4.643124
    17  H    2.232912   2.558260   2.865263   3.830047   2.633078
                   11         12         13         14         15
    11  C    0.000000
    12  H    1.115759   0.000000
    13  H    1.112660   1.785391   0.000000
    14  H    4.513732   4.580194   5.597631   0.000000
    15  H    2.820153   2.463331   3.910825   2.398065   0.000000
    16  H    3.403634   3.751620   4.032430   3.642653   3.591792
    17  H    3.591476   4.416056   4.271134   3.401385   3.824742
                   16         17
    16  H    0.000000
    17  H    3.864721   0.000000
 Symmetry turned off by external request.
 Stoichiometry    C2H8O6Si(2-)
 Framework group  C1[X(C2H8O6Si)]
 Deg. of freedom    45
 Full point group                 C1      NOp   1
 Rotational constants (GHZ):           2.0239605           1.2966510           1.2339502
 Standard basis: def2TZVPP (5D, 7F)
   402 basis functions,   613 primitive gaussians,   456 cartesian basis functions
    42 alpha electrons       42 beta electrons
       nuclear repulsion energy       667.6717433331 Hartrees.
 NAtoms=   17 NActive=   17 NUniq=   17 SFac= 1.00D+00 NAtFMM=   60 NAOKFM=F Big=F
 Integral buffers will be    131072 words long.
 Raffenetti 2 integral format.
 Two-electron integral symmetry is turned off.
 Nuclear repulsion after empirical dispersion term =      667.6626679546 Hartrees.
 One-electron integrals computed using PRISM.
   1 Symmetry operations used in ECPInt.
 ECPInt:  NShTT=   11325 NPrTT=   31861 LenC2=   11021 LenP2D=   24557.
 LDataN:  DoStor=T MaxTD1= 6 Len=  172
 NBasis=   402 RedAO= T EigKep=  2.87D-04  NBF=   402
 NBsUse=   402 1.00D-06 EigRej= -1.00D+00 NBFU=   402
 Initial guess from the checkpoint file:  "IRC_PmonoL1toHbiL1_reverse.chk"
 B after Tr=     0.000060   -0.000084   -0.000113
         Rot=    1.000000   -0.000001    0.000039   -0.000035 Ang=  -0.01 deg.
 ExpMin= 7.01D-02 ExpMax= 4.48D+04 ExpMxC= 1.53D+03 IAcc=3 IRadAn=         5 AccDes= 0.00D+00
 Harris functional with IExCor= 4639 and IRadAn=       5 diagonalized for initial guess.
 HarFok:  IExCor= 4639 AccDes= 0.00D+00 IRadAn=         5 IDoV= 1 UseB2=F ITyADJ=14
 ICtDFT=  3500011 ScaDFX=  1.000000  1.000000  1.000000  1.000000
 FoFCou: FMM=F IPFlag=           0 FMFlag=      100000 FMFlg1=           0
         NFxFlg=           0 DoJE=T BraDBF=F KetDBF=T FulRan=T
         wScrn=  0.000000 ICntrl=       500 IOpCl=  0 I1Cent=   200000004 NGrid=           0
         NMat0=    1 NMatS0=      1 NMatT0=    0 NMatD0=    1 NMtDS0=    0 NMtDT0=    0
 Symmetry not used in FoFCou.
 Requested convergence on RMS density matrix=1.00D-08 within 128 cycles.
 Requested convergence on MAX density matrix=1.00D-06.
 Requested convergence on             energy=1.00D-06.
 No special actions if energy rises.
 Integral accuracy reduced to 1.0D-05 until final iterations.
 Initial convergence to 1.0D-05 achieved.  Increase integral accuracy.
 SCF Done:  E(RwB97XD) =  -822.056655297     A.U. after   11 cycles
            NFock= 11  Conv=0.92D-08     -V/T= 2.0033
 DoSCS=F DFT=T ScalE2(SS,OS)=  1.000000  1.000000
 Range of M.O.s used for correlation:     1   402
 NBasis=   402 NAE=    42 NBE=    42 NFC=     0 NFV=     0
 NROrb=    402 NOA=    42 NOB=    42 NVA=   360 NVB=   360

 **** Warning!!: The largest alpha MO coefficient is  0.16918404D+02

 Symmetrizing basis deriv contribution to polar:
 IMax=3 JMax=2 DiffMx= 0.00D+00
   1 Symmetry operations used in ECPInt.
 ECPInt:  NShTT=   11325 NPrTT=   31861 LenC2=   11021 LenP2D=   24557.
 LDataN:  DoStor=T MaxTD1= 7 Len=  274
 Calling FoFJK, ICntrl=      2127 FMM=F ISym2X=0 I1Cent= 0 IOpClX= 0 NMat=1 NMatS=1 NMatT=0.
 -------------------------------------------------------------------
 Center     Atomic                   Forces (Hartrees/Bohr)
 Number     Number              X              Y              Z
 -------------------------------------------------------------------
      1       14          -0.002483558   -0.001546918    0.000088562
      2        8           0.001168568    0.001419421    0.000651301
      3        8          -0.003916005   -0.007614100   -0.001403303
      4        8          -0.000432024   -0.001211576    0.000189114
      5        8          -0.000503138    0.000564599    0.000221708
      6        8           0.003154238    0.001340154    0.000358643
      7        8          -0.001406998   -0.001109437   -0.000215042
      8        6           0.001334562   -0.000361080   -0.000207958
      9        1          -0.000343172   -0.000069287    0.000100285
     10        1          -0.000055058    0.000032166   -0.000121507
     11        6          -0.000484216   -0.000171620   -0.000381117
     12        1           0.000013840    0.000014727    0.000008649
     13        1          -0.000004530    0.000039874   -0.000036202
     14        1          -0.000013577   -0.000020659    0.000091161
     15        1          -0.000349940   -0.000258992    0.000044737
     16        1          -0.000140695    0.000297126    0.000126332
     17        1           0.004461704    0.008655604    0.000484637
 -------------------------------------------------------------------
 Cartesian Forces:  Max     0.008655604 RMS     0.001995085
 IRC-IRC-IRC-IRC-IRC-IRC-IRC-IRC-IRC-IRC-IRC-IRC-IRC-IRC-IRC-IRC-IRC-IRC
 Error in corrector energy =          -0.0001947277
 Magnitude of corrector gradient =     0.0064907951
 Magnitude of analytic gradient =      0.0142477572
 Magnitude of difference =             0.0143099493
 Angle between gradients (degrees)=   77.3978
 Pt 12 Step number  19 out of a maximum of  20
 Modified Bulirsch-Stoer Extrapolation Cycles:
    EPS =    0.000010000000000
      PEZero:  N= 2 I= 1 D=  1.46D-03 Err=  1.01D-02
      PEZero:  N= 3 I= 2 D=  1.46D-03 Err=  1.65D-04
      PEZero:  N= 3 I= 1 D=  2.93D-03 Err=  1.02D-02
      PEZero:  N= 4 I= 3 D=  7.32D-04 Err=  1.24D-04
      PEZero:  N= 4 I= 2 D=  2.20D-03 Err=  4.31D-07
      PEZero:  N= 4 I= 1 D=  3.66D-03 Err=  9.98D-05
 Maximum DWI energy   std dev =  0.000031385 at pt    -1
 Maximum DWI gradient std dev =  0.854534225 at pt    28
 CORRECTOR INTEGRATION CONVERGENCE:
   Recorrection delta-x convergence threshold:    0.010000
   Delta-x Convergence NOT Met
 IRC-IRC-IRC-IRC-IRC-IRC-IRC-IRC-IRC-IRC-IRC-IRC-IRC-IRC-IRC-IRC-IRC-IRC
                          Input orientation:                          
 ---------------------------------------------------------------------
 Center     Atomic      Atomic             Coordinates (Angstroms)
 Number     Number       Type             X           Y           Z
 ---------------------------------------------------------------------
      1         14           0        0.565327   -0.021882   -0.039244
      2          8           0        0.431524    0.154416    1.777351
      3          8           0        0.503938   -0.423645   -1.758264
      4          8           0        1.769341    1.232141   -0.189064
      5          8           0       -0.723285    1.310439   -0.249626
      6          8           0       -1.052137   -1.213917    0.172185
      7          8           0        1.683177   -1.358208    0.231654
      8          6           0       -2.186140   -0.527923   -0.162447
      9          1           0       -3.087964   -0.907580    0.375266
     10          1           0       -2.420337   -0.601715   -1.251469
     11          6           0       -1.972038    0.958434    0.165969
     12          1           0       -2.102934    1.092817    1.265893
     13          1           0       -2.759785    1.573531   -0.323479
     14          1           0        1.791746   -1.317788    1.180629
     15          1           0       -0.298578   -0.436739    1.960360
     16          1           0        1.243518    2.029484   -0.145775
     17          1           0        0.047319   -1.255931   -1.750134
 ---------------------------------------------------------------------
                    Distance matrix (angstroms):
                    1          2          3          4          5
     1  Si   0.000000
     2  O    1.830028   0.000000
     3  O    1.766413   3.583291   0.000000
     4  O    1.744898   2.611137   2.608689   0.000000
     5  O    1.865438   2.603576   2.605593   2.494591   0.000000
     6  O    2.020356   2.578787   2.602410   3.751592   2.580395
     7  O    1.763163   2.498769   2.494752   2.625707   3.625516
     8  C    2.800326   3.328748   3.129541   4.329476   2.350983
     9  H    3.781906   3.934523   4.205699   5.337629   3.301788
    10  H    3.274123   4.228309   2.973202   4.695224   2.745907
    11  C    2.727885   3.003350   3.426846   3.768141   1.362355
    12  H    3.172625   2.750575   4.270944   4.138940   2.060967
    13  H    3.698986   4.075761   4.086467   4.543963   2.054751
    14  H    2.161381   2.091331   3.330921   2.894598   3.908783
    15  H    2.217397   0.957081   3.804256   3.417817   2.849042
    16  H    2.163190   2.805998   3.027365   0.956096   2.096693
    17  H    2.172178   3.818356   0.949351   3.404821   3.071093
                    6          7          8          9         10
     6  O    0.000000
     7  O    2.739763   0.000000
     8  C    1.366941   3.976971   0.000000
     9  H    2.068737   4.794526   1.116495   0.000000
    10  H    2.067258   4.428404   1.116362   1.784810   0.000000
    11  C    2.359103   4.328019   1.537191   2.184286   2.155033
    12  H    2.760686   4.627290   2.161915   2.401059   3.051113
    13  H    3.306299   5.351932   2.184288   2.598434   2.389160
    14  H    3.019176   0.956020   4.272156   4.962706   4.916249
    15  H    2.090317   2.786554   2.842096   3.242667   3.852911
    16  H    3.986324   3.436889   4.278219   5.259235   4.644308
    17  H    2.214922   2.571766   2.835328   3.803771   2.601152
                   11         12         13         14         15
    11  C    0.000000
    12  H    1.115807   0.000000
    13  H    1.112856   1.785677   0.000000
    14  H    4.514067   4.581137   5.598080   0.000000
    15  H    2.822555   2.465264   3.913393   2.398683   0.000000
    16  H    3.403547   3.750851   4.033101   3.641995   3.591116
    17  H    3.557059   4.385957   4.233324   3.411192   3.815558
                   16         17
    16  H    0.000000
    17  H    3.846922   0.000000
 Symmetry turned off by external request.
 Stoichiometry    C2H8O6Si(2-)
 Framework group  C1[X(C2H8O6Si)]
 Deg. of freedom    45
 Full point group                 C1      NOp   1
 Rotational constants (GHZ):           2.0239630           1.2967081           1.2344002
 Standard basis: def2TZVPP (5D, 7F)
   402 basis functions,   613 primitive gaussians,   456 cartesian basis functions
    42 alpha electrons       42 beta electrons
       nuclear repulsion energy       667.7880722398 Hartrees.
 NAtoms=   17 NActive=   17 NUniq=   17 SFac= 1.00D+00 NAtFMM=   60 NAOKFM=F Big=F
 Integral buffers will be    131072 words long.
 Raffenetti 2 integral format.
 Two-electron integral symmetry is turned off.
 Nuclear repulsion after empirical dispersion term =      667.7789831412 Hartrees.
 One-electron integrals computed using PRISM.
   1 Symmetry operations used in ECPInt.
 ECPInt:  NShTT=   11325 NPrTT=   31861 LenC2=   11022 LenP2D=   24557.
 LDataN:  DoStor=T MaxTD1= 6 Len=  172
 NBasis=   402 RedAO= T EigKep=  2.86D-04  NBF=   402
 NBsUse=   402 1.00D-06 EigRej= -1.00D+00 NBFU=   402
 Initial guess from the checkpoint file:  "IRC_PmonoL1toHbiL1_reverse.chk"
 B after Tr=    -0.000060    0.000084    0.000113
         Rot=    1.000000    0.000001   -0.000039    0.000035 Ang=   0.01 deg.
 ExpMin= 7.01D-02 ExpMax= 4.48D+04 ExpMxC= 1.53D+03 IAcc=3 IRadAn=         5 AccDes= 0.00D+00
 Harris functional with IExCor= 4639 and IRadAn=       5 diagonalized for initial guess.
 HarFok:  IExCor= 4639 AccDes= 0.00D+00 IRadAn=         5 IDoV= 1 UseB2=F ITyADJ=14
 ICtDFT=  3500011 ScaDFX=  1.000000  1.000000  1.000000  1.000000
 FoFCou: FMM=F IPFlag=           0 FMFlag=      100000 FMFlg1=           0
         NFxFlg=           0 DoJE=T BraDBF=F KetDBF=T FulRan=T
         wScrn=  0.000000 ICntrl=       500 IOpCl=  0 I1Cent=   200000004 NGrid=           0
         NMat0=    1 NMatS0=      1 NMatT0=    0 NMatD0=    1 NMtDS0=    0 NMtDT0=    0
 Symmetry not used in FoFCou.
 Requested convergence on RMS density matrix=1.00D-08 within 128 cycles.
 Requested convergence on MAX density matrix=1.00D-06.
 Requested convergence on             energy=1.00D-06.
 No special actions if energy rises.
 Integral accuracy reduced to 1.0D-05 until final iterations.
 Initial convergence to 1.0D-05 achieved.  Increase integral accuracy.
 SCF Done:  E(RwB97XD) =  -822.056709296     A.U. after   11 cycles
            NFock= 11  Conv=0.82D-08     -V/T= 2.0033
 DoSCS=F DFT=T ScalE2(SS,OS)=  1.000000  1.000000
 Range of M.O.s used for correlation:     1   402
 NBasis=   402 NAE=    42 NBE=    42 NFC=     0 NFV=     0
 NROrb=    402 NOA=    42 NOB=    42 NVA=   360 NVB=   360

 **** Warning!!: The largest alpha MO coefficient is  0.17648702D+02

 Symmetrizing basis deriv contribution to polar:
 IMax=3 JMax=2 DiffMx= 0.00D+00
   1 Symmetry operations used in ECPInt.
 ECPInt:  NShTT=   11325 NPrTT=   31861 LenC2=   11022 LenP2D=   24557.
 LDataN:  DoStor=T MaxTD1= 7 Len=  274
 Calling FoFJK, ICntrl=      2127 FMM=F ISym2X=0 I1Cent= 0 IOpClX= 0 NMat=1 NMatS=1 NMatT=0.
 -------------------------------------------------------------------
 Center     Atomic                   Forces (Hartrees/Bohr)
 Number     Number              X              Y              Z
 -------------------------------------------------------------------
      1       14          -0.001810458   -0.001224389   -0.000044838
      2        8           0.000554913    0.001006643    0.000854463
      3        8           0.003024421    0.006911871   -0.000334812
      4        8          -0.000908752   -0.000503105    0.000237682
      5        8          -0.000770496    0.000583387    0.000224328
      6        8           0.002699661    0.001479388   -0.000156789
      7        8          -0.001351730   -0.001082127    0.000080834
      8        6           0.001166158   -0.000614204    0.000050889
      9        1           0.000100499    0.000184319   -0.000133326
     10        1          -0.000033025    0.000027221    0.000074291
     11        6          -0.000454800   -0.000196964   -0.000396445
     12        1           0.000013895   -0.000005029   -0.000033508
     13        1           0.000086374   -0.000018986    0.000028506
     14        1           0.000014582   -0.000010730   -0.000001102
     15        1           0.000263059    0.000217538   -0.000191375
     16        1           0.000346251   -0.000491763    0.000050846
     17        1          -0.002940552   -0.006263070   -0.000309643
 -------------------------------------------------------------------
 Cartesian Forces:  Max     0.006911871 RMS     0.001591630
 IRC-IRC-IRC-IRC-IRC-IRC-IRC-IRC-IRC-IRC-IRC-IRC-IRC-IRC-IRC-IRC-IRC-IRC
 Error in corrector energy =          -0.0001327480
 Magnitude of corrector gradient =     0.0061942380
 Magnitude of analytic gradient =      0.0113665103
 Magnitude of difference =             0.0100564509
 Angle between gradients (degrees)=   61.8497
 Pt 12 Step number  20 out of a maximum of  20
 Modified Bulirsch-Stoer Extrapolation Cycles:
    EPS =    0.000010000000000
      PEZero:  N= 2 I= 1 D=  1.46D-03 Err=  3.04D-02
      PEZero:  N= 3 I= 2 D=  1.46D-03 Err=  3.86D-04
      PEZero:  N= 3 I= 1 D=  2.93D-03 Err=  2.98D-02
      PEZero:  N= 4 I= 3 D=  7.32D-04 Err=  2.89D-04
      PEZero:  N= 4 I= 2 D=  2.20D-03 Err=  9.06D-07
      PEZero:  N= 4 I= 1 D=  3.66D-03 Err=  2.33D-04
 Maximum DWI energy   std dev =  0.000031941 at pt    -1
 Maximum DWI gradient std dev =  0.420203388 at pt    79
 CORRECTOR INTEGRATION CONVERGENCE:
   Recorrection delta-x convergence threshold:    0.010000
   Delta-x Convergence NOT Met
 Maximum number of corrector steps exceded.
 Error termination via Lnk1e in /opt/software/gaussian/g16.c01/l123.exe at Sun Jan 28 23:25:11 2024.
 Job cpu time:       1 days 12 hours 28 minutes  9.5 seconds.
 Elapsed time:       0 days  9 hours 11 minutes  2.4 seconds.
 File lengths (MBytes):  RWF=    243 Int=      0 D2E=      0 Chk=     14 Scr=      1
