 Entering Gaussian System, Link 0=/opt/software/gaussian/g16.c01/g16
 Initial command:
 /opt/software/gaussian/g16.c01/l1.exe "/scratch/arhender/25094681/Gau-16363.inp" -scrdir="/scratch/arhender/25094681/"
 Entering Link 1 = /opt/software/gaussian/g16.c01/l1.exe PID=     16364.
  
 Copyright (c) 1988-2019, Gaussian, Inc.  All Rights Reserved.
  
 This is part of the Gaussian(R) 16 program.  It is based on
 the Gaussian(R) 09 system (copyright 2009, Gaussian, Inc.),
 the Gaussian(R) 03 system (copyright 2003, Gaussian, Inc.),
 the Gaussian(R) 98 system (copyright 1998, Gaussian, Inc.),
 the Gaussian(R) 94 system (copyright 1995, Gaussian, Inc.),
 the Gaussian 92(TM) system (copyright 1992, Gaussian, Inc.),
 the Gaussian 90(TM) system (copyright 1990, Gaussian, Inc.),
 the Gaussian 88(TM) system (copyright 1988, Gaussian, Inc.),
 the Gaussian 86(TM) system (copyright 1986, Carnegie Mellon
 University), and the Gaussian 82(TM) system (copyright 1983,
 Carnegie Mellon University). Gaussian is a federally registered
 trademark of Gaussian, Inc.
  
 This software contains proprietary and confidential information,
 including trade secrets, belonging to Gaussian, Inc.
  
 This software is provided under written license and may be
 used, copied, transmitted, or stored only in accord with that
 written license.
  
 The following legend is applicable only to US Government
 contracts under FAR:
  
                    RESTRICTED RIGHTS LEGEND
  
 Use, reproduction and disclosure by the US Government is
 subject to restrictions as set forth in subparagraphs (a)
 and (c) of the Commercial Computer Software - Restricted
 Rights clause in FAR 52.227-19.
  
 Gaussian, Inc.
 340 Quinnipiac St., Bldg. 40, Wallingford CT 06492
  
  
 ---------------------------------------------------------------
 Warning -- This program may not be used in any manner that
 competes with the business of Gaussian, Inc. or will provide
 assistance to any competitor of Gaussian, Inc.  The licensee
 of this program is prohibited from giving any competitor of
 Gaussian, Inc. access to this program.  By using this program,
 the user acknowledges that Gaussian, Inc. is engaged in the
 business of creating and licensing software in the field of
 computational chemistry and represents and warrants to the
 licensee that it is not a competitor of Gaussian, Inc. and that
 it will not use this program in any manner prohibited above.
 ---------------------------------------------------------------
  

 Cite this work as:
 Gaussian 16, Revision C.01,
 M. J. Frisch, G. W. Trucks, H. B. Schlegel, G. E. Scuseria, 
 M. A. Robb, J. R. Cheeseman, G. Scalmani, V. Barone, 
 G. A. Petersson, H. Nakatsuji, X. Li, M. Caricato, A. V. Marenich, 
 J. Bloino, B. G. Janesko, R. Gomperts, B. Mennucci, H. P. Hratchian, 
 J. V. Ortiz, A. F. Izmaylov, J. L. Sonnenberg, D. Williams-Young, 
 F. Ding, F. Lipparini, F. Egidi, J. Goings, B. Peng, A. Petrone, 
 T. Henderson, D. Ranasinghe, V. G. Zakrzewski, J. Gao, N. Rega, 
 G. Zheng, W. Liang, M. Hada, M. Ehara, K. Toyota, R. Fukuda, 
 J. Hasegawa, M. Ishida, T. Nakajima, Y. Honda, O. Kitao, H. Nakai, 
 T. Vreven, K. Throssell, J. A. Montgomery, Jr., J. E. Peralta, 
 F. Ogliaro, M. J. Bearpark, J. J. Heyd, E. N. Brothers, K. N. Kudin, 
 V. N. Staroverov, T. A. Keith, R. Kobayashi, J. Normand, 
 K. Raghavachari, A. P. Rendell, J. C. Burant, S. S. Iyengar, 
 J. Tomasi, M. Cossi, J. M. Millam, M. Klene, C. Adamo, R. Cammi, 
 J. W. Ochterski, R. L. Martin, K. Morokuma, O. Farkas, 
 J. B. Foresman, and D. J. Fox, Gaussian, Inc., Wallingford CT, 2019.
 
 ******************************************
 Gaussian 16:  ES64L-G16RevC.01  3-Jul-2019
                12-Feb-2024 
 ******************************************
 %chk=PL3HL3_IRC_forward_productOpt.chk
 %mem=1600MB
 %nprocs=4
 Will use up to    4 processors via shared memory.
 ---------------------------------------------
 # opt freq wb97xd/def2tzvpp geom=connectivity
 ---------------------------------------------
 1/18=20,19=15,26=3,38=1,57=2/1,3;
 2/9=110,12=2,17=6,18=5,40=1/2;
 3/5=44,7=202,11=2,25=1,30=1,71=1,74=-58/1,2,3;
 4//1;
 5/5=2,38=5/2;
 6/7=2,8=2,9=2,10=2,28=1/1;
 7//1,2,3,16;
 1/18=20,19=15,26=3/3(2);
 2/9=110/2;
 99//99;
 2/9=110/2;
 3/5=44,7=202,11=2,25=1,30=1,71=1,74=-58/1,2,3;
 4/5=5,16=3,69=1/1;
 5/5=2,38=5/2;
 7//1,2,3,16;
 1/18=20,19=15,26=3/3(-5);
 2/9=110/2;
 6/7=2,8=2,9=2,10=2,19=2,28=1/1;
 99/9=1/99;
 --------------------------
 IRC P(=L)2(L) to H(=L)3 TS
 --------------------------
 Symbolic Z-matrix:
 Charge = -2 Multiplicity = 1
 Si                   -0.07865  -0.0236    0.03761 
 O                     0.88531  -0.96217  -1.17093 
 O                    -1.17096   0.78733   1.20764 
 O                    -1.57925  -0.53879  -0.83997 
 O                     0.06106   1.43156  -1.01276 
 O                     1.42456   0.5999    0.88424 
 O                     0.02408  -1.45328   1.10909 
 C                     1.93642   1.74856   0.35168 
 H                     3.04544   1.72989   0.30533 
 H                     1.66275   2.64127   0.95919 
 C                     1.34583   1.90957  -1.05845 
 H                     1.96612   1.33804  -1.77688 
 H                     1.36825   2.9721   -1.37361 
 C                     1.11842  -2.22252   0.79875 
 H                     2.04308  -1.81536   1.25059 
 H                     0.9959   -3.26074   1.16664 
 C                     1.2549   -2.20421  -0.73304 
 H                     2.29423  -2.45644  -1.03338 
 H                     0.60092  -2.99821  -1.15891 
 C                    -2.74577  -0.11246  -0.26854 
 H                    -3.49059   0.20065  -1.03072 
 H                    -3.22898  -0.91466   0.3348 
 C                    -2.39681   1.06299   0.65806 
 H                    -2.3777    1.99697   0.05961 
 H                    -3.1694    1.19027   1.4422 
 

 GradGradGradGradGradGradGradGradGradGradGradGradGradGradGradGradGradGrad
 Berny optimization.
 Initialization pass.
                           ----------------------------
                           !    Initial Parameters    !
                           ! (Angstroms and Degrees)  !
 --------------------------                            --------------------------
 ! Name  Definition              Value          Derivative Info.                !
 --------------------------------------------------------------------------------
 ! R1    R(1,2)                  1.8085         estimate D2E/DX2                !
 ! R2    R(1,3)                  1.7944         estimate D2E/DX2                !
 ! R3    R(1,4)                  1.8131         estimate D2E/DX2                !
 ! R4    R(1,5)                  1.8001         estimate D2E/DX2                !
 ! R5    R(1,6)                  1.8344         estimate D2E/DX2                !
 ! R6    R(1,7)                  1.7896         estimate D2E/DX2                !
 ! R7    R(2,17)                 1.3679         estimate D2E/DX2                !
 ! R8    R(3,23)                 1.3714         estimate D2E/DX2                !
 ! R9    R(4,20)                 1.3671         estimate D2E/DX2                !
 ! R10   R(5,11)                 1.3716         estimate D2E/DX2                !
 ! R11   R(6,8)                  1.3657         estimate D2E/DX2                !
 ! R12   R(7,14)                 1.3732         estimate D2E/DX2                !
 ! R13   R(8,9)                  1.1101         estimate D2E/DX2                !
 ! R14   R(8,10)                 1.114          estimate D2E/DX2                !
 ! R15   R(8,11)                 1.5373         estimate D2E/DX2                !
 ! R16   R(11,12)                1.1079         estimate D2E/DX2                !
 ! R17   R(11,13)                1.1085         estimate D2E/DX2                !
 ! R18   R(14,15)                1.1068         estimate D2E/DX2                !
 ! R19   R(14,16)                1.1083         estimate D2E/DX2                !
 ! R20   R(14,17)                1.538          estimate D2E/DX2                !
 ! R21   R(17,18)                1.1109         estimate D2E/DX2                !
 ! R22   R(17,19)                1.1133         estimate D2E/DX2                !
 ! R23   R(20,21)                1.1107         estimate D2E/DX2                !
 ! R24   R(20,22)                1.114          estimate D2E/DX2                !
 ! R25   R(20,23)                1.5369         estimate D2E/DX2                !
 ! R26   R(23,24)                1.1094         estimate D2E/DX2                !
 ! R27   R(23,25)                1.1081         estimate D2E/DX2                !
 ! A1    A(2,1,4)               88.2942         estimate D2E/DX2                !
 ! A2    A(2,1,5)               89.3252         estimate D2E/DX2                !
 ! A3    A(2,1,6)               92.7529         estimate D2E/DX2                !
 ! A4    A(2,1,7)               87.4154         estimate D2E/DX2                !
 ! A5    A(3,1,4)               86.5719         estimate D2E/DX2                !
 ! A6    A(3,1,5)               93.5775         estimate D2E/DX2                !
 ! A7    A(3,1,6)               92.5383         estimate D2E/DX2                !
 ! A8    A(3,1,7)               90.3198         estimate D2E/DX2                !
 ! A9    A(4,1,5)               90.6593         estimate D2E/DX2                !
 ! A10   A(4,1,7)               96.3331         estimate D2E/DX2                !
 ! A11   A(5,1,6)               86.0402         estimate D2E/DX2                !
 ! A12   A(6,1,7)               87.0286         estimate D2E/DX2                !
 ! A13   A(1,2,17)             113.6613         estimate D2E/DX2                !
 ! A14   A(1,3,23)             111.9426         estimate D2E/DX2                !
 ! A15   A(1,4,20)             114.5364         estimate D2E/DX2                !
 ! A16   A(1,5,11)             111.9545         estimate D2E/DX2                !
 ! A17   A(1,6,8)              114.3954         estimate D2E/DX2                !
 ! A18   A(1,7,14)             110.9751         estimate D2E/DX2                !
 ! A19   A(6,8,9)              112.1209         estimate D2E/DX2                !
 ! A20   A(6,8,10)             111.6721         estimate D2E/DX2                !
 ! A21   A(6,8,11)             107.5667         estimate D2E/DX2                !
 ! A22   A(9,8,10)             106.36           estimate D2E/DX2                !
 ! A23   A(9,8,11)             110.3191         estimate D2E/DX2                !
 ! A24   A(10,8,11)            108.7808         estimate D2E/DX2                !
 ! A25   A(5,11,8)             107.0261         estimate D2E/DX2                !
 ! A26   A(5,11,12)            111.4841         estimate D2E/DX2                !
 ! A27   A(5,11,13)            111.252          estimate D2E/DX2                !
 ! A28   A(8,11,12)            109.0078         estimate D2E/DX2                !
 ! A29   A(8,11,13)            110.6966         estimate D2E/DX2                !
 ! A30   A(12,11,13)           107.3837         estimate D2E/DX2                !
 ! A31   A(7,14,15)            111.5589         estimate D2E/DX2                !
 ! A32   A(7,14,16)            111.2024         estimate D2E/DX2                !
 ! A33   A(7,14,17)            106.8071         estimate D2E/DX2                !
 ! A34   A(15,14,16)           107.5457         estimate D2E/DX2                !
 ! A35   A(15,14,17)           109.1531         estimate D2E/DX2                !
 ! A36   A(16,14,17)           110.5841         estimate D2E/DX2                !
 ! A37   A(2,17,14)            107.799          estimate D2E/DX2                !
 ! A38   A(2,17,18)            111.8647         estimate D2E/DX2                !
 ! A39   A(2,17,19)            111.4947         estimate D2E/DX2                !
 ! A40   A(14,17,18)           110.4629         estimate D2E/DX2                !
 ! A41   A(14,17,19)           108.6853         estimate D2E/DX2                !
 ! A42   A(18,17,19)           106.5124         estimate D2E/DX2                !
 ! A43   A(4,20,21)            111.9168         estimate D2E/DX2                !
 ! A44   A(4,20,22)            111.8337         estimate D2E/DX2                !
 ! A45   A(4,20,23)            107.2634         estimate D2E/DX2                !
 ! A46   A(21,20,22)           106.4853         estimate D2E/DX2                !
 ! A47   A(21,20,23)           110.5101         estimate D2E/DX2                !
 ! A48   A(22,20,23)           108.8268         estimate D2E/DX2                !
 ! A49   A(3,23,20)            106.9076         estimate D2E/DX2                !
 ! A50   A(3,23,24)            111.7155         estimate D2E/DX2                !
 ! A51   A(3,23,25)            111.2676         estimate D2E/DX2                !
 ! A52   A(20,23,24)           108.8175         estimate D2E/DX2                !
 ! A53   A(20,23,25)           110.8648         estimate D2E/DX2                !
 ! A54   A(24,23,25)           107.2789         estimate D2E/DX2                !
 ! A55   L(2,1,3,4,-1)         174.866          estimate D2E/DX2                !
 ! A56   L(4,1,6,2,-1)         181.0471         estimate D2E/DX2                !
 ! A57   L(5,1,7,2,-1)         176.7407         estimate D2E/DX2                !
 ! A58   L(2,1,3,4,-2)         177.1502         estimate D2E/DX2                !
 ! A59   L(4,1,6,2,-2)         176.6825         estimate D2E/DX2                !
 ! A60   L(5,1,7,2,-2)         172.9004         estimate D2E/DX2                !
 ! D1    D(4,1,2,17)           -98.3216         estimate D2E/DX2                !
 ! D2    D(5,1,2,17)           170.9986         estimate D2E/DX2                !
 ! D3    D(6,1,2,17)            84.9958         estimate D2E/DX2                !
 ! D4    D(7,1,2,17)            -1.9018         estimate D2E/DX2                !
 ! D5    D(4,1,3,23)           -22.6796         estimate D2E/DX2                !
 ! D6    D(5,1,3,23)            67.7676         estimate D2E/DX2                !
 ! D7    D(6,1,3,23)           153.9553         estimate D2E/DX2                !
 ! D8    D(7,1,3,23)          -119.0049         estimate D2E/DX2                !
 ! D9    D(2,1,4,20)           177.3386         estimate D2E/DX2                !
 ! D10   D(3,1,4,20)             0.1884         estimate D2E/DX2                !
 ! D11   D(5,1,4,20)           -93.3562         estimate D2E/DX2                !
 ! D12   D(7,1,4,20)            90.1298         estimate D2E/DX2                !
 ! D13   D(2,1,5,11)           -68.7406         estimate D2E/DX2                !
 ! D14   D(3,1,5,11)           116.367          estimate D2E/DX2                !
 ! D15   D(4,1,5,11)          -157.0268         estimate D2E/DX2                !
 ! D16   D(6,1,5,11)            24.0658         estimate D2E/DX2                !
 ! D17   D(2,1,6,8)             87.2464         estimate D2E/DX2                !
 ! D18   D(3,1,6,8)            -95.2991         estimate D2E/DX2                !
 ! D19   D(5,1,6,8)             -1.8857         estimate D2E/DX2                !
 ! D20   D(7,1,6,8)            174.5122         estimate D2E/DX2                !
 ! D21   D(2,1,7,14)            24.2632         estimate D2E/DX2                !
 ! D22   D(3,1,7,14)          -161.1558         estimate D2E/DX2                !
 ! D23   D(4,1,7,14)           112.2579         estimate D2E/DX2                !
 ! D24   D(6,1,7,14)           -68.6307         estimate D2E/DX2                !
 ! D25   D(1,2,17,14)          -18.0087         estimate D2E/DX2                !
 ! D26   D(1,2,17,18)         -139.641          estimate D2E/DX2                !
 ! D27   D(1,2,17,19)          101.2041         estimate D2E/DX2                !
 ! D28   D(1,3,23,20)           36.9493         estimate D2E/DX2                !
 ! D29   D(1,3,23,24)          -81.9937         estimate D2E/DX2                !
 ! D30   D(1,3,23,25)          158.1322         estimate D2E/DX2                !
 ! D31   D(1,4,20,21)          140.5862         estimate D2E/DX2                !
 ! D32   D(1,4,20,22)         -100.0265         estimate D2E/DX2                !
 ! D33   D(1,4,20,23)           19.2193         estimate D2E/DX2                !
 ! D34   D(1,5,11,8)           -37.9216         estimate D2E/DX2                !
 ! D35   D(1,5,11,12)           81.195          estimate D2E/DX2                !
 ! D36   D(1,5,11,13)         -158.9649         estimate D2E/DX2                !
 ! D37   D(1,6,8,9)           -139.1405         estimate D2E/DX2                !
 ! D38   D(1,6,8,10)           101.6036         estimate D2E/DX2                !
 ! D39   D(1,6,8,11)           -17.6835         estimate D2E/DX2                !
 ! D40   D(1,7,14,15)           81.188          estimate D2E/DX2                !
 ! D41   D(1,7,14,16)         -158.7495         estimate D2E/DX2                !
 ! D42   D(1,7,14,17)          -38.0118         estimate D2E/DX2                !
 ! D43   D(6,8,11,5)            35.1252         estimate D2E/DX2                !
 ! D44   D(6,8,11,12)          -85.5793         estimate D2E/DX2                !
 ! D45   D(6,8,11,13)          156.5199         estimate D2E/DX2                !
 ! D46   D(9,8,11,5)           157.7012         estimate D2E/DX2                !
 ! D47   D(9,8,11,12)           36.9967         estimate D2E/DX2                !
 ! D48   D(9,8,11,13)          -80.9042         estimate D2E/DX2                !
 ! D49   D(10,8,11,5)          -85.9923         estimate D2E/DX2                !
 ! D50   D(10,8,11,12)         153.3032         estimate D2E/DX2                !
 ! D51   D(10,8,11,13)          35.4023         estimate D2E/DX2                !
 ! D52   D(7,14,17,2)           35.7166         estimate D2E/DX2                !
 ! D53   D(7,14,17,18)         158.2152         estimate D2E/DX2                !
 ! D54   D(7,14,17,19)         -85.2691         estimate D2E/DX2                !
 ! D55   D(15,14,17,2)         -85.0309         estimate D2E/DX2                !
 ! D56   D(15,14,17,18)         37.4677         estimate D2E/DX2                !
 ! D57   D(15,14,17,19)        153.9834         estimate D2E/DX2                !
 ! D58   D(16,14,17,2)         156.8482         estimate D2E/DX2                !
 ! D59   D(16,14,17,18)        -80.6532         estimate D2E/DX2                !
 ! D60   D(16,14,17,19)         35.8625         estimate D2E/DX2                !
 ! D61   D(4,20,23,3)          -35.4613         estimate D2E/DX2                !
 ! D62   D(4,20,23,24)          85.3448         estimate D2E/DX2                !
 ! D63   D(4,20,23,25)        -156.8994         estimate D2E/DX2                !
 ! D64   D(21,20,23,3)        -157.7085         estimate D2E/DX2                !
 ! D65   D(21,20,23,24)        -36.9024         estimate D2E/DX2                !
 ! D66   D(21,20,23,25)         80.8534         estimate D2E/DX2                !
 ! D67   D(22,20,23,3)          85.6987         estimate D2E/DX2                !
 ! D68   D(22,20,23,24)       -153.4952         estimate D2E/DX2                !
 ! D69   D(22,20,23,25)        -35.7394         estimate D2E/DX2                !
 --------------------------------------------------------------------------------
 Trust Radius=3.00D-01 FncErr=1.00D-07 GrdErr=1.00D-06 EigMax=2.50D+02 EigMin=1.00D-04
 Number of steps in this run=    150 maximum allowed number of steps=    150.
 GradGradGradGradGradGradGradGradGradGradGradGradGradGradGradGradGradGrad

                          Input orientation:                          
 ---------------------------------------------------------------------
 Center     Atomic      Atomic             Coordinates (Angstroms)
 Number     Number       Type             X           Y           Z
 ---------------------------------------------------------------------
      1         14           0       -0.078653   -0.023600    0.037611
      2          8           0        0.885311   -0.962165   -1.170932
      3          8           0       -1.170959    0.787327    1.207636
      4          8           0       -1.579251   -0.538792   -0.839968
      5          8           0        0.061061    1.431563   -1.012765
      6          8           0        1.424558    0.599901    0.884240
      7          8           0        0.024083   -1.453279    1.109095
      8          6           0        1.936415    1.748563    0.351681
      9          1           0        3.045439    1.729894    0.305328
     10          1           0        1.662747    2.641267    0.959193
     11          6           0        1.345832    1.909571   -1.058452
     12          1           0        1.966118    1.338043   -1.776879
     13          1           0        1.368253    2.972101   -1.373613
     14          6           0        1.118416   -2.222520    0.798746
     15          1           0        2.043081   -1.815360    1.250588
     16          1           0        0.995903   -3.260737    1.166635
     17          6           0        1.254895   -2.204209   -0.733041
     18          1           0        2.294228   -2.456443   -1.033383
     19          1           0        0.600920   -2.998209   -1.158914
     20          6           0       -2.745773   -0.112459   -0.268537
     21          1           0       -3.490590    0.200647   -1.030718
     22          1           0       -3.228981   -0.914664    0.334803
     23          6           0       -2.396809    1.062994    0.658063
     24          1           0       -2.377702    1.996970    0.059605
     25          1           0       -3.169404    1.190271    1.442198
 ---------------------------------------------------------------------
                    Distance matrix (angstroms):
                    1          2          3          4          5
     1  Si   0.000000
     2  O    1.808510   0.000000
     3  O    1.794350   3.598132   0.000000
     4  O    1.813108   2.522469   2.473454   0.000000
     5  O    1.800086   2.536600   2.619751   2.569588   0.000000
     6  O    1.834442   2.637152   2.622293   3.645872   2.479801
     7  O    1.789585   2.486248   2.541289   2.684365   3.581336
     8  C    2.701796   3.281953   3.363392   4.360267   2.340759
     9  H    3.592543   3.754022   4.413684   5.276969   3.276108
    10  H    3.314107   4.257530   3.395395   4.884701   2.813788
    11  C    2.639633   2.910601   3.567748   3.820776   1.371574
    12  H    3.054101   2.612714   4.364845   4.119460   2.054716
    13  H    3.613767   3.968975   4.228910   4.615076   2.052369
    14  C    2.616782   2.349992   3.803631   3.577392   4.213300
    15  H    3.030424   2.816404   4.135925   4.372795   4.426475
    16  H    3.592829   3.280226   4.591709   4.250513   5.257508
    17  C    2.669702   1.367850   4.312804   3.288986   3.836968
    18  H    3.563189   2.058357   5.248974   4.326504   4.483754
    19  H    3.277467   2.055845   4.803165   3.302061   4.464940
    20  C    2.686103   3.836807   2.338534   1.367138   3.288799
    21  H    3.582308   4.529934   3.276448   2.058245   3.758949
    22  H    3.287383   4.381426   2.809638   2.059848   4.259706
    23  C    2.634292   4.268349   1.371397   2.340559   2.994768
    24  H    3.060852   4.573615   2.058504   2.806572   2.723459
    25  H    3.605425   5.282248   2.052112   3.275138   4.064600
                    6          7          8          9         10
     6  O    0.000000
     7  O    2.495484   0.000000
     8  C    1.365665   3.805586   0.000000
     9  H    2.058951   4.461751   1.110149   0.000000
    10  H    2.056581   4.412822   1.113950   1.780443   0.000000
    11  C    2.344245   4.213554   1.537266   2.186514   2.169494
    12  H    2.814195   4.460025   2.167989   2.377828   3.045737
    13  H    3.275424   5.249249   2.190090   2.678596   2.374481
    14  C    2.840263   1.373176   4.079030   4.424755   4.896781
    15  H    2.519974   2.056083   3.677086   3.803559   4.482308
    16  H    3.894614   2.052961   5.161569   5.463410   5.943178
    17  C    3.241515   2.339286   4.155177   4.445382   5.148654
    18  H    3.711447   3.278736   4.441678   4.458910   5.509607
    19  H    4.218916   2.804178   5.157256   5.520384   6.116988
    20  C    4.384976   3.371612   5.076510   6.104238   5.340915
    21  H    5.290099   4.434771   5.810289   6.844216   6.039309
    22  H    4.924552   3.387043   5.811573   6.809031   6.079762
    23  C    3.855964   3.520764   4.397807   5.494292   4.365962
    24  H    4.133885   4.332923   4.331122   5.435271   4.189225
    25  H    4.665227   4.159047   5.250743   6.340973   5.068369
                   11         12         13         14         15
    11  C    0.000000
    12  H    1.107942   0.000000
    13  H    1.108512   1.786116   0.000000
    14  C    4.535976   4.475495   5.636102   0.000000
    15  H    4.437672   4.372120   5.501055   1.106773   0.000000
    16  H    5.639641   5.545662   6.740903   1.108263   1.786825
    17  C    4.127632   3.760716   5.217027   1.537964   2.169614
    18  H    4.467903   3.880537   5.517452   2.189509   2.385495
    19  H    4.965007   4.587889   6.023246   2.168393   3.047074
    20  C    4.631825   5.155673   5.259364   4.530277   5.304784
    21  H    5.129539   5.623708   5.604185   5.519204   6.315865
    22  H    5.553951   6.043421   6.257810   4.563506   5.426284
    23  C    4.203627   5.003971   4.684879   4.813647   5.324343
    24  H    3.888752   4.761894   4.127611   5.529310   5.957820
    25  H    5.211334   6.062828   5.629746   5.517841   6.020011
                   16         17         18         19         20
    16  H    0.000000
    17  C    2.189086   0.000000
    18  H    2.678174   1.110874   0.000000
    19  H    2.373418   1.113323   1.782291   0.000000
    20  C    5.096225   4.538340   5.610781   4.507846   0.000000
    21  H    6.077677   5.328374   6.365866   5.195149   1.110724
    22  H    4.903636   4.786268   5.895325   4.608741   1.114021
    23  C    5.519401   5.093597   6.103544   5.364807   1.536897
    24  H    6.344305   5.610165   6.546330   5.942120   2.166297
    25  H    6.102228   5.985698   7.019850   6.206810   2.191617
                   21         22         23         24         25
    21  H    0.000000
    22  H    1.782416   0.000000
    23  C    2.189059   2.169825   0.000000
    24  H    2.377835   3.045985   1.109427   0.000000
    25  H    2.682877   2.379207   1.108138   1.785810   0.000000
 Stoichiometry    C6H12O6Si(2-)
 Framework group  C1[X(C6H12O6Si)]
 Deg. of freedom    69
 Full point group                 C1      NOp   1
 Largest Abelian subgroup         C1      NOp   1
 Largest concise Abelian subgroup C1      NOp   1
                         Standard orientation:                         
 ---------------------------------------------------------------------
 Center     Atomic      Atomic             Coordinates (Angstroms)
 Number     Number       Type             X           Y           Z
 ---------------------------------------------------------------------
      1         14           0        0.077257   -0.053443   -0.032232
      2          8           0       -1.192014   -0.568943    1.148411
      3          8           0        1.429295    0.306768   -1.155591
      4          8           0        1.304201   -0.900120    0.999809
      5          8           0        0.304256    1.465115    0.907322
      6          8           0       -1.122432    0.899981   -1.040651
      7          8           0       -0.372349   -1.479966   -1.014831
      8          6           0       -1.308068    2.188421   -0.627733
      9          1           0       -2.374729    2.492620   -0.673866
     10          1           0       -0.748221    2.909643   -1.265931
     11          6           0       -0.784857    2.293563    0.813926
     12          1           0       -1.588449    1.987702    1.512658
     13          1           0       -0.515131    3.340828    1.057409
     14          6           0       -1.660818   -1.873513   -0.749162
     15          1           0       -2.396146   -1.258583   -1.302425
     16          1           0       -1.824649   -2.930803   -1.038202
     17          6           0       -1.880701   -1.685596    0.761358
     18          1           0       -2.964899   -1.602469    0.988612
     19          1           0       -1.515185   -2.594232    1.290760
     20          6           0        2.577490   -0.876843    0.502557
     21          1           0        3.332539   -0.726349    1.303156
     22          1           0        2.841474   -1.832561   -0.005337
     23          6           0        2.645627    0.265367   -0.523489
     24          1           0        2.863359    1.213305    0.010210
     25          1           0        3.468748    0.098032   -1.246289
 ---------------------------------------------------------------------
 Rotational constants (GHZ):           0.9787678           0.8490124           0.6263447
 Standard basis: def2TZVPP (5D, 7F)
 There are   660 symmetry adapted cartesian basis functions of A   symmetry.
 There are   582 symmetry adapted basis functions of A   symmetry.
   582 basis functions,   885 primitive gaussians,   660 cartesian basis functions
    56 alpha electrons       56 beta electrons
       nuclear repulsion energy      1125.7560591671 Hartrees.
 NAtoms=   25 NActive=   25 NUniq=   25 SFac= 1.00D+00 NAtFMM=   60 NAOKFM=F Big=F
 Integral buffers will be    131072 words long.
 Raffenetti 2 integral format.
 Two-electron integral symmetry is turned on.
 Nuclear repulsion after empirical dispersion term =     1125.7404192376 Hartrees.
 One-electron integrals computed using PRISM.
   1 Symmetry operations used in ECPInt.
 ECPInt:  NShTT=   23871 NPrTT=   66401 LenC2=   22561 LenP2D=   48030.
 LDataN:  DoStor=T MaxTD1= 6 Len=  172
 NBasis=   582 RedAO= T EigKep=  2.44D-04  NBF=   582
 NBsUse=   582 1.00D-06 EigRej= -1.00D+00 NBFU=   582
 ExpMin= 7.01D-02 ExpMax= 4.48D+04 ExpMxC= 1.53D+03 IAcc=3 IRadAn=         5 AccDes= 0.00D+00
 Harris functional with IExCor= 4639 and IRadAn=       5 diagonalized for initial guess.
 HarFok:  IExCor= 4639 AccDes= 0.00D+00 IRadAn=         5 IDoV= 1 UseB2=F ITyADJ=14
 ICtDFT=  3500011 ScaDFX=  1.000000  1.000000  1.000000  1.000000
 FoFCou: FMM=F IPFlag=           0 FMFlag=      100000 FMFlg1=           0
         NFxFlg=           0 DoJE=T BraDBF=F KetDBF=T FulRan=T
         wScrn=  0.000000 ICntrl=       500 IOpCl=  0 I1Cent=   200000004 NGrid=           0
         NMat0=    1 NMatS0=      1 NMatT0=    0 NMatD0=    1 NMtDS0=    0 NMtDT0=    0
 Petite list used in FoFCou.
 Requested convergence on RMS density matrix=1.00D-08 within 128 cycles.
 Requested convergence on MAX density matrix=1.00D-06.
 Requested convergence on             energy=1.00D-06.
 No special actions if energy rises.
 Integral accuracy reduced to 1.0D-05 until final iterations.
 Initial convergence to 1.0D-05 achieved.  Increase integral accuracy.
 SCF Done:  E(RwB97XD) =  -976.871299663     A.U. after   15 cycles
            NFock= 15  Conv=0.47D-08     -V/T= 2.0037

 **********************************************************************

            Population analysis using the SCF Density.

 **********************************************************************

 Orbital symmetries:
       Occupied  (A) (A) (A) (A) (A) (A) (A) (A) (A) (A) (A) (A)
                 (A) (A) (A) (A) (A) (A) (A) (A) (A) (A) (A) (A)
                 (A) (A) (A) (A) (A) (A) (A) (A) (A) (A) (A) (A)
                 (A) (A) (A) (A) (A) (A) (A) (A) (A) (A) (A) (A)
                 (A) (A) (A) (A) (A) (A) (A) (A)
       Virtual   (A) (A) (A) (A) (A) (A) (A) (A) (A) (A) (A) (A)
                 (A) (A) (A) (A) (A) (A) (A) (A) (A) (A) (A) (A)
                 (A) (A) (A) (A) (A) (A) (A) (A) (A) (A) (A) (A)
                 (A) (A) (A) (A) (A) (A) (A) (A) (A) (A) (A) (A)
                 (A) (A) (A) (A) (A) (A) (A) (A) (A) (A) (A) (A)
                 (A) (A) (A) (A) (A) (A) (A) (A) (A) (A) (A) (A)
                 (A) (A) (A) (A) (A) (A) (A) (A) (A) (A) (A) (A)
                 (A) (A) (A) (A) (A) (A) (A) (A) (A) (A) (A) (A)
                 (A) (A) (A) (A) (A) (A) (A) (A) (A) (A) (A) (A)
                 (A) (A) (A) (A) (A) (A) (A) (A) (A) (A) (A) (A)
                 (A) (A) (A) (A) (A) (A) (A) (A) (A) (A) (A) (A)
                 (A) (A) (A) (A) (A) (A) (A) (A) (A) (A) (A) (A)
                 (A) (A) (A) (A) (A) (A) (A) (A) (A) (A) (A) (A)
                 (A) (A) (A) (A) (A) (A) (A) (A) (A) (A) (A) (A)
                 (A) (A) (A) (A) (A) (A) (A) (A) (A) (A) (A) (A)
                 (A) (A) (A) (A) (A) (A) (A) (A) (A) (A) (A) (A)
                 (A) (A) (A) (A) (A) (A) (A) (A) (A) (A) (A) (A)
                 (A) (A) (A) (A) (A) (A) (A) (A) (A) (A) (A) (A)
                 (A) (A) (A) (A) (A) (A) (A) (A) (A) (A) (A) (A)
                 (A) (A) (A) (A) (A) (A) (A) (A) (A) (A) (A) (A)
                 (A) (A) (A) (A) (A) (A) (A) (A) (A) (A) (A) (A)
                 (A) (A) (A) (A) (A) (A) (A) (A) (A) (A) (A) (A)
                 (A) (A) (A) (A) (A) (A) (A) (A) (A) (A) (A) (A)
                 (A) (A) (A) (A) (A) (A) (A) (A) (A) (A) (A) (A)
                 (A) (A) (A) (A) (A) (A) (A) (A) (A) (A) (A) (A)
                 (A) (A) (A) (A) (A) (A) (A) (A) (A) (A) (A) (A)
                 (A) (A) (A) (A) (A) (A) (A) (A) (A) (A) (A) (A)
                 (A) (A) (A) (A) (A) (A) (A) (A) (A) (A) (A) (A)
                 (A) (A) (A) (A) (A) (A) (A) (A) (A) (A) (A) (A)
                 (A) (A) (A) (A) (A) (A) (A) (A) (A) (A) (A) (A)
                 (A) (A) (A) (A) (A) (A) (A) (A) (A) (A) (A) (A)
                 (A) (A) (A) (A) (A) (A) (A) (A) (A) (A) (A) (A)
                 (A) (A) (A) (A) (A) (A) (A) (A) (A) (A) (A) (A)
                 (A) (A) (A) (A) (A) (A) (A) (A) (A) (A) (A) (A)
                 (A) (A) (A) (A) (A) (A) (A) (A) (A) (A) (A) (A)
                 (A) (A) (A) (A) (A) (A) (A) (A) (A) (A) (A) (A)
                 (A) (A) (A) (A) (A) (A) (A) (A) (A) (A) (A) (A)
                 (A) (A) (A) (A) (A) (A) (A) (A) (A) (A) (A) (A)
                 (A) (A) (A) (A) (A) (A) (A) (A) (A) (A) (A) (A)
                 (A) (A) (A) (A) (A) (A) (A) (A) (A) (A) (A) (A)
                 (A) (A) (A) (A) (A) (A) (A) (A) (A) (A) (A) (A)
                 (A) (A) (A) (A) (A) (A) (A) (A) (A) (A) (A) (A)
                 (A) (A) (A) (A) (A) (A) (A) (A) (A) (A) (A) (A)
                 (A) (A) (A) (A) (A) (A) (A) (A) (A) (A)
 The electronic state is 1-A.
 Alpha  occ. eigenvalues --  -65.97017 -18.88434 -18.88386 -18.88329 -18.88114
 Alpha  occ. eigenvalues --  -18.88092 -18.87949 -10.02344 -10.02300 -10.02232
 Alpha  occ. eigenvalues --  -10.02198 -10.02015 -10.01904  -5.07501  -3.42093
 Alpha  occ. eigenvalues --   -3.42053  -3.42028  -0.81234  -0.78465  -0.78092
 Alpha  occ. eigenvalues --   -0.74350  -0.73303  -0.73068  -0.51472  -0.49443
 Alpha  occ. eigenvalues --   -0.49222  -0.38813  -0.37944  -0.37194  -0.30806
 Alpha  occ. eigenvalues --   -0.27470  -0.26752  -0.26465  -0.25463  -0.25041
 Alpha  occ. eigenvalues --   -0.24553  -0.20771  -0.19844  -0.19465  -0.18372
 Alpha  occ. eigenvalues --   -0.17882  -0.17444  -0.15710  -0.14843  -0.07528
 Alpha  occ. eigenvalues --   -0.06511  -0.06407  -0.05862  -0.04334  -0.04006
 Alpha  occ. eigenvalues --   -0.03676  -0.03226  -0.02271  -0.01385   0.00762
 Alpha  occ. eigenvalues --    0.01272
 Alpha virt. eigenvalues --    0.36996   0.37812   0.38027   0.40981   0.41117
 Alpha virt. eigenvalues --    0.41357   0.41811   0.42211   0.42812   0.43407
 Alpha virt. eigenvalues --    0.46334   0.47110   0.47739   0.48408   0.48778
 Alpha virt. eigenvalues --    0.51532   0.52974   0.53135   0.53287   0.54274
 Alpha virt. eigenvalues --    0.54706   0.55474   0.56199   0.56230   0.59084
 Alpha virt. eigenvalues --    0.61450   0.61823   0.63077   0.65827   0.66089
 Alpha virt. eigenvalues --    0.66757   0.67949   0.68806   0.69488   0.70595
 Alpha virt. eigenvalues --    0.70926   0.71368   0.71701   0.72540   0.73578
 Alpha virt. eigenvalues --    0.73750   0.73887   0.74387   0.76022   0.76260
 Alpha virt. eigenvalues --    0.76486   0.77143   0.78027   0.78493   0.78604
 Alpha virt. eigenvalues --    0.79219   0.79886   0.80498   0.80779   0.81133
 Alpha virt. eigenvalues --    0.81501   0.82051   0.82764   0.84699   0.85635
 Alpha virt. eigenvalues --    0.86203   0.87072   0.87421   0.89156   0.89667
 Alpha virt. eigenvalues --    0.91626   0.91890   0.93003   0.93505   0.97096
 Alpha virt. eigenvalues --    0.97884   0.99271   0.99678   1.00876   1.03828
 Alpha virt. eigenvalues --    1.05774   1.06390   1.06749   1.08390   1.09341
 Alpha virt. eigenvalues --    1.10503   1.11856   1.12572   1.13611   1.14481
 Alpha virt. eigenvalues --    1.15780   1.16283   1.16674   1.17571   1.18063
 Alpha virt. eigenvalues --    1.19631   1.20641   1.20899   1.22049   1.22889
 Alpha virt. eigenvalues --    1.23251   1.25335   1.26041   1.28049   1.29610
 Alpha virt. eigenvalues --    1.30442   1.31201   1.32280   1.33157   1.34022
 Alpha virt. eigenvalues --    1.34432   1.35239   1.35829   1.36067   1.37026
 Alpha virt. eigenvalues --    1.37914   1.39785   1.40818   1.42409   1.42833
 Alpha virt. eigenvalues --    1.43754   1.44765   1.45609   1.46160   1.47226
 Alpha virt. eigenvalues --    1.48275   1.48817   1.49440   1.51885   1.52800
 Alpha virt. eigenvalues --    1.52967   1.54092   1.54957   1.55952   1.56366
 Alpha virt. eigenvalues --    1.57427   1.57764   1.58484   1.59616   1.60825
 Alpha virt. eigenvalues --    1.62194   1.62600   1.63416   1.64338   1.65949
 Alpha virt. eigenvalues --    1.67481   1.67940   1.69520   1.70601   1.70982
 Alpha virt. eigenvalues --    1.72074   1.72284   1.72607   1.74472   1.75091
 Alpha virt. eigenvalues --    1.76392   1.77531   1.77933   1.79515   1.80691
 Alpha virt. eigenvalues --    1.81794   1.82132   1.83524   1.84665   1.86580
 Alpha virt. eigenvalues --    1.88048   1.89391   1.90092   1.91146   1.91675
 Alpha virt. eigenvalues --    1.92385   1.93483   1.94853   1.96120   1.97886
 Alpha virt. eigenvalues --    1.99309   2.00525   2.03277   2.05034   2.05599
 Alpha virt. eigenvalues --    2.08799   2.10228   2.10244   2.16954   2.18217
 Alpha virt. eigenvalues --    2.19160   2.21584   2.24676   2.25398   2.30003
 Alpha virt. eigenvalues --    2.30187   2.35174   2.36235   2.37818   2.38628
 Alpha virt. eigenvalues --    2.40016   2.40763   2.41304   2.41407   2.42972
 Alpha virt. eigenvalues --    2.45191   2.46866   2.47669   2.49237   2.50483
 Alpha virt. eigenvalues --    2.50746   2.52788   2.55256   2.55947   2.57058
 Alpha virt. eigenvalues --    2.58125   2.59009   2.59742   2.63399   2.65446
 Alpha virt. eigenvalues --    2.69731   2.70010   2.71322   2.72134   2.74177
 Alpha virt. eigenvalues --    2.76368   2.78830   2.78920   2.80183   2.82571
 Alpha virt. eigenvalues --    2.83397   2.86417   2.88217   2.89885   2.91286
 Alpha virt. eigenvalues --    2.92889   2.97681   2.97956   2.98891   3.00197
 Alpha virt. eigenvalues --    3.00624   3.01580   3.02544   3.02914   3.03724
 Alpha virt. eigenvalues --    3.03940   3.05719   3.06130   3.13145   3.14336
 Alpha virt. eigenvalues --    3.15444   3.16211   3.17286   3.18520   3.19863
 Alpha virt. eigenvalues --    3.21604   3.21869   3.22917   3.24220   3.24789
 Alpha virt. eigenvalues --    3.25522   3.27907   3.28238   3.29374   3.31839
 Alpha virt. eigenvalues --    3.33286   3.34916   3.35411   3.36053   3.36556
 Alpha virt. eigenvalues --    3.37128   3.38539   3.39373   3.39795   3.41066
 Alpha virt. eigenvalues --    3.42556   3.43097   3.43412   3.46346   3.48279
 Alpha virt. eigenvalues --    3.49261   3.50016   3.51176   3.52262   3.52394
 Alpha virt. eigenvalues --    3.53177   3.53428   3.53589   3.55225   3.57099
 Alpha virt. eigenvalues --    3.58113   3.58634   3.60975   3.62555   3.63212
 Alpha virt. eigenvalues --    3.64534   3.64710   3.66550   3.68307   3.68945
 Alpha virt. eigenvalues --    3.69459   3.70738   3.72618   3.73307   3.75706
 Alpha virt. eigenvalues --    3.77024   3.77738   3.78785   3.80552   3.83328
 Alpha virt. eigenvalues --    3.85012   3.87063   3.87567   3.88851   3.90706
 Alpha virt. eigenvalues --    3.91105   3.91910   3.93734   3.94251   3.94486
 Alpha virt. eigenvalues --    3.95389   3.96368   3.98132   4.01016   4.01626
 Alpha virt. eigenvalues --    4.01946   4.04391   4.05980   4.06686   4.07487
 Alpha virt. eigenvalues --    4.08158   4.08540   4.10726   4.11940   4.12431
 Alpha virt. eigenvalues --    4.13090   4.13477   4.14042   4.14591   4.15557
 Alpha virt. eigenvalues --    4.16754   4.19191   4.21898   4.22711   4.23398
 Alpha virt. eigenvalues --    4.23786   4.24210   4.32666   4.33413   4.34352
 Alpha virt. eigenvalues --    4.35052   4.35530   4.36062   4.36926   4.37577
 Alpha virt. eigenvalues --    4.37992   4.41251   4.41695   4.42932   4.47121
 Alpha virt. eigenvalues --    4.47635   4.48205   4.50013   4.51322   4.52605
 Alpha virt. eigenvalues --    4.53349   4.54264   4.54959   4.56902   4.58357
 Alpha virt. eigenvalues --    4.59925   4.61833   4.62493   4.63424   4.64561
 Alpha virt. eigenvalues --    4.65935   4.66595   4.67889   4.68865   4.70551
 Alpha virt. eigenvalues --    4.72072   4.72345   4.73707   4.77148   4.79056
 Alpha virt. eigenvalues --    4.80579   4.87162   4.88430   4.90985   4.92013
 Alpha virt. eigenvalues --    4.93308   4.94423   4.95391   4.96569   4.97353
 Alpha virt. eigenvalues --    4.98427   5.00400   5.03342   5.04475   5.05116
 Alpha virt. eigenvalues --    5.08000   5.12221   5.12906   5.14502   5.16008
 Alpha virt. eigenvalues --    5.16795   5.17945   5.19086   5.20071   5.20849
 Alpha virt. eigenvalues --    5.22522   5.23869   5.24286   5.27919   5.28648
 Alpha virt. eigenvalues --    5.29269   5.31146   5.31696   5.33647   5.36020
 Alpha virt. eigenvalues --    5.38318   5.40899   5.41710   5.43696   5.44814
 Alpha virt. eigenvalues --    5.45921   5.47165   5.48096   5.49554   5.51687
 Alpha virt. eigenvalues --    5.52687   5.55472   5.56595   5.61488   5.64715
 Alpha virt. eigenvalues --    5.65646   5.66047   5.67635   5.67873   5.68315
 Alpha virt. eigenvalues --    5.71774   5.74147   5.78438   5.79012   5.80305
 Alpha virt. eigenvalues --    5.83952   5.85969   5.86380   5.86923   5.87742
 Alpha virt. eigenvalues --    5.88167   5.89554   5.89851   5.90841   5.93055
 Alpha virt. eigenvalues --    5.94225   5.95763   5.97743   5.99200   5.99822
 Alpha virt. eigenvalues --    6.01712   6.02057   6.03510   6.06279   6.09228
 Alpha virt. eigenvalues --    6.12875   6.13344   6.14685   6.15898   6.17454
 Alpha virt. eigenvalues --    6.38269   6.39631   6.40963   6.43128   6.44646
 Alpha virt. eigenvalues --    6.49029   6.50212   6.50570   6.52244   6.52757
 Alpha virt. eigenvalues --    6.55065   6.56899   6.57775   6.58353   6.60924
 Alpha virt. eigenvalues --    6.63795   6.65631   6.68120   6.74461   6.76702
 Alpha virt. eigenvalues --    7.01188   7.01778   7.04222   7.05875   7.07991
 Alpha virt. eigenvalues --    7.10777   7.12787   7.16442   7.18197   7.18500
 Alpha virt. eigenvalues --    7.24014   7.27743   7.34811   7.35456   7.36236
 Alpha virt. eigenvalues --    7.37731   7.40680   7.42024   7.47978   7.49834
 Alpha virt. eigenvalues --    7.51202   7.56472   7.61879   7.63881   7.66013
 Alpha virt. eigenvalues --    7.70469   7.73997   7.77479   7.78477   7.84373
 Alpha virt. eigenvalues --    7.91525   7.96111   7.99538  11.98918  23.67551
 Alpha virt. eigenvalues --   23.70814  23.72360  23.82019  23.83236  23.83890
 Alpha virt. eigenvalues --   44.56851  44.58592  44.60609  44.72424  44.76119
 Alpha virt. eigenvalues --   44.80800
          Condensed to atoms (all electrons):
               1          2          3          4          5          6
     1  Si  11.464327   0.321272   0.355390   0.345578   0.343835   0.305851
     2  O    0.321272   8.126677   0.004957  -0.045047  -0.053825  -0.026804
     3  O    0.355390   0.004957   8.115725  -0.038939  -0.037196  -0.038099
     4  O    0.345578  -0.045047  -0.038939   8.110273  -0.045774   0.004280
     5  O    0.343835  -0.053825  -0.037196  -0.045774   8.139779  -0.035605
     6  O    0.305851  -0.026804  -0.038099   0.004280  -0.035605   8.151636
     7  O    0.378343  -0.041050  -0.048653  -0.026721   0.004253  -0.063759
     8  C   -0.040979  -0.001525   0.006053  -0.002099  -0.119966   0.417361
     9  H    0.001276   0.000664  -0.000581   0.000042   0.007276  -0.053343
    10  H   -0.015997  -0.000379   0.004638   0.000027   0.017127  -0.065924
    11  C   -0.029101   0.000794  -0.004097   0.003489   0.377658  -0.125416
    12  H   -0.031807   0.021591  -0.000578   0.000694  -0.059987   0.014935
    13  H   -0.000923   0.000079  -0.000414  -0.000187  -0.045705   0.007253
    14  C   -0.034390  -0.118231   0.003263  -0.004662  -0.003366  -0.008100
    15  H   -0.031284   0.013008   0.000518  -0.000526   0.000337   0.026044
    16  H    0.000139   0.007014  -0.000119   0.000039   0.000017   0.000053
    17  C   -0.046129   0.408940  -0.002142   0.006534   0.001621   0.000240
    18  H    0.000790  -0.052583   0.000048  -0.000660  -0.000326   0.000114
    19  H   -0.008411  -0.066117   0.000020   0.005817  -0.000180  -0.000218
    20  C   -0.048016   0.000882  -0.129127   0.420567  -0.004692  -0.001992
    21  H   -0.011912  -0.000329   0.007025  -0.049224   0.001571   0.000083
    22  H    0.012525   0.000283   0.016025  -0.074799  -0.000854   0.000053
    23  C   -0.066973  -0.002279   0.396282  -0.134838  -0.003712  -0.001755
    24  H    0.006007   0.000293  -0.068863   0.013805   0.016589   0.001318
    25  H   -0.006472   0.000053  -0.047952   0.007123   0.000059  -0.000360
               7          8          9         10         11         12
     1  Si   0.378343  -0.040979   0.001276  -0.015997  -0.029101  -0.031807
     2  O   -0.041050  -0.001525   0.000664  -0.000379   0.000794   0.021591
     3  O   -0.048653   0.006053  -0.000581   0.004638  -0.004097  -0.000578
     4  O   -0.026721  -0.002099   0.000042   0.000027   0.003489   0.000694
     5  O    0.004253  -0.119966   0.007276   0.017127   0.377658  -0.059987
     6  O   -0.063759   0.417361  -0.053343  -0.065924  -0.125416   0.014935
     7  O    8.115122   0.000600  -0.000556   0.000006  -0.003939   0.000300
     8  C    0.000600   4.839234   0.271961   0.364131   0.224703  -0.087402
     9  H   -0.000556   0.271961   0.980590  -0.135725  -0.003461  -0.019546
    10  H    0.000006   0.364131  -0.135725   0.959742  -0.080769   0.027481
    11  C   -0.003939   0.224703  -0.003461  -0.080769   4.876636   0.375740
    12  H    0.000300  -0.087402  -0.019546   0.027481   0.375740   0.896634
    13  H    0.000005   0.002054   0.018527  -0.027641   0.280258  -0.109864
    14  C    0.377361  -0.000070   0.000846   0.000275  -0.006251   0.001565
    15  H   -0.058876   0.004341  -0.000502   0.000140   0.002238   0.000010
    16  H   -0.048286   0.000160  -0.000147   0.000031  -0.000175   0.000011
    17  C   -0.123851  -0.002759   0.000249   0.000309   0.000198   0.003577
    18  H    0.008047   0.000336   0.000013   0.000017   0.000565  -0.000769
    19  H    0.015350   0.000316   0.000029  -0.000016   0.000441   0.000164
    20  C   -0.000656  -0.001193  -0.000023  -0.000032   0.000924  -0.000335
    21  H   -0.000422   0.000067   0.000000  -0.000013   0.000336   0.000007
    22  H    0.003577  -0.000100  -0.000000   0.000000   0.000033   0.000001
    23  C    0.000859   0.001833  -0.000013   0.001119  -0.005519  -0.000343
    24  H   -0.000921  -0.001629   0.000007   0.000165   0.002799   0.000514
    25  H    0.000588  -0.000040  -0.000012   0.000061   0.000184   0.000007
              13         14         15         16         17         18
     1  Si  -0.000923  -0.034390  -0.031284   0.000139  -0.046129   0.000790
     2  O    0.000079  -0.118231   0.013008   0.007014   0.408940  -0.052583
     3  O   -0.000414   0.003263   0.000518  -0.000119  -0.002142   0.000048
     4  O   -0.000187  -0.004662  -0.000526   0.000039   0.006534  -0.000660
     5  O   -0.045705  -0.003366   0.000337   0.000017   0.001621  -0.000326
     6  O    0.007253  -0.008100   0.026044   0.000053   0.000240   0.000114
     7  O    0.000005   0.377361  -0.058876  -0.048286  -0.123851   0.008047
     8  C    0.002054  -0.000070   0.004341   0.000160  -0.002759   0.000336
     9  H    0.018527   0.000846  -0.000502  -0.000147   0.000249   0.000013
    10  H   -0.027641   0.000275   0.000140   0.000031   0.000309   0.000017
    11  C    0.280258  -0.006251   0.002238  -0.000175   0.000198   0.000565
    12  H   -0.109864   0.001565   0.000010   0.000011   0.003577  -0.000769
    13  H    0.926416  -0.000163   0.000013  -0.000005   0.000224  -0.000121
    14  C   -0.000163   4.870345   0.374106   0.282751   0.233593  -0.001854
    15  H    0.000013   0.374106   0.893126  -0.111227  -0.085700  -0.020432
    16  H   -0.000005   0.282751  -0.111227   0.927897   0.000323   0.018922
    17  C    0.000224   0.233593  -0.085700   0.000323   4.846371   0.269064
    18  H   -0.000121  -0.001854  -0.020432   0.018922   0.269064   0.980228
    19  H    0.000024  -0.077084   0.026697  -0.027628   0.361882  -0.134913
    20  C   -0.000342  -0.001411  -0.000288   0.000764   0.001077   0.000043
    21  H    0.000011   0.000040  -0.000006  -0.000016  -0.000020  -0.000009
    22  H   -0.000004   0.000681   0.000107  -0.000133  -0.000888  -0.000018
    23  C    0.002128  -0.000160  -0.000042  -0.000077  -0.001423   0.000009
    24  H   -0.000825  -0.000093   0.000007  -0.000004  -0.000079  -0.000003
    25  H   -0.000068   0.000271   0.000002  -0.000002   0.000023   0.000000
              19         20         21         22         23         24
     1  Si  -0.008411  -0.048016  -0.011912   0.012525  -0.066973   0.006007
     2  O   -0.066117   0.000882  -0.000329   0.000283  -0.002279   0.000293
     3  O    0.000020  -0.129127   0.007025   0.016025   0.396282  -0.068863
     4  O    0.005817   0.420567  -0.049224  -0.074799  -0.134838   0.013805
     5  O   -0.000180  -0.004692   0.001571  -0.000854  -0.003712   0.016589
     6  O   -0.000218  -0.001992   0.000083   0.000053  -0.001755   0.001318
     7  O    0.015350  -0.000656  -0.000422   0.003577   0.000859  -0.000921
     8  C    0.000316  -0.001193   0.000067  -0.000100   0.001833  -0.001629
     9  H    0.000029  -0.000023   0.000000  -0.000000  -0.000013   0.000007
    10  H   -0.000016  -0.000032  -0.000013   0.000000   0.001119   0.000165
    11  C    0.000441   0.000924   0.000336   0.000033  -0.005519   0.002799
    12  H    0.000164  -0.000335   0.000007   0.000001  -0.000343   0.000514
    13  H    0.000024  -0.000342   0.000011  -0.000004   0.002128  -0.000825
    14  C   -0.077084  -0.001411   0.000040   0.000681  -0.000160  -0.000093
    15  H    0.026697  -0.000288  -0.000006   0.000107  -0.000042   0.000007
    16  H   -0.027628   0.000764  -0.000016  -0.000133  -0.000077  -0.000004
    17  C    0.361882   0.001077  -0.000020  -0.000888  -0.001423  -0.000079
    18  H   -0.134913   0.000043  -0.000009  -0.000018   0.000009  -0.000003
    19  H    0.948579   0.000551  -0.000015   0.000122   0.000011   0.000007
    20  C    0.000551   4.912723   0.286391   0.336365   0.180826  -0.100095
    21  H   -0.000015   0.286391   0.972843  -0.142232  -0.000858  -0.020561
    22  H    0.000122   0.336365  -0.142232   0.976790  -0.075663   0.028371
    23  C    0.000011   0.180826  -0.000858  -0.075663   4.950532   0.358708
    24  H    0.000007  -0.100095  -0.020561   0.028371   0.358708   0.923694
    25  H   -0.000007   0.004153   0.018975  -0.028226   0.285805  -0.121676
              25
     1  Si  -0.006472
     2  O    0.000053
     3  O   -0.047952
     4  O    0.007123
     5  O    0.000059
     6  O   -0.000360
     7  O    0.000588
     8  C   -0.000040
     9  H   -0.000012
    10  H    0.000061
    11  C    0.000184
    12  H    0.000007
    13  H   -0.000068
    14  C    0.000271
    15  H    0.000002
    16  H   -0.000002
    17  C    0.000023
    18  H    0.000000
    19  H   -0.000007
    20  C    0.004153
    21  H    0.018975
    22  H   -0.028226
    23  C    0.285805
    24  H   -0.121676
    25  H    0.934089
 Mulliken charges:
               1
     1  Si   0.837060
     2  O   -0.498339
     3  O   -0.493183
     4  O   -0.494793
     5  O   -0.498933
     6  O   -0.507846
     7  O   -0.486719
     8  C    0.124610
     9  H   -0.067570
    10  H   -0.048773
    11  C    0.111733
    12  H   -0.032601
    13  H   -0.050729
    14  C    0.110738
    15  H   -0.031810
    16  H   -0.050300
    17  C    0.128765
    18  H   -0.066507
    19  H   -0.045419
    20  C    0.142936
    21  H   -0.061729
    22  H   -0.052018
    23  C    0.115544
    24  H   -0.037536
    25  H   -0.046579
 Sum of Mulliken charges =  -2.00000
 Mulliken charges with hydrogens summed into heavy atoms:
               1
     1  Si   0.837060
     2  O   -0.498339
     3  O   -0.493183
     4  O   -0.494793
     5  O   -0.498933
     6  O   -0.507846
     7  O   -0.486719
     8  C    0.008266
    11  C    0.028403
    14  C    0.028628
    17  C    0.016839
    20  C    0.029189
    23  C    0.031429
 Electronic spatial extent (au):  <R**2>=           2206.8205
 Charge=             -2.0000 electrons
 Dipole moment (field-independent basis, Debye):
    X=             -0.5124    Y=              0.4404    Z=              0.2304  Tot=              0.7138
 Quadrupole moment (field-independent basis, Debye-Ang):
   XX=           -113.8518   YY=           -112.4783   ZZ=           -110.7364
   XY=              0.4333   XZ=             -0.3923   YZ=              0.4825
 Traceless Quadrupole moment (field-independent basis, Debye-Ang):
   XX=             -1.4963   YY=             -0.1228   ZZ=              1.6191
   XY=              0.4333   XZ=             -0.3923   YZ=              0.4825
 Octapole moment (field-independent basis, Debye-Ang**2):
  XXX=            -12.0137  YYY=             -7.0736  ZZZ=              0.1034  XYY=             10.9753
  XXY=              5.9096  XXZ=              0.0514  XZZ=              1.5396  YZZ=              0.7006
  YYZ=             -0.7960  XYZ=              0.0658
 Hexadecapole moment (field-independent basis, Debye-Ang**3):
 XXXX=          -1632.3657 YYYY=          -1337.6496 ZZZZ=           -545.5162 XXXY=             -0.3193
 XXXZ=              3.1580 YYYX=              7.1864 YYYZ=             -8.2867 ZZZX=              3.2936
 ZZZY=              3.1249 XXYY=           -505.1049 XXZZ=           -366.7002 YYZZ=           -322.5673
 XXYZ=             16.1529 YYXZ=             -7.5841 ZZXY=             -0.8019
 N-N= 1.125740419238D+03 E-N=-4.594560147536D+03  KE= 9.732726431760D+02
   1 Symmetry operations used in ECPInt.
 ECPInt:  NShTT=   23871 NPrTT=   66401 LenC2=   22561 LenP2D=   48030.
 LDataN:  DoStor=T MaxTD1= 7 Len=  274
 Calling FoFJK, ICntrl=      2127 FMM=F ISym2X=0 I1Cent= 0 IOpClX= 0 NMat=1 NMatS=1 NMatT=0.
 ***** Axes restored to original set *****
 -------------------------------------------------------------------
 Center     Atomic                   Forces (Hartrees/Bohr)
 Number     Number              X              Y              Z
 -------------------------------------------------------------------
      1       14           0.000871564    0.000226364   -0.000495910
      2        8           0.001918610    0.000303429    0.000549358
      3        8           0.001279391    0.001743042   -0.000055091
      4        8           0.001090115    0.000176892    0.000639929
      5        8           0.000000183   -0.000467670   -0.002109121
      6        8          -0.002257679   -0.000038513    0.000344053
      7        8          -0.000723854   -0.000825082   -0.000413234
      8        6          -0.002065877    0.000426394    0.000207826
      9        1           0.000701384   -0.000085840    0.000115728
     10        1          -0.000182084    0.000205213    0.000056060
     11        6          -0.000466355    0.000797930   -0.000103618
     12        1           0.000020365    0.000165172    0.000059220
     13        1          -0.000076577   -0.000064492    0.000084404
     14        6          -0.001053483   -0.001281651   -0.000345372
     15        1          -0.000102057   -0.000204752    0.000002893
     16        1          -0.000144960   -0.000062199   -0.000090244
     17        6          -0.000320070   -0.000562560   -0.000230736
     18        1          -0.000042866   -0.000123663    0.000001568
     19        1          -0.000081678    0.000044841   -0.000064399
     20        6           0.000947814   -0.000427619    0.001120327
     21        1           0.000007891   -0.000121106    0.000112839
     22        1           0.000153347   -0.000043235    0.000147137
     23        6           0.000511977    0.000213532    0.000418206
     24        1          -0.000039357    0.000009267    0.000001140
     25        1           0.000054256   -0.000003694    0.000047039
 -------------------------------------------------------------------
 Cartesian Forces:  Max     0.002257679 RMS     0.000683669

 GradGradGradGradGradGradGradGradGradGradGradGradGradGradGradGradGradGrad
 Berny optimization.
 FormGI is forming the generalized inverse of G from B-inverse, IUseBI=4.
 Internal  Forces:  Max     0.002967334 RMS     0.000787471
 Search for a local minimum.
 Step number   1 out of a maximum of  150
 All quantities printed in internal units (Hartrees-Bohrs-Radians)
 Mixed Optimization -- En-DIIS/RFO-DIIS
 Second derivative matrix not updated -- first step.
 ITU=  0
     Eigenvalues ---    0.00913   0.00914   0.00932   0.01762   0.01874
     Eigenvalues ---    0.01925   0.04534   0.04575   0.04610   0.04783
     Eigenvalues ---    0.04796   0.04810   0.06048   0.06062   0.06064
     Eigenvalues ---    0.06347   0.06365   0.06370   0.07695   0.07825
     Eigenvalues ---    0.08067   0.08921   0.09862   0.10130   0.10624
     Eigenvalues ---    0.10657   0.10782   0.11200   0.11204   0.11221
     Eigenvalues ---    0.11282   0.11303   0.11317   0.12388   0.12730
     Eigenvalues ---    0.12881   0.17597   0.17965   0.18598   0.21407
     Eigenvalues ---    0.21649   0.21719   0.23490   0.24629   0.24883
     Eigenvalues ---    0.25270   0.25776   0.26048   0.27756   0.27862
     Eigenvalues ---    0.27912   0.32178   0.32185   0.32251   0.32508
     Eigenvalues ---    0.32523   0.32584   0.32661   0.32758   0.32785
     Eigenvalues ---    0.32798   0.32819   0.32944   0.47591   0.47832
     Eigenvalues ---    0.47915   0.49590   0.49787   0.50000
 RFO step:  Lambda=-1.26726845D-03 EMin= 9.13305355D-03
 Linear search not attempted -- first point.
 Iteration  1 RMS(Cart)=  0.03957261 RMS(Int)=  0.00049826
 Iteration  2 RMS(Cart)=  0.00074833 RMS(Int)=  0.00006227
 Iteration  3 RMS(Cart)=  0.00000024 RMS(Int)=  0.00006227
 Variable       Old X    -DE/DX   Delta X   Delta X   Delta X     New X
                                 (Linear)    (Quad)   (Total)
    R1        3.41759   0.00099   0.00000   0.00336   0.00334   3.42093
    R2        3.39083  -0.00061   0.00000  -0.00132  -0.00133   3.38951
    R3        3.42628  -0.00218   0.00000  -0.00830  -0.00832   3.41796
    R4        3.40167   0.00075   0.00000   0.00282   0.00282   3.40449
    R5        3.46659  -0.00223   0.00000  -0.01044  -0.01047   3.45613
    R6        3.38183   0.00105   0.00000   0.00433   0.00426   3.38608
    R7        2.58486   0.00061   0.00000   0.00088   0.00094   2.58580
    R8        2.59157  -0.00145   0.00000  -0.00281  -0.00280   2.58877
    R9        2.58352   0.00024   0.00000   0.00006   0.00005   2.58357
   R10        2.59190  -0.00100   0.00000  -0.00139  -0.00137   2.59053
   R11        2.58073   0.00059   0.00000   0.00097   0.00096   2.58169
   R12        2.59493   0.00000   0.00000   0.00002   0.00001   2.59494
   R13        2.09788   0.00070   0.00000   0.00212   0.00212   2.10000
   R14        2.10506   0.00024   0.00000   0.00075   0.00075   2.10581
   R15        2.90501   0.00042   0.00000   0.00183   0.00185   2.90686
   R16        2.09371  -0.00012   0.00000  -0.00035  -0.00035   2.09335
   R17        2.09478  -0.00009   0.00000  -0.00026  -0.00026   2.09453
   R18        2.09150  -0.00016   0.00000  -0.00048  -0.00048   2.09102
   R19        2.09431   0.00004   0.00000   0.00013   0.00013   2.09444
   R20        2.90633  -0.00025   0.00000  -0.00039  -0.00033   2.90600
   R21        2.09925  -0.00001   0.00000  -0.00003  -0.00003   2.09922
   R22        2.10387   0.00004   0.00000   0.00012   0.00012   2.10399
   R23        2.09896  -0.00012   0.00000  -0.00036  -0.00036   2.09860
   R24        2.10519   0.00005   0.00000   0.00015   0.00015   2.10534
   R25        2.90431   0.00023   0.00000  -0.00002  -0.00000   2.90431
   R26        2.09651   0.00000   0.00000   0.00001   0.00001   2.09652
   R27        2.09408  -0.00000   0.00000  -0.00001  -0.00001   2.09407
    A1        1.54102   0.00041   0.00000   0.01240   0.01245   1.55347
    A2        1.55902   0.00059   0.00000   0.00054   0.00061   1.55963
    A3        1.61884   0.00163   0.00000   0.01109   0.01107   1.62991
    A4        1.52569  -0.00064   0.00000  -0.00151  -0.00158   1.52411
    A5        1.51096   0.00093   0.00000   0.00464   0.00461   1.51557
    A6        1.63324  -0.00059   0.00000  -0.00480  -0.00465   1.62859
    A7        1.61510  -0.00297   0.00000  -0.02839  -0.02837   1.58673
    A8        1.57638   0.00026   0.00000   0.00111   0.00143   1.57781
    A9        1.58230  -0.00012   0.00000  -0.00445  -0.00444   1.57786
   A10        1.68133  -0.00220   0.00000  -0.02290  -0.02291   1.65842
   A11        1.50168   0.00040   0.00000   0.00693   0.00685   1.50853
   A12        1.51894   0.00205   0.00000   0.02187   0.02194   1.54088
   A13        1.98376   0.00023   0.00000   0.00299   0.00280   1.98656
   A14        1.95377   0.00001   0.00000  -0.00024  -0.00026   1.95350
   A15        1.99904  -0.00124   0.00000  -0.00651  -0.00661   1.99242
   A16        1.95398   0.00022   0.00000   0.00088   0.00077   1.95474
   A17        1.99658  -0.00066   0.00000  -0.00582  -0.00600   1.99058
   A18        1.93688   0.00072   0.00000   0.01108   0.01080   1.94768
   A19        1.95688  -0.00048   0.00000  -0.00332  -0.00329   1.95359
   A20        1.94905  -0.00014   0.00000   0.00083   0.00083   1.94988
   A21        1.87739   0.00088   0.00000   0.00372   0.00366   1.88105
   A22        1.85633   0.00011   0.00000  -0.00009  -0.00009   1.85624
   A23        1.92543  -0.00022   0.00000  -0.00268  -0.00263   1.92280
   A24        1.89858  -0.00018   0.00000   0.00151   0.00150   1.90008
   A25        1.86796  -0.00113   0.00000  -0.00189  -0.00196   1.86600
   A26        1.94577   0.00057   0.00000   0.00170   0.00172   1.94748
   A27        1.94171   0.00018   0.00000  -0.00049  -0.00047   1.94125
   A28        1.90254   0.00029   0.00000  -0.00097  -0.00094   1.90160
   A29        1.93202   0.00022   0.00000   0.00144   0.00145   1.93347
   A30        1.87420  -0.00011   0.00000   0.00024   0.00024   1.87444
   A31        1.94707  -0.00017   0.00000  -0.00130  -0.00125   1.94582
   A32        1.94085   0.00022   0.00000   0.00012   0.00014   1.94098
   A33        1.86414  -0.00004   0.00000   0.00342   0.00331   1.86745
   A34        1.87703   0.00001   0.00000  -0.00053  -0.00054   1.87648
   A35        1.90508  -0.00015   0.00000  -0.00346  -0.00348   1.90161
   A36        1.93006   0.00014   0.00000   0.00169   0.00175   1.93181
   A37        1.88145   0.00025   0.00000   0.00152   0.00144   1.88289
   A38        1.95241   0.00029   0.00000   0.00111   0.00112   1.95352
   A39        1.94595  -0.00047   0.00000  -0.00187  -0.00184   1.94411
   A40        1.92794   0.00011   0.00000  -0.00132  -0.00130   1.92664
   A41        1.89692  -0.00019   0.00000   0.00104   0.00106   1.89798
   A42        1.85899  -0.00000   0.00000  -0.00052  -0.00053   1.85846
   A43        1.95332  -0.00043   0.00000  -0.00124  -0.00123   1.95209
   A44        1.95187  -0.00014   0.00000  -0.00009  -0.00006   1.95180
   A45        1.87210   0.00089   0.00000   0.00235   0.00229   1.87439
   A46        1.85852   0.00012   0.00000   0.00008   0.00007   1.85859
   A47        1.92877  -0.00038   0.00000  -0.00232  -0.00230   1.92646
   A48        1.89939  -0.00008   0.00000   0.00118   0.00119   1.90058
   A49        1.86589  -0.00079   0.00000  -0.00444  -0.00449   1.86140
   A50        1.94980   0.00051   0.00000   0.00230   0.00232   1.95213
   A51        1.94199  -0.00004   0.00000  -0.00072  -0.00072   1.94127
   A52        1.89922   0.00012   0.00000   0.00112   0.00113   1.90036
   A53        1.93496   0.00030   0.00000   0.00107   0.00108   1.93604
   A54        1.87237  -0.00008   0.00000   0.00077   0.00077   1.87314
   A55        3.05199   0.00134   0.00000   0.01704   0.01706   3.06904
   A56        3.15987   0.00203   0.00000   0.02350   0.02351   3.18338
   A57        3.08471  -0.00005   0.00000  -0.00097  -0.00096   3.08374
   A58        3.09185  -0.00002   0.00000   0.00369   0.00354   3.09539
   A59        3.08369   0.00026   0.00000   0.00218   0.00212   3.08582
   A60        3.01768   0.00235   0.00000   0.02812   0.02810   3.04578
    D1       -1.71604   0.00213   0.00000   0.04864   0.04860  -1.66744
    D2        2.98449   0.00227   0.00000   0.05326   0.05320   3.03769
    D3        1.48346   0.00187   0.00000   0.04646   0.04648   1.52993
    D4       -0.03319  -0.00007   0.00000   0.02514   0.02510  -0.00809
    D5       -0.39583  -0.00012   0.00000   0.00999   0.01002  -0.38581
    D6        1.18277  -0.00015   0.00000   0.00610   0.00611   1.18888
    D7        2.68703   0.00005   0.00000   0.01116   0.01120   2.69822
    D8       -2.07703   0.00210   0.00000   0.03301   0.03305  -2.04398
    D9        3.09514  -0.00038   0.00000  -0.01554  -0.01564   3.07950
   D10        0.00329  -0.00036   0.00000  -0.01922  -0.01918  -0.01589
   D11       -1.62937   0.00022   0.00000  -0.01472  -0.01481  -1.64418
   D12        1.57306   0.00014   0.00000  -0.01622  -0.01596   1.55710
   D13       -1.19975  -0.00110   0.00000  -0.03284  -0.03284  -1.23259
   D14        2.03099  -0.00243   0.00000  -0.04965  -0.04967   1.98131
   D15       -2.74063  -0.00151   0.00000  -0.04531  -0.04535  -2.78598
   D16        0.42003   0.00048   0.00000  -0.02187  -0.02190   0.39813
   D17        1.52274   0.00056   0.00000   0.02752   0.02756   1.55030
   D18       -1.66328   0.00044   0.00000   0.03005   0.02997  -1.63331
   D19       -0.03291   0.00007   0.00000   0.02741   0.02731  -0.00560
   D20        3.04581  -0.00006   0.00000   0.02651   0.02672   3.07253
   D21        0.42347  -0.00029   0.00000  -0.03115  -0.03119   0.39228
   D22       -2.81270   0.00112   0.00000  -0.01289  -0.01295  -2.82565
   D23        1.95927   0.00015   0.00000  -0.01770  -0.01771   1.94156
   D24       -1.19783  -0.00186   0.00000  -0.04131  -0.04129  -1.23912
   D25       -0.31431   0.00043   0.00000  -0.01262  -0.01262  -0.32693
   D26       -2.43720  -0.00005   0.00000  -0.01268  -0.01266  -2.44985
   D27        1.76635   0.00008   0.00000  -0.01149  -0.01149   1.75485
   D28        0.64489  -0.00014   0.00000  -0.00238  -0.00240   0.64249
   D29       -1.43106  -0.00008   0.00000  -0.00229  -0.00229  -1.43335
   D30        2.75993  -0.00030   0.00000  -0.00433  -0.00435   2.75558
   D31        2.45369   0.00040   0.00000   0.02035   0.02033   2.47402
   D32       -1.74579   0.00016   0.00000   0.01954   0.01954  -1.72625
   D33        0.33544   0.00054   0.00000   0.02242   0.02242   0.35786
   D34       -0.66186  -0.00008   0.00000   0.01534   0.01531  -0.64654
   D35        1.41712  -0.00010   0.00000   0.01395   0.01393   1.43105
   D36       -2.77446   0.00027   0.00000   0.01507   0.01507  -2.75940
   D37       -2.42846  -0.00038   0.00000  -0.02255  -0.02252  -2.45098
   D38        1.77332  -0.00010   0.00000  -0.02075  -0.02073   1.75259
   D39       -0.30864  -0.00035   0.00000  -0.02544  -0.02539  -0.33402
   D40        1.41700   0.00022   0.00000   0.02693   0.02696   1.44396
   D41       -2.77070   0.00026   0.00000   0.02545   0.02551  -2.74519
   D42       -0.66343   0.00053   0.00000   0.02975   0.02984  -0.63359
   D43        0.61305   0.00040   0.00000   0.00855   0.00854   0.62159
   D44       -1.49364   0.00021   0.00000   0.00816   0.00816  -1.48549
   D45        2.73179   0.00003   0.00000   0.00761   0.00759   2.73938
   D46        2.75240   0.00024   0.00000   0.00523   0.00522   2.75763
   D47        0.64571   0.00006   0.00000   0.00484   0.00484   0.65055
   D48       -1.41204  -0.00012   0.00000   0.00428   0.00427  -1.40777
   D49       -1.50085   0.00015   0.00000   0.00450   0.00450  -1.49635
   D50        2.67565  -0.00003   0.00000   0.00411   0.00412   2.67976
   D51        0.61789  -0.00021   0.00000   0.00355   0.00355   0.62144
   D52        0.62337  -0.00081   0.00000  -0.01263  -0.01261   0.61077
   D53        2.76138  -0.00022   0.00000  -0.01110  -0.01110   2.75027
   D54       -1.48823  -0.00027   0.00000  -0.01186  -0.01186  -1.50008
   D55       -1.48407  -0.00049   0.00000  -0.01113  -0.01110  -1.49517
   D56        0.65393   0.00010   0.00000  -0.00960  -0.00959   0.64434
   D57        2.68752   0.00005   0.00000  -0.01037  -0.01035   2.67717
   D58        2.73752  -0.00048   0.00000  -0.00936  -0.00935   2.72817
   D59       -1.40766   0.00010   0.00000  -0.00784  -0.00784  -1.41551
   D60        0.62592   0.00005   0.00000  -0.00860  -0.00860   0.61732
   D61       -0.61892  -0.00053   0.00000  -0.01408  -0.01410  -0.63302
   D62        1.48955  -0.00031   0.00000  -0.01328  -0.01329   1.47625
   D63       -2.73841  -0.00016   0.00000  -0.01102  -0.01103  -2.74944
   D64       -2.75253  -0.00034   0.00000  -0.01266  -0.01267  -2.76520
   D65       -0.64407  -0.00013   0.00000  -0.01186  -0.01186  -0.65593
   D66        1.41116   0.00003   0.00000  -0.00960  -0.00960   1.40156
   D67        1.49572  -0.00022   0.00000  -0.01213  -0.01215   1.48358
   D68       -2.67900  -0.00000   0.00000  -0.01133  -0.01134  -2.69034
   D69       -0.62377   0.00015   0.00000  -0.00908  -0.00908  -0.63285
         Item               Value     Threshold  Converged?
 Maximum Force            0.002967     0.000450     NO 
 RMS     Force            0.000787     0.000300     NO 
 Maximum Displacement     0.159048     0.001800     NO 
 RMS     Displacement     0.039588     0.001200     NO 
 Predicted change in Energy=-6.570144D-04
 GradGradGradGradGradGradGradGradGradGradGradGradGradGradGradGradGradGrad

                          Input orientation:                          
 ---------------------------------------------------------------------
 Center     Atomic      Atomic             Coordinates (Angstroms)
 Number     Number       Type             X           Y           Z
 ---------------------------------------------------------------------
      1         14           0       -0.054837   -0.022910    0.025795
      2          8           0        0.921409   -0.972715   -1.166648
      3          8           0       -1.132595    0.811746    1.191542
      4          8           0       -1.557157   -0.546756   -0.834459
      5          8           0        0.072878    1.418075   -1.047954
      6          8           0        1.424220    0.627042    0.883023
      7          8           0        0.018437   -1.455336    1.099792
      8          6           0        1.904334    1.793443    0.358212
      9          1           0        3.015227    1.812425    0.336171
     10          1           0        1.587254    2.677090    0.958545
     11          6           0        1.343132    1.933167   -1.067176
     12          1           0        1.997484    1.377794   -1.767537
     13          1           0        1.340973    2.994502   -1.386642
     14          6           0        1.084785   -2.263854    0.791838
     15          1           0        2.018412   -1.899524    1.260870
     16          1           0        0.916792   -3.300927    1.144905
     17          6           0        1.247684   -2.230198   -0.736931
     18          1           0        2.284246   -2.510062   -1.021927
     19          1           0        0.578404   -2.998861   -1.185092
     20          6           0       -2.715874   -0.123934   -0.244767
     21          1           0       -3.479798    0.167111   -0.996428
     22          1           0       -3.176716   -0.921423    0.382009
     23          6           0       -2.364477    1.073417    0.652406
     24          1           0       -2.357561    1.995017    0.034797
     25          1           0       -3.127519    1.212345    1.443876
 ---------------------------------------------------------------------
                    Distance matrix (angstroms):
                    1          2          3          4          5
     1  Si   0.000000
     2  O    1.810278   0.000000
     3  O    1.793649   3.600596   0.000000
     4  O    1.808706   2.536746   2.475976   0.000000
     5  O    1.801579   2.539680   2.614601   2.561866   0.000000
     6  O    1.828903   2.648244   2.581977   3.635403   2.486067
     7  O    1.791838   2.486973   2.544200   2.655060   3.587794
     8  C    2.692209   3.308016   3.298652   4.345218   2.339323
     9  H    3.590276   3.794674   4.351717   5.276628   3.275474
    10  H    3.294918   4.275614   3.306262   4.847202   2.811492
    11  C    2.641049   2.938009   3.533924   3.823068   1.370852
    12  H    3.064316   2.654035   4.344416   4.148494   2.055123
    13  H    3.612207   3.995403   4.186884   4.609184   2.051315
    14  C    2.628191   2.351468   3.812591   3.545860   4.238560
    15  H    3.057033   2.820503   4.157480   4.359481   4.485782
    16  H    3.597480   3.280834   4.595241   4.198066   5.271603
    17  C    2.674030   1.368348   4.317194   3.272709   3.845362
    18  H    3.571408   2.059540   5.254394   4.318112   4.507892
    19  H    3.274680   2.055057   4.805896   3.270533   4.447887
    20  C    2.676663   3.847092   2.333506   1.367164   3.286341
    21  H    3.579302   4.549593   3.272939   2.057277   3.766838
    22  H    3.268080   4.381278   2.799580   2.059889   4.251813
    23  C    2.632302   4.276992   1.369917   2.342539   2.991774
    24  H    3.061805   4.582854   2.058818   2.803009   2.722544
    25  H    3.602525   5.289909   2.050335   3.278914   4.061291
                    6          7          8          9         10
     6  O    0.000000
     7  O    2.521807   0.000000
     8  C    1.366173   3.828983   0.000000
     9  H    2.058029   4.499125   1.111274   0.000000
    10  H    2.057907   4.422451   1.114348   1.781601   0.000000
    11  C    2.348577   4.234681   1.538247   2.186290   2.171765
    12  H    2.813847   4.490527   2.168006   2.377035   3.047619
    13  H    3.280728   5.266167   2.191902   2.677409   2.379351
    14  C    2.912183   1.373184   4.161893   4.533242   4.969224
    15  H    2.622855   2.055030   3.803395   3.953135   4.606810
    16  H    3.969257   2.053115   5.248498   5.586040   6.018383
    17  C    3.289261   2.342010   4.221400   4.540766   5.203021
    18  H    3.769602   3.278418   4.535336   4.589407   5.595946
    19  H    4.259071   2.813669   5.206348   5.603644   6.150559
    20  C    4.356174   3.325196   5.038476   6.077211   5.273575
    21  H    5.271932   4.389091   5.785229   6.831414   5.983053
    22  H    4.880305   3.318024   5.760914   6.768765   5.998091
    23  C    3.821867   3.503288   4.339094   5.439426   4.275706
    24  H    4.110075   4.322559   4.278900   5.384331   4.108540
    25  H    4.623361   4.139077   5.180337   6.270601   4.960858
                   11         12         13         14         15
    11  C    0.000000
    12  H    1.107755   0.000000
    13  H    1.108375   1.786010   0.000000
    14  C    4.597571   4.543680   5.697518   0.000000
    15  H    4.534901   4.462343   5.605331   1.106520   0.000000
    16  H    5.698316   5.616106   6.798609   1.108331   1.786321
    17  C    4.177533   3.826482   5.265769   1.537792   2.166696
    18  H    4.542029   3.969080   5.596696   2.188394   2.377937
    19  H    4.992356   4.637687   6.045042   2.169081   3.043829
    20  C    4.624235   5.175882   5.242759   4.483170   5.275711
    21  H    5.136595   5.662241   5.602342   5.472011   6.292590
    22  H    5.538759   6.056344   6.234750   4.486700   5.358958
    23  C    4.176422   4.997547   4.645282   4.801482   5.330884
    24  H    3.861775   4.753503   4.086394   5.528186   5.984968
    25  H    5.178001   6.050306   5.581697   5.500238   6.016463
                   16         17         18         19         20
    16  H    0.000000
    17  C    2.190264   0.000000
    18  H    2.681522   1.110858   0.000000
    19  H    2.373739   1.113386   1.781977   0.000000
    20  C    5.022025   4.515348   5.594531   4.472325   0.000000
    21  H    5.995214   5.306931   6.355478   5.150532   1.110532
    22  H    4.795921   4.747657   5.858064   4.568642   1.114098
    23  C    5.490370   5.088403   6.103715   5.349804   1.536895
    24  H    6.324614   5.607656   6.554295   5.920038   2.167140
    25  H    6.067574   5.979083   7.015960   6.195127   2.192398
                   21         22         23         24         25
    21  H    0.000000
    22  H    1.782374   0.000000
    23  C    2.187232   2.170768   0.000000
    24  H    2.379933   3.049130   1.109430   0.000000
    25  H    2.678002   2.383893   1.108133   1.786313   0.000000
 Stoichiometry    C6H12O6Si(2-)
 Framework group  C1[X(C6H12O6Si)]
 Deg. of freedom    69
 Full point group                 C1      NOp   1
 Largest Abelian subgroup         C1      NOp   1
 Largest concise Abelian subgroup C1      NOp   1
                         Standard orientation:                         
 ---------------------------------------------------------------------
 Center     Atomic      Atomic             Coordinates (Angstroms)
 Number     Number       Type             X           Y           Z
 ---------------------------------------------------------------------
      1         14           0        0.059539   -0.052440   -0.025747
      2          8           0       -1.261336   -0.503261    1.127144
      3          8           0        1.433640    0.258316   -1.135908
      4          8           0        1.226893   -0.979894    0.998232
      5          8           0        0.370603    1.434009    0.943476
[...]
 52,0.00001049,-0.00019538,-0.00004778,0.00027842,0.00052497,0.00012624
 ,-0.00004151,-0.00013877,-0.00013768,-0.00011535,-0.00031784,0.0000048
 9,-0.00382159,-0.01158070,-0.16724504,0.00179086,-0.00038267,-0.015865
 34,-0.00387170,-0.00234860,-0.00366178,-0.00527584,0.03825019,0.456479
 31,0.00113076,-0.00433258,-0.00274085,0.00668611,0.01263914,-0.0025095
 0,-0.00030526,0.00042798,0.00021078,-0.00115733,0.00099111,0.00026752,
 0.00034324,0.00112618,-0.00013653,0.00054592,0.00089708,0.00035607,0.0
 0162412,0.00086751,0.00231749,-0.00019650,-0.00052260,0.00006192,0.000
 23821,0.00010887,0.00001952,-0.00003276,0.00014488,0.00003659,-0.00056
 850,-0.00028522,-0.00001241,0.00015036,-0.00008043,-0.00005964,0.00004
 032,0.00024892,-0.00004754,-0.00482350,0.00012321,-0.00449198,0.001991
 88,0.00011913,0.00069165,-0.00013923,-0.00025043,0.00093804,-0.2029393
 9,0.06712150,0.05784096,0.22139785,-0.00319027,0.00296745,0.00707672,0
 .02995990,-0.03882682,-0.00927175,0.00033485,-0.00012224,-0.00028393,0
 .00216709,0.00005490,-0.00044206,-0.00023575,-0.00257135,0.00014254,-0
 .00071595,-0.00090500,-0.00081062,0.00019884,0.00133416,-0.00065492,0.
 00019251,0.00050045,-0.00007868,-0.00023056,-0.00012208,-0.00003880,0.
 00002330,-0.00016083,-0.00003351,0.00104720,0.00045396,-0.00002540,-0.
 00024603,0.00009898,0.00011547,-0.00015975,-0.00034730,0.00006925,0.00
 154152,0.00131769,-0.00100435,-0.00067459,0.00007825,-0.00048510,0.000
 35167,-0.00023972,-0.00131537,0.06533822,-0.07407235,-0.02688755,-0.08
 702164,0.10258003,0.00036131,0.00177246,-0.00309726,-0.00981095,0.0073
 5106,0.00694222,0.00035928,-0.00045811,0.00025061,0.00034424,0.0002149
 9,0.00050108,-0.00007990,0.00026185,0.00012706,-0.00036964,-0.00044539
 ,0.00018101,0.00150173,-0.00292230,-0.00736243,0.00004391,0.00016304,-
 0.00005960,-0.00008290,-0.00005821,0.00001204,0.00000726,-0.00004378,-
 0.00000850,-0.00002346,-0.00001083,-0.00001616,-0.00000792,0.00001140,
 0.00001725,0.00002273,-0.00001292,0.00001680,0.02808610,-0.01509287,-0
 .00275674,-0.00108935,-0.00041353,0.00124534,-0.00019519,0.00159132,-0
 .00058846,0.05368868,-0.02597953,-0.07057764,-0.06129971,0.03022307,0.
 07051441,-0.00408463,0.00295778,0.00307982,0.00897752,-0.01461900,0.00
 436429,0.00058499,-0.00010527,-0.00004189,0.00165791,0.00100727,-0.000
 05490,0.00020139,-0.00080632,0.00004458,-0.00002245,-0.00092831,-0.000
 63185,0.00181630,-0.00075183,-0.00079807,0.00010230,0.00057651,-0.0000
 8071,-0.00010097,-0.00004808,-0.00000271,0.00005429,-0.00020152,-0.000
 05927,0.00016024,0.00029257,0.00003552,0.00003229,0.00006072,-0.000016
 29,-0.00000125,-0.00020387,0.00001955,-0.00168197,0.00058284,0.0011792
 3,0.00189019,0.00069324,-0.00024251,0.00087425,0.00133268,-0.00113045,
 -0.17872310,-0.06807016,-0.06790126,-0.02455476,-0.00881114,-0.0113098
 0,0.19267889,-0.00910467,0.00225967,0.00494279,-0.02323881,-0.04628807
 ,-0.00618437,0.00085426,0.00010543,0.00004331,0.00133213,0.00131021,0.
 00055751,0.00081826,-0.00111834,0.00007013,-0.00011397,-0.00185291,-0.
 00181974,0.00068970,0.00097399,-0.00063595,0.00021283,0.00088122,-0.00
 020240,-0.00017019,-0.00010146,-0.00000910,0.00005192,-0.00037460,-0.0
 0008976,0.00018816,0.00057494,0.00011485,0.00010307,0.00011640,-0.0000
 6642,0.00004063,-0.00027958,0.00001517,-0.00158045,0.00062224,0.000867
 20,0.00005354,0.00105365,0.00015148,0.00060295,0.00123013,-0.00041169,
 -0.06631168,-0.07991806,-0.04166093,0.00789732,0.00781026,0.00389677,0
 .08732360,0.11290614,-0.00095260,0.00038527,-0.00030914,0.00783540,0.0
 0387691,0.01094154,0.00033675,-0.00009519,0.00009542,0.00056601,0.0005
 1158,0.00023653,0.00008146,-0.00015814,0.00003144,0.00009191,-0.000268
 42,0.00027893,0.00214542,0.00060237,0.00274663,0.00007186,0.00020802,-
 0.00004767,-0.00003130,-0.00001492,0.00000017,0.00001789,-0.00007523,-
 0.00001328,0.00004971,0.00001584,-0.00003064,-0.00000673,0.00000852,0.
 00001661,-0.00000105,-0.00004574,0.00002317,-0.03039026,-0.01231122,-0
 .01594402,0.00002167,-0.00060101,-0.00722546,0.00015104,0.00084045,0.0
 0122204,-0.06255219,-0.03684791,-0.08651138,0.00882787,0.00348526,0.00
 470494,0.07372871,0.04057441,0.08999870,-0.04601335,-0.01138868,-0.011
 95242,0.00062167,-0.00055818,0.00016193,-0.03897715,-0.02167341,-0.017
 84750,-0.21562422,0.02334708,0.06882793,0.00393802,0.00422542,0.000620
 64,0.00048802,0.00132021,0.00123622,0.00342909,-0.00289038,0.00558499,
 0.00016534,-0.00058999,-0.00030022,0.00035430,0.00014836,0.00022267,-0
 .00003847,0.00047658,0.00017129,-0.00149765,-0.00095624,-0.00019038,0.
 00067615,0.00002409,-0.00018003,0.00032845,0.00082013,-0.00009561,-0.0
 0149746,0.00173395,0.00042714,0.00088734,-0.00028113,0.00024865,0.0000
 3574,-0.00081094,0.00020638,-0.00116452,0.00060976,-0.00060482,0.00084
 459,-0.00020074,0.00004720,-0.00011662,0.00055264,0.00007298,0.5562618
 4,0.00160977,0.00732533,0.00539553,0.00071894,0.00033435,0.00049549,-0
 .00806947,-0.00026304,-0.01313383,0.04158934,-0.08169976,-0.02535299,-
 0.00173403,-0.00261315,-0.00049541,0.00071720,-0.00068508,-0.00030028,
 -0.00169312,-0.00058103,0.00052392,-0.00019517,0.00003824,0.00021007,0
 .00004046,-0.00000295,-0.00006250,-0.00001820,-0.00018760,-0.00006112,
 -0.00002970,-0.00074802,0.00001391,0.00007708,0.00003363,-0.00002319,-
 0.00019580,-0.00019641,-0.00000586,0.00079122,-0.00071196,-0.00021030,
 -0.00043973,0.00008586,-0.00000952,0.00005764,-0.00007584,0.00001625,0
 .00002916,0.00070524,-0.00018962,-0.00023535,0.00013141,0.00002960,-0.
 00026200,0.00007455,-0.00013100,0.00945002,0.47446819,0.01093586,0.007
 15758,0.01572221,-0.00487285,0.00220049,0.00088423,-0.01953952,-0.0205
 1892,-0.02005737,0.08907522,-0.02478023,-0.13198916,-0.00246159,-0.002
 89894,-0.00060090,-0.00000601,-0.00053176,-0.00087554,-0.00163723,0.00
 199554,-0.00591453,-0.00010269,0.00040950,0.00016850,-0.00014774,-0.00
 004697,-0.00013292,0.00010180,-0.00024455,-0.00016866,0.00091214,0.000
 52574,0.00023476,-0.00027994,-0.00002423,0.00006558,-0.00025204,-0.000
 52067,0.00007120,0.00030483,-0.00090311,0.00012801,-0.00020346,0.00016
 844,-0.00014979,-0.00000145,0.00048925,-0.00022068,0.00050038,-0.00166
 932,0.00076572,-0.00044126,0.00046092,-0.00006485,0.00012118,-0.000044
 80,-0.00008814,0.02946032,-0.03987337,0.50078379,0.00652637,0.00502355
 ,0.00388205,-0.00239225,0.00107904,0.00043751,0.00006518,-0.00250718,-
 0.00117846,-0.04546072,0.00361546,-0.00515080,-0.00099580,-0.00135401,
 0.00052750,-0.00052964,-0.00058196,-0.00011368,-0.00128449,0.00137773,
 -0.00167841,0.00013576,0.00042953,-0.00008825,-0.00018560,-0.00007440,
 -0.00001420,0.00006700,-0.00011148,-0.00003988,0.00054793,0.00023842,0
 .00005288,-0.00017278,0.00002658,0.00007264,-0.00010679,-0.00031763,0.
 00005035,0.00069066,-0.00065990,-0.00011722,-0.00029181,0.00007808,-0.
 00004815,-0.00000748,0.00032966,-0.00008948,0.00008908,-0.00118617,0.0
 0019070,-0.00027369,0.00031008,0.00007362,0.00024549,0.00012259,0.0000
 2823,-0.15306570,0.01327566,-0.10187404,0.19563229,-0.00120927,-0.0030
 1818,-0.00217404,0.00061113,-0.00007358,-0.00012485,-0.00363595,-0.004
 00547,-0.00320332,0.01203204,0.00257067,0.00086443,0.00013108,0.000206
 48,0.00023251,-0.00021159,0.00025658,0.00018020,0.00050433,0.00030078,
 -0.00002517,0.00006684,-0.00000776,-0.00006145,-0.00001679,0.00001198,
 0.00002081,0.00002125,0.00007721,0.00001106,-0.00007786,-0.00003903,-0
 .00002256,0.00000373,-0.00000428,0.00001035,0.00001684,0.00003827,0.00
 000084,-0.00028462,0.00032169,-0.00001545,0.00011297,-0.00002743,0.000
 01175,-0.00003576,-0.00003089,0.00001753,-0.00001642,0.00019798,-0.000
 01455,0.00006525,-0.00005509,-0.00003121,-0.00004646,-0.00000510,0.000
 01461,0.01651450,-0.05313812,0.01754986,-0.02096964,0.05182824,0.00223
 494,-0.00154600,-0.00248409,0.00040350,0.00000338,0.00008636,-0.002997
 88,-0.00488004,-0.00055316,0.01813846,-0.00200301,0.01755511,-0.000297
 56,-0.00013963,0.00043345,-0.00055819,-0.00012273,0.00022282,-0.000642
 69,0.00040162,0.00057557,0.00014554,0.00022872,-0.00013951,-0.00013172
 ,-0.00003072,0.00001825,0.00005032,0.00001749,-0.00000129,0.00020630,0
 .00017146,-0.00008786,-0.00010436,0.00000822,0.00006044,0.00000202,-0.
 00010561,0.00003356,0.00034804,-0.00042214,-0.00010633,-0.00015128,0.0
 0003843,-0.00000624,0.00002026,0.00014972,-0.00000858,-0.00001409,0.00
 001406,-0.00008124,-0.00007292,0.00000701,0.00005036,0.00004056,0.0000
 2077,0.00002473,-0.10272404,0.01430567,-0.14172774,0.11184953,-0.01728
 179,0.14737089,0.00428164,-0.00028833,0.00618569,-0.00073762,0.0009581
 1,-0.00052614,0.00119479,0.00020959,-0.00058863,-0.02467644,-0.0176579
 9,0.03055022,-0.00148775,-0.00129624,-0.00016452,-0.00007248,0.0001932
 8,-0.00032129,0.00097812,0.00064518,-0.00109919,-0.00000110,-0.0000266
 5,0.00010602,-0.00006898,0.00000813,-0.00005535,0.00001714,-0.00002059
 ,-0.00002393,0.00036654,0.00000931,0.00003906,-0.00018076,-0.00000140,
 0.00005773,-0.00012331,-0.00018787,-0.00000077,-0.00034976,0.00052944,
 0.00024046,0.00020436,-0.00010741,-0.00001571,-0.00001227,0.00002943,-
 0.00006097,-0.00000255,-0.00071250,0.00025340,-0.00008406,0.00014456,-
 0.00007181,0.00013358,0.00004071,0.00003326,-0.05166036,-0.02551973,0.
 01205835,0.00455976,0.01646760,-0.01491352,0.06620213,0.00287701,-0.00
 026001,0.00201191,-0.00060118,0.00059036,-0.00014424,-0.00030595,0.003
 16375,-0.00128744,-0.00710943,0.01478970,-0.00051286,-0.00077491,-0.00
 021824,-0.00004423,-0.00024433,0.00012428,-0.00018138,-0.00008311,0.00
 059919,-0.00138626,0.00008128,0.00000964,0.00000022,-0.00010565,-0.000
 01179,-0.00001936,0.00001403,0.00001881,0.00000605,0.00040981,0.000193
 43,0.00002059,-0.00016303,0.00001042,0.00005909,-0.00003374,-0.0000877
 6,0.00000209,0.00007429,-0.00013537,0.00003983,-0.00001429,0.00004265,
 -0.00004292,-0.00001980,0.00021526,-0.00006019,0.00008215,-0.00044881,
 0.00019624,-0.00009547,0.00008574,-0.00002539,0.00004754,-0.00000550,0
 .00002789,-0.02465837,-0.16578763,0.09110654,0.00047908,-0.00260096,0.
 00265619,0.03185642,0.17968477,-0.00607429,-0.00110165,-0.00556384,0.0
 0100986,-0.00104171,0.00031070,0.00106198,0.00155977,0.00141699,0.0275
 9963,0.00760809,-0.01574672,0.00146304,0.00130241,0.00016628,0.0002188
 8,0.00004388,0.00032011,0.00001958,-0.00108056,0.00158488,-0.00000975,
 -0.00011878,-0.00008157,0.00010893,0.00002235,0.00006067,-0.00003523,0
 .00006612,0.00004745,-0.00050424,-0.00010876,-0.00001561,0.00017671,-0
 .00000521,-0.00006380,0.00012793,0.00022395,-0.00002174,-0.00008582,0.
 00035001,0.00003262,0.00006907,-0.00006857,0.00003582,0.00000807,-0.00
 029160,0.00010498,0.00001062,0.00091774,-0.00024928,0.00012345,-0.0001
 7052,0.00001656,-0.00018379,-0.00008483,-0.00008274,0.01551668,0.09786
 111,-0.12706173,-0.00131045,0.01816240,-0.01408372,-0.03516535,-0.1084
 7514,0.14876777,-0.03546388,0.02643569,0.02419510,-0.00049808,-0.00150
 263,-0.00139199,-0.25059660,0.02213565,-0.04858868,-0.02183933,0.02399
 885,0.01422000,0.00336996,0.00181973,-0.00701001,0.00158769,0.00061391
 ,-0.00012994,0.00267002,-0.00638709,-0.00159722,-0.00119110,-0.0003321
 9,0.00090826,0.00096920,0.00002952,-0.00024541,-0.00022336,-0.00046423
 ,-0.00009675,-0.00225424,-0.00141706,-0.00002849,0.00097496,0.00002533
 ,-0.00046785,0.00021179,0.00079919,-0.00025509,-0.00120168,0.00119530,
 0.00051083,0.00065129,-0.00021431,0.00003951,0.00013878,-0.00100933,0.
 00004544,0.00047887,0.00053734,0.00030229,0.00023325,-0.00023601,-0.00
 031250,-0.00024855,-0.00050413,-0.00018032,-0.06302742,-0.02269422,-0.
 01353114,-0.00394414,-0.02126947,-0.01215226,0.00028958,-0.00135005,-0
 .00258654,0.52622371,0.01267899,-0.00030207,-0.00137300,-0.00082785,-0
 .00000409,0.00026922,0.00353942,-0.07496298,-0.00314798,0.01220751,-0.
 01057789,-0.02027262,0.00057123,-0.00163120,0.00219369,-0.00082753,0.0
 0036460,0.00068537,0.00001156,-0.00124768,-0.00032032,0.00049179,0.000
 78032,-0.00046600,-0.00000856,0.00005979,0.00004907,0.00031646,0.00014
 418,-0.00016307,-0.00035193,-0.00004863,-0.00001351,0.00015827,-0.0000
 5214,0.00003594,-0.00013956,-0.00029348,0.00010355,0.00015714,-0.00110
 586,-0.00011580,-0.00026429,0.00012126,-0.00002070,0.00009076,0.000040
 59,-0.00005349,0.00010473,-0.00018439,0.00008370,-0.00012294,0.0000823
 6,0.00003662,0.00001937,-0.00004054,-0.00000863,-0.01163285,-0.1521172
 6,-0.03117966,0.00382885,0.00615396,0.00954935,-0.00457406,-0.02544382
 ,-0.01311518,-0.03479167,0.48845688,0.00244041,0.00438901,0.01278625,-
 0.00025362,-0.00018979,-0.00057119,-0.06834030,-0.00029986,-0.10345509
 ,0.01326840,-0.03039765,-0.02684551,0.00028815,0.00122487,-0.00482200,
 0.00515025,0.00056203,-0.00012571,0.00083105,-0.00228830,-0.00069576,-
 0.00056284,-0.00141529,0.00072100,0.00034889,0.00031672,-0.00011749,-0
 .00009176,0.00009225,-0.00004839,-0.00008526,-0.00051155,0.00022388,0.
 00002067,0.00010249,-0.00010050,0.00005485,0.00031433,-0.00018132,-0.0
 0042208,0.00049919,0.00029626,0.00013353,-0.00006105,0.00000101,0.0000
 7581,-0.00037931,0.00002506,0.00015925,0.00025002,0.00007675,0.0000495
 2,-0.00003526,-0.00009718,-0.00015306,-0.00010267,-0.00010411,-0.00141
 299,-0.03186427,-0.08624997,-0.00539706,-0.01455861,-0.00827117,0.0039
 4946,0.02035350,0.00795538,-0.04639887,-0.02356460,0.51661359,0.002827
 89,-0.00109981,-0.00703745,-0.00001501,-0.00012843,0.00031646,-0.02453
 655,0.03004432,-0.02664083,0.00132688,0.00068540,0.00021675,0.00087812
 ,-0.00091789,0.00075254,-0.00083599,-0.00069737,0.00067154,-0.00091869
 ,0.00176149,0.00041730,0.00013671,0.00070119,-0.00024006,-0.00009941,-
 0.00011765,0.00008102,0.00011351,-0.00009532,-0.00006631,-0.00049025,-
 0.00034436,-0.00012338,0.00020182,0.00004214,-0.00003012,-0.00000130,-
 0.00002055,0.00006110,0.00030385,-0.00006759,-0.00009730,-0.00015520,0
 .00004995,-0.00001747,-0.00006662,0.00022377,0.00001719,-0.00004303,0.
 00001440,-0.00010866,-0.00004209,0.00000787,0.00006819,0.00003524,0.00
 002953,0.00002791,0.00017823,-0.00595481,0.00368364,0.00041839,-0.0000
 0490,0.00042925,0.00063003,-0.00154500,-0.00109128,-0.04478055,0.00821
 350,-0.00067159,0.06214075,-0.00322189,0.00081219,0.00465390,0.0002397
 6,0.00009854,-0.00032763,0.01817914,0.00376380,0.00552925,0.00057663,0
 .00296117,-0.00149590,-0.00030041,0.00087106,-0.00164182,0.00096154,0.
 00060735,-0.00048447,0.00093905,-0.00094921,-0.00031649,-0.00021217,-0
 .00062049,0.00029907,0.00014019,0.00009005,-0.00007253,-0.00007375,0.0
 0003297,0.00005521,0.00005412,0.00000313,0.00009970,-0.00004775,0.0000
 2531,-0.00003728,0.00007078,0.00020907,-0.00008803,-0.00041877,0.00033
 036,0.00012676,0.00021757,-0.00005497,0.00003093,0.00002577,-0.0001599
 4,-0.00000752,-0.00006438,0.00002643,0.00004811,0.00010626,-0.00004413
 ,-0.00006008,-0.00001575,0.00001529,0.00000096,-0.00229174,-0.02509634
 ,0.02048904,-0.00117230,0.00119431,-0.00063670,-0.00103991,-0.00531367
 ,-0.00344297,0.00593396,-0.17566971,0.08984741,-0.01711916,0.19457979,
 0.00367395,-0.00246419,-0.00519096,-0.00012075,0.00012715,0.00028867,-
 0.02175102,0.01017783,-0.00486697,-0.00051154,0.00174983,0.00149489,-0
 .00020163,-0.00088581,0.00141736,-0.00101219,-0.00056731,0.00039652,-0
 .00076290,0.00131401,0.00032852,0.00017767,0.00074632,-0.00021716,-0.0
 0014068,-0.00010367,0.00002806,0.00010822,-0.00011417,-0.00010253,0.00
 029276,0.00038643,0.00003217,-0.00012125,-0.00005561,0.00005688,-0.000
 07070,-0.00027555,0.00010052,0.00037239,-0.00023122,-0.00009033,-0.000
 14509,0.00003731,-0.00002337,-0.00004597,0.00020680,-0.00000641,-0.000
 03574,-0.00011853,-0.00005642,-0.00007340,0.00004932,0.00006645,0.0000
 5526,0.00004716,0.00003264,0.00005551,-0.01337450,0.00771421,0.0009981
 8,0.00080221,0.00164063,-0.00008722,-0.00354448,0.00027863,-0.00203536
 ,0.09701335,-0.12409019,0.01817022,-0.11150384,0.13796054,0.00296460,-
 0.00723879,-0.00568497,-0.00008934,0.00065684,0.00024594,-0.04562167,0
 .01134731,0.01829282,0.00167795,-0.00030161,-0.00028894,-0.00113382,-0
 .00076759,0.00191702,-0.00272480,-0.00024635,0.00010711,-0.00054306,0.
 00151865,-0.00019037,0.00038630,0.00110024,-0.00024742,-0.00034603,-0.
 00021371,-0.00000592,0.00018448,-0.00017488,-0.00006022,0.00081730,0.0
 0040661,-0.00006789,-0.00027016,0.00000857,0.00010326,-0.00006662,-0.0
 0027780,0.00009391,0.00039081,-0.00033314,-0.00016417,-0.00015054,0.00
 001925,-0.00002292,-0.00002313,0.00030669,-0.00002718,-0.00002320,-0.0
 0036723,0.00003134,-0.00010956,0.00010483,0.00004886,0.00008942,0.0001
 1006,0.00002636,0.00447412,-0.00131519,-0.00180276,-0.00026704,0.00123
 116,0.00089179,0.00059976,0.00118270,-0.00046769,-0.11253017,0.0111516
 6,0.09701918,0.00279326,-0.00146678,0.00321129,0.14952113,-0.00121300,
 -0.00108675,-0.00067420,0.00036804,-0.00002721,0.00005973,0.00297436,0
 .00277205,-0.00173960,0.00119246,-0.00510667,-0.00385710,-0.00002884,0
 .00070174,-0.00051627,0.00019092,0.00019737,-0.00002717,0.00016298,-0.
 00024216,0.00033042,-0.00004722,-0.00014921,0.00005035,0.00002338,0.00
 003191,-0.00001387,-0.00001134,0.00003586,0.00002533,0.00010438,0.0001
 0020,-0.00006444,-0.00002767,0.00000366,0.00000302,0.00005102,0.000049
 02,-0.00001817,-0.00006744,0.00004927,0.00001161,0.00004786,-0.0000103
 2,0.00001992,0.00000170,-0.00005562,0.00001282,-0.00007642,0.00013772,
 -0.00006232,0.00006234,-0.00002871,0.00000197,-0.00002442,0.00005004,0
 .00000532,0.01870992,0.00070740,-0.01931636,-0.00127965,-0.00015223,-0
 .00040375,0.00034093,0.00078556,0.00098765,0.00864791,-0.05252222,-0.0
 1228361,-0.01366071,0.00228765,0.02058115,-0.01644148,0.05147168,-0.00
 373415,0.00066241,-0.00085804,0.00057109,-0.00042604,0.00006572,-0.005
 06970,0.00071229,0.01752776,0.00099579,-0.00573469,-0.00107119,0.00108
 026,0.00035965,0.00003032,0.00018798,0.00017584,0.00014641,0.00044495,
 -0.00055097,0.00042580,-0.00007821,-0.00021403,-0.00003314,0.00015265,
 0.00002780,0.00003615,-0.00006519,0.00006781,0.00004523,-0.00064236,-0
 .00038582,-0.00001160,0.00020885,-0.00000868,-0.00005893,0.00003820,0.
 00021029,-0.00002842,-0.00024491,0.00029981,-0.00001775,0.00014613,-0.
 00002888,0.00004420,-0.00002168,-0.00016701,0.00004314,-0.00009690,0.0
 0034925,-0.00012526,0.00014435,-0.00009172,-0.00001729,-0.00006213,0.0
 0001109,0.00000309,0.01244747,0.00623623,-0.01123621,-0.00106310,-0.00
 036555,-0.00052125,-0.00037927,-0.00075622,0.00187190,0.09678698,-0.01
 620533,-0.18292360,0.01121133,-0.00106510,-0.01719236,-0.11295843,0.01
 688758,0.19385533\\-0.00002708,-0.00002000,0.00002238,0.00001409,-0.00
 000601,-0.00001058,0.00002066,-0.00000064,0.00000637,0.00000285,0.0000
 2361,0.00001658,-0.00000308,0.00001150,-0.00001138,-0.00000407,0.00001
 116,-0.00001158,0.00000348,-0.00000678,-0.00001104,0.00000004,-0.00000
 846,0.00000885,0.00000114,-0.00000062,0.00000742,-0.00000006,-0.000000
 86,0.00000807,-0.00000155,-0.00000232,0.00000313,0.00000344,0.00000273
 ,0.00000311,0.00000011,0.00000065,0.00000665,-0.00000783,0.00000476,0.
 00000392,0.00000181,-0.00000210,-0.00000443,-0.00000019,-0.00000393,-0
 .00000334,0.00000093,-0.00000132,-0.00000492,-0.00000086,0.00000334,-0
 .00000283,-0.00000050,0.00000123,-0.00000224,0.00002311,-0.00000608,-0
 .00001545,-0.00000136,0.00000201,-0.00000372,-0.00000424,-0.00000103,-
 0.00000309,-0.00002550,0.00000340,0.00000211,0.00000077,-0.00000205,-0
 .00000119,0.00000393,-0.00000218,-0.00000280\\\@
 The archive entry for this job was punched.


 THE PROGRESS OF RIVERS TO THE SEA IS NOT AS RAPID
 AS THAT OF MAN TO ERROR.
                                              -- VOLTAIRE
 Job cpu time:       0 days 21 hours 27 minutes 42.0 seconds.
 Elapsed time:       0 days  5 hours 50 minutes 18.9 seconds.
 File lengths (MBytes):  RWF=    752 Int=      0 D2E=      0 Chk=     28 Scr=      1
 Normal termination of Gaussian 16 at Tue Feb 13 14:02:37 2024.
