 Entering Gaussian System, Link 0=/opt/software/gaussian/g16.c01/g16
 Initial command:
 /opt/software/gaussian/g16.c01/l1.exe "/scratch/arhender/24435753/Gau-14365.inp" -scrdir="/scratch/arhender/24435753/"
 Entering Link 1 = /opt/software/gaussian/g16.c01/l1.exe PID=     14366.
  
 Copyright (c) 1988-2019, Gaussian, Inc.  All Rights Reserved.
  
 This is part of the Gaussian(R) 16 program.  It is based on
 the Gaussian(R) 09 system (copyright 2009, Gaussian, Inc.),
 the Gaussian(R) 03 system (copyright 2003, Gaussian, Inc.),
 the Gaussian(R) 98 system (copyright 1998, Gaussian, Inc.),
 the Gaussian(R) 94 system (copyright 1995, Gaussian, Inc.),
 the Gaussian 92(TM) system (copyright 1992, Gaussian, Inc.),
 the Gaussian 90(TM) system (copyright 1990, Gaussian, Inc.),
 the Gaussian 88(TM) system (copyright 1988, Gaussian, Inc.),
 the Gaussian 86(TM) system (copyright 1986, Carnegie Mellon
 University), and the Gaussian 82(TM) system (copyright 1983,
 Carnegie Mellon University). Gaussian is a federally registered
 trademark of Gaussian, Inc.
  
 This software contains proprietary and confidential information,
 including trade secrets, belonging to Gaussian, Inc.
  
 This software is provided under written license and may be
 used, copied, transmitted, or stored only in accord with that
 written license.
  
 The following legend is applicable only to US Government
 contracts under FAR:
  
                    RESTRICTED RIGHTS LEGEND
  
 Use, reproduction and disclosure by the US Government is
 subject to restrictions as set forth in subparagraphs (a)
 and (c) of the Commercial Computer Software - Restricted
 Rights clause in FAR 52.227-19.
  
 Gaussian, Inc.
 340 Quinnipiac St., Bldg. 40, Wallingford CT 06492
  
  
 ---------------------------------------------------------------
 Warning -- This program may not be used in any manner that
 competes with the business of Gaussian, Inc. or will provide
 assistance to any competitor of Gaussian, Inc.  The licensee
 of this program is prohibited from giving any competitor of
 Gaussian, Inc. access to this program.  By using this program,
 the user acknowledges that Gaussian, Inc. is engaged in the
 business of creating and licensing software in the field of
 computational chemistry and represents and warrants to the
 licensee that it is not a competitor of Gaussian, Inc. and that
 it will not use this program in any manner prohibited above.
 ---------------------------------------------------------------
  

 Cite this work as:
 Gaussian 16, Revision C.01,
 M. J. Frisch, G. W. Trucks, H. B. Schlegel, G. E. Scuseria, 
 M. A. Robb, J. R. Cheeseman, G. Scalmani, V. Barone, 
 G. A. Petersson, H. Nakatsuji, X. Li, M. Caricato, A. V. Marenich, 
 J. Bloino, B. G. Janesko, R. Gomperts, B. Mennucci, H. P. Hratchian, 
 J. V. Ortiz, A. F. Izmaylov, J. L. Sonnenberg, D. Williams-Young, 
 F. Ding, F. Lipparini, F. Egidi, J. Goings, B. Peng, A. Petrone, 
 T. Henderson, D. Ranasinghe, V. G. Zakrzewski, J. Gao, N. Rega, 
 G. Zheng, W. Liang, M. Hada, M. Ehara, K. Toyota, R. Fukuda, 
 J. Hasegawa, M. Ishida, T. Nakajima, Y. Honda, O. Kitao, H. Nakai, 
 T. Vreven, K. Throssell, J. A. Montgomery, Jr., J. E. Peralta, 
 F. Ogliaro, M. J. Bearpark, J. J. Heyd, E. N. Brothers, K. N. Kudin, 
 V. N. Staroverov, T. A. Keith, R. Kobayashi, J. Normand, 
 K. Raghavachari, A. P. Rendell, J. C. Burant, S. S. Iyengar, 
 J. Tomasi, M. Cossi, J. M. Millam, M. Klene, C. Adamo, R. Cammi, 
 J. W. Ochterski, R. L. Martin, K. Morokuma, O. Farkas, 
 J. B. Foresman, and D. J. Fox, Gaussian, Inc., Wallingford CT, 2019.
 
 ******************************************
 Gaussian 16:  ES64L-G16RevC.01  3-Jul-2019
                 4-Feb-2024 
 ******************************************
 %chk=PL3HL3_IRC_reverse.chk
 %mem=1600MB
 %nprocs=4
 Will use up to    4 processors via shared memory.
 ----------------------------------------------------------------------
 # irc=(reverse,calcfc,maxpoints=100,maxcycle=100) wb97xd/def2tzvpp geo
 m=connectivity
 ----------------------------------------------------------------------
 1/6=100,10=4,18=10,22=2,26=3,38=1,42=100,44=3,57=2,172=1/1,23;
 2/12=2,17=6,18=5,29=1,40=1/2;
 3/5=44,7=202,11=2,25=1,30=1,71=2,74=-58,140=1/1,2,3;
 4//1;
 5/5=2,38=5/2;
 8/6=4,10=90,11=11/1;
 11/6=1,8=1,9=11,15=111,16=1/1,2,10;
 10/6=1,13=1/2;
 6/7=2,8=2,9=2,10=2,28=1/1;
 7/10=1,25=1/1,2,3,16;
 1/6=100,10=4,18=10,22=2,26=3,42=100,44=3/23(2);
 2/29=1/2;
 99/5=20/99;
 2/29=1/2;
 3/5=44,7=202,11=2,25=1,30=1,71=2,74=-58,140=1/1,2,3;
 4/5=5,16=3,69=1/1;
 5/5=2,38=5/2;
 8/6=4,10=90,11=11/1;
 11/6=1,8=1,9=11,15=111,16=1/1,2,10;
 10/6=1,13=1/2;
 7/10=1,25=1/1,2,3,16;
 1/6=100,18=10,22=2,26=3,42=100,44=3/23(-8);
 2/29=1/2;
 6/7=2,8=2,9=2,10=2,19=2,28=1/1;
 99/5=20,9=1/99;
 --------------------------
 IRC P(=L)2(L) to H(=L)3 TS
 --------------------------
 Symbolic Z-matrix:
 Charge = -2 Multiplicity = 1
 Si                   -0.28548  -0.12738  -0.05062 
 O                     0.73388  -1.00099  -1.198 
 O                    -1.31554   0.65154   1.17764 
 O                    -1.74277  -0.57627  -0.91388 
 O                     0.08998   1.36762  -0.77865 
 O                     2.05985   0.72869   1.03334 
 O                     0.04638  -1.35738   1.11143 
 C                     2.15991   1.86919   0.35754 
 H                     3.21949   2.18186   0.07412 
 H                     1.75499   2.77474   0.90616 
 C                     1.39394   1.80469  -0.97663 
 H                     1.9311    1.11931  -1.65192 
 H                     1.36027   2.80424  -1.4514 
 C                     1.18025  -2.09894   0.81324 
 H                     2.07206  -1.58238   1.18861 
 H                     1.10829  -3.10248   1.26694 
 C                     1.24199  -2.18332  -0.71637 
 H                     2.27995  -2.34142  -1.05948 
 H                     0.64501  -3.05171  -1.0705 
 C                    -2.90597  -0.1      -0.34182 
 H                    -3.61377   0.25344  -1.11398 
 H                    -3.42025  -0.89613   0.23265 
 C                    -2.50657   1.03357   0.61481 
 H                    -2.41294   1.9772    0.04175 
 H                    -3.28304   1.1898    1.38613 
 
 IRC-IRC-IRC-IRC-IRC-IRC-IRC-IRC-IRC-IRC-IRC-IRC-IRC-IRC-IRC-IRC-IRC-IRC
 ------------------------------------------------------------------------
 INPUT DATA FOR L123
 ------------------------------------------------------------------------
 GENERAL PARAMETERS:
 Rxn path following direction = Reverse
 Maximum points per path      = 100
 Step size                    =   0.100 bohr
 Integration scheme           = HPC                                 
    Redo corrector integration= Yes                                 
    DWI Weight Power          =  2
    DWI will use Hessian update vectors when possible.
    Max correction cycles     = 100
 Initial Hessian              = CalcFC
 Hessian evaluation           = All updating
 Hessian updating method      = Bofill                              
 ------------------------------------------------------------------------
 IRC-IRC-IRC-IRC-IRC-IRC-IRC-IRC-IRC-IRC-IRC-IRC-IRC-IRC-IRC-IRC-IRC-IRC
                          Input orientation:                          
 ---------------------------------------------------------------------
 Center     Atomic      Atomic             Coordinates (Angstroms)
 Number     Number       Type             X           Y           Z
 ---------------------------------------------------------------------
      1         14           0       -0.285477   -0.127377   -0.050621
      2          8           0        0.733876   -1.000989   -1.198003
      3          8           0       -1.315540    0.651536    1.177636
      4          8           0       -1.742770   -0.576272   -0.913877
      5          8           0        0.089980    1.367615   -0.778652
      6          8           0        2.059849    0.728690    1.033336
      7          8           0        0.046376   -1.357378    1.111431
      8          6           0        2.159913    1.869191    0.357540
      9          1           0        3.219489    2.181857    0.074117
     10          1           0        1.754992    2.774740    0.906158
     11          6           0        1.393938    1.804692   -0.976630
     12          1           0        1.931097    1.119306   -1.651920
     13          1           0        1.360271    2.804243   -1.451396
     14          6           0        1.180252   -2.098938    0.813243
     15          1           0        2.072061   -1.582378    1.188607
     16          1           0        1.108288   -3.102480    1.266944
     17          6           0        1.241992   -2.183318   -0.716370
     18          1           0        2.279952   -2.341423   -1.059478
     19          1           0        0.645012   -3.051709   -1.070500
     20          6           0       -2.905970   -0.099999   -0.341819
     21          1           0       -3.613771    0.253436   -1.113983
     22          1           0       -3.420251   -0.896127    0.232646
     23          6           0       -2.506565    1.033570    0.614813
     24          1           0       -2.412943    1.977198    0.041750
     25          1           0       -3.283036    1.189802    1.386126
 ---------------------------------------------------------------------
                    Distance matrix (angstroms):
                    1          2          3          4          5
     1  Si   0.000000
     2  O    1.766002   0.000000
     3  O    1.782232   3.546069   0.000000
     4  O    1.752262   2.528811   2.462613   0.000000
     5  O    1.704699   2.490129   2.513030   2.675062   0.000000
     6  O    2.721832   3.119113   3.379353   4.467043   2.751710
     7  O    1.724353   2.435807   2.427948   2.813013   3.316610
     8  C    3.183208   3.562475   3.772799   4.777837   2.413946
     9  H    4.199156   4.234037   4.911835   5.762588   3.344254
    10  H    3.674401   4.441430   3.742975   5.174567   2.755150
    11  C    2.722282   2.890767   3.648548   3.938510   1.389438
    12  H    3.005258   2.476899   4.331957   4.113027   2.052795
    13  H    3.642122   3.864760   4.325034   4.620138   2.032271
    14  C    2.604165   2.334492   3.731872   3.720956   3.967343
    15  H    3.034913   2.797259   4.057873   4.470528   4.062168
    16  H    3.539745   3.260738   4.469402   4.389332   5.020275
    17  C    2.646370   1.374065   4.261998   3.395646   3.733649
    18  H    3.535706   2.050927   5.185561   4.395367   4.316457
    19  H    3.233834   2.056601   4.755197   3.442938   4.463593
    20  C    2.636765   3.846208   2.324439   1.380985   3.364585
    21  H    3.514726   4.525779   3.269842   2.056478   3.882218
    22  H    3.240066   4.394829   2.778142   2.056882   4.297554
    23  C    2.593035   4.233933   1.371590   2.347737   2.965700
    24  H    2.993974   4.506557   2.062016   2.807590   2.703567
    25  H    3.575551   5.254795   2.050424   3.283512   4.011872
                    6          7          8          9         10
     6  O    0.000000
     7  O    2.900319   0.000000
     8  C    1.329457   3.930157   0.000000
     9  H    2.092023   4.865270   1.140522   0.000000
    10  H    2.072543   4.476148   1.133562   1.785652   0.000000
    11  C    2.375117   4.021767   1.539769   2.139850   2.148545
    12  H    2.716571   4.162000   2.156992   2.401702   3.052087
    13  H    3.312284   5.060977   2.187693   2.484199   2.390551
    14  C    2.969446   1.387264   4.112596   4.798958   4.908329
    15  H    2.316310   2.039603   3.551298   4.090005   4.377761
    16  H    3.954479   2.048712   5.162407   5.814140   5.923690
    17  C    3.494303   2.335066   4.291700   4.856966   5.241956
    18  H    3.722084   3.266505   4.444279   4.756872   5.505854
    19  H    4.551846   2.826649   5.343171   5.943761   6.251939
    20  C    5.218921   3.522681   5.479962   6.549894   5.616595
    21  H    6.084966   4.576447   6.173449   7.198877   6.265905
    22  H    5.771710   3.605900   6.229030   7.320196   6.380597
    23  C    4.595677   3.532813   4.747680   5.865033   4.612746
    24  H    4.748461   4.279236   4.585019   5.636242   4.330699
    25  H    5.374338   4.201020   5.580793   6.707337   5.303218
                   11         12         13         14         15
    11  C    0.000000
    12  H    1.101958   0.000000
    13  H    1.107086   1.790270   0.000000
    14  C    4.299725   4.122850   5.403904   0.000000
    15  H    4.076806   3.922698   5.169014   1.096839   0.000000
    16  H    5.403291   5.198101   6.507092   1.103685   1.801584
    17  C    3.999381   3.501063   5.042818   1.533182   2.163118
    18  H    4.240537   3.528361   5.241879   2.185228   2.381859
    19  H    4.914706   4.403343   5.911755   2.177784   3.049421
    20  C    4.745529   5.157547   5.278882   4.693308   5.414836
    21  H    5.244274   5.637789   5.600139   5.677193   6.403188
    22  H    5.650946   6.020838   6.275518   4.790457   5.616965
    23  C    4.282668   4.983801   4.728311   4.841962   5.304360
    24  H    3.944515   4.740800   4.141332   5.488273   5.839617
    25  H    5.275869   6.035054   5.676112   5.573594   6.033329
                   16         17         18         19         20
    16  H    0.000000
    17  C    2.190039   0.000000
    18  H    2.713714   1.104573   0.000000
    19  H    2.383453   1.111709   1.782598   0.000000
    20  C    5.264720   4.656833   5.694981   4.674724   0.000000
    21  H    6.263292   5.447412   6.439894   5.391021   1.105503
    22  H    5.142512   4.928895   6.020862   4.782372   1.108294
    23  C    5.531668   5.115867   6.091352   5.427911   1.536115
    24  H    6.301055   5.589561   6.471975   5.989833   2.169089
    25  H    6.141793   6.022815   7.028326   6.281321   2.188963
                   21         22         23         24         25
    21  H    0.000000
    22  H    1.781111   0.000000
    23  C    2.196190   2.169010   0.000000
    24  H    2.397720   3.050755   1.107971   0.000000
    25  H    2.690114   2.387560   1.105549   1.784489   0.000000
 Symmetry turned off by external request.
 Stoichiometry    C6H12O6Si(2-)
 Framework group  C1[X(C6H12O6Si)]
 Deg. of freedom    69
 Full point group                 C1      NOp   1
 Rotational constants (GHZ):           0.9950533           0.7532654           0.5781285
 Standard basis: def2TZVPP (5D, 7F)
   582 basis functions,   885 primitive gaussians,   660 cartesian basis functions
    56 alpha electrons       56 beta electrons
       nuclear repulsion energy      1102.0001811591 Hartrees.
 NAtoms=   25 NActive=   25 NUniq=   25 SFac= 1.00D+00 NAtFMM=   60 NAOKFM=F Big=F
 Integral buffers will be    131072 words long.
 Raffenetti 2 integral format.
 Two-electron integral symmetry is turned off.
 Nuclear repulsion after empirical dispersion term =     1101.9847506279 Hartrees.
 One-electron integrals computed using PRISM.
   1 Symmetry operations used in ECPInt.
 ECPInt:  NShTT=   23871 NPrTT=   66401 LenC2=   22422 LenP2D=   47521.
 LDataN:  DoStor=T MaxTD1= 6 Len=  172
 NBasis=   582 RedAO= T EigKep=  2.44D-04  NBF=   582
 NBsUse=   582 1.00D-06 EigRej= -1.00D+00 NBFU=   582
 ExpMin= 7.01D-02 ExpMax= 4.48D+04 ExpMxC= 1.53D+03 IAcc=3 IRadAn=         5 AccDes= 0.00D+00
 Harris functional with IExCor= 4639 and IRadAn=       5 diagonalized for initial guess.
 HarFok:  IExCor= 4639 AccDes= 0.00D+00 IRadAn=         5 IDoV= 1 UseB2=F ITyADJ=14
 ICtDFT=  3500011 ScaDFX=  1.000000  1.000000  1.000000  1.000000
 FoFCou: FMM=F IPFlag=           0 FMFlag=      100000 FMFlg1=           0
         NFxFlg=           0 DoJE=T BraDBF=F KetDBF=T FulRan=T
         wScrn=  0.000000 ICntrl=       500 IOpCl=  0 I1Cent=   200000004 NGrid=           0
         NMat0=    1 NMatS0=      1 NMatT0=    0 NMatD0=    1 NMtDS0=    0 NMtDT0=    0
 Symmetry not used in FoFCou.
 Requested convergence on RMS density matrix=1.00D-08 within 128 cycles.
 Requested convergence on MAX density matrix=1.00D-06.
 Requested convergence on             energy=1.00D-06.
 No special actions if energy rises.
 Integral accuracy reduced to 1.0D-05 until final iterations.
 Initial convergence to 1.0D-05 achieved.  Increase integral accuracy.
 SCF Done:  E(RwB97XD) =  -976.849197257     A.U. after   16 cycles
            NFock= 16  Conv=0.71D-08     -V/T= 2.0037
 DoSCS=F DFT=T ScalE2(SS,OS)=  1.000000  1.000000
 Range of M.O.s used for correlation:     1   582
 NBasis=   582 NAE=    56 NBE=    56 NFC=     0 NFV=     0
 NROrb=    582 NOA=    56 NOB=    56 NVA=   526 NVB=   526

 **** Warning!!: The largest alpha MO coefficient is  0.11951322D+02

   1 Symmetry operations used in ECPInt.
 ECPInt:  NShTT=   23871 NPrTT=   66401 LenC2=   22422 LenP2D=   47521.
 LDataN:  DoStor=T MaxTD1= 7 Len=  274
 Number of processors reduced to   3 by ecpmxn.
 Symmetrizing basis deriv contribution to polar:
 IMax=3 JMax=2 DiffMx= 0.00D+00
 G2DrvN: will do    26 centers at a time, making    1 passes.
 Calling FoFCou, ICntrl=  3107 FMM=F I1Cent=   0 AccDes= 0.00D+00.
 End of G2Drv F.D. properties file   721 does not exist.
 End of G2Drv F.D. properties file   722 does not exist.
 End of G2Drv F.D. properties file   788 does not exist.
          IDoAtm=1111111111111111111111111
          Differentiating once with respect to nuclear coordinates.
 CalDSu exits because no D1Ps are significant.
          There are    78 degrees of freedom in the 1st order CPHF.  IDoFFX=6 NUNeed=     0.
     72 vectors produced by pass  0 Test12= 3.78D-14 1.28D-09 XBig12= 9.34D-02 3.68D-02.
 AX will form    72 AO Fock derivatives at one time.
     72 vectors produced by pass  1 Test12= 3.78D-14 1.28D-09 XBig12= 3.20D-02 1.90D-02.
     72 vectors produced by pass  2 Test12= 3.78D-14 1.28D-09 XBig12= 5.99D-04 2.69D-03.
     72 vectors produced by pass  3 Test12= 3.78D-14 1.28D-09 XBig12= 9.48D-06 3.21D-04.
     72 vectors produced by pass  4 Test12= 3.78D-14 1.28D-09 XBig12= 1.18D-07 3.15D-05.
     72 vectors produced by pass  5 Test12= 3.78D-14 1.28D-09 XBig12= 1.17D-09 2.97D-06.
     72 vectors produced by pass  6 Test12= 3.78D-14 1.28D-09 XBig12= 1.02D-11 2.52D-07.
     38 vectors produced by pass  7 Test12= 3.78D-14 1.28D-09 XBig12= 7.36D-14 1.84D-08.
      4 vectors produced by pass  8 Test12= 3.78D-14 1.28D-09 XBig12= 1.22D-15 2.63D-09.
      4 vectors produced by pass  9 Test12= 3.78D-14 1.28D-09 XBig12= 1.46D-15 2.71D-09.
      4 vectors produced by pass 10 Test12= 3.78D-14 1.28D-09 XBig12= 5.47D-15 8.05D-09.
      3 vectors produced by pass 11 Test12= 3.78D-14 1.28D-09 XBig12= 8.51D-16 2.44D-09.
 InvSVY:  IOpt=1 It=  1 EMax= 2.50D-16
 Solved reduced A of dimension   557 with    78 vectors.
 End of Minotr F.D. properties file   721 does not exist.
 End of Minotr F.D. properties file   722 does not exist.
 End of Minotr F.D. properties file   788 does not exist.

 **********************************************************************

            Population analysis using the SCF Density.

 **********************************************************************

 Alpha  occ. eigenvalues --  -65.99242 -18.92159 -18.91315 -18.90634 -18.90471
 Alpha  occ. eigenvalues --  -18.90434 -18.82084 -10.05071 -10.04346 -10.03869
 Alpha  occ. eigenvalues --  -10.02747 -10.01075  -9.99616  -5.10042  -3.44762
 Alpha  occ. eigenvalues --   -3.44494  -3.44486  -0.83581  -0.81160  -0.78098
 Alpha  occ. eigenvalues --   -0.76873  -0.75451  -0.69842  -0.53595  -0.51347
 Alpha  occ. eigenvalues --   -0.48182  -0.41277  -0.39475  -0.35930  -0.31952
 Alpha  occ. eigenvalues --   -0.29684  -0.28267  -0.27872  -0.27043  -0.25437
 Alpha  occ. eigenvalues --   -0.23358  -0.22114  -0.21627  -0.20751  -0.19592
 Alpha  occ. eigenvalues --   -0.18934  -0.17595  -0.15165  -0.11801  -0.09910
 Alpha  occ. eigenvalues --   -0.09219  -0.08508  -0.07797  -0.07192  -0.06060
 Alpha  occ. eigenvalues --   -0.05456  -0.04858  -0.02867  -0.01910   0.03702
 Alpha  occ. eigenvalues --    0.04531
 Alpha virt. eigenvalues --    0.35942   0.37098   0.38387   0.40015   0.40100
 Alpha virt. eigenvalues --    0.40792   0.41526   0.42523   0.43210   0.43628
 Alpha virt. eigenvalues --    0.45584   0.46135   0.47356   0.48613   0.49099
 Alpha virt. eigenvalues --    0.49816   0.52120   0.52316   0.52847   0.53303
 Alpha virt. eigenvalues --    0.53670   0.54961   0.55247   0.56287   0.56918
 Alpha virt. eigenvalues --    0.57794   0.60206   0.61964   0.64098   0.64654
 Alpha virt. eigenvalues --    0.65264   0.66545   0.67470   0.67602   0.68751
 Alpha virt. eigenvalues --    0.69557   0.69890   0.71022   0.71903   0.72319
 Alpha virt. eigenvalues --    0.72548   0.73509   0.74294   0.74692   0.75137
 Alpha virt. eigenvalues --    0.75882   0.76592   0.77128   0.77273   0.77992
 Alpha virt. eigenvalues --    0.78499   0.79170   0.79514   0.79658   0.80682
 Alpha virt. eigenvalues --    0.81329   0.82263   0.82736   0.84142   0.85256
 Alpha virt. eigenvalues --    0.86028   0.86571   0.87131   0.88481   0.88969
 Alpha virt. eigenvalues --    0.90875   0.91328   0.92372   0.93909   0.96677
 Alpha virt. eigenvalues --    0.97026   0.99403   1.00052   1.00320   1.00634
 Alpha virt. eigenvalues --    1.03503   1.04713   1.05286   1.06629   1.06815
 Alpha virt. eigenvalues --    1.08667   1.10317   1.10895   1.11351   1.12948
 Alpha virt. eigenvalues --    1.13167   1.14486   1.15774   1.16954   1.17662
 Alpha virt. eigenvalues --    1.17804   1.18841   1.19883   1.20369   1.21339
 Alpha virt. eigenvalues --    1.21876   1.23302   1.24917   1.25102   1.26942
 Alpha virt. eigenvalues --    1.28557   1.29810   1.30854   1.31491   1.32081
 Alpha virt. eigenvalues --    1.33013   1.33811   1.33959   1.35382   1.36878
 Alpha virt. eigenvalues --    1.38331   1.39169   1.39798   1.41062   1.41753
 Alpha virt. eigenvalues --    1.42050   1.43801   1.44233   1.45091   1.45872
 Alpha virt. eigenvalues --    1.46938   1.47602   1.48586   1.49305   1.49740
 Alpha virt. eigenvalues --    1.51247   1.52508   1.53298   1.54077   1.55558
 Alpha virt. eigenvalues --    1.56225   1.56703   1.57618   1.58719   1.59677
 Alpha virt. eigenvalues --    1.60157   1.60754   1.62624   1.63484   1.65035
 Alpha virt. eigenvalues --    1.65972   1.66948   1.67425   1.68214   1.68837
 Alpha virt. eigenvalues --    1.70449   1.71494   1.72826   1.73785   1.74043
 Alpha virt. eigenvalues --    1.75001   1.76514   1.77292   1.77649   1.78873
 Alpha virt. eigenvalues --    1.79315   1.80723   1.83143   1.83927   1.85300
 Alpha virt. eigenvalues --    1.86552   1.87530   1.88989   1.90022   1.90073
 Alpha virt. eigenvalues --    1.92127   1.92887   1.93293   1.94115   1.96242
 Alpha virt. eigenvalues --    1.96623   1.98501   2.00483   2.01631   2.04561
 Alpha virt. eigenvalues --    2.05208   2.07147   2.09821   2.15369   2.15735
 Alpha virt. eigenvalues --    2.17005   2.19565   2.21072   2.25032   2.25956
 Alpha virt. eigenvalues --    2.28392   2.29495   2.30028   2.32204   2.34525
 Alpha virt. eigenvalues --    2.36645   2.37408   2.38850   2.41387   2.41663
 Alpha virt. eigenvalues --    2.43390   2.44334   2.44599   2.46422   2.48163
 Alpha virt. eigenvalues --    2.49914   2.50621   2.52046   2.53625   2.55232
 Alpha virt. eigenvalues --    2.55631   2.56774   2.60519   2.61845   2.63664
 Alpha virt. eigenvalues --    2.64046   2.65728   2.67332   2.68423   2.71008
 Alpha virt. eigenvalues --    2.73881   2.74028   2.75638   2.76326   2.79015
 Alpha virt. eigenvalues --    2.81316   2.82468   2.85336   2.86910   2.88362
 Alpha virt. eigenvalues --    2.90248   2.92013   2.95568   2.96594   2.98716
 Alpha virt. eigenvalues --    2.99613   3.00125   3.01120   3.01694   3.02135
 Alpha virt. eigenvalues --    3.03766   3.04943   3.07011   3.10648   3.12702
 Alpha virt. eigenvalues --    3.14687   3.15032   3.15489   3.17581   3.18592
 Alpha virt. eigenvalues --    3.19617   3.21183   3.21527   3.23521   3.23888
 Alpha virt. eigenvalues --    3.25388   3.27094   3.27921   3.29734   3.30567
 Alpha virt. eigenvalues --    3.31607   3.32500   3.33418   3.34673   3.34964
 Alpha virt. eigenvalues --    3.35391   3.36238   3.37674   3.39050   3.40072
 Alpha virt. eigenvalues --    3.40560   3.43036   3.44425   3.45458   3.47154
 Alpha virt. eigenvalues --    3.47798   3.48534   3.49257   3.49780   3.50067
 Alpha virt. eigenvalues --    3.51386   3.51803   3.52915   3.53601   3.55033
 Alpha virt. eigenvalues --    3.55235   3.56495   3.56882   3.59261   3.60116
 Alpha virt. eigenvalues --    3.61394   3.62246   3.64105   3.65185   3.66343
 Alpha virt. eigenvalues --    3.68457   3.69003   3.70657   3.71710   3.72766
 Alpha virt. eigenvalues --    3.74353   3.74623   3.77961   3.79477   3.80920
 Alpha virt. eigenvalues --    3.82522   3.85229   3.85526   3.87806   3.88891
 Alpha virt. eigenvalues --    3.89754   3.90486   3.92771   3.93523   3.94071
 Alpha virt. eigenvalues --    3.94805   3.96576   3.97527   3.99171   4.00178
 Alpha virt. eigenvalues --    4.02086   4.03021   4.03493   4.03905   4.05456
 Alpha virt. eigenvalues --    4.06251   4.07129   4.08607   4.09499   4.10234
 Alpha virt. eigenvalues --    4.11095   4.11694   4.13079   4.14145   4.15183
 Alpha virt. eigenvalues --    4.16816   4.18603   4.18949   4.20456   4.20817
 Alpha virt. eigenvalues --    4.21966   4.23624   4.24592   4.29294   4.30294
 Alpha virt. eigenvalues --    4.31545   4.33358   4.33827   4.34582   4.34755
 Alpha virt. eigenvalues --    4.35649   4.38552   4.39749   4.41724   4.42291
 Alpha virt. eigenvalues --    4.42590   4.44444   4.46353   4.48722   4.49852
 Alpha virt. eigenvalues --    4.50697   4.51960   4.53123   4.54386   4.55353
 Alpha virt. eigenvalues --    4.57807   4.58327   4.59486   4.60660   4.62851
 Alpha virt. eigenvalues --    4.63239   4.65689   4.67007   4.68528   4.69082
 Alpha virt. eigenvalues --    4.70338   4.71449   4.72399   4.73020   4.74629
 Alpha virt. eigenvalues --    4.82631   4.84096   4.86872   4.87323   4.91143
 Alpha virt. eigenvalues --    4.93197   4.93638   4.94312   4.95928   4.97092
 Alpha virt. eigenvalues --    4.99873   5.01802   5.02580   5.05158   5.05399
 Alpha virt. eigenvalues --    5.06714   5.09142   5.11778   5.12950   5.14123
 Alpha virt. eigenvalues --    5.14659   5.16266   5.16909   5.18769   5.19419
 Alpha virt. eigenvalues --    5.21648   5.23186   5.25903   5.27244   5.27978
 Alpha virt. eigenvalues --    5.28735   5.30882   5.31915   5.34404   5.34722
 Alpha virt. eigenvalues --    5.37091   5.38442   5.39712   5.42921   5.43597
 Alpha virt. eigenvalues --    5.46567   5.46965   5.48917   5.51400   5.52562
 Alpha virt. eigenvalues --    5.53893   5.54837   5.57418   5.61717   5.62477
 Alpha virt. eigenvalues --    5.64883   5.66026   5.67023   5.69141   5.71156
 Alpha virt. eigenvalues --    5.73048   5.73683   5.75279   5.77319   5.78144
 Alpha virt. eigenvalues --    5.79117   5.80819   5.82045   5.83773   5.84551
 Alpha virt. eigenvalues --    5.86025   5.87100   5.88225   5.89271   5.91481
 Alpha virt. eigenvalues --    5.92572   5.94476   5.95057   5.98541   5.99426
 Alpha virt. eigenvalues --    6.00276   6.00908   6.02246   6.06566   6.08387
 Alpha virt. eigenvalues --    6.09759   6.10719   6.12449   6.13366   6.16186
 Alpha virt. eigenvalues --    6.19632   6.36491   6.37440   6.38622   6.41613
 Alpha virt. eigenvalues --    6.44159   6.46341   6.48090   6.48332   6.52263
 Alpha virt. eigenvalues --    6.54267   6.54465   6.55692   6.57759   6.60257
 Alpha virt. eigenvalues --    6.61820   6.63743   6.69017   6.70411   6.75823
 Alpha virt. eigenvalues --    6.98245   7.00377   7.00831   7.05123   7.06382
 Alpha virt. eigenvalues --    7.10482   7.11327   7.11845   7.16115   7.18391
 Alpha virt. eigenvalues --    7.19089   7.23480   7.29472   7.33653   7.34843
 Alpha virt. eigenvalues --    7.37930   7.40956   7.41568   7.42441   7.44594
 Alpha virt. eigenvalues --    7.46315   7.50818   7.53615   7.56226   7.56776
 Alpha virt. eigenvalues --    7.63724   7.68255   7.70745   7.79431   7.85765
 Alpha virt. eigenvalues --    7.93483   7.97106   8.01731  12.46474  23.66374
 Alpha virt. eigenvalues --   23.67847  23.73258  23.79235  23.81651  23.84475
 Alpha virt. eigenvalues --   44.48171  44.54131  44.57830  44.61941  44.70554
 Alpha virt. eigenvalues --   44.75947
          Condensed to atoms (all electrons):
               1          2          3          4          5          6
     1  Si  11.543285   0.342951   0.374378   0.380318   0.392323   0.086828
     2  O    0.342951   8.088096   0.005094  -0.032927  -0.051658  -0.006507
     3  O    0.374378   0.005094   8.066423  -0.032602  -0.046210  -0.002637
     4  O    0.380318  -0.032927  -0.032602   8.020145  -0.034127   0.000001
     5  O    0.392323  -0.051658  -0.046210  -0.034127   8.026256  -0.007027
     6  O    0.086828  -0.006507  -0.002637   0.000001  -0.007027   8.431925
     7  O    0.408395  -0.042565  -0.052032  -0.020596  -0.005927  -0.021953
     8  C   -0.019251  -0.004667   0.002076  -0.001114  -0.096583   0.528058
     9  H    0.008375  -0.000602  -0.000056   0.000013   0.009625  -0.063258
    10  H   -0.008738  -0.000068   0.001036  -0.000040   0.018136  -0.067550
    11  C   -0.061155  -0.004437   0.000085   0.000286   0.314246  -0.227087
    12  H   -0.029644   0.022921  -0.000414   0.000406  -0.054502   0.022248
    13  H    0.003222   0.000363  -0.000331  -0.000077  -0.034581   0.019114
    14  C   -0.050494  -0.103761   0.003975  -0.005744  -0.003114  -0.023364
    15  H   -0.022768   0.008454   0.000008  -0.000370   0.001019   0.035992
    16  H    0.006217   0.008367   0.000086   0.000135  -0.000118   0.001638
    17  C   -0.042943   0.381010  -0.000700   0.006379   0.002543   0.011820
    18  H    0.006003  -0.049431   0.000056  -0.000532  -0.000379  -0.000008
    19  H   -0.013236  -0.061572  -0.000019   0.002966  -0.000280   0.000268
    20  C   -0.069468   0.002515  -0.118277   0.384887  -0.004802  -0.000267
    21  H   -0.003476  -0.000198   0.007977  -0.049290   0.000714   0.000001
    22  H    0.009724   0.000117   0.015415  -0.066645  -0.000588   0.000017
    23  C   -0.062958  -0.001675   0.381464  -0.116528  -0.007878  -0.001095
    24  H    0.014218   0.000245  -0.063501   0.009962   0.017160   0.000300
    25  H   -0.003214   0.000054  -0.049710   0.005825  -0.000195  -0.000034
               7          8          9         10         11         12
     1  Si   0.408395  -0.019251   0.008375  -0.008738  -0.061155  -0.029644
     2  O   -0.042565  -0.004667  -0.000602  -0.000068  -0.004437   0.022921
     3  O   -0.052032   0.002076  -0.000056   0.001036   0.000085  -0.000414
     4  O   -0.020596  -0.001114   0.000013  -0.000040   0.000286   0.000406
     5  O   -0.005927  -0.096583   0.009625   0.018136   0.314246  -0.054502
     6  O   -0.021953   0.528058  -0.063258  -0.067550  -0.227087   0.022248
     7  O    8.003388   0.001856  -0.000574   0.000099  -0.003757   0.000519
     8  C    0.001856   4.796468   0.118861   0.282147   0.264899  -0.080671
     9  H   -0.000574   0.118861   1.323422  -0.182032  -0.068543  -0.020374
    10  H    0.000099   0.282147  -0.182032   1.222249  -0.180002   0.033228
    11  C   -0.003757   0.264899  -0.068543  -0.180002   5.287965   0.361246
    12  H    0.000519  -0.080671  -0.020374   0.033228   0.361246   0.823662
    13  H   -0.000218  -0.010055   0.036066   0.003603   0.192407  -0.065234
    14  C    0.332006  -0.002636   0.004989  -0.002006  -0.004611   0.000006
    15  H   -0.038179   0.003235  -0.003970   0.001865   0.002302   0.001180
    16  H   -0.046567  -0.000013  -0.000062   0.000069  -0.000242   0.000062
    17  C   -0.111110   0.001436  -0.001848   0.001218  -0.004180   0.003669
    18  H    0.006643  -0.000336   0.000184   0.000036   0.002496  -0.001202
    19  H    0.012492  -0.000092   0.000002   0.000002   0.000378   0.000517
    20  C   -0.002129  -0.000273  -0.000010   0.000057   0.000153  -0.000286
    21  H   -0.000328   0.000003  -0.000000  -0.000002   0.000109   0.000013
    22  H    0.001391  -0.000032   0.000001  -0.000002  -0.000039   0.000004
    23  C    0.001505   0.000623  -0.000094   0.000417  -0.002720  -0.000275
    24  H   -0.000653  -0.001172   0.000043   0.000451  -0.000003   0.000475
    25  H    0.000218  -0.000000  -0.000004  -0.000004   0.000213   0.000002
              13         14         15         16         17         18
     1  Si   0.003222  -0.050494  -0.022768   0.006217  -0.042943   0.006003
     2  O    0.000363  -0.103761   0.008454   0.008367   0.381010  -0.049431
     3  O   -0.000331   0.003975   0.000008   0.000086  -0.000700   0.000056
     4  O   -0.000077  -0.005744  -0.000370   0.000135   0.006379  -0.000532
     5  O   -0.034581  -0.003114   0.001019  -0.000118   0.002543  -0.000379
     6  O    0.019114  -0.023364   0.035992   0.001638   0.011820  -0.000008
     7  O   -0.000218   0.332006  -0.038179  -0.046567  -0.111110   0.006643
     8  C   -0.010055  -0.002636   0.003235  -0.000013   0.001436  -0.000336
     9  H    0.036066   0.004989  -0.003970  -0.000062  -0.001848   0.000184
    10  H    0.003603  -0.002006   0.001865   0.000069   0.001218   0.000036
    11  C    0.192407  -0.004611   0.002302  -0.000242  -0.004180   0.002496
    12  H   -0.065234   0.000006   0.001180   0.000062   0.003669  -0.001202
    13  H    0.911425   0.000603  -0.000166  -0.000002   0.000322  -0.000096
    14  C    0.000603   4.961771   0.387893   0.287660   0.199652  -0.009254
    15  H   -0.000166   0.387893   0.725992  -0.076168  -0.056241  -0.018512
    16  H   -0.000002   0.287660  -0.076168   0.870523  -0.006360   0.015404
    17  C    0.000322   0.199652  -0.056241  -0.006360   4.825397   0.320943
    18  H   -0.000096  -0.009254  -0.018512   0.015404   0.320943   0.883738
    19  H    0.000034  -0.047871   0.019520  -0.025813   0.347508  -0.120883
    20  C   -0.000248  -0.001792  -0.000142   0.000420   0.000835   0.000038
    21  H    0.000009  -0.000024  -0.000004  -0.000003  -0.000016  -0.000006
    22  H    0.000006   0.000715   0.000028  -0.000037  -0.000479  -0.000010
    23  C    0.000483  -0.000817  -0.000062   0.000024  -0.000802   0.000030
    24  H    0.000203   0.000029  -0.000002   0.000003  -0.000009  -0.000002
    25  H   -0.000066   0.000180   0.000006  -0.000006  -0.000007   0.000001
              19         20         21         22         23         24
     1  Si  -0.013236  -0.069468  -0.003476   0.009724  -0.062958   0.014218
     2  O   -0.061572   0.002515  -0.000198   0.000117  -0.001675   0.000245
     3  O   -0.000019  -0.118277   0.007977   0.015415   0.381464  -0.063501
     4  O    0.002966   0.384887  -0.049290  -0.066645  -0.116528   0.009962
     5  O   -0.000280  -0.004802   0.000714  -0.000588  -0.007878   0.017160
     6  O    0.000268  -0.000267   0.000001   0.000017  -0.001095   0.000300
     7  O    0.012492  -0.002129  -0.000328   0.001391   0.001505  -0.000653
     8  C   -0.000092  -0.000273   0.000003  -0.000032   0.000623  -0.001172
     9  H    0.000002  -0.000010  -0.000000   0.000001  -0.000094   0.000043
    10  H    0.000002   0.000057  -0.000002  -0.000002   0.000417   0.000451
    11  C    0.000378   0.000153   0.000109  -0.000039  -0.002720  -0.000003
    12  H    0.000517  -0.000286   0.000013   0.000004  -0.000275   0.000475
    13  H    0.000034  -0.000248   0.000009   0.000006   0.000483   0.000203
    14  C   -0.047871  -0.001792  -0.000024   0.000715  -0.000817   0.000029
    15  H    0.019520  -0.000142  -0.000004   0.000028  -0.000062  -0.000002
    16  H   -0.025813   0.000420  -0.000003  -0.000037   0.000024   0.000003
    17  C    0.347508   0.000835  -0.000016  -0.000479  -0.000802  -0.000009
    18  H   -0.120883   0.000038  -0.000006  -0.000010   0.000030  -0.000002
    19  H    0.927362  -0.000513  -0.000008   0.000090  -0.000110   0.000008
    20  C   -0.000513   4.872610   0.307914   0.360934   0.245919  -0.099717
    21  H   -0.000008   0.307914   0.897733  -0.115381  -0.006123  -0.014589
    22  H    0.000090   0.360934  -0.115381   0.891133  -0.064427   0.024463
    23  C   -0.000110   0.245919  -0.006123  -0.064427   4.859782   0.372423
    24  H    0.000008  -0.099717  -0.014589   0.024463   0.372423   0.872797
    25  H   -0.000004   0.001171   0.015141  -0.027123   0.302531  -0.112286
              25
     1  Si  -0.003214
     2  O    0.000054
     3  O   -0.049710
     4  O    0.005825
     5  O   -0.000195
     6  O   -0.000034
     7  O    0.000218
     8  C   -0.000000
     9  H   -0.000004
    10  H   -0.000004
    11  C    0.000213
    12  H    0.000002
    13  H   -0.000066
    14  C    0.000180
    15  H    0.000006
    16  H   -0.000006
    17  C   -0.000007
    18  H    0.000001
    19  H   -0.000004
    20  C    0.001171
    21  H    0.015141
    22  H   -0.027123
    23  C    0.302531
    24  H   -0.112286
    25  H    0.897866
 Mulliken charges:
               1
     1  Si   0.811110
     2  O   -0.500119
     3  O   -0.491584
     4  O   -0.450733
     5  O   -0.434050
     6  O   -0.717422
     7  O   -0.421922
     8  C    0.217233
     9  H   -0.160156
    10  H   -0.124169
    11  C    0.129992
    12  H   -0.017557
    13  H   -0.056787
    14  C    0.076005
    15  H    0.029087
    16  H   -0.035220
    17  C    0.121965
    18  H   -0.034920
    19  H   -0.040745
    20  C    0.120471
    21  H   -0.040164
    22  H   -0.029275
    23  C    0.100365
    24  H   -0.020846
    25  H   -0.030556
 Sum of Mulliken charges =  -2.00000
 Mulliken charges with hydrogens summed into heavy atoms:
               1
     1  Si   0.811110
     2  O   -0.500119
     3  O   -0.491584
     4  O   -0.450733
     5  O   -0.434050
     6  O   -0.717422
     7  O   -0.421922
     8  C   -0.067092
    11  C    0.055647
    14  C    0.069872
    17  C    0.046299
    20  C    0.051032
    23  C    0.048963
 APT charges:
               1
     1  Si   0.103422
     2  O   -0.403573
     3  O   -0.413224
     4  O   -0.392457
     5  O   -0.376802
     6  O   -0.627645
     7  O   -0.354480
     8  C   -0.383009
     9  H    0.118651
    10  H    0.106814
    11  C   -0.393165
    12  H    0.189620
    13  H    0.298964
    14  C   -0.539107
    15  H    0.235774
    16  H    0.396701
    17  C   -0.527939
    18  H    0.348458
    19  H    0.317931
    20  C   -0.552317
    21  H    0.380781
    22  H    0.335796
    23  C   -0.486831
    24  H    0.219280
    25  H    0.398357
 Sum of APT charges =  -2.00000
 APT charges with hydrogens summed into heavy atoms:
               1
     1  Si   0.103422
     2  O   -0.403573
     3  O   -0.413224
     4  O   -0.392457
     5  O   -0.376802
     6  O   -0.627645
     7  O   -0.354480
     8  C   -0.157544
    11  C    0.095419
    14  C    0.093368
    17  C    0.138450
    20  C    0.164260
    23  C    0.130806
 Electronic spatial extent (au):  <R**2>=           2338.3124
 Charge=             -2.0000 electrons
 Dipole moment (field-independent basis, Debye):
    X=             -3.6602    Y=             -2.3051    Z=             -1.9958  Tot=              4.7638
 Quadrupole moment (field-independent basis, Debye-Ang):
   XX=           -122.8796   YY=           -112.1518   ZZ=           -110.0287
   XY=             -8.1033   XZ=             -5.1460   YZ=             -3.2198
 Traceless Quadrupole moment (field-independent basis, Debye-Ang):
   XX=             -7.8596   YY=              2.8682   ZZ=              4.9913
   XY=             -8.1033   XZ=             -5.1460   YZ=             -3.2198
 Octapole moment (field-independent basis, Debye-Ang**2):
  XXX=            -30.8851  YYY=            -18.7282  ZZZ=             -3.0411  XYY=            -22.8791
  XXY=            -25.8219  XXZ=            -11.6985  XZZ=             -7.6170  YZZ=             -2.0567
  YYZ=              0.0394  XYZ=             -2.0974
 Hexadecapole moment (field-independent basis, Debye-Ang**3):
 XXXX=          -1908.7784 YYYY=          -1328.1600 ZZZZ=           -543.6145 XXXY=            -76.3242
 XXXZ=            -35.4763 YYYX=            -39.2889 YYYZ=             -2.7279 ZZZX=              0.4808
 ZZZY=             -4.2255 XXYY=           -555.1460 XXZZ=           -403.7694 YYZZ=           -316.1022
 XXYZ=            -21.1082 YYXZ=              1.2227 ZZXY=             -9.8847
 N-N= 1.101984750628D+03 E-N=-4.545843256029D+03  KE= 9.732728606871D+02
  Exact polarizability:       0.000       0.000       0.000       0.000       0.000       0.000
 Approx polarizability:     137.775      -1.827     140.281      -2.828      -4.897     124.686
   1 Symmetry operations used in ECPInt.
 ECPInt:  NShTT=   23871 NPrTT=   66401 LenC2=   22422 LenP2D=   47521.
 LDataN:  DoStor=T MaxTD1= 8 Len=  415
 Calling FoFJK, ICntrl=    100127 FMM=F ISym2X=0 I1Cent= 0 IOpClX= 0 NMat=1 NMatS=1 NMatT=0.
 -------------------------------------------------------------------
 Center     Atomic                   Forces (Hartrees/Bohr)
 Number     Number              X              Y              Z
 -------------------------------------------------------------------
      1       14          -0.000005342    0.000003129   -0.000008587
      2        8           0.000000146   -0.000000286    0.000001426
      3        8          -0.000003445    0.000001281    0.000002556
      4        8           0.000004199   -0.000002096    0.000000446
      5        8           0.000000782   -0.000004418    0.000001641
      6        8           0.000008196    0.000011736    0.000002564
      7        8           0.000004601    0.000007720   -0.000000908
      8        6           0.000000184    0.000001594    0.000000940
      9        1          -0.000000366    0.000001429   -0.000001377
     10        1          -0.000001541    0.000001827   -0.000002132
     11        6           0.000000553    0.000000327   -0.000001123
     12        1           0.000000324   -0.000001640   -0.000000201
     13        1          -0.000000981   -0.000000846   -0.000001539
     14        6           0.000000807    0.000001840    0.000001821
     15        1          -0.000010700   -0.000013896    0.000002624
     16        1           0.000000868    0.000001398    0.000003142
     17        6           0.000002234   -0.000001973    0.000002819
     18        1           0.000000782    0.000000036    0.000002773
     19        1           0.000000940   -0.000000487    0.000003013
     20        6           0.000000633   -0.000000921    0.000001439
     21        1           0.000000250   -0.000002198   -0.000001506
     22        1          -0.000000102   -0.000000799   -0.000000410
     23        6          -0.000001332   -0.000002112   -0.000005200
     24        1          -0.000000291   -0.000001079   -0.000002713
     25        1          -0.000001399    0.000000432   -0.000001508
 -------------------------------------------------------------------
 Cartesian Forces:  Max     0.000013896 RMS     0.000003514
 IRC-IRC-IRC-IRC-IRC-IRC-IRC-IRC-IRC-IRC-IRC-IRC-IRC-IRC-IRC-IRC-IRC-IRC
          ******** Start new reaction path calculation ********
 Supplied step size of   0.1000 bohr.
    Integration on MW PES will use step size of   0.3120 sqrt(amu)*bohr.
 Point Number:   0          Path Number:   1
 Calculating another point on the path.
 IRC-IRC-IRC-IRC-IRC-IRC-IRC-IRC-IRC-IRC-IRC-IRC-IRC-IRC-IRC-IRC-IRC-IRC
                          Input orientation:                          
 ---------------------------------------------------------------------
 Center     Atomic      Atomic             Coordinates (Angstroms)
 Number     Number       Type             X           Y           Z
 ---------------------------------------------------------------------
      1         14           0       -0.285689   -0.124663   -0.059358
      2          8           0        0.735196   -0.996857   -1.205874
      3          8           0       -1.315640    0.652691    1.170172
      4          8           0       -1.740813   -0.571048   -0.923284
      5          8           0        0.099711    1.371604   -0.773978
      6          8           0        2.096624    0.741744    1.032168
      7          8           0        0.056471   -1.346080    1.105932
      8          6           0        2.177359    1.879734    0.351248
      9          1           0        3.231606    2.205186    0.057389
     10          1           0        1.766531    2.783699    0.899037
     11          6           0        1.404193    1.806264   -0.978512
     12          1           0        1.937988    1.116850   -1.652042
     13          1           0        1.368729    2.803270   -1.458561
     14          6           0        1.191463   -2.086692    0.807084
     15          1           0        2.082552   -1.565665    1.177600
     16          1           0        1.122449   -3.088346    1.265058
     17          6           0        1.248438   -2.176426   -0.722296
     18          1           0        2.285665   -2.332062   -1.068185
     19          1           0        0.652957   -3.047626   -1.072001
     20          6           0       -2.904502   -0.093217   -0.352374
     21          1           0       -3.610059    0.261781   -1.125619
     22          1           0       -3.420476   -0.889370    0.220176
     23          6           0       -2.504734    1.038451    0.606277
     24          1           0       -2.408196    1.982716    0.034752
     25          1           0       -3.282285    1.195114    1.376335
 ---------------------------------------------------------------------
                    Distance matrix (angstroms):
                    1          2          3          4          5
     1  Si   0.000000
     2  O    1.765624   0.000000
     3  O    1.782364   3.545776   0.000000
     4  O    1.750147   2.528198   2.461883   0.000000
     5  O    1.702360   2.489977   2.509935   2.680245   0.000000
     6  O    2.759982   3.144050   3.416214   4.502570   2.765240
     7  O    1.722450   2.434557   2.425263   2.819329   3.304805
     8  C    3.202001   3.574807   3.791743   4.794042   2.416807
     9  H    4.220567   4.252174   4.932137   5.778767   3.345863
    10  H    3.686284   4.448248   3.756925   5.184268   2.751596
    11  C    2.725623   2.890803   3.653090   3.942806   1.390121
    12  H    3.003787   2.472556   4.332024   4.112622   2.053086
    13  H    3.642479   3.860852   4.329095   4.619717   2.031927
    14  C    2.604277   2.334078   3.731168   3.726874   3.956197
    15  H    3.035641   2.796401   4.058186   4.474494   4.045722
    16  H    3.538410   3.260336   4.466389   4.395895   5.009472
    17  C    2.646274   1.374281   4.261436   3.399008   3.729714
    18  H    3.535846   2.050777   5.185402   4.397123   4.310696
    19  H    3.232680   2.056778   4.753426   3.447562   4.463686
    20  C    2.635343   3.846093   2.323577   1.381461   3.368790
    21  H    3.512505   4.524583   3.269224   2.056362   3.888155
    22  H    3.238798   4.394859   2.776829   2.056721   4.300240
    23  C    2.592309   4.233617   1.371399   2.348110   2.966349
    24  H    2.992480   4.505322   2.061995   2.808015   2.705014
    25  H    3.575278   5.254778   2.050468   3.283856   4.011594
                    6          7          8          9         10
     6  O    0.000000
     7  O    2.920047   0.000000
     8  C    1.328605   3.933649   0.000000
     9  H    2.092855   4.877747   1.141800   0.000000
    10  H    2.072744   4.474615   1.134022   1.785915   0.000000
    11  C    2.378129   4.012297   1.539950   2.138146   2.147524
    12  H    2.714932   4.148801   2.156957   2.404180   3.052178
    13  H    3.314129   5.051311   2.186827   2.475100   2.391004
    14  C    2.978259   1.387813   4.112459   4.810868   4.905086
    15  H    2.312031   2.039206   3.544379   4.098112   4.369718
    16  H    3.958894   2.048687   5.160398   5.824817   5.918591
    17  C    3.509028   2.335097   4.297421   4.872309   5.244043
    18  H    3.727667   3.266229   4.445869   4.769523   5.505495
    19  H    4.568482   2.827445   5.350544   5.959614   6.255349
    20  C    5.255985   3.530394   5.496630   6.565241   5.626831
    21  H    6.119856   4.583500   6.188144   7.210043   6.274314
    22  H    5.810186   3.616947   6.246670   7.338459   6.391974
    23  C    4.630541   3.534885   4.763906   5.879469   4.623343
    24  H    4.777892   4.278188   4.597619   5.644234   4.337846
    25  H    5.408942   4.204530   5.597073   6.722398   5.314316
                   11         12         13         14         15
    11  C    0.000000
    12  H    1.101759   0.000000
    13  H    1.107125   1.790392   0.000000
    14  C    4.288206   4.106980   5.392244   0.000000
    15  H    4.059421   3.901751   5.152328   1.096718   0.000000
    16  H    5.391678   5.182494   6.495374   1.103546   1.802222
    17  C    3.993961   3.490784   5.035268   1.533070   2.162956
    18  H    4.232113   3.515218   5.231137   2.184976   2.381631
    19  H    4.912570   4.396659   5.907177   2.178152   3.049697
    20  C    4.750256   5.157820   5.279563   4.700555   5.420299
    21  H    5.248790   5.638182   5.599852   5.683773   6.407043
    22  H    5.655151   6.020238   6.276164   4.800836   5.626488
    23  C    4.287284   4.984369   4.730947   4.844452   5.305755
    24  H    3.948690   4.741763   4.143483   5.487634   5.836432
    25  H    5.280329   6.035598   5.679324   5.577519   6.036794
                   16         17         18         19         20
    16  H    0.000000
    17  C    2.190216   0.000000
    18  H    2.714601   1.104401   0.000000
    19  H    2.384099   1.111702   1.782634   0.000000
    20  C    5.272876   4.660850   5.697600   4.679948   0.000000
    21  H    6.271787   5.450919   6.441342   5.397069   1.105324
    22  H    5.154167   4.933917   6.025055   4.787552   1.108108
    23  C    5.533615   5.117308   6.091971   5.429885   1.536066
    24  H    6.300379   5.589505   6.470403   5.991653   2.169259
    25  H    6.145086   6.024864   7.029845   6.283416   2.188824
                   21         22         23         24         25
    21  H    0.000000
    22  H    1.781082   0.000000
    23  C    2.196456   2.168905   0.000000
    24  H    2.398448   3.050897   1.107970   0.000000
    25  H    2.690413   2.387650   1.105494   1.784430   0.000000
 Symmetry turned off by external request.
 Stoichiometry    C6H12O6Si(2-)
 Framework group  C1[X(C6H12O6Si)]
 Deg. of freedom    69
 Full point group                 C1      NOp   1
 Rotational constants (GHZ):           0.9965360           0.7486331           0.5757116
 Standard basis: def2TZVPP (5D, 7F)
   582 basis functions,   885 primitive gaussians,   660 cartesian basis functions
    56 alpha electrons       56 beta electrons
       nuclear repulsion energy      1101.0263820206 Hartrees.
 NAtoms=   25 NActive=   25 NUniq=   25 SFac= 1.00D+00 NAtFMM=   60 NAOKFM=F Big=F
 Integral buffers will be    131072 words long.
 Raffenetti 2 integral format.
 Two-electron integral symmetry is turned off.
 Nuclear repulsion after empirical dispersion term =     1101.0109549277 Hartrees.
 One-electron integrals computed using PRISM.
   1 Symmetry operations used in ECPInt.
 ECPInt:  NShTT=   23871 NPrTT=   66401 LenC2=   22415 LenP2D=   47486.
 LDataN:  DoStor=T MaxTD1= 6 Len=  172
 NBasis=   582 RedAO= T EigKep=  2.44D-04  NBF=   582
 NBsUse=   582 1.00D-06 EigRej= -1.00D+00 NBFU=   582
 Initial guess from the checkpoint file:  "PL3HL3_IRC_reverse.chk"
 B after Tr=     0.014662    0.012118   -0.011466
         Rot=    1.000000    0.000072    0.000007   -0.000036 Ang=   0.01 deg.
 ExpMin= 7.01D-02 ExpMax= 4.48D+04 ExpMxC= 1.53D+03 IAcc=3 IRadAn=         5 AccDes= 0.00D+00
 Harris functional with IExCor= 4639 and IRadAn=       5 diagonalized for initial guess.
 HarFok:  IExCor= 4639 AccDes= 0.00D+00 IRadAn=         5 IDoV= 1 UseB2=F ITyADJ=14
 ICtDFT=  3500011 ScaDFX=  1.000000  1.000000  1.000000  1.000000
 FoFCou: FMM=F IPFlag=           0 FMFlag=      100000 FMFlg1=           0
         NFxFlg=           0 DoJE=T BraDBF=F KetDBF=T FulRan=T
         wScrn=  0.000000 ICntrl=       500 IOpCl=  0 I1Cent=   200000004 NGrid=           0
         NMat0=    1 NMatS0=      1 NMatT0=    0 NMatD0=    1 NMtDS0=    0 NMtDT0=    0
 Symmetry not used in FoFCou.
 Requested convergence on RMS density matrix=1.00D-08 within 128 cycles.
 Requested convergence on MAX density matrix=1.00D-06.
 Requested convergence on             energy=1.00D-06.
 No special actions if energy rises.
 Integral accuracy reduced to 1.0D-05 until final iterations.
 Initial convergence to 1.0D-05 achieved.  Increase integral accuracy.
 SCF Done:  E(RwB97XD) =  -976.849228707     A.U. after   13 cycles
            NFock= 13  Conv=0.39D-08     -V/T= 2.0037
 DoSCS=F DFT=T ScalE2(SS,OS)=  1.000000  1.000000
 Range of M.O.s used for correlation:     1   582
 NBasis=   582 NAE=    56 NBE=    56 NFC=     0 NFV=     0
 NROrb=    582 NOA=    56 NOB=    56 NVA=   526 NVB=   526

 **** Warning!!: The largest alpha MO coefficient is  0.12188049D+02

 Symmetrizing basis deriv contribution to polar:
 IMax=3 JMax=2 DiffMx= 0.00D+00
   1 Symmetry operations used in ECPInt.
 ECPInt:  NShTT=   23871 NPrTT=   66401 LenC2=   22415 LenP2D=   47486.
 LDataN:  DoStor=T MaxTD1= 7 Len=  274
 Calling FoFJK, ICntrl=      2127 FMM=F ISym2X=0 I1Cent= 0 IOpClX= 0 NMat=1 NMatS=1 NMatT=0.
 -------------------------------------------------------------------
 Center     Atomic                   Forces (Hartrees/Bohr)
 Number     Number              X              Y              Z
 -------------------------------------------------------------------
      1       14          -0.000266285   -0.000082455   -0.000114866
      2        8          -0.000121122   -0.000064405   -0.000040214
      3        8          -0.000172401   -0.000092475   -0.000031734
      4        8          -0.000113864   -0.000027120   -0.000065054
      5        8           0.000070634   -0.000061253    0.000226832
      6        8           0.000582539    0.000268355    0.000027963
      7        8           0.000045034    0.000078863    0.000014755
      8        6           0.000164320    0.000021409    0.000016890
      9        1          -0.000060482   -0.000008089    0.000002577
     10        1           0.000011131   -0.000023662   -0.000005139
     11        6           0.000035823   -0.000083216    0.000062995
     12        1          -0.000001448   -0.000001187    0.000011662
     13        1          -0.000000088   -0.000020119    0.000004879
     14        6           0.000047319    0.000097547   -0.000001623
     15        1          -0.000010671   -0.000003189   -0.000006925
     16        1           0.000012576    0.000016633    0.000004307
     17        6          -0.000019012    0.000011076    0.000003785
     18        1          -0.000005310    0.000002918   -0.000001001
     19        1           0.000006204    0.000002449    0.000011801
     20        6          -0.000090865    0.000001876   -0.000060823
     21        1          -0.000003829   -0.000000847   -0.000006988
     22        1          -0.000008775    0.000000482   -0.000008371
     23        6          -0.000086356   -0.000028521   -0.000036688
     24        1          -0.000004341   -0.000004570   -0.000002566
     25        1          -0.000010730   -0.000000501   -0.000006453
 -------------------------------------------------------------------
 Cartesian Forces:  Max     0.000582539 RMS     0.000098616
 IRC-IRC-IRC-IRC-IRC-IRC-IRC-IRC-IRC-IRC-IRC-IRC-IRC-IRC-IRC-IRC-IRC-IRC
 Pt  1 Step number   1 out of a maximum of 100
 Modified Bulirsch-Stoer Extrapolation Cycles:
    EPS =    0.000010000000000
      PEZero:  N= 2 I= 1 D=  8.12D-04 Err=  2.22D-02
      PEZero:  N= 3 I= 2 D=  8.12D-04 Err=  3.45D-02
      PEZero:  N= 3 I= 1 D=  1.62D-03 Err=  2.96D-02
      PEZero:  N= 4 I= 3 D=  4.06D-04 Err=  5.95D-02
      PEZero:  N= 4 I= 2 D=  1.22D-03 Err=  4.48D-02
      PEZero:  N= 4 I= 1 D=  2.03D-03 Err=  3.60D-02
      PEZero:  N= 5 I= 4 D=  4.06D-04 Err=  6.61D-02
      PEZero:  N= 5 I= 3 D=  8.12D-04 Err=  3.97D-02
      PEZero:  N= 5 I= 2 D=  1.62D-03 Err=  1.73D-02
      PEZero:  N= 5 I= 1 D=  2.44D-03 Err=  5.29D-03
      PEZero:  N= 6 I= 5 D=  2.03D-04 Err=  1.82D-02
      PEZero:  N= 6 I= 4 D=  6.09D-04 Err=  4.18D-02
      PEZero:  N= 7 I= 6 D=  2.03D-04 Err=  2.99D-04
      PEZero:  N= 7 I= 5 D=  4.06D-04 Err=  1.78D-02
      PEZero:  N= 8 I= 7 D=  1.02D-04 Err=  2.17D-04
      PEZero:  N= 8 I= 6 D=  3.05D-04 Err=  1.04D-05
      PEZero:  N= 8 I= 5 D=  5.08D-04 Err=  2.38D-02
      PEZero:  N= 9 I= 8 D=  1.02D-04 Err=  1.44D-04
      PEZero:  N= 9 I= 7 D=  2.03D-04 Err=  1.05D-06
      PEZero:  N= 9 I= 6 D=  4.06D-04 Err=  4.15D-06
 Maximum DWI energy   std dev =  0.000000187 at pt    94
 Maximum DWI gradient std dev =  0.294670499 at pt     4
 CORRECTOR INTEGRATION CONVERGENCE:
   Recorrection delta-x convergence threshold:    0.010000
   Delta-x Convergence Met
 Point Number:   1          Path Number:   1
   CHANGE IN THE REACTION COORDINATE =    0.31190
   NET REACTION COORDINATE UP TO THIS POINT =    0.31190
  # OF POINTS ALONG THE PATH =   1
  # OF STEPS =   1

 Calculating another point on the path.
 IRC-IRC-IRC-IRC-IRC-IRC-IRC-IRC-IRC-IRC-IRC-IRC-IRC-IRC-IRC-IRC-IRC-IRC
                          Input orientation:                          
 ---------------------------------------------------------------------
 Center     Atomic      Atomic             Coordinates (Angstroms)
 Number     Number       Type             X           Y           Z
 ---------------------------------------------------------------------
      1         14           0       -0.293611   -0.128181   -0.062178
      2          8           0        0.728894   -0.999300   -1.207645
      3          8           0       -1.323648    0.647800    1.168475
      4          8           0       -1.746504   -0.572374   -0.926712
      5          8           0        0.101837    1.369075   -0.763487
      6          8           0        2.125459    0.749368    1.036861
      7          8           0        0.058588   -1.341062    1.106515
      8          6           0        2.186838    1.884426    0.350596
      9          1           0        3.235515    2.222455    0.046365
     10          1           0        1.769972    2.786840    0.897276
     11          6           0        1.406680    1.801479   -0.974740
     12          1           0        1.937320    1.108036   -1.646303
     13          1           0        1.369206    2.795773   -1.460315
     14          6           0        1.194829   -2.080585    0.807282
     15          1           0        2.085069   -1.554983    1.173030
     16          1           0        1.128913   -3.080268    1.269687
     17          6           0        1.247308   -2.175928   -0.721814
     18          1           0        2.283874   -2.329091   -1.070251
     19          1           0        0.653508   -3.050081   -1.066962
     20          6           0       -2.910780   -0.093472   -0.356749
     21          1           0       -3.614478    0.262478   -1.130995
     22          1           0       -3.427854   -0.889768    0.214244
     23          6           0       -2.510956    1.036715    0.603492
     24          1           0       -2.411850    1.981421    0.033113
     25          1           0       -3.289613    1.193883    1.372258
 ---------------------------------------------------------------------
                    Distance matrix (angstroms):
                    1          2          3          4          5
     1  Si   0.000000
     2  O    1.765350   0.000000
     3  O    1.782590   3.545675   0.000000
     4  O    1.748035   2.527605   2.461187   0.000000
     5  O    1.699996   2.489915   2.506934   2.685560   0.000000
     6  O    2.798192   3.169549   3.453111   4.538141   2.778549
     7  O    1.720747   2.433403   2.422806   2.825465   3.292965
     8  C    3.220807   3.587421   3.810732   4.810256   2.419504
     9  H    4.241699   4.270293   4.952236   5.794693   3.347247
    10  H    3.698145   4.455266   3.770879   5.193925   2.747884
    11  C    2.728983   2.891021   3.657736   3.947158   1.390761
    12  H    3.002456   2.468518   4.332286   4.112438   2.053413
    13  H    3.642699   3.856997   4.333104   4.619177   2.031567
    14  C    2.604476   2.333710   3.730586   3.732677   3.944883
    15  H    3.036384   2.795641   4.058525   4.478325   4.029072
    16  H    3.537268   3.260003   4.463607   4.402469   4.998534
    17  C    2.646284   1.374495   4.261037   3.402393   3.725706
    18  H    3.536050   2.050654   5.185362   4.398933   4.304860
    19  H    3.231737   2.056982   4.751909   3.452356   4.463785
    20  C    2.633922   3.846008   2.322666   1.381934   3.373475
    21  H    3.510432   4.523587   3.268629   2.056218   3.894947
    22  H    3.237268   4.394579   2.775312   2.056565   4.303144
    23  C    2.591663   4.233463   1.371190   2.348421   2.967454
    24  H    2.991059   4.504270   2.061983   2.808170   2.707057
    25  H    3.575120   5.254936   2.050550   3.284222   4.011736
                    6          7          8          9         10
     6  O    0.000000
     7  O    2.940528   0.000000
     8  C    1.327811   3.937592   0.000000
     9  H    2.093632   4.890342   1.143042   0.000000
    10  H    2.072956   4.473499   1.134454   1.786168   0.000000
    11  C    2.381202   4.003066   1.540144   2.136473   2.146477
    12  H    2.713561   4.135907   2.157000   2.406734   3.052242
    13  H    3.315959   5.041800   2.185973   2.466149   2.391429
    14  C    2.987878   1.388336   4.112658   4.822816   4.902113
    15  H    2.308724   2.038827   3.537836   4.106329   4.361967
    16  H    3.964016   2.048672   5.158694   5.835509   5.913764
    17  C    3.524406   2.335132   4.303400   4.887621   5.246302
    18  H    3.733888   3.265947   4.447690   4.782157   5.505270
    19  H    4.585686   2.828193   5.358164   5.975441   6.258943
    20  C    5.293035   3.537622   5.513449   6.580499   5.637217
    21  H    6.154960   4.590120   6.203313   7.221502   6.283199
    22  H    5.848312   3.626995   6.264145   7.356264   6.403232
    23  C    4.665482   3.536865   4.780360   5.893921   4.634177
    24  H    4.807560   4.277166   4.610654   5.652522   4.345470
    25  H    5.443628   4.207971   5.613569   6.737452   5.325648
                   11         12         13         14         15
    11  C    0.000000
    12  H    1.101562   0.000000
    13  H    1.107163   1.790476   0.000000
    14  C    4.276787   4.091293   5.380639   0.000000
    15  H    4.042149   3.880997   5.135762   1.096612   0.000000
    16  H    5.380155   5.167051   6.483712   1.103418   1.802796
    17  C    3.988625   3.480692   5.027729   1.532964   2.162833
    18  H    4.223766   3.502253   5.220441   2.184698   2.381401
    19  H    4.910540   4.390187   5.902623   2.178472   3.049958
    20  C    4.755335   5.158550   5.280518   4.707399   5.425380
    21  H    5.254042   5.639412   5.600280   5.690017   6.410658
    22  H    5.659436   6.019797   6.276874   4.810295   5.635078
    23  C    4.292267   4.985362   4.733840   4.846848   5.307045
    24  H    3.953393   4.743261   4.146068   5.487017   5.833339
    25  H    5.285143   6.036548   5.682791   5.581358   6.040130
                   16         17         18         19         20
    16  H    0.000000
    17  C    2.190417   0.000000
    18  H    2.715421   1.104236   0.000000
    19  H    2.384712   1.111697   1.782675   0.000000
    20  C    5.280659   4.664717   5.700132   4.685092   0.000000
    21  H    6.279887   5.454375   6.442862   5.403040   1.105146
    22  H    5.164918   4.938375   6.028716   4.792281   1.107920
    23  C    5.535523   5.118795   6.092657   5.431957   1.535983
    24  H    6.299747   5.589535   6.468984   5.993546   2.169356
    25  H    6.148354   6.026974   7.031426   6.285637   2.188667
                   21         22         23         24         25
    21  H    0.000000
    22  H    1.781058   0.000000
    23  C    2.196736   2.168768   0.000000
    24  H    2.399214   3.051033   1.107982   0.000000
    25  H    2.690601   2.387826   1.105445   1.784375   0.000000
 Symmetry turned off by external request.
 Stoichiometry    C6H12O6Si(2-)
 Framework group  C1[X(C6H12O6Si)]
 Deg. of freedom    69
 Full point group                 C1      NOp   1
 Rotational constants (GHZ):           0.9979909           0.7440005           0.5732533
 Standard basis: def2TZVPP (5D, 7F)
   582 basis functions,   885 primitive gaussians,   660 cartesian basis functions
    56 alpha electrons       56 beta electrons
       nuclear repulsion energy      1100.0447994477 Hartrees.
 NAtoms=   25 NActive=   25 NUniq=   25 SFac= 1.00D+00 NAtFMM=   60 NAOKFM=F Big=F
 Integral buffers will be    131072 words long.
 Raffenetti 2 integral format.
 Two-electron integral symmetry is turned off.
 Nuclear repulsion after empirical dispersion term =     1100.0293758416 Hartrees.
 One-electron integrals computed using PRISM.
   1 Symmetry operations used in ECPInt.
 ECPInt:  NShTT=   23871 NPrTT=   66401 LenC2=   22414 LenP2D=   47469.
 LDataN:  DoStor=T MaxTD1= 6 Len=  172
 NBasis=   582 RedAO= T EigKep=  2.44D-04  NBF=   582
 NBsUse=   582 1.00D-06 EigRej= -1.00D+00 NBFU=   582
 Initial guess from the checkpoint file:  "PL3HL3_IRC_reverse.chk"
 B after Tr=    -0.000066    0.000184   -0.000194
         Rot=    1.000000    0.000172    0.000022   -0.000094 Ang=   0.02 deg.
 ExpMin= 7.01D-02 ExpMax= 4.48D+04 ExpMxC= 1.53D+03 IAcc=3 IRadAn=         5 AccDes= 0.00D+00
 Harris functional with IExCor= 4639 and IRadAn=       5 diagonalized for initial guess.
 HarFok:  IExCor= 4639 AccDes= 0.00D+00 IRadAn=         5 IDoV= 1 UseB2=F ITyADJ=14
 ICtDFT=  3500011 ScaDFX=  1.000000  1.000000  1.000000  1.000000
 FoFCou: FMM=F IPFlag=           0 FMFlag=      100000 FMFlg1=           0
         NFxFlg=           0 DoJE=T BraDBF=F KetDBF=T FulRan=T
         wScrn=  0.000000 ICntrl=       500 IOpCl=  0 I1Cent=   200000004 NGrid=           0
         NMat0=    1 NMatS0=      1 NMatT0=    0 NMatD0=    1 NMtDS0=    0 NMtDT0=    0
 Symmetry not used in FoFCou.
 Requested convergence on RMS density matrix=1.00D-08 within 128 cycles.
 Requested convergence on MAX density matrix=1.00D-06.
 Requested convergence on             energy=1.00D-06.
 No special actions if energy rises.
 Integral accuracy reduced to 1.0D-05 until final iterations.
 Initial convergence to 1.0D-05 achieved.  Increase integral accuracy.
 SCF Done:  E(RwB97XD) =  -976.849328368     A.U. after   13 cycles
            NFock= 13  Conv=0.39D-08     -V/T= 2.0037
 DoSCS=F DFT=T ScalE2(SS,OS)=  1.000000  1.000000
 Range of M.O.s used for correlation:     1   582
 NBasis=   582 NAE=    56 NBE=    56 NFC=     0 NFV=     0
 NROrb=    582 NOA=    56 NOB=    56 NVA=   526 NVB=   526

 **** Warning!!: The largest alpha MO coefficient is  0.12372738D+02

 Symmetrizing basis deriv contribution to polar:
 IMax=3 JMax=2 DiffMx= 0.00D+00
   1 Symmetry operations used in ECPInt.
 ECPInt:  NShTT=   23871 NPrTT=   66401 LenC2=   22414 LenP2D=   47469.
 LDataN:  DoStor=T MaxTD1= 7 Len=  274
 Calling FoFJK, ICntrl=      2127 FMM=F ISym2X=0 I1Cent= 0 IOpClX= 0 NMat=1 NMatS=1 NMatT=0.
 -------------------------------------------------------------------
 Center     Atomic                   Forces (Hartrees/Bohr)
 Number     Number              X              Y              Z
 -------------------------------------------------------------------
      1       14          -0.000644001   -0.000210891   -0.000241001
      2        8          -0.000244461   -0.000134134   -0.000080348
      3        8          -0.000339731   -0.000186921   -0.000079455
      4        8          -0.000235641   -0.000049180   -0.000141603
      5        8           0.000159055   -0.000117714    0.000458927
      6        8           0.001244556    0.000536179    0.000094767
      7        8           0.000102396    0.000194633    0.000018953
      8        6           0.000327516    0.000036909    0.000035149
      9        1          -0.000117453   -0.000019896    0.000007749
     10        1           0.000025888   -0.000052461   -0.000004607
     11        6           0.000070829   -0.000176662    0.000138410
     12        1          -0.000003371   -0.000001865    0.000024797
     13        1           0.000003685   -0.000038332    0.000016145
     14        6           0.000093108    0.000193877   -0.000002295
     15        1          -0.000002534    0.000012595   -0.000019216
     16        1           0.000022293    0.000030998    0.000000035
     17        6          -0.000043406    0.000024435    0.000009169
     18        1          -0.000012140    0.000005940   -0.000009248
     19        1           0.000010463    0.000007527    0.000015892
     20        6          -0.000183904    0.000001204   -0.000133389
     21        1          -0.000010135    0.000003989   -0.000010980
     22        1          -0.000017909    0.000001020   -0.000014833
     23        6          -0.000179444   -0.000053392   -0.000075117
     24        1          -0.000008218   -0.000005313    0.000000889
     25        1          -0.000017443   -0.000002545   -0.000008788
 -------------------------------------------------------------------
 Cartesian Forces:  Max     0.001244556 RMS     0.000210094
 IRC-IRC-IRC-IRC-IRC-IRC-IRC-IRC-IRC-IRC-IRC-IRC-IRC-IRC-IRC-IRC-IRC-IRC
 Pt  2 Step number   1 out of a maximum of 100
 Modified Bulirsch-Stoer Extrapolation Cycles:
    EPS =    0.000010000000000
      PEZero:  N= 2 I= 1 D=  1.62D-03 Err=  3.50D-02
      PEZero:  N= 3 I= 2 D=  1.62D-03 Err=  6.36D-02
      PEZero:  N= 3 I= 1 D=  3.25D-03 Err=  6.04D-02
      PEZero:  N= 4 I= 3 D=  8.12D-04 Err=  1.20D-01
      PEZero:  N= 4 I= 2 D=  2.44D-03 Err=  9.62D-02
      PEZero:  N= 4 I= 1 D=  4.06D-03 Err=  7.92D-02
      PEZero:  N= 5 I= 4 D=  8.12D-04 Err=  1.14D-01
      PEZero:  N= 5 I= 3 D=  1.62D-03 Err=  5.19D-02
      PEZero:  N= 5 I= 2 D=  3.25D-03 Err=  3.84D-03
      PEZero:  N= 5 I= 1 D=  4.87D-03 Err=  2.26D-02
      PEZero:  N= 6 I= 5 D=  4.06D-04 Err=  1.58D-02
      PEZero:  N= 6 I= 4 D=  1.22D-03 Err=  9.34D-02
      PEZero:  N= 7 I= 6 D=  4.06D-04 Err=  3.08D-06
      PEZero:  N= 7 I= 5 D=  8.12D-04 Err=  1.58D-02
 Maximum DWI energy   std dev =  0.000000902 at pt   121
 Maximum DWI gradient std dev =  0.154626571 at pt   114
 CORRECTOR INTEGRATION CONVERGENCE:
   Recorrection delta-x convergence threshold:    0.010000
   Delta-x Convergence Met
 Point Number:   2          Path Number:   1
   CHANGE IN THE REACTION COORDINATE =    0.31184
   NET REACTION COORDINATE UP TO THIS POINT =    0.62374
  # OF POINTS ALONG THE PATH =   2
  # OF STEPS =   1

 Calculating another point on the path.
 IRC-IRC-IRC-IRC-IRC-IRC-IRC-IRC-IRC-IRC-IRC-IRC-IRC-IRC-IRC-IRC-IRC-IRC
                          Input orientation:                          
 ---------------------------------------------------------------------
 Center     Atomic      Atomic             Coordinates (Angstroms)
 Number     Number       Type             X           Y           Z
 ---------------------------------------------------------------------
      1         14           0       -0.301726   -0.131683   -0.065228
      2          8           0        0.722556   -1.001766   -1.209680
      3          8           0       -1.331395    0.643138    1.166716
      4          8           0       -1.752340   -0.573450   -0.930190
      5          8           0        0.104270    1.366373   -0.753021
      6          8           0        2.154399    0.756883    1.041865
      7          8           0        0.060660   -1.336092    1.106803
      8          6           0        2.196188    1.888713    0.350509
      9          1           0        3.238964    2.239188    0.036080
     10          1           0        1.773230    2.789284    0.896333
     11          6           0        1.409357    1.796669   -0.970499
     12          1           0        1.937145    1.099714   -1.640325
     13          1           0        1.369941    2.788493   -1.460974
     14          6           0        1.198045   -2.074605    0.807082
     15          1           0        2.087525   -1.544582    1.168015
     16          1           0        1.135204   -3.072357    1.273745
     17          6           0        1.246005   -2.175476   -0.721693
     18          1           0        2.281851   -2.326307   -1.072780
     19          1           0        0.653816   -3.052476   -1.062340
     20          6           0       -2.917061   -0.093454   -0.360894
     21          1           0       -3.619030    0.263559   -1.135958
     22          1           0       -3.435134   -0.889926    0.208567
     23          6           0       -2.517031    1.035166    0.600992
     24          1           0       -2.415571    1.980429    0.031916
     25          1           0       -3.296643    1.192662    1.368659
 ---------------------------------------------------------------------
                    Distance matrix (angstroms):
                    1          2          3          4          5
     1  Si   0.000000
     2  O    1.765210   0.000000
     3  O    1.782765   3.545657   0.000000
     4  O    1.745737   2.527188   2.460547   0.000000
     5  O    1.697664   2.489759   2.503915   2.690966   0.000000
     6  O    2.836856   3.195697   3.489883   4.573991   2.792154
     7  O    1.719181   2.432278   2.420487   2.831596   3.280879
     8  C    3.239508   3.600091   3.829033   4.826314   2.422136
     9  H    4.262368   4.288125   4.971307   5.810140   3.348252
    10  H    3.709729   4.462204   3.783879   5.203249   2.744170
    11  C    2.732373   2.891391   3.661972   3.951634   1.391295
    12  H    3.001635   2.465136   4.332585   4.112914   2.053740
    13  H    3.642802   3.853352   4.336418   4.618769   2.031144
    14  C    2.604838   2.333324   3.730084   3.738496   3.933268
    15  H    3.037382   2.794857   4.058957   4.482201   4.012149
    16  H    3.536266   3.259606   4.460994   4.409056   4.987277
    17  C    2.646414   1.374674   4.260712   3.405882   3.721457
    18  H    3.536439   2.050500   5.185411   4.400856   4.298836
    19  H    3.230839   2.057145   4.750507   3.457256   4.463621
    20  C    2.632273   3.846073   2.321745   1.382414   3.378357
    21  H    3.508160   4.522814   3.267975   2.056078   3.902025
    22  H    3.235451   4.394351   2.773816   2.056386   4.306149
    23  C    2.590939   4.233503   1.370935   2.348811   2.968883
    24  H    2.989782   4.503652   2.061930   2.808526   2.709757
    25  H    3.574836   5.255217   2.050599   3.284620   4.012220
                    6          7          8          9         10
     6  O    0.000000
     7  O    2.961166   0.000000
     8  C    1.326936   3.941044   0.000000
     9  H    2.094067   4.902111   1.144150   0.000000
    10  H    2.072950   4.471680   1.134833   1.786342   0.000000
    11  C    2.384502   3.993540   1.540337   2.134593   2.145402
    12  H    2.712725   4.123234   2.157092   2.409039   3.052237
    13  H    3.317683   5.031888   2.184893   2.456858   2.391556
    14  C    2.997843   1.388840   4.112498   4.834108   4.898593
    15  H    2.305889   2.038479   3.530954   4.113879   4.353732
    16  H    3.969333   2.048689   5.156576   5.845523   5.908329
    17  C    3.540346   2.335167   4.309304   4.902588   5.248316
    18  H    3.740859   3.265699   4.449661   4.794724   5.505031
    19  H    4.603330   2.828956   5.365669   5.990929   6.262240
    20  C    5.330151   3.544730   5.529955   6.595108   5.647090
    21  H    6.190215   4.596628   6.218317   7.232487   6.291737
    22  H    5.886361   3.636822   6.281145   7.373242   6.413787
    23  C    4.700432   3.538814   4.796428   5.907645   4.644404
    24  H    4.837528   4.276262   4.623660   5.660454   4.352874
    25  H    5.478189   4.211253   5.629592   6.751677   5.336281
                   11         12         13         14         15
    11  C    0.000000
    12  H    1.101351   0.000000
    13  H    1.107174   1.790493   0.000000
    14  C    4.265115   4.075827   5.368738   0.000000
    15  H    4.024563   3.860271   5.118794   1.096528   0.000000
    16  H    5.368352   5.151804   6.471735   1.103283   1.803384
    17  C    3.983281   3.471085   5.020248   1.532849   2.162679
    18  H    4.215523   3.489777   5.209938   2.184460   2.381180
    19  H    4.908512   4.384254   5.898192   2.178797   3.050206
    20  C    4.760470   5.159836   5.281494   4.714152   5.430398
    21  H    5.259513   5.641331   5.600960   5.696194   6.414237
    22  H    5.663663   6.019838   6.277490   4.819547   5.643482
    23  C    4.297207   4.986718   4.736498   4.849220   5.308347
    24  H    3.958367   4.745333   4.148709   5.486565   5.830463
    25  H    5.289888   6.037811   5.685992   5.585036   6.043346
                   16         17         18         19         20
    16  H    0.000000
    17  C    2.190535   0.000000
    18  H    2.716168   1.104078   0.000000
    19  H    2.385251   1.111691   1.782675   0.000000
    20  C    5.288361   4.668631   5.702727   4.690309   0.000000
    21  H    6.287904   5.457937   6.444516   5.409133   1.104962
    22  H    5.175480   4.942782   6.032326   4.797014   1.107725
    23  C    5.537433   5.120367   6.093462   5.434129   1.535914
    24  H    6.299268   5.589867   6.467927   5.995720   2.169511
    25  H    6.151476   6.029061   7.033019   6.287852   2.188500
                   21         22         23         24         25
    21  H    0.000000
    22  H    1.781037   0.000000
    23  C    2.196992   2.168615   0.000000
    24  H    2.399976   3.051172   1.108000   0.000000
    25  H    2.690776   2.387921   1.105402   1.784306   0.000000
 Symmetry turned off by external request.
 Stoichiometry    C6H12O6Si(2-)
 Framework group  C1[X(C6H12O6Si)]
 Deg. of freedom    69
 Full point group                 C1      NOp   1
 Rotational constants (GHZ):           0.9994875           0.7393804           0.5707949
 Standard basis: def2TZVPP (5D, 7F)
   582 basis functions,   885 primitive gaussians,   660 cartesian basis functions
    56 alpha electrons       56 beta electrons
       nuclear repulsion energy      1099.0773640028 Hartrees.
 NAtoms=   25 NActive=   25 NUniq=   25 SFac= 1.00D+00 NAtFMM=   60 NAOKFM=F Big=F
 Integral buffers will be    131072 words long.
 Raffenetti 2 integral format.
[...]
 Full point group                 C1      NOp   1
 Rotational constants (GHZ):           1.0844979           0.6148339           0.5037042
 Standard basis: def2TZVPP (5D, 7F)
   582 basis functions,   885 primitive gaussians,   660 cartesian basis functions
    56 alpha electrons       56 beta electrons
       nuclear repulsion energy      1076.4553192078 Hartrees.
 NAtoms=   25 NActive=   25 NUniq=   25 SFac= 1.00D+00 NAtFMM=   60 NAOKFM=F Big=F
 Integral buffers will be    131072 words long.
 Raffenetti 2 integral format.
 Two-electron integral symmetry is turned off.
 Nuclear repulsion after empirical dispersion term =     1076.4399232748 Hartrees.
 One-electron integrals computed using PRISM.
   1 Symmetry operations used in ECPInt.
 ECPInt:  NShTT=   23871 NPrTT=   66401 LenC2=   22187 LenP2D=   46809.
 LDataN:  DoStor=T MaxTD1= 6 Len=  172
 NBasis=   582 RedAO= T EigKep=  2.26D-04  NBF=   582
 NBsUse=   582 1.00D-06 EigRej= -1.00D+00 NBFU=   582
 Initial guess from the checkpoint file:  "PL3HL3_IRC_reverse.chk"
 B after Tr=    -0.000017   -0.000087   -0.000055
         Rot=    1.000000   -0.000023    0.000044    0.000058 Ang=  -0.01 deg.
 ExpMin= 7.01D-02 ExpMax= 4.48D+04 ExpMxC= 1.53D+03 IAcc=3 IRadAn=         5 AccDes= 0.00D+00
 Harris functional with IExCor= 4639 and IRadAn=       5 diagonalized for initial guess.
 HarFok:  IExCor= 4639 AccDes= 0.00D+00 IRadAn=         5 IDoV= 1 UseB2=F ITyADJ=14
 ICtDFT=  3500011 ScaDFX=  1.000000  1.000000  1.000000  1.000000
 FoFCou: FMM=F IPFlag=           0 FMFlag=      100000 FMFlg1=           0
         NFxFlg=           0 DoJE=T BraDBF=F KetDBF=T FulRan=T
         wScrn=  0.000000 ICntrl=       500 IOpCl=  0 I1Cent=   200000004 NGrid=           0
         NMat0=    1 NMatS0=      1 NMatT0=    0 NMatD0=    1 NMtDS0=    0 NMtDT0=    0
 Symmetry not used in FoFCou.
 Requested convergence on RMS density matrix=1.00D-08 within 128 cycles.
 Requested convergence on MAX density matrix=1.00D-06.
 Requested convergence on             energy=1.00D-06.
 No special actions if energy rises.
 Integral accuracy reduced to 1.0D-05 until final iterations.
 Initial convergence to 1.0D-05 achieved.  Increase integral accuracy.
 SCF Done:  E(RwB97XD) =  -976.861313984     A.U. after   10 cycles
            NFock= 10  Conv=0.71D-08     -V/T= 2.0036
 DoSCS=F DFT=T ScalE2(SS,OS)=  1.000000  1.000000
 Range of M.O.s used for correlation:     1   582
 NBasis=   582 NAE=    56 NBE=    56 NFC=     0 NFV=     0
 NROrb=    582 NOA=    56 NOB=    56 NVA=   526 NVB=   526

 **** Warning!!: The largest alpha MO coefficient is  0.12008018D+02

 Symmetrizing basis deriv contribution to polar:
 IMax=3 JMax=2 DiffMx= 0.00D+00
   1 Symmetry operations used in ECPInt.
 ECPInt:  NShTT=   23871 NPrTT=   66401 LenC2=   22187 LenP2D=   46809.
 LDataN:  DoStor=T MaxTD1= 7 Len=  274
 Calling FoFJK, ICntrl=      2127 FMM=F ISym2X=0 I1Cent= 0 IOpClX= 0 NMat=1 NMatS=1 NMatT=0.
 -------------------------------------------------------------------
 Center     Atomic                   Forces (Hartrees/Bohr)
 Number     Number              X              Y              Z
 -------------------------------------------------------------------
      1       14          -0.000660531   -0.000192668    0.000293849
      2        8          -0.000451087   -0.000438910    0.000194354
      3        8          -0.000827410   -0.000686710   -0.000059459
      4        8          -0.000185412    0.000466631   -0.000518714
      5        8           0.000335772   -0.000370705    0.001244397
      6        8           0.002135803    0.000001355   -0.000396439
      7        8          -0.000381890    0.000067387    0.000110314
      8        6           0.000311624    0.000097562   -0.000588437
      9        1           0.000118016    0.000164169   -0.000247677
     10        1          -0.000072779    0.000098323   -0.000031555
     11        6          -0.000128139   -0.000429736    0.000212144
     12        1          -0.000065069    0.000199583    0.000176574
     13        1          -0.000029809   -0.000140204    0.000116345
     14        6          -0.000611365    0.000413474   -0.000280372
     15        1           0.000697570    0.000816890    0.000039526
     16        1           0.000276868   -0.000838339    0.000671287
     17        6           0.000116832    0.000415120   -0.000071889
     18        1          -0.000032082    0.000082218    0.000017063
     19        1           0.000127301    0.000185405   -0.000015383
     20        6          -0.000248024    0.000276318   -0.000696650
     21        1           0.000067695    0.000001818    0.000057587
     22        1           0.000059303    0.000116543   -0.000118593
     23        6          -0.000521728   -0.000224397   -0.000118380
     24        1          -0.000031336   -0.000050895    0.000048054
     25        1          -0.000000122   -0.000030232   -0.000037945
 -------------------------------------------------------------------
 Cartesian Forces:  Max     0.002135803 RMS     0.000440411
 IRC-IRC-IRC-IRC-IRC-IRC-IRC-IRC-IRC-IRC-IRC-IRC-IRC-IRC-IRC-IRC-IRC-IRC
 Error in corrector energy =          -0.0000138624
 Magnitude of corrector gradient =     0.0034594155
 Magnitude of analytic gradient =      0.0038140688
 Magnitude of difference =             0.0020696891
 Angle between gradients (degrees)=   32.6013
 Pt 33 Step number  99 out of a maximum of 100
 Modified Bulirsch-Stoer Extrapolation Cycles:
    EPS =    0.000010000000000
      PEZero:  N= 2 I= 1 D=  1.62D-03 Err=  3.82D-02
      PEZero:  N= 3 I= 2 D=  1.62D-03 Err=  6.09D-05
      PEZero:  N= 3 I= 1 D=  3.25D-03 Err=  3.82D-02
      PEZero:  N= 4 I= 3 D=  8.12D-04 Err=  4.57D-05
      PEZero:  N= 4 I= 2 D=  2.44D-03 Err=  1.93D-07
      PEZero:  N= 4 I= 1 D=  4.06D-03 Err=  3.65D-05
 Maximum DWI energy   std dev =  0.000001521 at pt    42
 Maximum DWI gradient std dev =  0.329681797 at pt    76
 CORRECTOR INTEGRATION CONVERGENCE:
   Recorrection delta-x convergence threshold:    0.010000
   Delta-x Convergence NOT Met
 IRC-IRC-IRC-IRC-IRC-IRC-IRC-IRC-IRC-IRC-IRC-IRC-IRC-IRC-IRC-IRC-IRC-IRC
                          Input orientation:                          
 ---------------------------------------------------------------------
 Center     Atomic      Atomic             Coordinates (Angstroms)
 Number     Number       Type             X           Y           Z
 ---------------------------------------------------------------------
      1         14           0       -0.482384   -0.200004   -0.067656
      2          8           0        0.491723   -1.089759   -1.247893
      3          8           0       -1.619945    0.462805    1.132068
      4          8           0       -1.869257   -0.534336   -1.066488
      5          8           0        0.192034    1.293444   -0.354246
      6          8           0        2.939991    0.950602    1.018153
      7          8           0        0.097022   -1.234316    1.147025
      8          6           0        2.498965    1.959591    0.283332
      9          1           0        3.314131    2.509704   -0.318659
     10          1           0        2.014686    2.803788    0.868728
     11          6           0        1.471025    1.630651   -0.826591
     12          1           0        1.879072    0.820920   -1.443628
     13          1           0        1.357706    2.529543   -1.462235
     14          6           0        1.317062   -1.834709    0.801184
     15          1           0        2.136210   -1.123841    0.990455
     16          1           0        1.457422   -2.756652    1.389457
     17          6           0        1.221418   -2.122889   -0.698807
     18          1           0        2.226600   -2.182993   -1.146836
     19          1           0        0.722106   -3.099827   -0.874668
     20          6           0       -3.078912   -0.070258   -0.577883
     21          1           0       -3.682569    0.378240   -1.384444
     22          1           0       -3.668636   -0.901059   -0.147745
     23          6           0       -2.747974    0.944482    0.521730
     24          1           0       -2.581682    1.940406    0.065820
     25          1           0       -3.583832    1.045139    1.235864
 ---------------------------------------------------------------------
                    Distance matrix (angstroms):
                    1          2          3          4          5
     1  Si   0.000000
     2  O    1.770171   0.000000
     3  O    1.781207   3.540312   0.000000
     4  O    1.741510   2.432207   2.426951   0.000000
     5  O    1.663539   2.562825   2.486435   2.845520   0.000000
     6  O    3.770348   3.910506   4.587367   5.447902   3.090678
     7  O    1.697340   2.431526   2.414212   3.042345   2.941499
     8  C    3.698038   3.958814   4.463871   5.207980   2.484389
     9  H    4.671087   4.667505   5.535297   6.057470   3.350828
    10  H    4.016833   4.686065   4.331292   5.474774   2.664370
    11  C    2.782640   2.921842   3.841133   3.987757   1.404506
    12  H    2.917543   2.369334   4.359538   4.003614   2.063039
    13  H    3.575082   3.727629   4.457378   4.467355   2.028391
    14  C    2.581695   2.331277   3.743536   3.915584   3.519382
    15  H    2.971550   2.777715   4.079975   4.541178   3.381022
    16  H    3.524553   3.265995   4.461092   4.694374   4.587482
    17  C    2.645520   1.378880   4.255732   3.494419   3.584646
    18  H    3.526396   2.053088   5.195147   4.415945   4.105273
    19  H    3.242073   2.057365   4.712170   3.651535   4.455631
    20  C    2.649363   3.773291   2.310124   1.384690   3.550885
    21  H    3.508487   4.427006   3.254904   2.054748   4.112354
    22  H    3.263448   4.307496   2.774019   2.053372   4.445588
    23  C    2.605787   4.214895   1.370028   2.341256   3.087516
    24  H    3.001038   4.511492   2.060371   2.813186   2.878979
    25  H    3.587273   5.228478   2.051034   3.276481   4.104543
                    6          7          8          9         10
     6  O    0.000000
     7  O    3.587889   0.000000
     8  C    1.323829   4.088562   0.000000
     9  H    2.087546   5.149341   1.153045   0.000000
    10  H    2.076731   4.478970   1.135730   1.784637   0.000000
    11  C    2.454263   3.740465   1.548158   2.104226   2.132117
    12  H    2.683791   3.756485   2.159452   2.485346   3.049123
    13  H    3.339012   4.750179   2.162018   2.266221   2.437257
    14  C    3.230934   1.403059   4.007715   4.910831   4.691151
    15  H    2.224892   2.048172   3.184205   4.037812   3.931393
    16  H    4.009939   2.055959   4.954924   5.839482   5.612504
    17  C    3.917626   2.336862   4.389006   5.097537   5.230544
    18  H    3.874987   3.270610   4.390964   4.887741   5.382879
    19  H    4.990768   2.821012   5.485974   6.204400   6.289902
    20  C    6.310046   3.796958   5.997891   6.898870   6.024746
    21  H    7.068124   4.826384   6.594961   7.391404   6.589293
    22  H    6.961459   3.995957   6.812375   7.773130   6.859975
    23  C    5.709590   3.637604   5.349547   6.317064   5.124486
    24  H    5.689950   4.292240   5.085338   5.935700   4.745176
    25  H    6.528139   4.330415   6.224465   7.221038   5.879715
                   11         12         13         14         15
    11  C    0.000000
    12  H    1.096769   0.000000
    13  H    1.106748   1.786494   0.000000
    14  C    3.831720   3.522415   4.916443   0.000000
    15  H    3.366207   3.126176   4.468665   1.100982   0.000000
    16  H    4.915230   4.582923   6.007158   1.102608   1.812741
    17  C    3.764000   3.106973   4.716622   1.530415   2.165306
    18  H    3.900940   3.038478   4.802337   2.177922   2.387046
    19  H    4.789636   4.127293   5.695527   2.182425   3.063152
    20  C    4.863833   5.111293   5.217722   4.933528   5.546820
    21  H    5.332848   5.579545   5.480742   5.888160   6.461779
    22  H    5.769446   5.951604   6.225835   5.160364   5.919575
    23  C    4.482048   5.028664   4.827540   4.932192   5.324746
    24  H    4.161344   4.840456   4.266241   5.476537   5.701146
    25  H    5.490731   6.088782   5.822542   5.700985   6.122383
                   16         17         18         19         20
    16  H    0.000000
    17  C    2.195040   0.000000
    18  H    2.711735   1.102150   0.000000
    19  H    2.405145   1.111147   1.782740   0.000000
    20  C    5.627207   4.766629   5.738973   4.869713   0.000000
    21  H    6.628845   5.547507   6.444738   5.635423   1.102766
    22  H    5.664158   5.070421   6.115173   4.964033   1.105903
    23  C    5.668924   5.162805   6.108322   5.508886   1.532438
    24  H    6.334724   5.617704   6.449227   6.099467   2.168954
    25  H    6.315967   6.072049   7.061106   6.338469   2.188317
                   21         22         23         24         25
    21  H    0.000000
    22  H    1.779388   0.000000
    23  C    2.197179   2.168372   0.000000
    24  H    2.399079   3.049754   1.107868   0.000000
    25  H    2.705645   2.389404   1.103982   1.781800   0.000000
 Symmetry turned off by external request.
 Stoichiometry    C6H12O6Si(2-)
 Framework group  C1[X(C6H12O6Si)]
 Deg. of freedom    69
 Full point group                 C1      NOp   1
 Rotational constants (GHZ):           1.0844889           0.6149346           0.5037364
 Standard basis: def2TZVPP (5D, 7F)
   582 basis functions,   885 primitive gaussians,   660 cartesian basis functions
    56 alpha electrons       56 beta electrons
       nuclear repulsion energy      1076.4920359694 Hartrees.
 NAtoms=   25 NActive=   25 NUniq=   25 SFac= 1.00D+00 NAtFMM=   60 NAOKFM=F Big=F
 Integral buffers will be    131072 words long.
 Raffenetti 2 integral format.
 Two-electron integral symmetry is turned off.
 Nuclear repulsion after empirical dispersion term =     1076.4766364970 Hartrees.
 One-electron integrals computed using PRISM.
   1 Symmetry operations used in ECPInt.
 ECPInt:  NShTT=   23871 NPrTT=   66401 LenC2=   22187 LenP2D=   46810.
 LDataN:  DoStor=T MaxTD1= 6 Len=  172
 NBasis=   582 RedAO= T EigKep=  2.26D-04  NBF=   582
 NBsUse=   582 1.00D-06 EigRej= -1.00D+00 NBFU=   582
 Initial guess from the checkpoint file:  "PL3HL3_IRC_reverse.chk"
 B after Tr=     0.000017    0.000087    0.000055
         Rot=    1.000000    0.000023   -0.000044   -0.000058 Ang=   0.01 deg.
 ExpMin= 7.01D-02 ExpMax= 4.48D+04 ExpMxC= 1.53D+03 IAcc=3 IRadAn=         5 AccDes= 0.00D+00
 Harris functional with IExCor= 4639 and IRadAn=       5 diagonalized for initial guess.
 HarFok:  IExCor= 4639 AccDes= 0.00D+00 IRadAn=         5 IDoV= 1 UseB2=F ITyADJ=14
 ICtDFT=  3500011 ScaDFX=  1.000000  1.000000  1.000000  1.000000
 FoFCou: FMM=F IPFlag=           0 FMFlag=      100000 FMFlg1=           0
         NFxFlg=           0 DoJE=T BraDBF=F KetDBF=T FulRan=T
         wScrn=  0.000000 ICntrl=       500 IOpCl=  0 I1Cent=   200000004 NGrid=           0
         NMat0=    1 NMatS0=      1 NMatT0=    0 NMatD0=    1 NMtDS0=    0 NMtDT0=    0
 Symmetry not used in FoFCou.
 Requested convergence on RMS density matrix=1.00D-08 within 128 cycles.
 Requested convergence on MAX density matrix=1.00D-06.
 Requested convergence on             energy=1.00D-06.
 No special actions if energy rises.
 Integral accuracy reduced to 1.0D-05 until final iterations.
 Initial convergence to 1.0D-05 achieved.  Increase integral accuracy.
 SCF Done:  E(RwB97XD) =  -976.861314188     A.U. after   10 cycles
            NFock= 10  Conv=0.61D-08     -V/T= 2.0036
 DoSCS=F DFT=T ScalE2(SS,OS)=  1.000000  1.000000
 Range of M.O.s used for correlation:     1   582
 NBasis=   582 NAE=    56 NBE=    56 NFC=     0 NFV=     0
 NROrb=    582 NOA=    56 NOB=    56 NVA=   526 NVB=   526

 **** Warning!!: The largest alpha MO coefficient is  0.11985179D+02

 Symmetrizing basis deriv contribution to polar:
 IMax=3 JMax=2 DiffMx= 0.00D+00
   1 Symmetry operations used in ECPInt.
 ECPInt:  NShTT=   23871 NPrTT=   66401 LenC2=   22187 LenP2D=   46810.
 LDataN:  DoStor=T MaxTD1= 7 Len=  274
 Calling FoFJK, ICntrl=      2127 FMM=F ISym2X=0 I1Cent= 0 IOpClX= 0 NMat=1 NMatS=1 NMatT=0.
 -------------------------------------------------------------------
 Center     Atomic                   Forces (Hartrees/Bohr)
 Number     Number              X              Y              Z
 -------------------------------------------------------------------
      1       14          -0.000853610   -0.000525811    0.000253437
      2        8          -0.000679180   -0.000098519    0.000039571
      3        8          -0.000830318   -0.000650959    0.000004657
      4        8          -0.000058230    0.000464466   -0.000558904
      5        8           0.000122916   -0.000312682    0.001415483
      6        8           0.001820964    0.000756021   -0.000941280
      7        8          -0.000065032   -0.000235265    0.000244494
      8        6           0.000768637    0.000022267   -0.000215181
      9        1          -0.000124726   -0.000121229    0.000105686
     10        1           0.000139741   -0.000091346    0.000009302
     11        6          -0.000005956   -0.000239922    0.000359580
     12        1           0.000025638   -0.000250294   -0.000145665
     13        1          -0.000021764    0.000086526   -0.000104383
     14        6           0.000975270    0.000742171    0.000585215
     15        1          -0.000725186   -0.000695321   -0.000041194
     16        1          -0.000187311    0.000932397   -0.000640048
     17        6           0.000448123    0.000282072    0.000423268
     18        1           0.000063046    0.000036257    0.000003974
     19        1          -0.000013164   -0.000176484    0.000047222
     20        6          -0.000153009    0.000299967   -0.000619863
     21        1          -0.000039209    0.000088507   -0.000129416
     22        1          -0.000111653   -0.000088986   -0.000036592
     23        6          -0.000419062   -0.000233092   -0.000074192
     24        1          -0.000008076    0.000045478    0.000008230
     25        1          -0.000068849   -0.000036219    0.000006599
 -------------------------------------------------------------------
 Cartesian Forces:  Max     0.001820964 RMS     0.000471174
 IRC-IRC-IRC-IRC-IRC-IRC-IRC-IRC-IRC-IRC-IRC-IRC-IRC-IRC-IRC-IRC-IRC-IRC
 Error in corrector energy =          -0.0000138991
 Magnitude of corrector gradient =     0.0035189965
 Magnitude of analytic gradient =      0.0040804899
 Magnitude of difference =             0.0020532403
 Angle between gradients (degrees)=   30.2107
 Pt 33 Step number 100 out of a maximum of 100
 Modified Bulirsch-Stoer Extrapolation Cycles:
    EPS =    0.000010000000000
      PEZero:  N= 2 I= 1 D=  1.62D-03 Err=  3.59D-02
      PEZero:  N= 3 I= 2 D=  1.62D-03 Err=  7.15D-05
      PEZero:  N= 3 I= 1 D=  3.25D-03 Err=  3.60D-02
      PEZero:  N= 4 I= 3 D=  8.12D-04 Err=  5.36D-05
      PEZero:  N= 4 I= 2 D=  2.44D-03 Err=  1.20D-07
      PEZero:  N= 4 I= 1 D=  4.06D-03 Err=  4.29D-05
 Maximum DWI energy   std dev =  0.000001195 at pt    37
 Maximum DWI gradient std dev =  0.217335758 at pt    77
 CORRECTOR INTEGRATION CONVERGENCE:
   Recorrection delta-x convergence threshold:    0.010000
   Delta-x Convergence NOT Met
 Maximum number of corrector steps exceded.
 Error termination via Lnk1e in /opt/software/gaussian/g16.c01/l123.exe at Wed Feb  7 07:15:09 2024.
 Job cpu time:       9 days 20 hours 58 minutes 15.8 seconds.
 Elapsed time:       2 days 12 hours  4 minutes 35.1 seconds.
 File lengths (MBytes):  RWF=    643 Int=      0 D2E=      0 Chk=     26 Scr=      1
