 Entering Gaussian System, Link 0=/opt/software/gaussian/g16.c01/g16
 Initial command:
 /opt/software/gaussian/g16.c01/l1.exe "/scratch/arhender/17968542/Gau-11058.inp" -scrdir="/scratch/arhender/17968542/"
 Entering Link 1 = /opt/software/gaussian/g16.c01/l1.exe PID=     11059.
  
 Copyright (c) 1988-2019, Gaussian, Inc.  All Rights Reserved.
  
 This is part of the Gaussian(R) 16 program.  It is based on
 the Gaussian(R) 09 system (copyright 2009, Gaussian, Inc.),
 the Gaussian(R) 03 system (copyright 2003, Gaussian, Inc.),
 the Gaussian(R) 98 system (copyright 1998, Gaussian, Inc.),
 the Gaussian(R) 94 system (copyright 1995, Gaussian, Inc.),
 the Gaussian 92(TM) system (copyright 1992, Gaussian, Inc.),
 the Gaussian 90(TM) system (copyright 1990, Gaussian, Inc.),
 the Gaussian 88(TM) system (copyright 1988, Gaussian, Inc.),
 the Gaussian 86(TM) system (copyright 1986, Carnegie Mellon
 University), and the Gaussian 82(TM) system (copyright 1983,
 Carnegie Mellon University). Gaussian is a federally registered
 trademark of Gaussian, Inc.
  
 This software contains proprietary and confidential information,
 including trade secrets, belonging to Gaussian, Inc.
  
 This software is provided under written license and may be
 used, copied, transmitted, or stored only in accord with that
 written license.
  
 The following legend is applicable only to US Government
 contracts under FAR:
  
                    RESTRICTED RIGHTS LEGEND
  
 Use, reproduction and disclosure by the US Government is
 subject to restrictions as set forth in subparagraphs (a)
 and (c) of the Commercial Computer Software - Restricted
 Rights clause in FAR 52.227-19.
  
 Gaussian, Inc.
 340 Quinnipiac St., Bldg. 40, Wallingford CT 06492
  
  
 ---------------------------------------------------------------
 Warning -- This program may not be used in any manner that
 competes with the business of Gaussian, Inc. or will provide
 assistance to any competitor of Gaussian, Inc.  The licensee
 of this program is prohibited from giving any competitor of
 Gaussian, Inc. access to this program.  By using this program,
 the user acknowledges that Gaussian, Inc. is engaged in the
 business of creating and licensing software in the field of
 computational chemistry and represents and warrants to the
 licensee that it is not a competitor of Gaussian, Inc. and that
 it will not use this program in any manner prohibited above.
 ---------------------------------------------------------------
  

 Cite this work as:
 Gaussian 16, Revision C.01,
 M. J. Frisch, G. W. Trucks, H. B. Schlegel, G. E. Scuseria, 
 M. A. Robb, J. R. Cheeseman, G. Scalmani, V. Barone, 
 G. A. Petersson, H. Nakatsuji, X. Li, M. Caricato, A. V. Marenich, 
 J. Bloino, B. G. Janesko, R. Gomperts, B. Mennucci, H. P. Hratchian, 
 J. V. Ortiz, A. F. Izmaylov, J. L. Sonnenberg, D. Williams-Young, 
 F. Ding, F. Lipparini, F. Egidi, J. Goings, B. Peng, A. Petrone, 
 T. Henderson, D. Ranasinghe, V. G. Zakrzewski, J. Gao, N. Rega, 
 G. Zheng, W. Liang, M. Hada, M. Ehara, K. Toyota, R. Fukuda, 
 J. Hasegawa, M. Ishida, T. Nakajima, Y. Honda, O. Kitao, H. Nakai, 
 T. Vreven, K. Throssell, J. A. Montgomery, Jr., J. E. Peralta, 
 F. Ogliaro, M. J. Bearpark, J. J. Heyd, E. N. Brothers, K. N. Kudin, 
 V. N. Staroverov, T. A. Keith, R. Kobayashi, J. Normand, 
 K. Raghavachari, A. P. Rendell, J. C. Burant, S. S. Iyengar, 
 J. Tomasi, M. Cossi, J. M. Millam, M. Klene, C. Adamo, R. Cammi, 
 J. W. Ochterski, R. L. Martin, K. Morokuma, O. Farkas, 
 J. B. Foresman, and D. J. Fox, Gaussian, Inc., Wallingford CT, 2019.
 
 ******************************************
 Gaussian 16:  ES64L-G16RevC.01  3-Jul-2019
                19-Mar-2024 
 ******************************************
 %chk=IRC_depEGattPL2_forward_ProductOpt.chk
 %mem=1600MB
 %nprocs=4
 Will use up to    4 processors via shared memory.
 ---------------------------------------------
 # opt freq wb97xd/def2tzvpp geom=connectivity
 ---------------------------------------------
 1/18=20,19=15,26=3,38=1,57=2/1,3;
 2/9=110,12=2,17=6,18=5,40=1/2;
 3/5=44,7=202,11=2,25=1,30=1,71=1,74=-58/1,2,3;
 4//1;
 5/5=2,38=5/2;
 6/7=2,8=2,9=2,10=2,28=1/1;
 7//1,2,3,16;
 1/18=20,19=15,26=3/3(2);
 2/9=110/2;
 99//99;
 2/9=110/2;
 3/5=44,7=202,11=2,25=1,30=1,71=1,74=-58/1,2,3;
 4/5=5,16=3,69=1/1;
 5/5=2,38=5/2;
 7//1,2,3,16;
 1/18=20,19=15,26=3/3(-5);
 2/9=110/2;
 6/7=2,8=2,9=2,10=2,19=2,28=1/1;
 99/9=1/99;
 ----------------------------------------------------------
 IRC for deprotonated ethylene glycol attack on PL2 complex
 ----------------------------------------------------------
 Symbolic Z-matrix:
 Charge = -2 Multiplicity = 1
 Si                   -0.82494   0.28788  -0.00908 
 O                    -0.23666   1.46244   1.20043 
 O                     0.07524   1.15926  -1.26776 
 O                    -1.2763   -0.92959  -1.20103 
 O                    -1.4949   -0.731     1.28182 
 O                     0.90528  -0.73882   0.33774 
 O                    -2.33028   1.20438  -0.23667 
 H                    -2.37242   1.76798   0.5321 
 C                    -2.00693  -1.9558   -0.64766 
 H                    -3.09618  -1.77371  -0.75403 
 H                    -1.78554  -2.91805  -1.14777 
 C                    -1.65639  -2.02394   0.84747 
 H                    -2.45824  -2.53845   1.41085 
 H                    -0.72618  -2.60943   0.97406 
 C                     0.835     2.17968   0.71834 
 H                     0.89205   3.17735   1.19303 
 H                     1.78927   1.66247   0.91947 
 C                     0.64241   2.31848  -0.80152 
 H                    -0.01276   3.1944   -1.00056 
 H                     1.61085   2.52106  -1.29829 
 C                     1.67382  -1.22965  -0.68135 
 H                     1.30013  -0.95019  -1.67645 
 H                     1.72394  -2.34397  -0.65348 
 C                     3.11246  -0.69891  -0.51958 
 H                     3.84045  -1.30955  -1.07239 
 H                     3.15931   0.33206  -0.90151 
 O                     3.44497  -0.71971   0.85639 
 H                     2.54108  -0.62628   1.23099 
 
 Add virtual bond connecting atoms O6         and Si1        Dist= 3.86D+00.

 GradGradGradGradGradGradGradGradGradGradGradGradGradGradGradGradGradGrad
 Berny optimization.
 Initialization pass.
                           ----------------------------
                           !    Initial Parameters    !
                           ! (Angstroms and Degrees)  !
 --------------------------                            --------------------------
 ! Name  Definition              Value          Derivative Info.                !
 --------------------------------------------------------------------------------
 ! R1    R(1,2)                  1.7857         estimate D2E/DX2                !
 ! R2    R(1,3)                  1.7759         estimate D2E/DX2                !
 ! R3    R(1,4)                  1.7626         estimate D2E/DX2                !
 ! R4    R(1,5)                  1.7758         estimate D2E/DX2                !
 ! R5    R(1,6)                  2.0416         estimate D2E/DX2                !
 ! R6    R(1,7)                  1.777          estimate D2E/DX2                !
 ! R7    R(2,15)                 1.3767         estimate D2E/DX2                !
 ! R8    R(3,18)                 1.3722         estimate D2E/DX2                !
 ! R9    R(4,9)                  1.3759         estimate D2E/DX2                !
 ! R10   R(5,12)                 1.3735         estimate D2E/DX2                !
 ! R11   R(6,21)                 1.3675         estimate D2E/DX2                !
 ! R12   R(7,8)                  0.9542         estimate D2E/DX2                !
 ! R13   R(9,10)                 1.1095         estimate D2E/DX2                !
 ! R14   R(9,11)                 1.1068         estimate D2E/DX2                !
 ! R15   R(9,12)                 1.5372         estimate D2E/DX2                !
 ! R16   R(12,13)                1.1068         estimate D2E/DX2                !
 ! R17   R(12,14)                1.1064         estimate D2E/DX2                !
 ! R18   R(15,16)                1.1063         estimate D2E/DX2                !
 ! R19   R(15,17)                1.1039         estimate D2E/DX2                !
 ! R20   R(15,18)                1.5383         estimate D2E/DX2                !
 ! R21   R(18,19)                1.1118         estimate D2E/DX2                !
 ! R22   R(18,20)                1.1071         estimate D2E/DX2                !
 ! R23   R(21,22)                1.0991         estimate D2E/DX2                !
 ! R24   R(21,23)                1.1158         estimate D2E/DX2                !
 ! R25   R(21,24)                1.5419         estimate D2E/DX2                !
 ! R26   R(24,25)                1.0993         estimate D2E/DX2                !
 ! R27   R(24,26)                1.1004         estimate D2E/DX2                !
 ! R28   R(24,27)                1.4157         estimate D2E/DX2                !
 ! R29   R(27,28)                0.9829         estimate D2E/DX2                !
 ! A1    A(2,1,3)               89.4459         estimate D2E/DX2                !
 ! A2    A(2,1,5)               90.5327         estimate D2E/DX2                !
 ! A3    A(2,1,6)               86.3604         estimate D2E/DX2                !
 ! A4    A(2,1,7)               91.5231         estimate D2E/DX2                !
 ! A5    A(3,1,4)               89.3945         estimate D2E/DX2                !
 ! A6    A(3,1,6)               86.4211         estimate D2E/DX2                !
 ! A7    A(3,1,7)               94.9078         estimate D2E/DX2                !
 ! A8    A(4,1,5)               89.924          estimate D2E/DX2                !
 ! A9    A(4,1,6)               89.1143         estimate D2E/DX2                !
 ! A10   A(4,1,7)               93.0213         estimate D2E/DX2                !
 ! A11   A(5,1,6)               84.7042         estimate D2E/DX2                !
 ! A12   A(5,1,7)               93.981          estimate D2E/DX2                !
 ! A13   A(1,2,15)             111.2199         estimate D2E/DX2                !
 ! A14   A(1,3,18)             112.5328         estimate D2E/DX2                !
 ! A15   A(1,4,9)              112.2831         estimate D2E/DX2                !
 ! A16   A(1,5,12)             110.7681         estimate D2E/DX2                !
 ! A17   A(1,6,21)             122.0183         estimate D2E/DX2                !
 ! A18   A(1,7,8)              103.8191         estimate D2E/DX2                !
 ! A19   A(4,9,10)             111.1229         estimate D2E/DX2                !
 ! A20   A(4,9,11)             111.1299         estimate D2E/DX2                !
 ! A21   A(4,9,12)             107.6464         estimate D2E/DX2                !
 ! A22   A(10,9,11)            107.2024         estimate D2E/DX2                !
 ! A23   A(10,9,12)            108.9295         estimate D2E/DX2                !
 ! A24   A(11,9,12)            110.8136         estimate D2E/DX2                !
 ! A25   A(5,12,9)             107.0185         estimate D2E/DX2                !
 ! A26   A(5,12,13)            111.2114         estimate D2E/DX2                !
 ! A27   A(5,12,14)            111.2915         estimate D2E/DX2                !
 ! A28   A(9,12,13)            110.5164         estimate D2E/DX2                !
 ! A29   A(9,12,14)            109.055          estimate D2E/DX2                !
 ! A30   A(13,12,14)           107.7492         estimate D2E/DX2                !
 ! A31   A(2,15,16)            111.0826         estimate D2E/DX2                !
 ! A32   A(2,15,17)            111.4084         estimate D2E/DX2                !
 ! A33   A(2,15,18)            107.1896         estimate D2E/DX2                !
 ! A34   A(16,15,17)           107.4435         estimate D2E/DX2                !
 ! A35   A(16,15,18)           110.4275         estimate D2E/DX2                !
 ! A36   A(17,15,18)           109.3003         estimate D2E/DX2                !
 ! A37   A(3,18,15)            108.1337         estimate D2E/DX2                !
 ! A38   A(3,18,19)            111.1721         estimate D2E/DX2                !
 ! A39   A(3,18,20)            111.3264         estimate D2E/DX2                !
 ! A40   A(15,18,19)           108.7687         estimate D2E/DX2                !
 ! A41   A(15,18,20)           110.5073         estimate D2E/DX2                !
 ! A42   A(19,18,20)           106.917          estimate D2E/DX2                !
 ! A43   A(6,21,22)            113.1018         estimate D2E/DX2                !
 ! A44   A(6,21,23)            111.412          estimate D2E/DX2                !
 ! A45   A(6,21,24)            108.8214         estimate D2E/DX2                !
 ! A46   A(22,21,23)           106.9676         estimate D2E/DX2                !
 ! A47   A(22,21,24)           108.9472         estimate D2E/DX2                !
 ! A48   A(23,21,24)           107.411          estimate D2E/DX2                !
 ! A49   A(21,24,25)           111.9566         estimate D2E/DX2                !
 ! A50   A(21,24,26)           109.0138         estimate D2E/DX2                !
 ! A51   A(21,24,27)           108.4243         estimate D2E/DX2                !
 ! A52   A(25,24,26)           108.5232         estimate D2E/DX2                !
 ! A53   A(25,24,27)           108.9685         estimate D2E/DX2                !
 ! A54   A(26,24,27)           109.9434         estimate D2E/DX2                !
 ! A55   A(24,27,28)            98.8025         estimate D2E/DX2                !
 ! A56   L(2,1,4,3,-1)         178.8404         estimate D2E/DX2                !
 ! A57   L(3,1,5,2,-1)         179.9786         estimate D2E/DX2                !
 ! A58   L(6,1,7,2,-1)         177.8835         estimate D2E/DX2                !
 ! A59   L(2,1,4,3,-2)         175.5383         estimate D2E/DX2                !
 ! A60   L(3,1,5,2,-2)         188.8918         estimate D2E/DX2                !
 ! A61   L(6,1,7,2,-2)         181.344          estimate D2E/DX2                !
 ! D1    D(3,1,2,15)           -16.2559         estimate D2E/DX2                !
 ! D2    D(5,1,2,15)           154.8523         estimate D2E/DX2                !
 ! D3    D(6,1,2,15)            70.193          estimate D2E/DX2                !
 ! D4    D(7,1,2,15)          -111.1509         estimate D2E/DX2                !
 ! D5    D(2,1,3,18)            -6.1458         estimate D2E/DX2                !
 ! D6    D(4,1,3,18)           178.316          estimate D2E/DX2                !
 ! D7    D(6,1,3,18)           -92.5336         estimate D2E/DX2                !
 ! D8    D(7,1,3,18)            85.3355         estimate D2E/DX2                !
 ! D9    D(3,1,4,9)            177.2034         estimate D2E/DX2                !
 ! D10   D(5,1,4,9)              6.0688         estimate D2E/DX2                !
 ! D11   D(6,1,4,9)             90.7736         estimate D2E/DX2                !
 ! D12   D(7,1,4,9)            -87.9138         estimate D2E/DX2                !
 ! D13   D(2,1,5,12)          -158.321          estimate D2E/DX2                !
 ! D14   D(4,1,5,12)            17.0917         estimate D2E/DX2                !
 ! D15   D(6,1,5,12)           -72.0259         estimate D2E/DX2                !
 ! D16   D(7,1,5,12)           110.115          estimate D2E/DX2                !
 ! D17   D(2,1,6,21)          -134.1475         estimate D2E/DX2                !
 ! D18   D(3,1,6,21)           -44.4758         estimate D2E/DX2                !
 ! D19   D(4,1,6,21)            44.9728         estimate D2E/DX2                !
 ! D20   D(5,1,6,21)           134.9786         estimate D2E/DX2                !
 ! D21   D(2,1,7,8)            -17.4435         estimate D2E/DX2                !
 ! D22   D(3,1,7,8)           -107.018          estimate D2E/DX2                !
 ! D23   D(4,1,7,8)            163.3308         estimate D2E/DX2                !
 ! D24   D(5,1,7,8)             73.1966         estimate D2E/DX2                !
 ! D25   D(1,2,15,16)          152.3688         estimate D2E/DX2                !
 ! D26   D(1,2,15,17)          -87.8805         estimate D2E/DX2                !
 ! D27   D(1,2,15,18)           31.6509         estimate D2E/DX2                !
 ! D28   D(1,3,18,15)           24.2496         estimate D2E/DX2                !
 ! D29   D(1,3,18,19)          -95.0855         estimate D2E/DX2                !
 ! D30   D(1,3,18,20)          145.8233         estimate D2E/DX2                !
 ! D31   D(1,4,9,10)            94.401          estimate D2E/DX2                !
 ! D32   D(1,4,9,11)          -146.3105         estimate D2E/DX2                !
 ! D33   D(1,4,9,12)           -24.7976         estimate D2E/DX2                !
 ! D34   D(1,5,12,9)           -32.9524         estimate D2E/DX2                !
 ! D35   D(1,5,12,13)         -153.7464         estimate D2E/DX2                !
 ! D36   D(1,5,12,14)           86.1074         estimate D2E/DX2                !
 ! D37   D(1,6,21,22)            4.1347         estimate D2E/DX2                !
 ! D38   D(1,6,21,23)         -116.4007         estimate D2E/DX2                !
 ! D39   D(1,6,21,24)          125.3558         estimate D2E/DX2                !
 ! D40   D(4,9,12,5)            37.1719         estimate D2E/DX2                !
 ! D41   D(4,9,12,13)          158.4066         estimate D2E/DX2                !
 ! D42   D(4,9,12,14)          -83.324          estimate D2E/DX2                !
 ! D43   D(10,9,12,5)          -83.4174         estimate D2E/DX2                !
 ! D44   D(10,9,12,13)          37.8172         estimate D2E/DX2                !
 ! D45   D(10,9,12,14)         156.0867         estimate D2E/DX2                !
 ! D46   D(11,9,12,5)          158.8818         estimate D2E/DX2                !
 ! D47   D(11,9,12,13)         -79.8835         estimate D2E/DX2                !
 ! D48   D(11,9,12,14)          38.3859         estimate D2E/DX2                !
 ! D49   D(2,15,18,3)          -35.9582         estimate D2E/DX2                !
 ! D50   D(2,15,18,19)          84.8844         estimate D2E/DX2                !
 ! D51   D(2,15,18,20)        -158.0363         estimate D2E/DX2                !
 ! D52   D(16,15,18,3)        -157.0905         estimate D2E/DX2                !
 ! D53   D(16,15,18,19)        -36.2479         estimate D2E/DX2                !
 ! D54   D(16,15,18,20)         80.8314         estimate D2E/DX2                !
 ! D55   D(17,15,18,3)          84.9169         estimate D2E/DX2                !
 ! D56   D(17,15,18,19)       -154.2406         estimate D2E/DX2                !
 ! D57   D(17,15,18,20)        -37.1613         estimate D2E/DX2                !
 ! D58   D(6,21,24,25)         160.1403         estimate D2E/DX2                !
 ! D59   D(6,21,24,26)         -79.7788         estimate D2E/DX2                !
 ! D60   D(6,21,24,27)          39.895          estimate D2E/DX2                !
 ! D61   D(22,21,24,25)        -76.1291         estimate D2E/DX2                !
 ! D62   D(22,21,24,26)         43.9519         estimate D2E/DX2                !
 ! D63   D(22,21,24,27)        163.6256         estimate D2E/DX2                !
 ! D64   D(23,21,24,25)         39.4031         estimate D2E/DX2                !
 ! D65   D(23,21,24,26)        159.4841         estimate D2E/DX2                !
 ! D66   D(23,21,24,27)        -80.8421         estimate D2E/DX2                !
 ! D67   D(21,24,27,28)        -27.2278         estimate D2E/DX2                !
 ! D68   D(25,24,27,28)       -149.3167         estimate D2E/DX2                !
 ! D69   D(26,24,27,28)         91.862          estimate D2E/DX2                !
 --------------------------------------------------------------------------------
 Trust Radius=3.00D-01 FncErr=1.00D-07 GrdErr=1.00D-06 EigMax=2.50D+02 EigMin=1.00D-04
 Number of steps in this run=    168 maximum allowed number of steps=    168.
 GradGradGradGradGradGradGradGradGradGradGradGradGradGradGradGradGradGrad

                          Input orientation:                          
 ---------------------------------------------------------------------
 Center     Atomic      Atomic             Coordinates (Angstroms)
 Number     Number       Type             X           Y           Z
 ---------------------------------------------------------------------
      1         14           0       -0.824940    0.287877   -0.009083
      2          8           0       -0.236659    1.462435    1.200434
      3          8           0        0.075239    1.159263   -1.267755
      4          8           0       -1.276303   -0.929587   -1.201027
      5          8           0       -1.494895   -0.730995    1.281819
      6          8           0        0.905284   -0.738822    0.337736
      7          8           0       -2.330284    1.204383   -0.236669
      8          1           0       -2.372415    1.767978    0.532098
      9          6           0       -2.006933   -1.955800   -0.647663
     10          1           0       -3.096182   -1.773712   -0.754026
     11          1           0       -1.785540   -2.918045   -1.147765
     12          6           0       -1.656392   -2.023936    0.847465
     13          1           0       -2.458242   -2.538454    1.410846
     14          1           0       -0.726182   -2.609427    0.974062
     15          6           0        0.834999    2.179683    0.718342
     16          1           0        0.892047    3.177352    1.193034
     17          1           0        1.789273    1.662474    0.919469
     18          6           0        0.642405    2.318483   -0.801515
     19          1           0       -0.012758    3.194396   -1.000556
     20          1           0        1.610851    2.521062   -1.298290
     21          6           0        1.673823   -1.229651   -0.681353
     22          1           0        1.300134   -0.950186   -1.676448
     23          1           0        1.723944   -2.343972   -0.653476
     24          6           0        3.112455   -0.698906   -0.519577
     25          1           0        3.840445   -1.309554   -1.072387
     26          1           0        3.159313    0.332062   -0.901507
     27          8           0        3.444968   -0.719712    0.856386
     28          1           0        2.541082   -0.626283    1.230986
 ---------------------------------------------------------------------
                    Distance matrix (angstroms):
                    1          2          3          4          5
     1  Si   0.000000
     2  O    1.785663   0.000000
     3  O    1.775920   2.506222   0.000000
     4  O    1.762577   3.545369   2.488858   0.000000
     5  O    1.775772   2.530003   3.541006   2.500349   0.000000
     6  O    2.041585   2.625607   2.620935   2.676472   2.579188
     7  O    1.777031   2.552474   2.617578   2.568013   2.597955
     8  H    2.208677   2.258646   3.098550   3.388516   2.752633
     9  C    2.615144   4.270089   3.797838   1.375916   2.342057
    10  H    3.156522   4.740193   4.350192   2.055314   2.792140
    11  H    3.535150   5.205927   4.483451   2.053320   3.281850
    12  C    2.601820   3.780874   4.195886   2.353378   1.373478
    13  H    3.559778   4.581137   5.221737   3.287448   2.052217
    14  H    3.061160   4.107425   4.457695   2.802768   2.052837
    15  C    2.619823   1.376702   2.358617   4.220087   3.770671
    16  H    3.569621   2.053040   3.285626   5.224961   4.580453
    17  H    3.096100   2.055081   2.824019   4.540159   4.079920
    18  C    2.627625   2.348057   1.372169   3.793548   4.267042
    19  H    3.176556   2.809658   2.054484   4.317866   4.776469
    20  H    3.547146   3.282926   2.052689   4.500233   5.184447
    21  C    2.999776   3.799788   2.933641   3.010539   3.760781
    22  H    2.971337   4.056960   2.473292   2.620015   4.075730
    23  H    3.720038   4.665799   3.920232   3.361812   4.087540
    24  C    4.091140   4.341244   3.638302   4.447335   4.947093
    25  H    5.044623   5.428850   4.506662   5.132449   5.860279
    26  H    4.083215   4.150726   3.214018   4.621273   5.249634
    27  O    4.471732   4.293543   4.404270   5.154357   4.958162
    28  H    3.701832   3.475561   3.938561   4.536420   4.037655
                    6          7          8          9         10
     6  O    0.000000
     7  O    3.817707   0.000000
     8  H    4.130997   0.954158   0.000000
     9  C    3.306517   3.203159   3.923256   0.000000
    10  H    4.274889   3.118222   3.836864   1.109474   0.000000
    11  H    3.767792   4.256907   5.012502   1.106812   1.783903
    12  C    2.910932   3.471530   3.871790   1.537182   2.168036
    13  H    3.962770   4.091394   4.396012   2.186464   2.382954
    14  H    2.562373   4.310935   4.697562   2.167382   3.049854
    15  C    2.944057   3.447067   3.239088   5.200458   5.766401
    16  H    4.008507   4.039811   3.616612   6.175880   6.649064
    17  H    2.624133   4.303168   4.181009   5.473481   6.202873
    18  C    3.273242   3.224461   3.342263   5.031119   5.543045
    19  H    4.254883   3.148746   3.154628   5.534057   5.852382
    20  H    3.715003   4.288733   4.447906   5.792579   6.395113
    21  C    1.367519   4.706924   5.179796   3.751852   4.801482
    22  H    2.063375   4.460389   5.074811   3.606432   4.566908
    23  H    2.056505   5.403824   5.924008   3.751020   4.854783
    24  C    2.368160   5.772864   6.105353   5.272980   6.305343
    25  H    3.305957   6.715370   7.116544   5.898292   6.959425
    26  H    2.786245   5.598092   5.892121   5.655868   6.602064
    27  O    2.592172   6.184695   6.335275   5.789067   6.818430
    28  H    1.867189   5.406991   5.510298   5.097193   6.085689
                   11         12         13         14         15
    11  H    0.000000
    12  C    2.190218   0.000000
    13  H    2.672659   1.106838   0.000000
    14  H    2.391576   1.106398   1.787694   0.000000
    15  C    6.027969   4.888161   5.795327   5.043635   0.000000
    16  H    7.057101   5.802358   6.628900   6.012772   1.106314
    17  H    6.167163   5.046525   5.994216   4.957785   1.103900
    18  C    5.782390   5.182683   6.172389   5.413871   1.538286
    19  H    6.366032   5.774747   6.682875   6.171908   2.168627
    20  H    6.414204   5.994677   7.035314   6.078423   2.187531
    21  C    3.877552   3.749467   4.812923   3.225555   3.779726
    22  H    3.697751   4.032880   5.116578   3.726156   3.968306
    23  H    3.590315   3.712401   4.667968   2.953382   4.809944
    24  C    5.413830   5.134823   6.176013   4.540505   3.873696
    25  H    5.851891   5.866122   6.881141   5.170271   4.941072
    26  H    5.922450   5.639206   6.718911   5.221799   3.382314
    27  O    6.017267   5.265449   6.201866   4.580760   3.903522
    28  H    5.443371   4.440643   5.355557   3.830651   3.323698
                   16         17         18         19         20
    16  H    0.000000
    17  H    1.781771   0.000000
    18  C    2.185910   2.169664   0.000000
    19  H    2.372931   3.046407   1.111791   0.000000
    20  H    2.674713   2.384840   1.107118   1.782731   0.000000
    21  C    4.852440   3.307620   3.696960   4.745381   3.801634
    22  H    5.043514   3.715378   3.447073   4.399781   3.505583
    23  H    5.881043   4.304653   4.788541   5.814647   4.908883
    24  C    4.784206   3.065580   3.909638   5.015585   3.637225
    25  H    5.827307   4.124045   4.843912   5.927723   4.437988
    26  H    4.198008   2.638742   3.207911   4.273734   2.710515
    27  O    4.670958   2.901744   4.453496   5.542954   4.302235
    28  H    4.145889   2.429129   4.050640   5.108764   4.143470
                   21         22         23         24         25
    21  C    0.000000
    22  H    1.099072   0.000000
    23  H    1.115796   1.780092   0.000000
    24  C    1.541922   2.164717   2.156881   0.000000
    25  H    2.203076   2.635757   2.392715   1.099299   0.000000
    26  H    2.166586   2.387727   3.046795   1.100437   1.785509
    27  O    2.400340   3.326962   2.807103   1.415723   2.055354
    28  H    2.184773   3.177741   2.677567   1.842881   2.731434
                   26         27         28
    26  H    0.000000
    27  O    2.068336   0.000000
    28  H    2.418297   0.982886   0.000000
 Stoichiometry    C6H14O7Si(2-)
 Framework group  C1[X(C6H14O7Si)]
 Deg. of freedom    78
 Full point group                 C1      NOp   1
 Largest Abelian subgroup         C1      NOp   1
 Largest concise Abelian subgroup C1      NOp   1
                         Standard orientation:                         
 ---------------------------------------------------------------------
 Center     Atomic      Atomic             Coordinates (Angstroms)
 Number     Number       Type             X           Y           Z
 ---------------------------------------------------------------------
      1         14           0       -0.805906    0.404738    0.003156
      2          8           0       -0.070924    1.486121    1.219299
      3          8           0        0.198217    1.161252   -1.251161
      4          8           0       -1.410615   -0.736908   -1.195864
      5          8           0       -1.600662   -0.527838    1.288471
      6          8           0        0.778138   -0.838075    0.341222
      7          8           0       -2.181045    1.508599   -0.216669
      8          1           0       -2.150000    2.067977    0.555697
      9          6           0       -2.266842   -1.664221   -0.648039
     10          1           0       -3.323695   -1.342938   -0.751827
     11          1           0       -2.171232   -2.643705   -1.154498
     12          6           0       -1.927246   -1.786470    0.846170
     13          1           0       -2.788315   -2.197253    1.407336
     14          1           0       -1.079963   -2.487485    0.967850
     15          6           0        1.083816    2.062741    0.740348
     16          1           0        1.268878    3.041724    1.221257
     17          1           0        1.963778    1.425866    0.936957
     18          6           0        0.909929    2.234921   -0.778349
     19          1           0        0.372712    3.189050   -0.970997
     20          1           0        1.896142    2.314514   -1.275100
     21          6           0        1.476707   -1.417064   -0.681950
     22          1           0        1.141565   -1.085484   -1.674771
     23          1           0        1.383171   -2.528738   -0.661178
     24          6           0        2.971710   -1.076713   -0.518704
     25          1           0        3.614889   -1.772310   -1.076311
     26          1           0        3.150534   -0.057887   -0.894175
     27          8           0        3.299455   -1.148942    0.856664
     28          1           0        2.415261   -0.942503    1.233027
 ---------------------------------------------------------------------
 Rotational constants (GHZ):           0.8538394           0.5936001           0.4544924
 Standard basis: def2TZVPP (5D, 7F)
 There are   726 symmetry adapted cartesian basis functions of A   symmetry.
 There are   641 symmetry adapted basis functions of A   symmetry.
   641 basis functions,   970 primitive gaussians,   726 cartesian basis functions
    61 alpha electrons       61 beta electrons
       nuclear repulsion energy      1265.0519899050 Hartrees.
 NAtoms=   28 NActive=   28 NUniq=   28 SFac= 1.00D+00 NAtFMM=   60 NAOKFM=F Big=F
 Integral buffers will be    131072 words long.
 Raffenetti 2 integral format.
 Two-electron integral symmetry is turned on.
 Nuclear repulsion after empirical dispersion term =     1265.0316047476 Hartrees.
 One-electron integrals computed using PRISM.
   1 Symmetry operations used in ECPInt.
 ECPInt:  NShTT=   29161 NPrTT=   80163 LenC2=   27230 LenP2D=   56866.
 LDataN:  DoStor=T MaxTD1= 6 Len=  172
 NBasis=   641 RedAO= T EigKep=  1.99D-04  NBF=   641
 NBsUse=   641 1.00D-06 EigRej= -1.00D+00 NBFU=   641
 ExpMin= 7.01D-02 ExpMax= 4.48D+04 ExpMxC= 1.53D+03 IAcc=3 IRadAn=         5 AccDes= 0.00D+00
 Harris functional with IExCor= 4639 and IRadAn=       5 diagonalized for initial guess.
 HarFok:  IExCor= 4639 AccDes= 0.00D+00 IRadAn=         5 IDoV= 1 UseB2=F ITyADJ=14
 ICtDFT=  3500011 ScaDFX=  1.000000  1.000000  1.000000  1.000000
 FoFCou: FMM=F IPFlag=           0 FMFlag=      100000 FMFlg1=           0
         NFxFlg=           0 DoJE=T BraDBF=F KetDBF=T FulRan=T
         wScrn=  0.000000 ICntrl=       500 IOpCl=  0 I1Cent=   200000004 NGrid=           0
         NMat0=    1 NMatS0=      1 NMatT0=    0 NMatD0=    1 NMtDS0=    0 NMtDT0=    0
 Petite list used in FoFCou.
 Requested convergence on RMS density matrix=1.00D-08 within 128 cycles.
 Requested convergence on MAX density matrix=1.00D-06.
 Requested convergence on             energy=1.00D-06.
 No special actions if energy rises.
 Integral accuracy reduced to 1.0D-05 until final iterations.
 Initial convergence to 1.0D-05 achieved.  Increase integral accuracy.
 SCF Done:  E(RwB97XD) =  -1053.33447212     A.U. after   15 cycles
            NFock= 15  Conv=0.58D-08     -V/T= 2.0037

 **********************************************************************

            Population analysis using the SCF Density.

 **********************************************************************

 Orbital symmetries:
       Occupied  (A) (A) (A) (A) (A) (A) (A) (A) (A) (A) (A) (A)
                 (A) (A) (A) (A) (A) (A) (A) (A) (A) (A) (A) (A)
                 (A) (A) (A) (A) (A) (A) (A) (A) (A) (A) (A) (A)
                 (A) (A) (A) (A) (A) (A) (A) (A) (A) (A) (A) (A)
                 (A) (A) (A) (A) (A) (A) (A) (A) (A) (A) (A) (A)
                 (A)
       Virtual   (A) (A) (A) (A) (A) (A) (A) (A) (A) (A) (A) (A)
                 (A) (A) (A) (A) (A) (A) (A) (A) (A) (A) (A) (A)
                 (A) (A) (A) (A) (A) (A) (A) (A) (A) (A) (A) (A)
                 (A) (A) (A) (A) (A) (A) (A) (A) (A) (A) (A) (A)
                 (A) (A) (A) (A) (A) (A) (A) (A) (A) (A) (A) (A)
                 (A) (A) (A) (A) (A) (A) (A) (A) (A) (A) (A) (A)
                 (A) (A) (A) (A) (A) (A) (A) (A) (A) (A) (A) (A)
                 (A) (A) (A) (A) (A) (A) (A) (A) (A) (A) (A) (A)
                 (A) (A) (A) (A) (A) (A) (A) (A) (A) (A) (A) (A)
                 (A) (A) (A) (A) (A) (A) (A) (A) (A) (A) (A) (A)
                 (A) (A) (A) (A) (A) (A) (A) (A) (A) (A) (A) (A)
                 (A) (A) (A) (A) (A) (A) (A) (A) (A) (A) (A) (A)
                 (A) (A) (A) (A) (A) (A) (A) (A) (A) (A) (A) (A)
                 (A) (A) (A) (A) (A) (A) (A) (A) (A) (A) (A) (A)
                 (A) (A) (A) (A) (A) (A) (A) (A) (A) (A) (A) (A)
                 (A) (A) (A) (A) (A) (A) (A) (A) (A) (A) (A) (A)
                 (A) (A) (A) (A) (A) (A) (A) (A) (A) (A) (A) (A)
                 (A) (A) (A) (A) (A) (A) (A) (A) (A) (A) (A) (A)
                 (A) (A) (A) (A) (A) (A) (A) (A) (A) (A) (A) (A)
                 (A) (A) (A) (A) (A) (A) (A) (A) (A) (A) (A) (A)
                 (A) (A) (A) (A) (A) (A) (A) (A) (A) (A) (A) (A)
                 (A) (A) (A) (A) (A) (A) (A) (A) (A) (A) (A) (A)
                 (A) (A) (A) (A) (A) (A) (A) (A) (A) (A) (A) (A)
                 (A) (A) (A) (A) (A) (A) (A) (A) (A) (A) (A) (A)
                 (A) (A) (A) (A) (A) (A) (A) (A) (A) (A) (A) (A)
                 (A) (A) (A) (A) (A) (A) (A) (A) (A) (A) (A) (A)
                 (A) (A) (A) (A) (A) (A) (A) (A) (A) (A) (A) (A)
                 (A) (A) (A) (A) (A) (A) (A) (A) (A) (A) (A) (A)
                 (A) (A) (A) (A) (A) (A) (A) (A) (A) (A) (A) (A)
                 (A) (A) (A) (A) (A) (A) (A) (A) (A) (A) (A) (A)
                 (A) (A) (A) (A) (A) (A) (A) (A) (A) (A) (A) (A)
                 (A) (A) (A) (A) (A) (A) (A) (A) (A) (A) (A) (A)
                 (A) (A) (A) (A) (A) (A) (A) (A) (A) (A) (A) (A)
                 (A) (A) (A) (A) (A) (A) (A) (A) (A) (A) (A) (A)
                 (A) (A) (A) (A) (A) (A) (A) (A) (A) (A) (A) (A)
                 (A) (A) (A) (A) (A) (A) (A) (A) (A) (A) (A) (A)
                 (A) (A) (A) (A) (A) (A) (A) (A) (A) (A) (A) (A)
                 (A) (A) (A) (A) (A) (A) (A) (A) (A) (A) (A) (A)
                 (A) (A) (A) (A) (A) (A) (A) (A) (A) (A) (A) (A)
                 (A) (A) (A) (A) (A) (A) (A) (A) (A) (A) (A) (A)
                 (A) (A) (A) (A) (A) (A) (A) (A) (A) (A) (A) (A)
                 (A) (A) (A) (A) (A) (A) (A) (A) (A) (A) (A) (A)
                 (A) (A) (A) (A) (A) (A) (A) (A) (A) (A) (A) (A)
                 (A) (A) (A) (A) (A) (A) (A) (A) (A) (A) (A) (A)
                 (A) (A) (A) (A) (A) (A) (A) (A) (A) (A) (A) (A)
                 (A) (A) (A) (A) (A) (A) (A) (A) (A) (A) (A) (A)
                 (A) (A) (A) (A) (A) (A) (A) (A) (A) (A) (A) (A)
                 (A) (A) (A) (A) (A) (A) (A) (A) (A) (A) (A) (A)
                 (A) (A) (A) (A)
 The electronic state is 1-A.
 Alpha  occ. eigenvalues --  -65.98355 -18.97171 -18.90239 -18.90100 -18.89895
 Alpha  occ. eigenvalues --  -18.89552 -18.88147 -18.87873 -10.05630 -10.03685
 Alpha  occ. eigenvalues --  -10.03542 -10.03309 -10.03062 -10.02626  -5.08894
 Alpha  occ. eigenvalues --   -3.43493  -3.43469  -3.43378  -0.85369  -0.82205
 Alpha  occ. eigenvalues --   -0.80205  -0.76076  -0.74892  -0.74675  -0.72608
 Alpha  occ. eigenvalues --   -0.53218  -0.52258  -0.50642  -0.40741  -0.40479
 Alpha  occ. eigenvalues --   -0.38517  -0.31796  -0.31356  -0.28978  -0.27802
 Alpha  occ. eigenvalues --   -0.27379  -0.26989  -0.26384  -0.25951  -0.22437
 Alpha  occ. eigenvalues --   -0.21774  -0.20509  -0.19944  -0.19587  -0.18856
 Alpha  occ. eigenvalues --   -0.17097  -0.16050  -0.14438  -0.11424  -0.09705
 Alpha  occ. eigenvalues --   -0.09240  -0.08215  -0.07748  -0.07086  -0.06383
 Alpha  occ. eigenvalues --   -0.04775  -0.03200  -0.02757  -0.01912  -0.00801
 Alpha  occ. eigenvalues --   -0.00216
 Alpha virt. eigenvalues --    0.35853   0.36534   0.37466   0.39180   0.39507
 Alpha virt. eigenvalues --    0.40225   0.41055   0.41253   0.42687   0.43776
 Alpha virt. eigenvalues --    0.45405   0.46276   0.46461   0.47292   0.47980
 Alpha virt. eigenvalues --    0.48646   0.49913   0.51742   0.52208   0.52637
 Alpha virt. eigenvalues --    0.53010   0.53651   0.54628   0.56364   0.56760
 Alpha virt. eigenvalues --    0.57472   0.58529   0.59122   0.60086   0.63145
 Alpha virt. eigenvalues --    0.63649   0.63977   0.64825   0.65982   0.67662
 Alpha virt. eigenvalues --    0.68925   0.69100   0.69704   0.69951   0.70340
 Alpha virt. eigenvalues --    0.70474   0.71911   0.73057   0.73302   0.73680
 Alpha virt. eigenvalues --    0.74367   0.74979   0.75499   0.75998   0.76332
 Alpha virt. eigenvalues --    0.77139   0.77271   0.77692   0.77976   0.78057
 Alpha virt. eigenvalues --    0.78655   0.79640   0.80413   0.80932   0.81033
 Alpha virt. eigenvalues --    0.81823   0.82424   0.83255   0.84419   0.84941
 Alpha virt. eigenvalues --    0.85981   0.87640   0.88140   0.88174   0.89969
 Alpha virt. eigenvalues --    0.90662   0.91016   0.91765   0.92422   0.93511
 Alpha virt. eigenvalues --    0.94783   0.96260   0.96901   0.97035   0.98437
 Alpha virt. eigenvalues --    0.99363   1.00756   1.01853   1.04673   1.05510
 Alpha virt. eigenvalues --    1.06490   1.07190   1.08318   1.09129   1.09817
 Alpha virt. eigenvalues --    1.10812   1.11427   1.12606   1.14983   1.15640
 Alpha virt. eigenvalues --    1.16186   1.16868   1.17750   1.18779   1.19372
 Alpha virt. eigenvalues --    1.20408   1.20791   1.21918   1.22827   1.24531
 Alpha virt. eigenvalues --    1.25548   1.25717   1.27079   1.28941   1.30423
 Alpha virt. eigenvalues --    1.30682   1.31254   1.32284   1.32919   1.33257
 Alpha virt. eigenvalues --    1.34247   1.34652   1.35893   1.36246   1.36821
 Alpha virt. eigenvalues --    1.37715   1.38558   1.40925   1.41584   1.42331
 Alpha virt. eigenvalues --    1.43311   1.43697   1.44883   1.45110   1.46093
 Alpha virt. eigenvalues --    1.46608   1.48148   1.48699   1.49665   1.50565
 Alpha virt. eigenvalues --    1.51670   1.51950   1.53421   1.54371   1.55264
 Alpha virt. eigenvalues --    1.55632   1.56270   1.56318   1.58782   1.59765
 Alpha virt. eigenvalues --    1.60124   1.60604   1.62021   1.62999   1.64546
 Alpha virt. eigenvalues --    1.65010   1.66200   1.67316   1.67830   1.68564
 Alpha virt. eigenvalues --    1.69053   1.70197   1.70783   1.72606   1.72875
 Alpha virt. eigenvalues --    1.73806   1.74322   1.75049   1.76177   1.76596
 Alpha virt. eigenvalues --    1.77810   1.78700   1.79870   1.80462   1.81784
 Alpha virt. eigenvalues --    1.83282   1.84165   1.85497   1.86630   1.87991
 Alpha virt. eigenvalues --    1.89097   1.90133   1.90486   1.91474   1.92283
 Alpha virt. eigenvalues --    1.93124   1.94229   1.94928   1.96031   1.97986
 Alpha virt. eigenvalues --    1.99256   1.99941   2.03760   2.05066   2.06011
 Alpha virt. eigenvalues --    2.08081   2.09531   2.14920   2.16106   2.18771
 Alpha virt. eigenvalues --    2.19224   2.22391   2.23137   2.24662   2.27560
 Alpha virt. eigenvalues --    2.28061   2.29814   2.30152   2.31355   2.31973
 Alpha virt. eigenvalues --    2.33649   2.35999   2.36538   2.37514   2.40050
 Alpha virt. eigenvalues --    2.40873   2.41277   2.42564   2.43355   2.45303
 Alpha virt. eigenvalues --    2.46201   2.48002   2.48853   2.49901   2.50812
 Alpha virt. eigenvalues --    2.51450   2.53127   2.54134   2.56885   2.57791
 Alpha virt. eigenvalues --    2.60106   2.60745   2.62131   2.65233   2.67075
 Alpha virt. eigenvalues --    2.67179   2.69894   2.70949   2.72458   2.74863
 Alpha virt. eigenvalues --    2.76333   2.77671   2.77986   2.80254   2.80987
 Alpha virt. eigenvalues --    2.83353   2.85587   2.86272   2.88522   2.89798
 Alpha virt. eigenvalues --    2.91591   2.93694   2.95812   2.97516   2.98480
 Alpha virt. eigenvalues --    2.99254   2.99847   3.00849   3.01659   3.02801
 Alpha virt. eigenvalues --    3.03508   3.04846   3.05492   3.07660   3.08349
 Alpha virt. eigenvalues --    3.11299   3.13244   3.14004   3.15082   3.16705
 Alpha virt. eigenvalues --    3.17863   3.18344   3.19235   3.20625   3.21626
 Alpha virt. eigenvalues --    3.22363   3.23954   3.24637   3.26073   3.27197
 Alpha virt. eigenvalues --    3.29269   3.29874   3.31272   3.32979   3.33294
 Alpha virt. eigenvalues --    3.35161   3.35420   3.37157   3.38139   3.38803
 Alpha virt. eigenvalues --    3.39151   3.40179   3.41245   3.41451   3.43073
 Alpha virt. eigenvalues --    3.43848   3.45289   3.46152   3.47327   3.48596
 Alpha virt. eigenvalues --    3.49178   3.49424   3.50934   3.51150   3.51555
 Alpha virt. eigenvalues --    3.52806   3.53266   3.53976   3.55931   3.56208
 Alpha virt. eigenvalues --    3.58106   3.58492   3.60036   3.61191   3.62422
 Alpha virt. eigenvalues --    3.63594   3.64680   3.65047   3.66442   3.67842
 Alpha virt. eigenvalues --    3.68301   3.69885   3.70597   3.73937   3.74739
 Alpha virt. eigenvalues --    3.76299   3.77580   3.77932   3.80567   3.81457
 Alpha virt. eigenvalues --    3.81843   3.83518   3.84875   3.85979   3.86454
 Alpha virt. eigenvalues --    3.88221   3.88762   3.91566   3.92020   3.93186
 Alpha virt. eigenvalues --    3.93534   3.93829   3.95341   3.95803   3.96520
 Alpha virt. eigenvalues --    3.97815   3.98960   4.00231   4.02344   4.03412
 Alpha virt. eigenvalues --    4.05652   4.06083   4.06378   4.07429   4.07478
 Alpha virt. eigenvalues --    4.07922   4.08927   4.11156   4.11409   4.12772
 Alpha virt. eigenvalues --    4.13621   4.13996   4.14950   4.15982   4.17668
 Alpha virt. eigenvalues --    4.18577   4.18864   4.19693   4.22453   4.23614
 Alpha virt. eigenvalues --    4.24605   4.25747   4.27032   4.28908   4.30398
 Alpha virt. eigenvalues --    4.32058   4.33483   4.34359   4.34856   4.35450
 Alpha virt. eigenvalues --    4.37802   4.38855   4.39389   4.40478   4.42871
 Alpha virt. eigenvalues --    4.43089   4.44665   4.44747   4.46742   4.47430
 Alpha virt. eigenvalues --    4.48363   4.48943   4.50233   4.52696   4.54440
 Alpha virt. eigenvalues --    4.54863   4.55333   4.56009   4.56804   4.58549
 Alpha virt. eigenvalues --    4.59673   4.60542   4.62164   4.62980   4.64538
 Alpha virt. eigenvalues --    4.65757   4.66749   4.68987   4.69422   4.69767
 Alpha virt. eigenvalues --    4.70843   4.72283   4.73809   4.74745   4.75649
 Alpha virt. eigenvalues --    4.77479   4.78081   4.81860   4.84303   4.89571
 Alpha virt. eigenvalues --    4.89758   4.90829   4.92469   4.94344   4.95079
 Alpha virt. eigenvalues --    4.96082   4.96425   4.97014   4.99530   5.00688
 Alpha virt. eigenvalues --    5.03191   5.04003   5.05369   5.07392   5.09478
 Alpha virt. eigenvalues --    5.11490   5.13736   5.14943   5.15312   5.17171
 Alpha virt. eigenvalues --    5.17926   5.19432   5.20204   5.21299   5.23903
 Alpha virt. eigenvalues --    5.26016   5.27236   5.28011   5.29160   5.29419
 Alpha virt. eigenvalues --    5.30227   5.31027   5.32624   5.34396   5.38057
 Alpha virt. eigenvalues --    5.40874   5.42157   5.42680   5.45000   5.45462
 Alpha virt. eigenvalues --    5.46667   5.48036   5.48565   5.50335   5.52157
 Alpha virt. eigenvalues --    5.53957   5.56040   5.58262   5.60191   5.63079
 Alpha virt. eigenvalues --    5.65736   5.66864   5.67704   5.68884   5.69627
 Alpha virt. eigenvalues --    5.70522   5.71793   5.73982   5.74814   5.77590
 Alpha virt. eigenvalues --    5.79476   5.81892   5.83888   5.85000   5.85638
 Alpha virt. eigenvalues --    5.85971   5.87037   5.88172   5.90720   5.91380
 Alpha virt. eigenvalues --    5.92781   5.93669   5.94093   5.95403   5.98181
 Alpha virt. eigenvalues --    5.98264   5.99336   6.01061   6.02691   6.04021
 Alpha virt. eigenvalues --    6.05351   6.06185   6.06999   6.10976   6.12083
 Alpha virt. eigenvalues --    6.13593   6.14961   6.22206   6.28090   6.29549
 Alpha virt. eigenvalues --    6.38485   6.39474   6.40538   6.41443   6.44396
 Alpha virt. eigenvalues --    6.46831   6.49751   6.51387   6.53756   6.54493
 Alpha virt. eigenvalues --    6.57113   6.57666   6.58339   6.65262   6.67414
 Alpha virt. eigenvalues --    6.71714   6.75181   6.81357   6.91970   6.93985
 Alpha virt. eigenvalues --    6.97026   6.99896   7.00852   7.03884   7.05359
 Alpha virt. eigenvalues --    7.07525   7.09524   7.10432   7.12469   7.13683
 Alpha virt. eigenvalues --    7.14774   7.18314   7.19760   7.20891   7.24828
 Alpha virt. eigenvalues --    7.25620   7.27304   7.30709   7.35417   7.38568
 Alpha virt. eigenvalues --    7.40611   7.42903   7.46644   7.49374   7.50404
 Alpha virt. eigenvalues --    7.51957   7.52865   7.57146   7.60678   7.63123
 Alpha virt. eigenvalues --    7.63430   7.66000   7.66914   7.74102   7.79053
 Alpha virt. eigenvalues --    7.80062   7.84425   7.87819   7.93558   8.00847
 Alpha virt. eigenvalues --    8.03639  12.17801  23.64567  23.70808  23.72243
 Alpha virt. eigenvalues --   23.81667  23.83244  23.87879  44.30404  44.38057
 Alpha virt. eigenvalues --   44.54024  44.58350  44.64287  44.75962  44.81207
          Condensed to atoms (all electrons):
               1          2          3          4          5          6
     1  Si  11.548681   0.302668   0.304450   0.330819   0.343764   0.185198
     2  O    0.302668   8.184644  -0.020665   0.007935  -0.046199  -0.044562
     3  O    0.304450  -0.020665   8.134639  -0.045316   0.005756  -0.035642
     4  O    0.330819   0.007935  -0.045316   8.111500  -0.029144  -0.024223
     5  O    0.343764  -0.046199   0.005756  -0.029144   8.113858  -0.051053
     6  O    0.185198  -0.044562  -0.035642  -0.024223  -0.051053   8.351843
     7  O    0.483294  -0.073314  -0.057596  -0.045830  -0.057501   0.003107
     8  H   -0.072354   0.012299   0.003437   0.005067   0.001643  -0.000077
     9  C   -0.098912  -0.002313  -0.001031   0.373846  -0.118180   0.000741
    10  H    0.010581  -0.000017   0.000572  -0.061135   0.012451  -0.000234
    11  H   -0.006606   0.000101  -0.000102  -0.048858   0.008461  -0.001192
    12  C   -0.024711   0.000464  -0.001306  -0.112903   0.396932   0.006123
    13  H   -0.015931  -0.000272   0.000008   0.006720  -0.045510   0.000361
    14  H   -0.010522   0.001083   0.000572   0.012980  -0.061406   0.021969
    15  C   -0.053744   0.366600  -0.114392  -0.001122   0.000400   0.040739
    16  H   -0.016802  -0.043633   0.006055   0.000022  -0.000384   0.001052
    17  H   -0.000965  -0.061465   0.014322   0.000185   0.000930  -0.001792
    18  C   -0.049616  -0.110253   0.387737   0.002951  -0.002235  -0.008767
    19  H    0.003901   0.013392  -0.064237   0.000597   0.000061  -0.000853
    20  H   -0.004406   0.008475  -0.055302  -0.000057   0.000123  -0.000053
    21  C   -0.050801   0.006824  -0.001731  -0.004628   0.000213   0.317213
    22  H   -0.008858   0.000651   0.016983   0.009323   0.000201  -0.058184
    23  H    0.007448  -0.000443   0.000324   0.001004  -0.000445  -0.056945
    24  C    0.003828  -0.002199  -0.001831   0.002572  -0.000120  -0.104053
    25  H    0.000495  -0.000030  -0.000111   0.000017   0.000014   0.007874
    26  H   -0.002507  -0.000366   0.000725  -0.000025   0.000013   0.006055
    27  O    0.000325   0.000084  -0.000164  -0.000044  -0.000035  -0.040098
    28  H    0.001381   0.002008   0.000093   0.000232   0.000098   0.082745
               7          8          9         10         11         12
     1  Si   0.483294  -0.072354  -0.098912   0.010581  -0.006606  -0.024711
     2  O   -0.073314   0.012299  -0.002313  -0.000017   0.000101   0.000464
     3  O   -0.057596   0.003437  -0.001031   0.000572  -0.000102  -0.001306
     4  O   -0.045830   0.005067   0.373846  -0.061135  -0.048858  -0.112903
     5  O   -0.057501   0.001643  -0.118180   0.012451   0.008461   0.396932
     6  O    0.003107  -0.000077   0.000741  -0.000234  -0.001192   0.006123
     7  O    8.027804   0.302668  -0.013527   0.009163  -0.000989  -0.005984
     8  H    0.302668   0.633940  -0.001027  -0.000758   0.000130   0.000375
     9  C   -0.013527  -0.001027   4.941815   0.352986   0.309891   0.213408
    10  H    0.009163  -0.000758   0.352986   0.878624  -0.116692  -0.057675
    11  H   -0.000989   0.000130   0.309891  -0.116692   0.905703  -0.007875
    12  C   -0.005984   0.000375   0.213408  -0.057675  -0.007875   4.818667
    13  H   -0.000451  -0.000006   0.013633  -0.027851   0.017421   0.288646
    14  H   -0.000627  -0.000051  -0.097140   0.022861  -0.018765   0.399331
    15  C   -0.007215   0.002432  -0.002873   0.000009   0.000069   0.001460
    16  H   -0.000302  -0.000651  -0.000072   0.000002  -0.000000  -0.000101
    17  H   -0.000611   0.000678   0.000250  -0.000006   0.000002   0.000495
    18  C   -0.013053  -0.003008  -0.001465   0.000265  -0.000044  -0.001929
    19  H    0.011539   0.000960   0.000395  -0.000031   0.000003  -0.000047
    20  H   -0.000617   0.000202  -0.000059   0.000002  -0.000002   0.000048
    21  C    0.000277  -0.000175   0.003917   0.000189   0.001182  -0.009034
    22  H    0.000193  -0.000056  -0.000447   0.000279  -0.001320  -0.002270
    23  H    0.000015   0.000006  -0.004563   0.000094   0.001162   0.005899
    24  C    0.000023  -0.000011   0.000579   0.000064  -0.000454   0.000838
    25  H   -0.000000   0.000000  -0.000034   0.000000   0.000007   0.000048
    26  H   -0.000002   0.000000  -0.000025  -0.000001   0.000008  -0.000080
    27  O    0.000000   0.000001  -0.000015  -0.000001   0.000005  -0.000017
    28  H   -0.000013  -0.000013  -0.000014   0.000005   0.000016  -0.000864
              13         14         15         16         17         18
     1  Si  -0.015931  -0.010522  -0.053744  -0.016802  -0.000965  -0.049616
     2  O   -0.000272   0.001083   0.366600  -0.043633  -0.061465  -0.110253
     3  O    0.000008   0.000572  -0.114392   0.006055   0.014322   0.387737
     4  O    0.006720   0.012980  -0.001122   0.000022   0.000185   0.002951
     5  O   -0.045510  -0.061406   0.000400  -0.000384   0.000930  -0.002235
     6  O    0.000361   0.021969   0.040739   0.001052  -0.001792  -0.008767
     7  O   -0.000451  -0.000627  -0.007215  -0.000302  -0.000611  -0.013053
     8  H   -0.000006  -0.000051   0.002432  -0.000651   0.000678  -0.003008
     9  C    0.013633  -0.097140  -0.002873  -0.000072   0.000250  -0.001465
    10  H   -0.027851   0.022861   0.000009   0.000002  -0.000006   0.000265
    11  H    0.017421  -0.018765   0.000069  -0.000000   0.000002  -0.000044
    12  C    0.288646   0.399331   0.001460  -0.000101   0.000495  -0.001929
    13  H    0.918280  -0.110847  -0.000146  -0.000007   0.000019  -0.000035
    14  H   -0.110847   0.857811   0.000266   0.000014  -0.000124   0.000272
    15  C   -0.000146   0.000266   4.879469   0.303397   0.377936   0.210680
    16  H   -0.000007   0.000014   0.303397   0.894865  -0.103680   0.010153
    17  H    0.000019  -0.000124   0.377936  -0.103680   0.867944  -0.091080
    18  C   -0.000035   0.000272   0.210680   0.010153  -0.091080   4.894556
    19  H    0.000002   0.000002  -0.060253  -0.028357   0.023609   0.340894
    20  H   -0.000000   0.000002  -0.018794   0.017394  -0.020027   0.326024
    21  C    0.000703  -0.000352  -0.014655   0.000735   0.001869   0.004468
    22  H    0.000024   0.002148   0.001145  -0.000096  -0.000814  -0.002321
    23  H   -0.000567  -0.003976   0.002348   0.000027  -0.000682  -0.000615
    24  C   -0.000013   0.000654   0.002547  -0.001043   0.006460  -0.001303
    25  H   -0.000000  -0.000090  -0.000535   0.000013   0.001235   0.000251
    26  H   -0.000002  -0.000049   0.017036   0.000151  -0.017945  -0.009107
    27  O   -0.000003  -0.000089  -0.011434   0.000199   0.017948   0.001752
    28  H    0.000016   0.000757   0.001244   0.000550  -0.007717   0.000746
              19         20         21         22         23         24
     1  Si   0.003901  -0.004406  -0.050801  -0.008858   0.007448   0.003828
     2  O    0.013392   0.008475   0.006824   0.000651  -0.000443  -0.002199
     3  O   -0.064237  -0.055302  -0.001731   0.016983   0.000324  -0.001831
     4  O    0.000597  -0.000057  -0.004628   0.009323   0.001004   0.002572
     5  O    0.000061   0.000123   0.000213   0.000201  -0.000445  -0.000120
     6  O   -0.000853  -0.000053   0.317213  -0.058184  -0.056945  -0.104053
     7  O    0.011539  -0.000617   0.000277   0.000193   0.000015   0.000023
     8  H    0.000960   0.000202  -0.000175  -0.000056   0.000006  -0.000011
     9  C    0.000395  -0.000059   0.003917  -0.000447  -0.004563   0.000579
    10  H   -0.000031   0.000002   0.000189   0.000279   0.000094   0.000064
    11  H    0.000003  -0.000002   0.001182  -0.001320   0.001162  -0.000454
    12  C   -0.000047   0.000048  -0.009034  -0.002270   0.005899   0.000838
    13  H    0.000002  -0.000000   0.000703   0.000024  -0.000567  -0.000013
    14  H    0.000002   0.000002  -0.000352   0.002148  -0.003976   0.000654
    15  C   -0.060253  -0.018794  -0.014655   0.001145   0.002348   0.002547
    16  H   -0.028357   0.017394   0.000735  -0.000096   0.000027  -0.001043
    17  H    0.023609  -0.020027   0.001869  -0.000814  -0.000682   0.006460
    18  C    0.340894   0.326024   0.004468  -0.002321  -0.000615  -0.001303
    19  H    0.902369  -0.113305   0.000057   0.000756   0.000008   0.000171
    20  H   -0.113305   0.894090   0.003394  -0.001648  -0.000123  -0.001372
    21  C    0.000057   0.003394   4.744898   0.428424   0.296065   0.297415
    22  H    0.000756  -0.001648   0.428424   0.742677  -0.077850  -0.065987
    23  H    0.000008  -0.000123   0.296065  -0.077850   0.936057  -0.083389
    24  C    0.000171  -0.001372   0.297415  -0.065987  -0.083389   4.936641
    25  H   -0.000005   0.000048  -0.005586   0.002398  -0.003117   0.347466
    26  H   -0.000001   0.001557  -0.077299  -0.004805   0.020008   0.407645
    27  O   -0.000030  -0.000346  -0.050037   0.004751   0.006415   0.285464
    28  H   -0.000021   0.000168  -0.015839   0.007595   0.000694  -0.107456
              25         26         27         28
     1  Si   0.000495  -0.002507   0.000325   0.001381
     2  O   -0.000030  -0.000366   0.000084   0.002008
     3  O   -0.000111   0.000725  -0.000164   0.000093
     4  O    0.000017  -0.000025  -0.000044   0.000232
     5  O    0.000014   0.000013  -0.000035   0.000098
     6  O    0.007874   0.006055  -0.040098   0.082745
     7  O   -0.000000  -0.000002   0.000000  -0.000013
     8  H    0.000000   0.000000   0.000001  -0.000013
     9  C   -0.000034  -0.000025  -0.000015  -0.000014
    10  H    0.000000  -0.000001  -0.000001   0.000005
    11  H    0.000007   0.000008   0.000005   0.000016
    12  C    0.000048  -0.000080  -0.000017  -0.000864
    13  H   -0.000000  -0.000002  -0.000003   0.000016
    14  H   -0.000090  -0.000049  -0.000089   0.000757
    15  C   -0.000535   0.017036  -0.011434   0.001244
    16  H    0.000013   0.000151   0.000199   0.000550
    17  H    0.001235  -0.017945   0.017948  -0.007717
    18  C    0.000251  -0.009107   0.001752   0.000746
    19  H   -0.000005  -0.000001  -0.000030  -0.000021
    20  H    0.000048   0.001557  -0.000346   0.000168
    21  C   -0.005586  -0.077299  -0.050037  -0.015839
    22  H    0.002398  -0.004805   0.004751   0.007595
    23  H   -0.003117   0.020008   0.006415   0.000694
    24  C    0.347466   0.407645   0.285464  -0.107456
    25  H    0.744295  -0.061408  -0.038173   0.010469
    26  H   -0.061408   0.753864  -0.061777   0.007306
    27  O   -0.038173  -0.061777   8.027779   0.340254
    28  H    0.010469   0.007306   0.340254   0.447727
 Mulliken charges:
               1
     1  Si   0.889902
     2  O   -0.501495
     3  O   -0.476246
     4  O   -0.492486
     5  O   -0.472707
     6  O   -0.597293
     7  O   -0.560452
     8  H    0.114347
     9  C    0.130238
    10  H   -0.023748
    11  H   -0.041261
    12  C    0.092063
    13  H   -0.044193
    14  H   -0.016687
    15  C    0.077387
    16  H   -0.039504
    17  H   -0.006975
    18  C    0.114080
    19  H   -0.031577
    20  H   -0.035415
    21  C    0.122296
    22  H    0.007111
    23  H   -0.044857
    24  C    0.076864
    25  H   -0.005541
    26  H    0.021030
    27  O   -0.482714
    28  H    0.227832
 Sum of Mulliken charges =  -2.00000
 Mulliken charges with hydrogens summed into heavy atoms:
               1
     1  Si   0.889902
     2  O   -0.501495
     3  O   -0.476246
     4  O   -0.492486
     5  O   -0.472707
     6  O   -0.597293
     7  O   -0.446105
     9  C    0.065230
    12  C    0.031183
    15  C    0.030908
    18  C    0.047087
    21  C    0.084550
    24  C    0.092353
    27  O   -0.254882
 Electronic spatial extent (au):  <R**2>=           2824.4231
 Charge=             -2.0000 electrons
 Dipole moment (field-independent basis, Debye):
    X=              1.7279    Y=             -0.5545    Z=             -0.4997  Tot=              1.8822
 Quadrupole moment (field-independent basis, Debye-Ang):
   XX=           -139.9051   YY=           -117.5593   ZZ=           -115.1121
   XY=              6.9688   XZ=             -6.3097   YZ=              3.5838
 Traceless Quadrupole moment (field-independent basis, Debye-Ang):
   XX=            -15.7130   YY=              6.6329   ZZ=              9.0801
   XY=              6.9688   XZ=             -6.3097   YZ=              3.5838
 Octapole moment (field-independent basis, Debye-Ang**2):
  XXX=            -42.2046  YYY=              1.7968  ZZZ=              6.0089  XYY=             -4.8006
  XXY=             24.5323  XXZ=            -11.2225  XZZ=              6.2471  YZZ=             -1.6588
  YYZ=              4.9584  XYZ=              0.4720
 Hexadecapole moment (field-independent basis, Debye-Ang**3):
 XXXX=          -2413.8506 YYYY=          -1473.6602 ZZZZ=           -580.8811 XXXY=             67.0453
 XXXZ=            -76.3349 YYYX=            -45.3587 YYYZ=             11.3617 ZZZX=             19.2073
 ZZZY=             -5.6421 XXYY=           -646.7480 XXZZ=           -466.5349 YYZZ=           -351.8455
 XXYZ=             36.2863 YYXZ=            -15.5860 ZZXY=            -17.6610
 N-N= 1.265031604748D+03 E-N=-5.055494154693D+03  KE= 1.049415172237D+03
   1 Symmetry operations used in ECPInt.
 ECPInt:  NShTT=   29161 NPrTT=   80163 LenC2=   27230 LenP2D=   56866.
 LDataN:  DoStor=T MaxTD1= 7 Len=  274
 Calling FoFJK, ICntrl=      2127 FMM=F ISym2X=0 I1Cent= 0 IOpClX= 0 NMat=1 NMatS=1 NMatT=0.
 ***** Axes restored to original set *****
 -------------------------------------------------------------------
 Center     Atomic                   Forces (Hartrees/Bohr)
 Number     Number              X              Y              Z
 -------------------------------------------------------------------
      1       14           0.003503813   -0.001661524    0.000612176
      2        8           0.001064790   -0.000063089    0.000239843
      3        8           0.000971718    0.000491841   -0.000404531
      4        8           0.000858214   -0.000985675   -0.000158450
      5        8           0.000370300   -0.000623229    0.000356495
      6        8          -0.002042998    0.001719478   -0.000642565
      7        8           0.001796212   -0.001267389   -0.000345037
      8        1           0.000025390    0.000067189    0.000364409
      9        6          -0.000253959    0.000084479   -0.000043452
     10        1           0.000053244    0.000084972    0.000016332
     11        1          -0.000112590    0.000036543    0.000023273
     12        6          -0.000217798   -0.000211119   -0.000020859
     13        1          -0.000029919   -0.000005392   -0.000000244
     14        1          -0.000071817   -0.000055755   -0.000022007
     15        6           0.000147526    0.000620334   -0.000225684
     16        1          -0.000024596    0.000038934   -0.000004700
     17        1          -0.000000637    0.000096639   -0.000041832
     18        6          -0.000495338    0.000702600   -0.000224309
     19        1          -0.000069273   -0.000084220    0.000053059
     20        1          -0.000150974    0.000152270    0.000014909
     21        6          -0.001501259    0.000620088   -0.000024467
     22        1          -0.000068283   -0.000044197   -0.000027897
     23        1          -0.000164782    0.000050702    0.000043741
     24        6          -0.001579739    0.000286508    0.000193022
     25        1          -0.000134207    0.000017294   -0.000005918
     26        1          -0.000086899    0.000026071    0.000025993
     27        8          -0.001755472   -0.000160201    0.000208157
     28        1          -0.000030666    0.000065850    0.000040545
 -------------------------------------------------------------------
 Cartesian Forces:  Max     0.003503813 RMS     0.000715269

 GradGradGradGradGradGradGradGradGradGradGradGradGradGradGradGradGradGrad
 Berny optimization.
 FormGI is forming the generalized inverse of G from B-inverse, IUseBI=4.
 Internal  Forces:  Max     0.007563034 RMS     0.001034365
 Search for a local minimum.
 Step number   1 out of a maximum of  168
 All quantities printed in internal units (Hartrees-Bohrs-Radians)
 Mixed Optimization -- RFO/linear search
 Second derivative matrix not updated -- first step.
 ITU=  0
     Eigenvalues ---    0.00230   0.00230   0.00907   0.00931   0.01484
     Eigenvalues ---    0.01997   0.02032   0.02121   0.02144   0.04589
     Eigenvalues ---    0.04706   0.04778   0.04804   0.05180   0.05246
     Eigenvalues ---    0.05719   0.06023   0.06025   0.06131   0.06307
     Eigenvalues ---    0.06366   0.07210   0.08637   0.09347   0.09624
     Eigenvalues ---    0.09678   0.10440   0.10539   0.11195   0.11216
     Eigenvalues ---    0.11230   0.11287   0.11317   0.11351   0.11868
     Eigenvalues ---    0.12640   0.13602   0.13676   0.13769   0.13843
     Eigenvalues ---    0.14952   0.16000   0.16000   0.16809   0.19155
     Eigenvalues ---    0.21820   0.21861   0.21981   0.21998   0.25000
     Eigenvalues ---    0.25857   0.26372   0.27418   0.28013   0.28070
     Eigenvalues ---    0.28198   0.28349   0.28921   0.31994   0.32411
     Eigenvalues ---    0.32656   0.32907   0.32937   0.32940   0.32984
     Eigenvalues ---    0.32993   0.33254   0.33634   0.33760   0.33785
     Eigenvalues ---    0.43111   0.47218   0.47245   0.48626   0.48808
     Eigenvalues ---    0.50828   0.51456   0.56749
 RFO step:  Lambda=-1.08740948D-03 EMin= 2.30000000D-03
 Linear search not attempted -- first point.
 Iteration  1 RMS(Cart)=  0.03216605 RMS(Int)=  0.00036732
 Iteration  2 RMS(Cart)=  0.00049653 RMS(Int)=  0.00001768
 Iteration  3 RMS(Cart)=  0.00000017 RMS(Int)=  0.00001768
 Variable       Old X    -DE/DX   Delta X   Delta X   Delta X     New X
                                 (Linear)    (Quad)   (Total)
    R1        3.37441   0.00080   0.00000   0.00380   0.00379   3.37821
    R2        3.35600   0.00125   0.00000   0.00466   0.00465   3.36065
    R3        3.33079   0.00062   0.00000   0.00190   0.00190   3.33269
    R4        3.35572   0.00063   0.00000   0.00250   0.00250   3.35822
    R5        3.85804  -0.00756   0.00000  -0.05516  -0.05516   3.80288
    R6        3.35810  -0.00216   0.00000  -0.00769  -0.00769   3.35041
    R7        2.60159   0.00041   0.00000   0.00096   0.00096   2.60255
    R8        2.59302   0.00033   0.00000   0.00030   0.00030   2.59333
    R9        2.60010   0.00013   0.00000   0.00007   0.00007   2.60018
   R10        2.59550   0.00019   0.00000   0.00054   0.00055   2.59604
   R11        2.58424  -0.00366   0.00000  -0.00710  -0.00710   2.57713
   R12        1.80310   0.00033   0.00000   0.00058   0.00058   1.80367
   R13        2.09660  -0.00004   0.00000  -0.00013  -0.00013   2.09648
   R14        2.09157  -0.00006   0.00000  -0.00019  -0.00019   2.09138
   R15        2.90485  -0.00001   0.00000  -0.00009  -0.00008   2.90477
   R16        2.09162   0.00002   0.00000   0.00007   0.00007   2.09169
   R17        2.09079  -0.00003   0.00000  -0.00010  -0.00010   2.09069
   R18        2.09063   0.00003   0.00000   0.00010   0.00010   2.09073
   R19        2.08607  -0.00006   0.00000  -0.00017  -0.00017   2.08590
   R20        2.90694   0.00004   0.00000  -0.00076  -0.00075   2.90619
   R21        2.10098  -0.00004   0.00000  -0.00011  -0.00011   2.10087
   R22        2.09215  -0.00011   0.00000  -0.00033  -0.00033   2.09182
   R23        2.07694   0.00003   0.00000   0.00010   0.00010   2.07705
   R24        2.10855  -0.00006   0.00000  -0.00018  -0.00018   2.10837
   R25        2.91381  -0.00321   0.00000  -0.01128  -0.01128   2.90253
   R26        2.07737  -0.00010   0.00000  -0.00029  -0.00029   2.07709
   R27        2.07952   0.00001   0.00000   0.00003   0.00003   2.07956
   R28        2.67533  -0.00017   0.00000  -0.00039  -0.00039   2.67494
   R29        1.85738   0.00005   0.00000   0.00011   0.00011   1.85749
    A1        1.56113  -0.00065   0.00000  -0.00336  -0.00340   1.55773
    A2        1.58009   0.00060   0.00000   0.00348   0.00351   1.58360
    A3        1.50727   0.00057   0.00000   0.00386   0.00388   1.51116
    A4        1.59738   0.00011   0.00000   0.00302   0.00301   1.60039
    A5        1.56023   0.00030   0.00000   0.00043   0.00047   1.56070
    A6        1.50833   0.00123   0.00000   0.01070   0.01070   1.51904
    A7        1.65645  -0.00050   0.00000  -0.00301  -0.00300   1.65345
    A8        1.56947  -0.00027   0.00000  -0.00073  -0.00075   1.56872
    A9        1.55534  -0.00082   0.00000  -0.00707  -0.00706   1.54828
   A10        1.62353   0.00017   0.00000   0.00038   0.00038   1.62391
   A11        1.47837  -0.00095   0.00000  -0.00640  -0.00641   1.47196
   A12        1.64028   0.00021   0.00000  -0.00134  -0.00135   1.63893
   A13        1.94115   0.00052   0.00000   0.00416   0.00411   1.94526
   A14        1.96407   0.00025   0.00000   0.00038   0.00030   1.96437
   A15        1.95971   0.00006   0.00000  -0.00050  -0.00052   1.95919
   A16        1.93327   0.00021   0.00000   0.00170   0.00168   1.93495
   A17        2.12962  -0.00313   0.00000  -0.01248  -0.01248   2.11714
   A18        1.81199  -0.00020   0.00000  -0.00127  -0.00127   1.81072
   A19        1.93946  -0.00010   0.00000  -0.00070  -0.00070   1.93876
   A20        1.93958   0.00004   0.00000   0.00057   0.00057   1.94016
   A21        1.87878   0.00008   0.00000   0.00003   0.00002   1.87881
   A22        1.87104  -0.00000   0.00000  -0.00007  -0.00008   1.87096
   A23        1.90118   0.00012   0.00000   0.00050   0.00050   1.90168
   A24        1.93406  -0.00013   0.00000  -0.00033  -0.00033   1.93373
   A25        1.86782  -0.00001   0.00000   0.00014   0.00014   1.86796
   A26        1.94101  -0.00002   0.00000  -0.00005  -0.00005   1.94095
   A27        1.94240   0.00008   0.00000   0.00067   0.00067   1.94308
   A28        1.92887   0.00011   0.00000   0.00031   0.00031   1.92918
   A29        1.90337  -0.00015   0.00000  -0.00085  -0.00085   1.90252
   A30        1.88058  -0.00001   0.00000  -0.00023  -0.00023   1.88035
   A31        1.93876   0.00001   0.00000  -0.00018  -0.00017   1.93858
   A32        1.94444   0.00017   0.00000   0.00105   0.00105   1.94550
   A33        1.87081  -0.00020   0.00000  -0.00060  -0.00062   1.87019
   A34        1.87524  -0.00002   0.00000  -0.00000  -0.00000   1.87524
   A35        1.92732  -0.00001   0.00000   0.00057   0.00059   1.92791
   A36        1.90765   0.00005   0.00000  -0.00084  -0.00084   1.90681
   A37        1.88729  -0.00001   0.00000  -0.00197  -0.00201   1.88528
   A38        1.94032  -0.00005   0.00000   0.00018   0.00020   1.94051
   A39        1.94301   0.00008   0.00000   0.00090   0.00092   1.94393
   A40        1.89837   0.00012   0.00000   0.00172   0.00174   1.90011
   A41        1.92872  -0.00010   0.00000  -0.00080  -0.00080   1.92792
   A42        1.86605  -0.00002   0.00000   0.00002   0.00002   1.86607
   A43        1.97400   0.00191   0.00000   0.00889   0.00891   1.98291
   A44        1.94451   0.00128   0.00000   0.00123   0.00117   1.94568
   A45        1.89929  -0.00557   0.00000  -0.02705  -0.02707   1.87223
   A46        1.86694  -0.00055   0.00000   0.00418   0.00412   1.87105
   A47        1.90149   0.00157   0.00000   0.00790   0.00790   1.90939
   A48        1.87467   0.00149   0.00000   0.00557   0.00550   1.88017
   A49        1.95401   0.00070   0.00000   0.00408   0.00409   1.95810
   A50        1.90265   0.00063   0.00000   0.00131   0.00128   1.90393
   A51        1.89236  -0.00315   0.00000  -0.01547  -0.01549   1.87687
   A52        1.89409  -0.00024   0.00000   0.00317   0.00315   1.89724
   A53        1.90186   0.00131   0.00000   0.00714   0.00715   1.90901
   A54        1.91887   0.00077   0.00000  -0.00024  -0.00028   1.91859
   A55        1.72443   0.00005   0.00000   0.00031   0.00031   1.72474
   A56        3.12135  -0.00035   0.00000  -0.00293  -0.00293   3.11843
   A57        3.14122  -0.00005   0.00000   0.00012   0.00011   3.14133
   A58        3.10465   0.00068   0.00000   0.00688   0.00689   3.11154
   A59        3.06372  -0.00025   0.00000  -0.00320  -0.00320   3.06052
   A60        3.29678  -0.00029   0.00000  -0.00433  -0.00433   3.29246
   A61        3.16505   0.00076   0.00000   0.00779   0.00778   3.17283
    D1       -0.28372   0.00011   0.00000   0.01555   0.01555  -0.26817
    D2        2.70268   0.00040   0.00000   0.01988   0.01988   2.72256
    D3        1.22510   0.00139   0.00000   0.02646   0.02646   1.25155
    D4       -1.93995   0.00063   0.00000   0.01867   0.01868  -1.92127
    D5       -0.10726  -0.00028   0.00000  -0.01954  -0.01954  -0.12680
    D6        3.11220  -0.00003   0.00000  -0.01634  -0.01633   3.09587
    D7       -1.61502  -0.00088   0.00000  -0.02356  -0.02353  -1.63855
    D8        1.48938  -0.00022   0.00000  -0.01678  -0.01677   1.47261
    D9        3.09278   0.00069   0.00000   0.01402   0.01401   3.10680
   D10        0.10592   0.00040   0.00000   0.00965   0.00964   0.11556
   D11        1.58430  -0.00055   0.00000   0.00326   0.00325   1.58755
   D12       -1.53438   0.00020   0.00000   0.01103   0.01103  -1.52335
   D13       -2.76322  -0.00010   0.00000  -0.00534  -0.00534  -2.76857
   D14        0.29831  -0.00040   0.00000  -0.00892  -0.00892   0.28939
   D15       -1.25709   0.00040   0.00000  -0.00189  -0.00189  -1.25898
   D16        1.92187  -0.00025   0.00000  -0.00859  -0.00859   1.91328
   D17       -2.34132   0.00049   0.00000   0.01465   0.01466  -2.32666
   D18       -0.77625  -0.00027   0.00000   0.01036   0.01037  -0.76588
   D19        0.78492   0.00006   0.00000   0.01107   0.01105   0.79597
   D20        2.35582  -0.00012   0.00000   0.01109   0.01110   2.36692
   D21       -0.30445  -0.00046   0.00000  -0.00488  -0.00490  -0.30935
   D22       -1.86782   0.00019   0.00000  -0.00169  -0.00166  -1.86948
   D23        2.85066  -0.00009   0.00000  -0.00200  -0.00201   2.84865
   D24        1.27752   0.00015   0.00000  -0.00122  -0.00121   1.27631
   D25        2.65934  -0.00006   0.00000  -0.00798  -0.00800   2.65134
   D26       -1.53380   0.00004   0.00000  -0.00741  -0.00741  -1.54122
   D27        0.55241   0.00008   0.00000  -0.00820  -0.00822   0.54419
   D28        0.42324   0.00037   0.00000   0.01802   0.01803   0.44127
   D29       -1.65956   0.00026   0.00000   0.01704   0.01705  -1.64251
   D30        2.54510   0.00027   0.00000   0.01629   0.01629   2.56138
   D31        1.64761  -0.00019   0.00000  -0.00773  -0.00773   1.63987
   D32       -2.55360  -0.00023   0.00000  -0.00791  -0.00791  -2.56151
   D33       -0.43280  -0.00032   0.00000  -0.00795  -0.00795  -0.44075
   D34       -0.57513   0.00029   0.00000   0.00608   0.00608  -0.56905
   D35       -2.68338   0.00017   0.00000   0.00564   0.00565  -2.67774
   D36        1.50286   0.00014   0.00000   0.00552   0.00552   1.50838
   D37        0.07216   0.00073   0.00000   0.00432   0.00434   0.07651
   D38       -2.03157  -0.00084   0.00000  -0.00829  -0.00827  -2.03984
   D39        2.18787   0.00005   0.00000   0.00112   0.00107   2.18894
   D40        0.64877  -0.00002   0.00000   0.00105   0.00105   0.64982
   D41        2.76472   0.00002   0.00000   0.00125   0.00125   2.76597
   D42       -1.45428  -0.00002   0.00000   0.00063   0.00063  -1.45364
   D43       -1.45591  -0.00001   0.00000   0.00159   0.00159  -1.45432
   D44        0.66004   0.00003   0.00000   0.00179   0.00179   0.66183
   D45        2.72423  -0.00001   0.00000   0.00117   0.00117   2.72540
   D46        2.77301   0.00000   0.00000   0.00157   0.00157   2.77458
   D47       -1.39423   0.00003   0.00000   0.00177   0.00177  -1.39246
   D48        0.66996  -0.00000   0.00000   0.00115   0.00115   0.67111
   D49       -0.62759  -0.00010   0.00000  -0.00521  -0.00521  -0.63280
   D50        1.48151  -0.00010   0.00000  -0.00515  -0.00515   1.47636
   D51       -2.75825  -0.00012   0.00000  -0.00456  -0.00455  -2.76280
   D52       -2.74175   0.00002   0.00000  -0.00496  -0.00496  -2.74670
   D53       -0.63265   0.00002   0.00000  -0.00489  -0.00490  -0.63754
   D54        1.41077   0.00000   0.00000  -0.00430  -0.00430   1.40648
   D55        1.48208   0.00002   0.00000  -0.00479  -0.00479   1.47729
   D56       -2.69201   0.00002   0.00000  -0.00472  -0.00473  -2.69674
   D57       -0.64859  -0.00000   0.00000  -0.00413  -0.00413  -0.65272
   D58        2.79498  -0.00052   0.00000  -0.04869  -0.04869   2.74629
   D59       -1.39240   0.00004   0.00000  -0.04128  -0.04127  -1.43368
   D60        0.69630  -0.00051   0.00000  -0.04988  -0.04986   0.64644
   D61       -1.32870  -0.00072   0.00000  -0.04998  -0.05000  -1.37870
   D62        0.76710  -0.00016   0.00000  -0.04257  -0.04259   0.72452
   D63        2.85581  -0.00071   0.00000  -0.05117  -0.05118   2.80463
   D64        0.68771   0.00023   0.00000  -0.03806  -0.03806   0.64965
   D65        2.78352   0.00079   0.00000  -0.03065  -0.03065   2.75287
   D66       -1.41096   0.00024   0.00000  -0.03926  -0.03924  -1.45020
   D67       -0.47521   0.00009   0.00000   0.00012   0.00009  -0.47512
   D68       -2.60607   0.00038   0.00000   0.00030   0.00032  -2.60575
   D69        1.60329  -0.00058   0.00000  -0.00772  -0.00771   1.59558
         Item               Value     Threshold  Converged?
 Maximum Force            0.007563     0.000450     NO 
 RMS     Force            0.001034     0.000300     NO 
 Maximum Displacement     0.211757     0.001800     NO 
 RMS     Displacement     0.032197     0.001200     NO 
 Predicted change in Energy=-5.592115D-04
 GradGradGradGradGradGradGradGradGradGradGradGradGradGradGradGradGradGrad

                          Input orientation:                          
 ---------------------------------------------------------------------
 Center     Atomic      Atomic             Coordinates (Angstroms)
 Number     Number       Type             X           Y           Z
 ---------------------------------------------------------------------
      1         14           0       -0.797019    0.277561   -0.004990
      2          8           0       -0.196455    1.450930    1.202606
      3          8           0        0.095514    1.155802   -1.267811
      4          8           0       -1.252878   -0.938595   -1.198046
      5          8           0       -1.465126   -0.744207    1.286399
      6          8           0        0.898762   -0.752778    0.330365
      7          8           0       -2.299645    1.192619   -0.224481
      8          1           0       -2.338606    1.753152    0.547065
      9          6           0       -1.993166   -1.958509   -0.645780
     10          1           0       -3.080432   -1.764015   -0.749751
     11          1           0       -1.783535   -2.921904   -1.148509
     12          6           0       -1.640072   -2.034448    0.848326
     13          1           0       -2.445371   -2.543062    1.412223
     14          1           0       -0.715507   -2.629685    0.970262
     15          6           0        0.859322    2.185221    0.709795
     16          1           0        0.907848    3.182037    1.187338
     17          1           0        1.823668    1.681624    0.896421
     18          6           0        0.645613    2.325443   -0.806702
     19          1           0       -0.028690    3.188728   -0.996456
     20          1           0        1.604177    2.547910   -1.313637
     21          6           0        1.653775   -1.229567   -0.700398
     22          1           0        1.285338   -0.929555   -1.691520
     23          1           0        1.702221   -2.344167   -0.689852
[...]
 068635,-0.00018244,-0.00004425,-0.00052576,0.00687880,-0.00091927,0.02
 614606,-0.00000652,-0.00027623,-0.00016502,0.00002875,-0.00003245,-0.0
 0000648,-0.00045545,-0.00096650,0.00039490,0.00044418,0.00013332,-0.00
 014237,0.00008807,0.00017082,-0.00000163,0.00022174,0.00005322,0.00013
 685,-0.00001432,0.00001625,-0.00010254,-0.00002426,0.00010278,-0.00003
 197,-0.00015312,-0.00013834,0.00001654,-0.00000039,0.00001151,-0.00001
 923,0.00000780,-0.00001420,-0.00000256,0.00007503,-0.00002679,0.000036
 51,0.00000565,-0.00002487,0.00000983,-0.00007545,-0.00009447,-0.000016
 14,-0.08993703,0.01682407,-0.09485909,0.09696847,0.00163996,0.00141793
 ,-0.00207623,0.00003008,-0.00011659,0.00049120,0.00090924,-0.00080022,
 0.00048315,0.00049461,-0.00100255,-0.00039729,0.00000745,-0.00014370,-
 0.00005625,-0.00342756,0.00406075,-0.01476696,-0.00025345,-0.00019092,
 0.00009905,-0.00002653,0.00000087,0.00000127,-0.00037377,-0.00014712,0
 .00011915,0.00008049,0.00000840,-0.00001642,-0.00006916,-0.00005542,0.
 00000897,0.00000130,-0.00006963,0.00008010,0.00001408,-0.00001170,-0.0
 0002595,-0.00000729,-0.00000895,-0.00000929,-0.00008547,0.00015868,-0.
 00009367,0.00001166,0.00000939,0.00009923,0.00007418,0.00001809,0.0000
 1429,-0.00044477,-0.00090792,-0.00029362,-0.00006617,0.00037024,0.0000
 7263,0.00012060,0.00010885,-0.00000484,0.01942270,-0.05840067,0.046268
 75,-0.02121348,0.06110076,-0.00458868,0.00275895,-0.00420316,0.0003176
 7,-0.00112229,0.00025224,-0.00081725,0.00126298,0.00202932,-0.00143550
 ,0.00061192,0.00225444,0.00110570,0.00028280,0.00022559,0.00435869,-0.
 00585660,-0.03661651,0.00008950,0.00000005,0.00038999,-0.00011777,0.00
 007650,0.00000600,0.00034952,0.00062696,-0.00024057,-0.00019150,-0.000
 07341,0.00008851,0.00006237,-0.00000743,0.00001458,-0.00043317,-0.0005
 1856,-0.00027291,0.00014416,0.00005697,0.00007423,-0.00007586,-0.00009
 724,0.00000760,0.00027032,0.00060773,-0.00027722,0.00001147,-0.0001514
 7,0.00006531,0.00004144,0.00006424,0.00001045,-0.00044202,-0.00044316,
 -0.00007513,-0.00000651,0.00017605,0.00007820,0.00001744,-0.00002811,0
 .00000980,-0.08755637,0.03742619,-0.24058337,0.09428324,-0.04022694,0.
 27793482,0.00514377,-0.00083457,0.00148404,-0.00046640,0.00203051,0.00
 058505,0.00003240,0.00115891,-0.00045664,-0.00044012,-0.00095995,-0.00
 036837,-0.00082265,-0.00086595,0.00011378,-0.01164358,0.02831290,0.010
 03975,-0.00030866,-0.00003614,-0.00009140,0.00006769,0.00000522,0.0000
 1993,0.00014486,0.00038856,-0.00007977,-0.00006415,-0.00006019,0.00004
 537,-0.00008691,-0.00017652,-0.00008406,-0.00008036,0.00102988,0.00012
 396,0.00003386,-0.00016830,0.00004458,0.00036719,-0.00029637,0.0000715
 3,-0.00075082,-0.00052383,0.00027471,0.00011891,0.00016347,0.00005465,
 0.00021117,-0.00008623,0.00003810,-0.00039863,-0.00067239,0.00004605,-
 0.00001723,0.00016148,0.00000401,0.00018771,0.00017055,-0.00014566,-0.
 04830793,0.01894828,-0.01081185,0.00048023,0.01364693,-0.00329142,0.05
 928620,-0.00870582,0.00157053,-0.00170332,0.00086595,-0.00192102,-0.00
 072374,0.00055391,-0.00123896,0.00063731,0.00139073,0.00136799,0.00064
 331,0.00135291,0.00148098,-0.00019634,0.02243064,-0.01397332,-0.018945
 70,0.00069084,0.00008029,0.00011039,-0.00011889,-0.00001248,-0.0000236
 5,-0.00050124,-0.00096982,0.00010428,0.00015290,0.00012124,-0.00001436
 ,0.00012677,0.00050245,0.00021105,0.00016458,-0.00132957,-0.00042741,0
 .00020506,0.00017987,-0.00007643,-0.00024848,0.00020399,-0.00013025,0.
 00037569,0.00065968,-0.00018243,-0.00002930,-0.00031589,-0.00009795,-0
 .00001697,0.00007907,0.00009337,0.00004585,0.00083459,0.00009495,0.000
 15492,-0.00027005,-0.00001867,-0.00011096,-0.00009076,0.00004925,0.013
 45226,-0.23825728,0.03784005,-0.00044348,-0.00721286,0.00320336,-0.029
 11058,0.27636833,-0.00302275,0.00111290,-0.00233189,0.00035780,-0.0016
 1927,-0.00028205,-0.00039600,0.00036268,0.00141493,0.00017930,-0.00021
 981,0.00031094,0.00029536,0.00032389,-0.00006748,0.01627214,-0.0314174
 3,-0.00231446,0.00003409,-0.00004911,0.00014196,-0.00006108,0.00000375
 ,-0.00000597,-0.00012357,0.00011195,0.00010593,-0.00001113,-0.00001399
 ,-0.00001745,-0.00001686,-0.00002176,-0.00001053,-0.00002433,-0.000442
 47,-0.00001311,-0.00000961,0.00007398,-0.00000851,-0.00013754,0.000138
 67,0.00001578,0.00051815,0.00039492,-0.00026655,-0.00006808,-0.0000826
 2,0.00003392,-0.00009514,0.00003773,0.00002228,-0.00028512,-0.00033718
 ,-0.00005017,-0.00004432,0.00013621,0.00005925,-0.00000925,-0.00002999
 ,0.00001990,-0.00871659,0.03434274,-0.05553910,-0.00139841,0.02700240,
 -0.00196542,-0.00319023,-0.02705668,0.05823535,-0.00008865,-0.00235403
 ,0.00235638,0.00000633,-0.00020591,-0.00037483,-0.00040192,-0.00066445
 ,-0.00067220,0.00080103,-0.00020428,-0.00103884,-0.00123292,-0.0001345
 3,0.00026228,-0.04499161,0.00471324,0.01904794,0.00017094,-0.00002876,
 -0.00016471,0.00001646,-0.00004597,-0.00001395,-0.00023664,-0.00032331
 ,0.00024540,0.00021327,0.00004760,-0.00003218,-0.00004197,0.00004059,-
 0.00002253,-0.00001347,0.00057939,0.00018247,0.00006523,-0.00005898,-0
 .00004525,0.00009462,-0.00009396,0.00002673,0.00030663,0.00016539,0.00
 025649,-0.00005664,-0.00003698,-0.00008572,-0.00037172,0.00034718,0.00
 023485,0.00002272,0.00022604,0.00026338,0.00014672,-0.00019325,-0.0001
 3431,0.00007225,0.00000325,-0.00009133,-0.12967382,-0.04581886,-0.0035
 8361,-0.00769723,-0.00697594,-0.00316791,-0.00056456,0.00150481,-0.001
 71683,0.49953961,-0.00008688,0.00441807,-0.00115914,-0.00103628,-0.001
 34340,0.00032289,-0.00179985,-0.00154838,0.00035000,0.00073326,-0.0002
 4191,-0.00017593,0.00097162,-0.00020401,-0.00024571,0.01334759,0.00963
 525,-0.00262574,-0.00046359,-0.00044466,0.00007751,0.00005559,0.000073
 50,-0.00000308,-0.00010903,-0.00037972,-0.00000218,0.00011959,0.000075
 38,-0.00001808,0.00001058,0.00003225,0.00004167,0.00005204,-0.00031201
 ,-0.00006774,-0.00002533,0.00002856,-0.00001816,-0.00008838,-0.0000045
 8,-0.00004691,0.00132174,0.00026323,-0.00044350,-0.00034525,0.00019747
 ,0.00008819,-0.00009233,-0.00046005,-0.00094699,0.00131999,0.00020484,
 -0.00014986,-0.00040661,-0.00003746,0.00007513,-0.00035737,-0.00058248
 ,0.00038943,-0.04543526,-0.10806864,0.00219411,0.00676462,0.00221756,0
 .00163730,-0.03120845,-0.02020288,-0.00276080,-0.05691320,0.56065530,-
 0.00034064,-0.00041023,0.00056600,-0.00071605,-0.00004483,-0.00106248,
 0.00208853,-0.00011487,-0.00148386,-0.00130843,0.00022054,0.00009030,0
 .00110738,-0.00006503,-0.00059111,0.02446840,0.00229283,-0.01521456,0.
 00006516,0.00011342,-0.00032314,0.00013596,0.00003260,-0.00000345,0.00
 022461,0.00056625,-0.00009731,-0.00017282,-0.00006967,0.00000945,0.000
 00209,-0.00013815,-0.00005346,-0.00003233,-0.00027194,-0.00007554,0.00
 002492,0.00003789,0.00001650,-0.00009211,0.00003709,0.00005915,0.00168
 273,-0.00026160,0.00025601,-0.00021576,0.00012591,-0.00017723,-0.00056
 966,-0.00060554,0.00026030,-0.00125057,0.00094578,0.00100148,0.0002275
 4,-0.00006935,-0.00043639,0.00027420,0.00057783,-0.00043398,-0.0196868
 3,-0.00439014,-0.06903278,-0.02520597,-0.01454251,-0.00222265,0.006396
 99,0.00747918,0.00021614,-0.06787055,-0.00837270,0.50849347,0.00253888
 ,-0.00203999,0.00088977,-0.00009075,0.00050251,0.00008345,-0.00021307,
 0.00063649,-0.00030772,-0.00064661,-0.00028297,-0.00045012,-0.00113599
 ,-0.00023176,0.00027142,-0.00821428,-0.00286038,0.00114647,-0.00026215
 ,0.00016881,-0.00009444,0.00004291,-0.00004144,0.00001998,0.00028546,0
 .00027681,-0.00003580,-0.00012575,-0.00000736,-0.00000349,-0.00002393,
 -0.00014381,-0.00006223,0.00021361,0.00046731,0.00014664,-0.00013496,-
 0.00008322,0.00004455,0.00010251,-0.00000097,-0.00002121,-0.00000264,-
 0.00030610,0.00007621,-0.00002388,0.00016841,0.00003330,-0.00004110,-0
 .00006295,-0.00003449,-0.00008242,-0.00048010,-0.00006959,-0.00006607,
 0.00013957,-0.00000819,0.00011822,0.00006710,-0.00004681,-0.01122264,0
 .02108530,0.01428614,-0.00030699,-0.00031084,-0.00133783,0.00155262,-0
 .00132282,0.00048464,-0.17649668,0.08928184,0.07849900,0.18688962,-0.0
 0080651,-0.00095674,0.00052807,0.00044060,0.00028996,-0.00013806,0.000
 93350,-0.00015867,-0.00013060,0.00022114,0.00020723,-0.00000092,-0.000
 04134,0.00016715,0.00002119,-0.00292264,0.00057677,-0.00015950,0.00028
 906,0.00005068,-0.00002042,-0.00002869,-0.00000812,-0.00001040,-0.0001
 2334,-0.00012060,0.00004540,0.00005288,-0.00000277,-0.00000180,0.00000
 724,0.00006925,0.00001675,-0.00004956,-0.00005115,-0.00001507,0.000050
 63,0.00001592,-0.00002134,-0.00000636,0.00000600,0.00000479,-0.0006059
 0,0.00004192,0.00005533,0.00014246,-0.00015060,-0.00005284,0.00020419,
 0.00003826,0.00016562,-0.00019546,0.00049532,0.00006462,0.00013405,-0.
 00010784,0.00001611,-0.00007170,0.00011532,-0.00005665,-0.01007169,0.0
 0665425,0.00849312,0.00053236,0.00015592,-0.00053243,0.00061382,0.0011
 4451,0.00035359,0.09089174,-0.11583640,-0.05388715,-0.09938972,0.11852
 160,-0.00051234,0.00028931,-0.00030243,0.00016104,-0.00009620,0.000138
 42,-0.00022757,-0.00004352,0.00017501,0.00025046,0.00007293,0.00007231
 ,0.00010627,0.00007882,0.00001940,-0.00003602,-0.00046150,0.00120485,0
 .00009361,-0.00003365,0.00006621,-0.00003762,0.00000421,-0.00000449,-0
 .00008994,-0.00010682,0.00002222,0.00004830,0.00000190,-0.00000119,0.0
 0000406,0.00004605,0.00001936,-0.00006584,-0.00007241,-0.00001786,0.00
 003891,0.00001979,-0.00001300,-0.00001076,-0.00000345,0.00000096,-0.00
 018714,0.00012093,-0.00000114,0.00002766,-0.00006209,0.00000633,0.0000
 4951,0.00013141,-0.00006282,0.00011810,-0.00010233,-0.00009395,0.00002
 040,-0.00001284,0.00004644,-0.00002364,-0.00004275,0.00004187,-0.00050
 261,0.00133800,0.00282992,0.00092860,0.00040269,-0.00033258,0.00024018
 ,0.00065703,0.00003567,0.07163723,-0.05000061,-0.09008164,-0.08798144,
 0.06233807,0.11590154,-0.00079849,-0.00138032,0.00081105,0.00010880,0.
 00017202,-0.00025531,0.00082409,-0.00012674,-0.00069315,0.00008039,0.0
 0038530,0.00004396,0.00007973,0.00032721,-0.00000969,0.00202878,0.0025
 6890,-0.00088036,0.00027646,0.00013013,-0.00010424,0.00001284,-0.00001
 531,-0.00000624,-0.00002000,-0.00010874,0.00002399,-0.00000856,0.00001
 573,-0.00000643,0.00003083,0.00007778,0.00002408,0.00009974,-0.0002534
 5,-0.00005426,-0.00001751,0.00003068,-0.00001042,-0.00006193,0.0000937
 1,-0.00003510,-0.00026720,0.00008914,0.00025053,0.00007280,-0.00010790
 ,-0.00009038,-0.00010764,0.00012240,0.00021458,-0.00043990,0.00132387,
 0.00029329,0.00013189,-0.00022061,-0.00004192,-0.00005733,0.00003217,-
 0.00001673,0.00181831,-0.02933354,0.00763585,0.00123718,0.00047308,0.0
 0002447,-0.00476919,-0.00411840,0.00010014,-0.05318975,0.01828876,-0.0
 0319933,-0.00163849,0.02258690,-0.00620780,0.05157507,0.00026610,-0.00
 190994,0.00096298,0.00002387,0.00057133,-0.00015372,0.00166046,0.00000
 685,-0.00068870,-0.00021237,0.00030506,-0.00008389,-0.00015472,0.00027
 781,0.00002850,-0.00084064,0.00323006,0.00005709,0.00013668,0.00021195
 ,-0.00014847,0.00002953,-0.00003084,0.00000295,0.00007539,-0.00001121,
 -0.00000017,-0.00006796,0.00001269,-0.00000729,0.00002372,0.00003315,0
 .00000660,0.00017646,-0.00016820,-0.00002674,-0.00005914,0.00000824,0.
 00000432,-0.00005856,0.00011047,-0.00003353,0.00008203,-0.00021999,0.0
 0018383,0.00001149,0.00007336,-0.00004953,0.00002297,0.00000383,0.0000
 9812,0.00013094,0.00044564,0.00013019,0.00001546,-0.00006242,0.0000085
 5,-0.00014078,0.00016552,-0.00004977,0.00223673,-0.01871149,0.00302707
 ,-0.00015372,0.00039322,-0.00046594,-0.00380308,-0.00077309,-0.0002823
 1,0.01435985,-0.26100749,0.07712292,0.00078796,-0.01400770,0.00379413,
 -0.01660749,0.28002393,-0.00003496,0.00112800,-0.00006296,-0.00061163,
 -0.00063235,0.00014667,-0.00040120,-0.00039306,-0.00025339,0.00012081,
 -0.00009905,0.00010598,0.00009145,-0.00015819,0.00001933,0.00048890,0.
 00019648,0.00089742,-0.00011204,-0.00012523,-0.00001729,0.00003335,0.0
 0001926,-0.00000053,-0.00000754,-0.00002163,-0.00001374,0.00001917,0.0
 0000514,0.00000736,-0.00000253,-0.00000099,0.00000382,-0.00005647,0.00
 003686,0.00000385,0.00000214,-0.00000891,0.00000083,0.00001418,-0.0000
 4363,-0.00000390,0.00104983,0.00021929,0.00002524,-0.00022082,0.000148
 13,0.00000017,-0.00027725,0.00010745,-0.00052097,0.00036470,0.00016940
 ,0.00019369,-0.00008849,-0.00004794,-0.00004706,-0.00001092,-0.0001264
 2,0.00012343,-0.00084628,-0.00296323,0.00167599,0.00014129,-0.00031137
 ,0.00067111,-0.00103956,-0.00039785,0.00075484,0.00124789,0.07428560,-
 0.07294066,0.00087705,-0.01300810,0.00716042,0.00954369,-0.08895043,0.
 09863278,0.00768100,-0.00853818,-0.00069860,0.00048921,0.00201974,0.00
 089186,0.00032707,0.00292057,-0.00067724,-0.00393148,-0.00063773,-0.00
 120302,-0.00157489,-0.00015019,0.00098826,-0.02231080,-0.00303146,-0.0
 1770086,-0.00053723,0.00076863,0.00001682,0.00003264,-0.00007600,0.000
 05265,0.00130515,0.00128008,-0.00058621,-0.00064703,-0.00009694,0.0000
 8099,-0.00006432,-0.00039034,-0.00010784,0.00057702,0.00057595,0.00005
 373,-0.00040642,-0.00015475,0.00019493,0.00015446,0.00007414,-0.000055
 50,-0.00062275,-0.00064479,0.00023005,-0.00003437,0.00049386,0.0001211
 2,-0.00001239,0.00010573,-0.00016355,-0.00061922,-0.00134488,-0.000439
 72,-0.00012479,0.00036855,0.00005272,0.00036481,0.00031598,-0.00015874
 ,-0.02074343,0.00116065,-0.03144263,-0.00497932,-0.00404459,-0.0008895
 6,0.00213099,-0.00054380,0.00024753,-0.09620541,0.00481530,-0.00624130
 ,0.00987487,-0.00094502,0.02557201,0.00349627,0.00109617,-0.00759184,0
 .49396879,0.00017850,-0.00444470,-0.00116673,0.00205451,0.00236788,-0.
 00003169,0.00068720,0.00199559,0.00027795,-0.00067832,0.00043808,0.000
 29489,0.00002164,0.00091945,0.00015069,-0.00070504,0.00694131,0.000199
 40,0.00046610,0.00057641,0.00020707,-0.00018156,-0.00008710,0.00000864
 ,0.00011042,0.00015972,-0.00005049,-0.00016703,-0.00002085,-0.00000440
 ,0.00002699,0.00005254,0.00002792,0.00022586,-0.00053322,-0.00014962,-
 0.00003825,0.00005853,0.00001608,-0.00013773,0.00024386,-0.00001674,-0
 .00450785,-0.00051970,0.00051931,0.00069016,-0.00045684,0.00016716,0.0
 0215283,-0.00038312,0.00034584,-0.00010860,-0.00119804,-0.00067114,0.0
 0023068,0.00011007,0.00039231,0.00018165,0.00019397,-0.00010263,-0.005
 47206,0.00230699,-0.02374032,-0.00417621,-0.00092571,0.00011975,0.0022
 9088,0.00250042,0.00021312,-0.00265216,-0.07182765,-0.00354743,-0.0061
 2125,0.00355658,-0.01473836,0.00580881,0.01146986,0.02949114,-0.014826
 19,0.06583353,-0.00046831,0.00109150,-0.00340853,0.00065697,0.00038619
 ,0.00135323,-0.00175851,0.00099141,0.00203784,-0.00063266,0.00011662,0
 .00162018,0.00026227,0.00015972,0.00061652,0.00922212,-0.00060270,0.00
 889078,-0.00016196,0.00008920,0.00055146,-0.00016192,0.00003651,0.0000
 0912,0.00044860,0.00038125,-0.00028331,-0.00019586,-0.00003219,0.00007
 808,0.00003528,-0.00000143,0.00004208,-0.00014403,-0.00020563,-0.00017
 525,-0.00005350,0.00000780,0.00008591,0.00003522,-0.00003029,-0.000045
 46,-0.00153424,0.00018027,-0.00022464,0.00015427,-0.00001137,0.0002062
 3,0.00089668,-0.00006518,-0.00039925,0.00078624,-0.00124921,-0.0011220
 4,-0.00020074,0.00020777,0.00040185,-0.00022826,-0.00042359,0.00029399
 ,-0.01190044,-0.00311994,-0.03150326,-0.00300402,-0.00248135,0.0028599
 6,0.00029934,-0.00150181,0.00160843,-0.05481294,-0.00578596,-0.2148576
 0,-0.00473746,-0.00465256,-0.03068423,-0.00749788,0.00543353,-0.035589
 71,-0.07566869,0.02151999,0.39904635,-0.00950081,0.00902616,-0.0019927
 4,-0.00056580,-0.00362504,0.00007848,-0.00066875,-0.00285116,0.0015488
 1,0.00292457,0.00074271,0.00212063,0.00205077,0.00034449,-0.00063821,0
 .01048773,0.00012530,0.01096406,0.00048818,-0.00071654,0.00024462,-0.0
 0009520,0.00011710,-0.00004141,-0.00101426,-0.00081004,0.00034615,0.00
 043388,0.00002588,-0.00002611,0.00008167,0.00034696,0.00012587,-0.0006
 7320,-0.00089465,-0.00021708,0.00042867,0.00018403,-0.00013964,-0.0002
 0097,-0.00006596,0.00004089,0.00267685,0.00176267,-0.00089994,-0.00023
 380,-0.00040213,-0.00012522,-0.00066456,0.00015123,-0.00003436,0.00042
 520,0.00134232,0.00034321,0.00000100,-0.00028760,-0.00012069,-0.000418
 19,-0.00039285,0.00028837,0.00419759,-0.00667600,-0.01417626,-0.001517
 70,0.00037265,0.00327535,-0.00103641,0.00180290,0.00083769,0.00980719,
 0.00128529,0.01170483,-0.00089029,-0.00184264,-0.00341362,-0.00049720,
 0.00096262,-0.00269290,-0.36758841,0.02464605,0.15036442,0.35156225,-0
 .00093789,0.00519853,0.00129583,-0.00172029,-0.00163695,-0.00071745,-0
 .00040867,-0.00181441,-0.00019464,0.00077369,-0.00013239,0.00029475,0.
 00031468,-0.00079744,-0.00018918,0.00345682,-0.00909761,0.00137455,-0.
 00041311,-0.00054569,-0.00020749,0.00017925,0.00009349,-0.00001097,-0.
 00011666,-0.00014816,0.00004578,0.00015001,0.00001421,0.00002186,-0.00
 000064,0.00000332,-0.00000741,-0.00032805,0.00035447,0.00008156,0.0000
 8215,-0.00003054,-0.00001986,0.00009858,-0.00024540,0.00000599,0.00350
 626,-0.00027973,-0.00010154,-0.00064596,0.00044709,-0.00014885,-0.0016
 9073,-0.00063744,0.00013768,-0.00019346,0.00091845,0.00085960,-0.00012
 193,-0.00007240,-0.00041393,-0.00002228,-0.00006824,-0.00003938,-0.000
 70805,0.00121475,-0.00409212,0.00043435,-0.00002670,0.00061184,-0.0001
 1884,-0.00052595,-0.00027511,0.00382551,0.00470032,-0.00276110,0.00010
 357,-0.00070605,-0.00351871,-0.00025407,-0.00044059,0.00148162,0.01942
 951,-0.01932788,-0.01043854,-0.02467375,0.02358893,-0.00308371,0.00262
 408,0.00074714,-0.00006390,-0.00025796,-0.00121402,0.00031925,-0.00091
 944,0.00003864,0.00125063,0.00022247,0.00030402,0.00053035,0.00001461,
 -0.00077290,0.00638782,0.00183153,-0.00023696,0.00013675,-0.00018536,-
 0.00014838,0.00003344,0.00000190,-0.00000914,-0.00047222,-0.00036282,0
 .00022288,0.00018615,0.00002490,-0.00004312,0.00002181,0.00009287,0.00
 000279,-0.00011824,-0.00006634,0.00000978,0.00013644,0.00003436,-0.000
 06357,-0.00005459,-0.00001998,0.00005326,-0.00046802,-0.00026986,-0.00
 001883,0.00018038,-0.00023657,-0.00004246,0.00006137,0.00021679,0.0003
 3322,-0.00005212,0.00061685,0.00020743,0.00007455,-0.00015172,-0.00004
 582,-0.00004220,-0.00003564,-0.00003644,0.00053001,-0.00492719,-0.0061
 2035,0.00092921,0.00015979,-0.00018261,-0.00032306,0.00037306,-0.00010
 263,0.03806663,-0.00663872,-0.04188098,-0.00166779,0.00058517,-0.00614
 559,0.00014361,0.00007972,-0.00097273,0.11512263,-0.00973170,-0.101408
 70,-0.15776517,0.01692520,0.15752606\\0.00002006,0.00001027,0.00000681
 ,-0.00000146,0.00000736,-0.00000162,-0.00000422,0.00001509,0.00000317,
 -0.00001749,-0.00001652,-0.00000501,-0.00000119,-0.00000958,0.00000210
 ,-0.00000670,-0.00000056,0.00000080,-0.00000316,0.00000049,-0.00000200
 ,-0.00000041,0.00000017,-0.00000047,0.00001589,0.00001062,-0.00000387,
 -0.00000411,-0.00000180,0.00000068,-0.00000173,-0.00000600,0.00000404,
 0.00000357,0.00001687,0.00000334,-0.00000184,-0.00000166,0.00000240,0.
 00000149,-0.00000270,0.00000369,-0.00000344,-0.00001042,0.00000446,0.,
 0.00000395,-0.00000543,0.00000154,0.00000272,-0.00000093,-0.00000313,-
 0.00002086,-0.00001124,-0.00000085,0.00000414,-0.00000494,0.00000282,0
 .00000189,-0.00000165,0.00000980,-0.00001165,-0.00000302,-0.00000224,-
 0.00000009,-0.00000004,0.00000036,0.00000598,0.00000629,-0.00000779,0.
 00000338,0.00001175,-0.00000117,-0.00000222,0.00000111,0.00000193,-0.0
 0000078,-0.00000048,-0.00000923,0.00000301,-0.00000087,0.00001269,-0.0
 0000109,-0.00000907\\\@
 The archive entry for this job was punched.


 VIRTUE IS LEARNED AT YOUR MOTHER'S KNEE,
 VICES ARE PICKED UP AT SOME OTHER JOINT.
 Job cpu time:       0 days 14 hours 57 minutes 59.5 seconds.
 Elapsed time:       0 days  3 hours 44 minutes 45.7 seconds.
 File lengths (MBytes):  RWF=    855 Int=      0 D2E=      0 Chk=     34 Scr=      1
 Normal termination of Gaussian 16 at Wed Mar 20 13:52:53 2024.
