 Entering Gaussian System, Link 0=/opt/software/gaussian/g16.c01/g16
 Initial command:
 /opt/software/gaussian/g16.c01/l1.exe "/scratch/arhender/18220287/Gau-4681.inp" -scrdir="/scratch/arhender/18220287/"
 Entering Link 1 = /opt/software/gaussian/g16.c01/l1.exe PID=      4682.
  
 Copyright (c) 1988-2019, Gaussian, Inc.  All Rights Reserved.
  
 This is part of the Gaussian(R) 16 program.  It is based on
 the Gaussian(R) 09 system (copyright 2009, Gaussian, Inc.),
 the Gaussian(R) 03 system (copyright 2003, Gaussian, Inc.),
 the Gaussian(R) 98 system (copyright 1998, Gaussian, Inc.),
 the Gaussian(R) 94 system (copyright 1995, Gaussian, Inc.),
 the Gaussian 92(TM) system (copyright 1992, Gaussian, Inc.),
 the Gaussian 90(TM) system (copyright 1990, Gaussian, Inc.),
 the Gaussian 88(TM) system (copyright 1988, Gaussian, Inc.),
 the Gaussian 86(TM) system (copyright 1986, Carnegie Mellon
 University), and the Gaussian 82(TM) system (copyright 1983,
 Carnegie Mellon University). Gaussian is a federally registered
 trademark of Gaussian, Inc.
  
 This software contains proprietary and confidential information,
 including trade secrets, belonging to Gaussian, Inc.
  
 This software is provided under written license and may be
 used, copied, transmitted, or stored only in accord with that
 written license.
  
 The following legend is applicable only to US Government
 contracts under FAR:
  
                    RESTRICTED RIGHTS LEGEND
  
 Use, reproduction and disclosure by the US Government is
 subject to restrictions as set forth in subparagraphs (a)
 and (c) of the Commercial Computer Software - Restricted
 Rights clause in FAR 52.227-19.
  
 Gaussian, Inc.
 340 Quinnipiac St., Bldg. 40, Wallingford CT 06492
  
  
 ---------------------------------------------------------------
 Warning -- This program may not be used in any manner that
 competes with the business of Gaussian, Inc. or will provide
 assistance to any competitor of Gaussian, Inc.  The licensee
 of this program is prohibited from giving any competitor of
 Gaussian, Inc. access to this program.  By using this program,
 the user acknowledges that Gaussian, Inc. is engaged in the
 business of creating and licensing software in the field of
 computational chemistry and represents and warrants to the
 licensee that it is not a competitor of Gaussian, Inc. and that
 it will not use this program in any manner prohibited above.
 ---------------------------------------------------------------
  

 Cite this work as:
 Gaussian 16, Revision C.01,
 M. J. Frisch, G. W. Trucks, H. B. Schlegel, G. E. Scuseria, 
 M. A. Robb, J. R. Cheeseman, G. Scalmani, V. Barone, 
 G. A. Petersson, H. Nakatsuji, X. Li, M. Caricato, A. V. Marenich, 
 J. Bloino, B. G. Janesko, R. Gomperts, B. Mennucci, H. P. Hratchian, 
 J. V. Ortiz, A. F. Izmaylov, J. L. Sonnenberg, D. Williams-Young, 
 F. Ding, F. Lipparini, F. Egidi, J. Goings, B. Peng, A. Petrone, 
 T. Henderson, D. Ranasinghe, V. G. Zakrzewski, J. Gao, N. Rega, 
 G. Zheng, W. Liang, M. Hada, M. Ehara, K. Toyota, R. Fukuda, 
 J. Hasegawa, M. Ishida, T. Nakajima, Y. Honda, O. Kitao, H. Nakai, 
 T. Vreven, K. Throssell, J. A. Montgomery, Jr., J. E. Peralta, 
 F. Ogliaro, M. J. Bearpark, J. J. Heyd, E. N. Brothers, K. N. Kudin, 
 V. N. Staroverov, T. A. Keith, R. Kobayashi, J. Normand, 
 K. Raghavachari, A. P. Rendell, J. C. Burant, S. S. Iyengar, 
 J. Tomasi, M. Cossi, J. M. Millam, M. Klene, C. Adamo, R. Cammi, 
 J. W. Ochterski, R. L. Martin, K. Morokuma, O. Farkas, 
 J. B. Foresman, and D. J. Fox, Gaussian, Inc., Wallingford CT, 2019.
 
 ******************************************
 Gaussian 16:  ES64L-G16RevC.01  3-Jul-2019
                29-Mar-2024 
 ******************************************
 %chk=IRCForward_HBiL2toPBiL2_productOpt.chk
 %mem=1600MB
 %nprocs=4
 Will use up to    4 processors via shared memory.
 ---------------------------------------------
 # opt freq wb97xd/def2tzvpp geom=connectivity
 ---------------------------------------------
 1/18=20,19=15,26=3,38=1,57=2/1,3;
 2/9=110,12=2,17=6,18=5,40=1/2;
 3/5=44,7=202,11=2,25=1,30=1,71=1,74=-58/1,2,3;
 4//1;
 5/5=2,38=5/2;
 6/7=2,8=2,9=2,10=2,28=1/1;
 7//1,2,3,16;
 1/18=20,19=15,26=3/3(2);
 2/9=110/2;
 99//99;
 2/9=110/2;
 3/5=44,7=202,11=2,25=1,30=1,71=1,74=-58/1,2,3;
 4/5=5,16=3,69=1/1;
 5/5=2,38=5/2;
 7//1,2,3,16;
 1/18=20,19=15,26=3/3(-5);
 2/9=110/2;
 6/7=2,8=2,9=2,10=2,19=2,28=1/1;
 99/9=1/99;
 ----------------------------------------------------------------------
 Take TS opt from hydroxyl loss of HbiL2moL collapse deprotonated and r
  eprotonate free ligand hydroxyl
 ----------------------------------------------------------------------
 Symbolic Z-matrix:
 Charge = -2 Multiplicity = 1
 Si                   -0.01793  -0.36754  -0.02321 
 O                    -1.21295  -0.02351  -1.24583 
 O                     1.17136  -0.12336   1.2463 
 O                     1.29056  -0.22199  -1.2121 
 O                    -0.02304  -2.10932  -0.114 
 O                    -1.26039  -0.25076   1.20407 
 C                    -2.5127    0.00702   0.69207 
 H                    -3.11267  -0.92566   0.61788 
 H                    -3.0721    0.70201   1.34531 
 C                    -2.31758   0.60994  -0.70599 
 H                    -3.21184   0.43937  -1.33484 
 H                    -2.11933   1.68637  -0.60745 
 C                     2.34974   0.50336  -0.69392 
 H                     3.28948   0.25789  -1.22465 
 H                     2.14202   1.57944  -0.76161 
 C                     2.44644   0.11377   0.78902 
 H                     3.08043  -0.79555   0.89467 
 H                     2.93578   0.91654   1.37037 
 O                     0.04661   2.21268   0.06645 
 H                     0.12959   2.12828   1.01473 
 H                     0.6516   -2.2998   -0.76261 
 
 Add virtual bond connecting atoms O19        and H12        Dist= 4.40D+00.
 Add virtual bond connecting atoms O19        and H15        Dist= 4.42D+00.

 GradGradGradGradGradGradGradGradGradGradGradGradGradGradGradGradGradGrad
 Berny optimization.
 Initialization pass.
                           ----------------------------
                           !    Initial Parameters    !
                           ! (Angstroms and Degrees)  !
 --------------------------                            --------------------------
 ! Name  Definition              Value          Derivative Info.                !
 --------------------------------------------------------------------------------
 ! R1    R(1,2)                  1.7439         estimate D2E/DX2                !
 ! R2    R(1,3)                  1.7566         estimate D2E/DX2                !
 ! R3    R(1,4)                  1.7739         estimate D2E/DX2                !
 ! R4    R(1,5)                  1.7442         estimate D2E/DX2                !
 ! R5    R(1,6)                  1.7503         estimate D2E/DX2                !
 ! R6    R(2,10)                 1.3831         estimate D2E/DX2                !
 ! R7    R(3,16)                 1.3752         estimate D2E/DX2                !
 ! R8    R(4,13)                 1.3844         estimate D2E/DX2                !
 ! R9    R(5,21)                 0.955          estimate D2E/DX2                !
 ! R10   R(6,7)                  1.3773         estimate D2E/DX2                !
 ! R11   R(7,8)                  1.1115         estimate D2E/DX2                !
 ! R12   R(7,9)                  1.1057         estimate D2E/DX2                !
 ! R13   R(7,10)                 1.535          estimate D2E/DX2                !
 ! R14   R(10,11)                1.1065         estimate D2E/DX2                !
 ! R15   R(10,12)                1.099          estimate D2E/DX2                !
 ! R16   R(12,19)                2.3286         estimate D2E/DX2                !
 ! R17   R(13,14)                1.1068         estimate D2E/DX2                !
 ! R18   R(13,15)                1.098          estimate D2E/DX2                !
 ! R19   R(13,16)                1.5363         estimate D2E/DX2                !
 ! R20   R(15,19)                2.3404         estimate D2E/DX2                !
 ! R21   R(16,17)                1.1135         estimate D2E/DX2                !
 ! R22   R(16,18)                1.1054         estimate D2E/DX2                !
 ! R23   R(19,20)                0.9556         estimate D2E/DX2                !
 ! A1    A(2,1,3)              160.5946         estimate D2E/DX2                !
 ! A2    A(2,1,4)               91.1118         estimate D2E/DX2                !
 ! A3    A(2,1,5)               99.1199         estimate D2E/DX2                !
 ! A4    A(2,1,6)               89.5413         estimate D2E/DX2                !
 ! A5    A(3,1,4)               88.4848         estimate D2E/DX2                !
 ! A6    A(3,1,5)              100.2777         estimate D2E/DX2                !
 ! A7    A(3,1,6)               87.97           estimate D2E/DX2                !
 ! A8    A(4,1,5)               92.8205         estimate D2E/DX2                !
 ! A9    A(5,1,6)               95.7996         estimate D2E/DX2                !
 ! A10   A(1,2,10)             111.3458         estimate D2E/DX2                !
 ! A11   A(1,3,16)             114.2926         estimate D2E/DX2                !
 ! A12   A(1,4,13)             110.884          estimate D2E/DX2                !
 ! A13   A(1,5,21)             103.4416         estimate D2E/DX2                !
 ! A14   A(1,6,7)              113.4077         estimate D2E/DX2                !
 ! A15   A(6,7,8)              111.0131         estimate D2E/DX2                !
 ! A16   A(6,7,9)              110.9786         estimate D2E/DX2                !
 ! A17   A(6,7,10)             107.2488         estimate D2E/DX2                !
 ! A18   A(8,7,9)              107.0839         estimate D2E/DX2                !
 ! A19   A(8,7,10)             109.7207         estimate D2E/DX2                !
 ! A20   A(9,7,10)             110.8242         estimate D2E/DX2                !
 ! A21   A(2,10,7)             106.0893         estimate D2E/DX2                !
 ! A22   A(2,10,11)            110.6746         estimate D2E/DX2                !
 ! A23   A(2,10,12)            109.8485         estimate D2E/DX2                !
 ! A24   A(7,10,11)            110.7541         estimate D2E/DX2                !
 ! A25   A(7,10,12)            109.0267         estimate D2E/DX2                !
 ! A26   A(11,10,12)           110.3498         estimate D2E/DX2                !
 ! A27   A(10,12,19)           114.527          estimate D2E/DX2                !
 ! A28   A(4,13,14)            110.7268         estimate D2E/DX2                !
 ! A29   A(4,13,15)            110.2225         estimate D2E/DX2                !
 ! A30   A(4,13,16)            106.057          estimate D2E/DX2                !
 ! A31   A(14,13,15)           110.3896         estimate D2E/DX2                !
 ! A32   A(14,13,16)           110.6818         estimate D2E/DX2                !
 ! A33   A(15,13,16)           108.6585         estimate D2E/DX2                !
 ! A34   A(13,15,19)           114.376          estimate D2E/DX2                !
 ! A35   A(3,16,13)            107.8388         estimate D2E/DX2                !
 ! A36   A(3,16,17)            110.8262         estimate D2E/DX2                !
 ! A37   A(3,16,18)            111.1495         estimate D2E/DX2                !
 ! A38   A(13,16,17)           109.5423         estimate D2E/DX2                !
 ! A39   A(13,16,18)           110.5706         estimate D2E/DX2                !
 ! A40   A(17,16,18)           106.9241         estimate D2E/DX2                !
 ! A41   A(12,19,15)           132.008          estimate D2E/DX2                !
 ! A42   A(12,19,20)           110.3636         estimate D2E/DX2                !
 ! A43   A(15,19,20)           104.4447         estimate D2E/DX2                !
 ! A44   L(4,1,6,2,-1)         180.653          estimate D2E/DX2                !
 ! A45   L(4,1,6,2,-2)         188.8362         estimate D2E/DX2                !
 ! D1    D(3,1,2,10)           -61.3572         estimate D2E/DX2                !
 ! D2    D(4,1,2,10)          -149.953          estimate D2E/DX2                !
 ! D3    D(5,1,2,10)           117.0111         estimate D2E/DX2                !
 ! D4    D(6,1,2,10)            21.2109         estimate D2E/DX2                !
 ! D5    D(2,1,3,16)           -86.2497         estimate D2E/DX2                !
 ! D6    D(4,1,3,16)             2.7952         estimate D2E/DX2                !
 ! D7    D(5,1,3,16)            95.3876         estimate D2E/DX2                !
 ! D8    D(6,1,3,16)          -169.0843         estimate D2E/DX2                !
 ! D9    D(2,1,4,13)           136.3957         estimate D2E/DX2                !
 ! D10   D(3,1,4,13)           -24.1979         estimate D2E/DX2                !
 ! D11   D(5,1,4,13)          -124.416          estimate D2E/DX2                !
 ! D12   D(2,1,5,21)            90.6223         estimate D2E/DX2                !
 ! D13   D(3,1,5,21)           -89.9286         estimate D2E/DX2                !
 ! D14   D(4,1,5,21)            -0.9584         estimate D2E/DX2                !
 ! D15   D(6,1,5,21)          -178.9105         estimate D2E/DX2                !
 ! D16   D(2,1,6,7)              1.2674         estimate D2E/DX2                !
 ! D17   D(3,1,6,7)            162.0189         estimate D2E/DX2                !
 ! D18   D(5,1,6,7)            -97.853          estimate D2E/DX2                !
 ! D19   D(1,2,10,7)           -35.364          estimate D2E/DX2                !
 ! D20   D(1,2,10,11)         -155.5648         estimate D2E/DX2                !
 ! D21   D(1,2,10,12)           82.3364         estimate D2E/DX2                !
 ! D22   D(1,3,16,13)           16.7112         estimate D2E/DX2                !
 ! D23   D(1,3,16,17)         -103.1814         estimate D2E/DX2                !
 ! D24   D(1,3,16,18)          138.061          estimate D2E/DX2                !
 ! D25   D(1,4,13,14)          156.8204         estimate D2E/DX2                !
 ! D26   D(1,4,13,15)          -80.7423         estimate D2E/DX2                !
 ! D27   D(1,4,13,16)           36.6973         estimate D2E/DX2                !
 ! D28   D(1,6,7,8)             99.2658         estimate D2E/DX2                !
 ! D29   D(1,6,7,9)           -141.7657         estimate D2E/DX2                !
 ! D30   D(1,6,7,10)           -20.5863         estimate D2E/DX2                !
 ! D31   D(6,7,10,2)            35.2891         estimate D2E/DX2                !
 ! D32   D(6,7,10,11)          155.4383         estimate D2E/DX2                !
 ! D33   D(6,7,10,12)          -82.9572         estimate D2E/DX2                !
 ! D34   D(8,7,10,2)           -85.3852         estimate D2E/DX2                !
 ! D35   D(8,7,10,11)           34.764          estimate D2E/DX2                !
 ! D36   D(8,7,10,12)          156.3685         estimate D2E/DX2                !
 ! D37   D(9,7,10,2)           156.5658         estimate D2E/DX2                !
 ! D38   D(9,7,10,11)          -83.285          estimate D2E/DX2                !
 ! D39   D(9,7,10,12)           38.3195         estimate D2E/DX2                !
 ! D40   D(2,10,12,19)         -38.7509         estimate D2E/DX2                !
 ! D41   D(7,10,12,19)          77.1076         estimate D2E/DX2                !
 ! D42   D(11,10,12,19)       -161.0427         estimate D2E/DX2                !
 ! D43   D(10,12,19,15)         52.3365         estimate D2E/DX2                !
 ! D44   D(10,12,19,20)        -81.4825         estimate D2E/DX2                !
 ! D45   D(4,13,15,19)          49.6423         estimate D2E/DX2                !
 ! D46   D(14,13,15,19)        172.2778         estimate D2E/DX2                !
 ! D47   D(16,13,15,19)        -66.1753         estimate D2E/DX2                !
 ! D48   D(4,13,16,3)          -33.8187         estimate D2E/DX2                !
 ! D49   D(4,13,16,17)          86.8817         estimate D2E/DX2                !
 ! D50   D(4,13,16,18)        -155.5281         estimate D2E/DX2                !
 ! D51   D(14,13,16,3)        -153.9712         estimate D2E/DX2                !
 ! D52   D(14,13,16,17)        -33.2708         estimate D2E/DX2                !
 ! D53   D(14,13,16,18)         84.3194         estimate D2E/DX2                !
 ! D54   D(15,13,16,3)          84.6608         estimate D2E/DX2                !
 ! D55   D(15,13,16,17)       -154.6388         estimate D2E/DX2                !
 ! D56   D(15,13,16,18)        -37.0486         estimate D2E/DX2                !
 ! D57   D(13,15,19,12)        -63.3183         estimate D2E/DX2                !
 ! D58   D(13,15,19,20)         72.3734         estimate D2E/DX2                !
 --------------------------------------------------------------------------------
 Trust Radius=3.00D-01 FncErr=1.00D-07 GrdErr=1.00D-06 EigMax=2.50D+02 EigMin=1.00D-04
 Number of steps in this run=    126 maximum allowed number of steps=    126.
 GradGradGradGradGradGradGradGradGradGradGradGradGradGradGradGradGradGrad

                          Input orientation:                          
 ---------------------------------------------------------------------
 Center     Atomic      Atomic             Coordinates (Angstroms)
 Number     Number       Type             X           Y           Z
 ---------------------------------------------------------------------
      1         14           0       -0.017928   -0.367536   -0.023209
      2          8           0       -1.212946   -0.023506   -1.245833
      3          8           0        1.171362   -0.123363    1.246302
      4          8           0        1.290560   -0.221994   -1.212104
      5          8           0       -0.023041   -2.109318   -0.114004
      6          8           0       -1.260391   -0.250757    1.204071
      7          6           0       -2.512701    0.007015    0.692067
      8          1           0       -3.112666   -0.925659    0.617880
      9          1           0       -3.072102    0.702008    1.345309
     10          6           0       -2.317575    0.609942   -0.705985
     11          1           0       -3.211840    0.439372   -1.334843
     12          1           0       -2.119335    1.686367   -0.607452
     13          6           0        2.349741    0.503355   -0.693920
     14          1           0        3.289476    0.257888   -1.224654
     15          1           0        2.142021    1.579440   -0.761608
     16          6           0        2.446440    0.113768    0.789015
     17          1           0        3.080427   -0.795549    0.894669
     18          1           0        2.935780    0.916538    1.370369
     19          8           0        0.046608    2.212681    0.066445
     20          1           0        0.129590    2.128281    1.014731
     21          1           0        0.651602   -2.299796   -0.762613
 ---------------------------------------------------------------------
                    Distance matrix (angstroms):
                    1          2          3          4          5
     1  Si   0.000000
     2  O    1.743913   0.000000
     3  O    1.756613   3.450454   0.000000
     4  O    1.773921   2.511589   2.463269   0.000000
     5  O    1.744154   2.654717   2.687201   2.548208   0.000000
     6  O    1.750305   2.460879   2.435454   3.513699   2.592799
     7  C    2.622175   2.333613   3.727800   4.259473   3.365564
     8  H    3.209346   2.810025   4.403577   4.819998   3.388582
     9  H    3.513509   3.270604   4.324121   5.140716   4.396581
    10  C    2.590371   1.383075   4.064707   3.737233   3.606897
    11  H    3.545780   2.053718   5.117757   4.552370   4.260834
    12  H    2.995959   2.037827   4.188104   3.954090   4.364077
    13  C    2.610395   3.643478   2.354955   1.384381   3.576654
    14  H    3.574010   4.511256   3.276795   2.055750   4.220187
    15  H    3.000221   3.749628   2.805961   2.042816   4.325947
    16  C    2.639028   4.189338   1.375197   2.335224   3.443238
    17  H    3.259678   4.859100   2.054266   2.823310   3.517801
    18  H    3.509316   4.994009   2.051818   3.266829   4.484840
    19  O    2.582581   2.882548   2.848550   3.018236   4.326325
    20  H    2.707062   3.397461   2.491749   3.439540   4.388005
    21  H    2.174538   2.981868   3.007117   2.219813   0.955049
                    6          7          8          9         10
     6  O    0.000000
     7  C    1.377271   0.000000
     8  H    2.056705   1.111460   0.000000
     9  H    2.051830   1.105744   1.783283   0.000000
    10  C    2.346648   1.534974   2.177811   2.187600   0.000000
    11  H    3.275747   2.187257   2.384591   2.696613   1.106466
    12  H    2.787804   2.159562   3.051364   2.385373   1.098953
    13  C    4.147783   5.080419   5.796619   5.796059   4.668548
    14  H    5.182539   6.115719   6.766324   6.875436   5.641984
    15  H    4.334734   5.123683   5.982495   5.691754   4.564101
    16  C    3.747765   4.961237   5.658035   5.577616   5.017674
    17  H    4.385799   5.654046   6.200640   6.348178   5.803096
    18  H    4.358679   5.565364   6.367388   6.011763   5.657118
    19  O    3.011804   3.436048   4.487123   3.693776   2.958848
    20  H    2.761832   3.403760   4.471718   3.520564   3.354822
    21  H    3.423759   4.177354   4.238364   5.226867   4.157619
                   11         12         13         14         15
    11  H    0.000000
    12  H    1.810431   0.000000
    13  C    5.598755   4.623812   0.000000
    14  H    6.504782   5.628208   1.106813   0.000000
    15  H    5.503833   4.265484   1.098038   1.810404   0.000000
    16  C    6.052514   5.026877   1.536302   2.187771   2.155295
    17  H    6.788842   5.954309   2.178226   2.375913   3.043753
    18  H    6.733431   5.482572   2.185281   2.700568   2.369561
    19  O    3.965566   2.328616   2.967216   4.000543   2.340389
    20  H    4.420188   2.807923   3.238664   4.300941   2.739797
    21  H    4.770395   4.857125   3.278117   3.703189   4.155698
                   16         17         18         19         20
    16  C    0.000000
    17  H    1.113535   0.000000
    18  H    1.105380   1.782822   0.000000
    19  O    3.269057   4.351949   3.424547   0.000000
    20  H    3.078474   4.155795   3.077256   0.955644   0.000000
    21  H    3.384418   3.302807   4.484628   4.627721   4.799929
                   21
    21  H    0.000000
 Stoichiometry    C4H10O6Si(2-)
 Framework group  C1[X(C4H10O6Si)]
 Deg. of freedom    57
 Full point group                 C1      NOp   1
 Largest Abelian subgroup         C1      NOp   1
 Largest concise Abelian subgroup C1      NOp   1
                         Standard orientation:                         
 ---------------------------------------------------------------------
 Center     Atomic      Atomic             Coordinates (Angstroms)
 Number     Number       Type             X           Y           Z
 ---------------------------------------------------------------------
      1         14           0       -0.021149   -0.386033   -0.032211
      2          8           0       -1.220758   -0.024126   -1.245140
      3          8           0        1.172037   -0.160579    1.237106
      4          8           0        1.283131   -0.219372   -1.222955
      5          8           0       -0.024045   -2.126130   -0.151075
      6          8           0       -1.259657   -0.290928    1.200924
      7          6           0       -2.514049   -0.026814    0.697319
      8          1           0       -3.112908   -0.959070    0.610094
      9          1           0       -3.072262    0.656713    1.363546
     10          6           0       -2.324487    0.598874   -0.691467
     11          1           0       -3.220608    0.437124   -1.320013
     12          1           0       -2.127476    1.673866   -0.576243
     13          6           0        2.342993    0.499116   -0.696667
     14          1           0        3.281297    0.263652   -1.234419
     15          1           0        2.133489    1.575840   -0.746295
     16          6           0        2.445229    0.085810    0.779460
     17          1           0        3.080883   -0.824139    0.868319
     18          1           0        2.935354    0.879835    1.372056
     19          8           0        0.039951    2.192496    0.098840
     20          1           0        0.126235    2.092939    1.045359
     21          1           0        0.648694   -2.305110   -0.804916
 ---------------------------------------------------------------------
 Rotational constants (GHZ):           1.6106939           0.8764995           0.8075969
 Standard basis: def2TZVPP (5D, 7F)
 There are   558 symmetry adapted cartesian basis functions of A   symmetry.
 There are   492 symmetry adapted basis functions of A   symmetry.
   492 basis functions,   749 primitive gaussians,   558 cartesian basis functions
    49 alpha electrons       49 beta electrons
       nuclear repulsion energy       875.6211643927 Hartrees.
 NAtoms=   21 NActive=   21 NUniq=   21 SFac= 1.00D+00 NAtFMM=   60 NAOKFM=F Big=F
 Integral buffers will be    131072 words long.
 Raffenetti 2 integral format.
 Two-electron integral symmetry is turned on.
 Nuclear repulsion after empirical dispersion term =      875.6085902694 Hartrees.
 One-electron integrals computed using PRISM.
   1 Symmetry operations used in ECPInt.
 ECPInt:  NShTT=   17020 NPrTT=   47563 LenC2=   16256 LenP2D=   35296.
 LDataN:  DoStor=T MaxTD1= 6 Len=  172
 NBasis=   492 RedAO= T EigKep=  2.51D-04  NBF=   492
 NBsUse=   492 1.00D-06 EigRej= -1.00D+00 NBFU=   492
 ExpMin= 7.01D-02 ExpMax= 4.48D+04 ExpMxC= 1.53D+03 IAcc=3 IRadAn=         5 AccDes= 0.00D+00
 Harris functional with IExCor= 4639 and IRadAn=       5 diagonalized for initial guess.
 HarFok:  IExCor= 4639 AccDes= 0.00D+00 IRadAn=         5 IDoV= 1 UseB2=F ITyADJ=14
 ICtDFT=  3500011 ScaDFX=  1.000000  1.000000  1.000000  1.000000
 FoFCou: FMM=F IPFlag=           0 FMFlag=      100000 FMFlg1=           0
         NFxFlg=           0 DoJE=T BraDBF=F KetDBF=T FulRan=T
         wScrn=  0.000000 ICntrl=       500 IOpCl=  0 I1Cent=   200000004 NGrid=           0
         NMat0=    1 NMatS0=      1 NMatT0=    0 NMatD0=    1 NMtDS0=    0 NMtDT0=    0
 Petite list used in FoFCou.
 Requested convergence on RMS density matrix=1.00D-08 within 128 cycles.
 Requested convergence on MAX density matrix=1.00D-06.
 Requested convergence on             energy=1.00D-06.
 No special actions if energy rises.
 Integral accuracy reduced to 1.0D-05 until final iterations.
 Initial convergence to 1.0D-05 achieved.  Increase integral accuracy.
 SCF Done:  E(RwB97XD) =  -899.437325536     A.U. after   15 cycles
            NFock= 15  Conv=0.86D-08     -V/T= 2.0035

 **********************************************************************

            Population analysis using the SCF Density.

 **********************************************************************

 Orbital symmetries:
       Occupied  (A) (A) (A) (A) (A) (A) (A) (A) (A) (A) (A) (A)
                 (A) (A) (A) (A) (A) (A) (A) (A) (A) (A) (A) (A)
                 (A) (A) (A) (A) (A) (A) (A) (A) (A) (A) (A) (A)
                 (A) (A) (A) (A) (A) (A) (A) (A) (A) (A) (A) (A)
                 (A)
       Virtual   (A) (A) (A) (A) (A) (A) (A) (A) (A) (A) (A) (A)
                 (A) (A) (A) (A) (A) (A) (A) (A) (A) (A) (A) (A)
                 (A) (A) (A) (A) (A) (A) (A) (A) (A) (A) (A) (A)
                 (A) (A) (A) (A) (A) (A) (A) (A) (A) (A) (A) (A)
                 (A) (A) (A) (A) (A) (A) (A) (A) (A) (A) (A) (A)
                 (A) (A) (A) (A) (A) (A) (A) (A) (A) (A) (A) (A)
                 (A) (A) (A) (A) (A) (A) (A) (A) (A) (A) (A) (A)
                 (A) (A) (A) (A) (A) (A) (A) (A) (A) (A) (A) (A)
                 (A) (A) (A) (A) (A) (A) (A) (A) (A) (A) (A) (A)
                 (A) (A) (A) (A) (A) (A) (A) (A) (A) (A) (A) (A)
                 (A) (A) (A) (A) (A) (A) (A) (A) (A) (A) (A) (A)
                 (A) (A) (A) (A) (A) (A) (A) (A) (A) (A) (A) (A)
                 (A) (A) (A) (A) (A) (A) (A) (A) (A) (A) (A) (A)
                 (A) (A) (A) (A) (A) (A) (A) (A) (A) (A) (A) (A)
                 (A) (A) (A) (A) (A) (A) (A) (A) (A) (A) (A) (A)
                 (A) (A) (A) (A) (A) (A) (A) (A) (A) (A) (A) (A)
                 (A) (A) (A) (A) (A) (A) (A) (A) (A) (A) (A) (A)
                 (A) (A) (A) (A) (A) (A) (A) (A) (A) (A) (A) (A)
                 (A) (A) (A) (A) (A) (A) (A) (A) (A) (A) (A) (A)
                 (A) (A) (A) (A) (A) (A) (A) (A) (A) (A) (A) (A)
                 (A) (A) (A) (A) (A) (A) (A) (A) (A) (A) (A) (A)
                 (A) (A) (A) (A) (A) (A) (A) (A) (A) (A) (A) (A)
                 (A) (A) (A) (A) (A) (A) (A) (A) (A) (A) (A) (A)
                 (A) (A) (A) (A) (A) (A) (A) (A) (A) (A) (A) (A)
                 (A) (A) (A) (A) (A) (A) (A) (A) (A) (A) (A) (A)
                 (A) (A) (A) (A) (A) (A) (A) (A) (A) (A) (A) (A)
                 (A) (A) (A) (A) (A) (A) (A) (A) (A) (A) (A) (A)
                 (A) (A) (A) (A) (A) (A) (A) (A) (A) (A) (A) (A)
                 (A) (A) (A) (A) (A) (A) (A) (A) (A) (A) (A) (A)
                 (A) (A) (A) (A) (A) (A) (A) (A) (A) (A) (A) (A)
                 (A) (A) (A) (A) (A) (A) (A) (A) (A) (A) (A) (A)
                 (A) (A) (A) (A) (A) (A) (A) (A) (A) (A) (A) (A)
                 (A) (A) (A) (A) (A) (A) (A) (A) (A) (A) (A) (A)
                 (A) (A) (A) (A) (A) (A) (A) (A) (A) (A) (A) (A)
                 (A) (A) (A) (A) (A) (A) (A) (A) (A) (A) (A) (A)
                 (A) (A) (A) (A) (A) (A) (A) (A) (A) (A) (A) (A)
                 (A) (A) (A) (A) (A) (A) (A) (A) (A) (A) (A)
 The electronic state is 1-A.
 Alpha  occ. eigenvalues --  -65.97679 -18.89637 -18.89606 -18.89582 -18.88980
 Alpha  occ. eigenvalues --  -18.88920 -18.79060 -10.02905 -10.02670 -10.01560
 Alpha  occ. eigenvalues --  -10.01163  -5.08391  -3.43054  -3.42921  -3.42820
 Alpha  occ. eigenvalues --   -0.81547  -0.79485  -0.75322  -0.74016  -0.73617
 Alpha  occ. eigenvalues --   -0.60940  -0.51468  -0.49603  -0.39506  -0.37359
 Alpha  occ. eigenvalues --   -0.30760  -0.27539  -0.26650  -0.25952  -0.25601
 Alpha  occ. eigenvalues --   -0.22680  -0.21020  -0.19685  -0.18376  -0.17525
 Alpha  occ. eigenvalues --   -0.15329  -0.11746  -0.09061  -0.08922  -0.07950
 Alpha  occ. eigenvalues --   -0.07440  -0.06110  -0.05704  -0.04791  -0.02708
 Alpha  occ. eigenvalues --   -0.01791  -0.00494   0.04435   0.05260
 Alpha virt. eigenvalues --    0.37439   0.38140   0.40779   0.41345   0.42156
 Alpha virt. eigenvalues --    0.42787   0.43134   0.45751   0.47594   0.48249
 Alpha virt. eigenvalues --    0.49130   0.50465   0.52171   0.53191   0.53307
 Alpha virt. eigenvalues --    0.55078   0.55521   0.56489   0.57189   0.57600
 Alpha virt. eigenvalues --    0.58027   0.62971   0.64058   0.66238   0.67947
 Alpha virt. eigenvalues --    0.68317   0.69350   0.70294   0.70662   0.71116
 Alpha virt. eigenvalues --    0.72061   0.73165   0.74517   0.75117   0.75459
 Alpha virt. eigenvalues --    0.75769   0.77010   0.77141   0.78110   0.78800
 Alpha virt. eigenvalues --    0.79431   0.80014   0.81185   0.82427   0.83280
 Alpha virt. eigenvalues --    0.84039   0.84564   0.85519   0.87003   0.87784
 Alpha virt. eigenvalues --    0.88266   0.89106   0.90055   0.91798   0.94404
 Alpha virt. eigenvalues --    0.95195   0.95698   0.96790   0.98676   1.00253
 Alpha virt. eigenvalues --    1.00685   1.01406   1.04568   1.05339   1.06424
 Alpha virt. eigenvalues --    1.08382   1.08547   1.09518   1.10027   1.12264
 Alpha virt. eigenvalues --    1.13199   1.14710   1.15517   1.17101   1.17901
 Alpha virt. eigenvalues --    1.18390   1.19984   1.20568   1.21650   1.22622
 Alpha virt. eigenvalues --    1.23830   1.24652   1.26342   1.28172   1.28746
 Alpha virt. eigenvalues --    1.31709   1.33382   1.34852   1.35945   1.36332
 Alpha virt. eigenvalues --    1.37319   1.38530   1.39100   1.39958   1.41867
 Alpha virt. eigenvalues --    1.43278   1.44228   1.45310   1.46736   1.48055
 Alpha virt. eigenvalues --    1.48984   1.50159   1.51551   1.51891   1.52554
 Alpha virt. eigenvalues --    1.53654   1.55219   1.56793   1.56818   1.58904
 Alpha virt. eigenvalues --    1.60023   1.61550   1.61959   1.64293   1.65060
 Alpha virt. eigenvalues --    1.65481   1.67170   1.67288   1.68447   1.70042
 Alpha virt. eigenvalues --    1.71186   1.73131   1.73879   1.74298   1.77223
 Alpha virt. eigenvalues --    1.78536   1.79030   1.80109   1.81160   1.81954
 Alpha virt. eigenvalues --    1.83481   1.85095   1.85480   1.89420   1.90367
 Alpha virt. eigenvalues --    1.90771   1.92726   1.93920   1.94961   1.97138
 Alpha virt. eigenvalues --    1.97960   1.98424   2.04937   2.06020   2.06515
 Alpha virt. eigenvalues --    2.12036   2.15658   2.16936   2.20092   2.24193
 Alpha virt. eigenvalues --    2.25947   2.26437   2.28505   2.30511   2.31364
 Alpha virt. eigenvalues --    2.31829   2.34364   2.37127   2.38226   2.40274
 Alpha virt. eigenvalues --    2.40827   2.42458   2.43930   2.45327   2.46972
 Alpha virt. eigenvalues --    2.48193   2.48783   2.49797   2.50860   2.52673
 Alpha virt. eigenvalues --    2.54448   2.55430   2.56491   2.61610   2.63035
 Alpha virt. eigenvalues --    2.63704   2.65454   2.69996   2.72432   2.72770
 Alpha virt. eigenvalues --    2.73321   2.74946   2.77255   2.79948   2.80849
 Alpha virt. eigenvalues --    2.86340   2.87706   2.91083   2.91975   2.97273
 Alpha virt. eigenvalues --    2.98178   2.99353   3.00619   3.01534   3.02374
 Alpha virt. eigenvalues --    3.03356   3.05260   3.06267   3.14102   3.15690
 Alpha virt. eigenvalues --    3.16398   3.17205   3.18791   3.21570   3.21855
 Alpha virt. eigenvalues --    3.23226   3.23865   3.24347   3.27101   3.27590
 Alpha virt. eigenvalues --    3.32042   3.32576   3.34411   3.35123   3.36403
 Alpha virt. eigenvalues --    3.36736   3.37147   3.38207   3.40049   3.40789
 Alpha virt. eigenvalues --    3.42387   3.44904   3.45736   3.46267   3.48763
 Alpha virt. eigenvalues --    3.50183   3.52092   3.53432   3.53642   3.55241
 Alpha virt. eigenvalues --    3.56910   3.59045   3.59230   3.60616   3.61738
 Alpha virt. eigenvalues --    3.63489   3.65950   3.67021   3.69195   3.69979
 Alpha virt. eigenvalues --    3.71879   3.73891   3.75335   3.75408   3.78616
 Alpha virt. eigenvalues --    3.78897   3.83126   3.84034   3.84852   3.86292
 Alpha virt. eigenvalues --    3.86760   3.89278   3.91248   3.92239   3.93397
 Alpha virt. eigenvalues --    3.94101   3.96028   3.96803   3.98514   4.01887
 Alpha virt. eigenvalues --    4.03471   4.03652   4.05446   4.06462   4.07555
 Alpha virt. eigenvalues --    4.09420   4.11525   4.12787   4.13722   4.14568
 Alpha virt. eigenvalues --    4.15681   4.16295   4.16995   4.20818   4.22461
 Alpha virt. eigenvalues --    4.22609   4.24480   4.26532   4.29441   4.30203
 Alpha virt. eigenvalues --    4.33681   4.34028   4.36054   4.38169   4.38390
 Alpha virt. eigenvalues --    4.40405   4.41723   4.43846   4.44892   4.48518
 Alpha virt. eigenvalues --    4.49712   4.50100   4.50525   4.51980   4.52704
 Alpha virt. eigenvalues --    4.55441   4.55913   4.57216   4.58853   4.60825
 Alpha virt. eigenvalues --    4.62718   4.64036   4.64820   4.66973   4.69227
 Alpha virt. eigenvalues --    4.70751   4.71676   4.73070   4.74856   4.75730
 Alpha virt. eigenvalues --    4.76726   4.79806   4.88664   4.91598   4.93563
 Alpha virt. eigenvalues --    4.94448   4.96561   4.97715   5.00004   5.03280
 Alpha virt. eigenvalues --    5.05366   5.06852   5.10774   5.13043   5.14583
 Alpha virt. eigenvalues --    5.15182   5.16720   5.18979   5.21499   5.23560
 Alpha virt. eigenvalues --    5.25463   5.29439   5.30189   5.30455   5.31762
 Alpha virt. eigenvalues --    5.34282   5.37410   5.42150   5.43623   5.44565
 Alpha virt. eigenvalues --    5.47871   5.48501   5.49852   5.51909   5.53146
 Alpha virt. eigenvalues --    5.55471   5.56025   5.60838   5.64235   5.66454
 Alpha virt. eigenvalues --    5.67275   5.68170   5.69682   5.70254   5.74397
 Alpha virt. eigenvalues --    5.74951   5.77238   5.81176   5.82440   5.85024
 Alpha virt. eigenvalues --    5.85732   5.87314   5.88000   5.88466   5.91716
 Alpha virt. eigenvalues --    5.93449   5.94270   5.95354   5.96793   5.97249
 Alpha virt. eigenvalues --    5.98727   6.00677   6.01769   6.02998   6.04907
 Alpha virt. eigenvalues --    6.06668   6.10091   6.12460   6.13901   6.22690
 Alpha virt. eigenvalues --    6.38447   6.39212   6.39962   6.44250   6.47890
 Alpha virt. eigenvalues --    6.50393   6.52944   6.53969   6.55442   6.57818
 Alpha virt. eigenvalues --    6.61938   6.66430   6.73571   6.88799   6.93531
 Alpha virt. eigenvalues --    6.94816   6.96087   6.96594   7.00371   7.02169
 Alpha virt. eigenvalues --    7.03027   7.06312   7.07549   7.09805   7.11914
 Alpha virt. eigenvalues --    7.13553   7.15353   7.15996   7.20819   7.21727
 Alpha virt. eigenvalues --    7.22532   7.24959   7.25516   7.29581   7.36786
 Alpha virt. eigenvalues --    7.40572   7.42812   7.46569   7.50179   7.51459
 Alpha virt. eigenvalues --    7.54786   7.60231   7.65521   7.66141   7.69335
 Alpha virt. eigenvalues --    7.76696   7.80706   7.87013   7.90985   7.96349
 Alpha virt. eigenvalues --    7.98391   8.05962  12.27961  23.67426  23.68042
 Alpha virt. eigenvalues --   23.81022  23.82528  44.21482  44.26443  44.54996
 Alpha virt. eigenvalues --   44.59091  44.69866  44.79918
          Condensed to atoms (all electrons):
               1          2          3          4          5          6
     1  Si  11.595961   0.341459   0.328500   0.305367   0.469181   0.336481
     2  O    0.341459   8.088124   0.002874  -0.044666  -0.045265  -0.040135
     3  O    0.328500   0.002874   8.100309  -0.029429  -0.048633  -0.045521
     4  O    0.305367  -0.044666  -0.029429   8.191224  -0.073112   0.007772
     5  O    0.469181  -0.045265  -0.048633  -0.073112   7.960659  -0.039389
     6  O    0.336481  -0.040135  -0.045521   0.007772  -0.039389   8.097252
     7  C   -0.074289  -0.124171   0.000256  -0.003026   0.002310   0.374304
     8  H    0.015403   0.013785   0.000036  -0.000101   0.002972  -0.069114
     9  H   -0.007636   0.007701   0.000207   0.000130  -0.000680  -0.046362
    10  C   -0.067430   0.373545  -0.002840   0.001604  -0.010403  -0.103923
    11  H   -0.009981  -0.045587  -0.000076  -0.000363  -0.000253   0.007148
    12  H    0.006458  -0.045146   0.001302   0.001014  -0.000361   0.009445
    13  C   -0.067608  -0.000901  -0.094812   0.351213  -0.007609  -0.003212
    14  H   -0.008569  -0.000600   0.006010  -0.044476  -0.000214  -0.000005
    15  H   -0.000832   0.002789   0.009059  -0.037049  -0.000759   0.000919
    16  C   -0.020287  -0.004166   0.362344  -0.135084  -0.000601   0.002098
    17  H   -0.000112  -0.000002  -0.072091   0.016893   0.002310   0.000268
    18  H   -0.005065   0.000166  -0.047448   0.008885  -0.000521   0.000201
    19  O    0.160845  -0.032949  -0.032423  -0.016370   0.000456  -0.019753
    20  H   -0.069405   0.005438   0.011412   0.004591  -0.000018   0.008521
    21  H   -0.066811   0.000462  -0.000475   0.020041   0.303001   0.005122
               7          8          9         10         11         12
     1  Si  -0.074289   0.015403  -0.007636  -0.067430  -0.009981   0.006458
     2  O   -0.124171   0.013785   0.007701   0.373545  -0.045587  -0.045146
     3  O    0.000256   0.000036   0.000207  -0.002840  -0.000076   0.001302
     4  O   -0.003026  -0.000101   0.000130   0.001604  -0.000363   0.001014
     5  O    0.002310   0.002972  -0.000680  -0.010403  -0.000253  -0.000361
     6  O    0.374304  -0.069114  -0.046362  -0.103923   0.007148   0.009445
     7  C    5.043377   0.325374   0.301445   0.027949   0.029909  -0.044428
     8  H    0.325374   0.944989  -0.128971  -0.049661  -0.033297   0.022285
     9  H    0.301445  -0.128971   0.909652   0.010130   0.017270  -0.021666
    10  C    0.027949  -0.049661   0.010130   5.250827   0.219762   0.288486
    11  H    0.029909  -0.033297   0.017270   0.219762   0.948793  -0.080542
    12  H   -0.044428   0.022285  -0.021666   0.288486  -0.080542   0.796458
    13  C    0.002199  -0.000145   0.000106  -0.009161   0.000202   0.004454
    14  H   -0.000181  -0.000000   0.000001   0.000248  -0.000011  -0.000040
    15  H   -0.001056  -0.000005   0.000015   0.004797  -0.000036  -0.002144
    16  C   -0.005387   0.000251   0.000049   0.005162  -0.000196  -0.001941
    17  H    0.000213  -0.000019   0.000004  -0.000088  -0.000001  -0.000015
    18  H   -0.000007   0.000004  -0.000008   0.000192   0.000001   0.000012
    19  O    0.036193   0.000234  -0.001711  -0.096417   0.002550   0.076171
    20  H    0.002839   0.000228   0.000106  -0.002387  -0.000078   0.000084
    21  H    0.000108  -0.000496   0.000095   0.000049   0.000083  -0.000061
              13         14         15         16         17         18
     1  Si  -0.067608  -0.008569  -0.000832  -0.020287  -0.000112  -0.005065
     2  O   -0.000901  -0.000600   0.002789  -0.004166  -0.000002   0.000166
     3  O   -0.094812   0.006010   0.009059   0.362344  -0.072091  -0.047448
     4  O    0.351213  -0.044476  -0.037049  -0.135084   0.016893   0.008885
     5  O   -0.007609  -0.000214  -0.000759  -0.000601   0.002310  -0.000521
     6  O   -0.003212  -0.000005   0.000919   0.002098   0.000268   0.000201
     7  C    0.002199  -0.000181  -0.001056  -0.005387   0.000213  -0.000007
     8  H   -0.000145  -0.000000  -0.000005   0.000251  -0.000019   0.000004
     9  H    0.000106   0.000001   0.000015   0.000049   0.000004  -0.000008
    10  C   -0.009161   0.000248   0.004797   0.005162  -0.000088   0.000192
    11  H    0.000202  -0.000011  -0.000036  -0.000196  -0.000001   0.000001
    12  H    0.004454  -0.000040  -0.002144  -0.001941  -0.000015   0.000012
    13  C    5.326332   0.210006   0.269151   0.012362  -0.049301  -0.003310
    14  H    0.210006   0.954666  -0.077104   0.031405  -0.035330   0.017285
    15  H    0.269151  -0.077104   0.793491  -0.037587   0.024597  -0.019499
    16  C    0.012362   0.031405  -0.037587   5.020658   0.316804   0.323625
    17  H   -0.049301  -0.035330   0.024597   0.316804   0.967660  -0.125867
    18  H   -0.003310   0.017285  -0.019499   0.323625  -0.125867   0.883367
    19  O   -0.106890   0.003475   0.078665   0.067673   0.000154  -0.000816
    20  H    0.001546  -0.000407  -0.001567  -0.006834   0.000539   0.000801
    21  H    0.004854  -0.001172   0.000170  -0.004722   0.002509  -0.000018
              19         20         21
     1  Si   0.160845  -0.069405  -0.066811
     2  O   -0.032949   0.005438   0.000462
     3  O   -0.032423   0.011412  -0.000475
     4  O   -0.016370   0.004591   0.020041
     5  O    0.000456  -0.000018   0.303001
     6  O   -0.019753   0.008521   0.005122
     7  C    0.036193   0.002839   0.000108
     8  H    0.000234   0.000228  -0.000496
     9  H   -0.001711   0.000106   0.000095
    10  C   -0.096417  -0.002387   0.000049
    11  H    0.002550  -0.000078   0.000083
    12  H    0.076171   0.000084  -0.000061
    13  C   -0.106890   0.001546   0.004854
    14  H    0.003475  -0.000407  -0.001172
    15  H    0.078665  -0.001567   0.000170
    16  C    0.067673  -0.006834  -0.004722
    17  H    0.000154   0.000539   0.002509
    18  H   -0.000816   0.000801  -0.000018
    19  O    8.482432   0.254127   0.000549
    20  H    0.254127   0.675931  -0.000247
    21  H    0.000549  -0.000247   0.622009
 Mulliken charges:
               1
     1  Si   0.838369
     2  O   -0.452754
     3  O   -0.448562
     4  O   -0.525057
     5  O   -0.513071
     6  O   -0.482119
     7  C    0.106069
     8  H   -0.043752
     9  H   -0.039876
    10  C    0.159557
    11  H   -0.055298
    12  H   -0.009827
    13  C    0.160521
    14  H   -0.054986
    15  H   -0.006016
    16  C    0.074373
    17  H   -0.049126
    18  H   -0.031981
    19  O   -0.856193
    20  H    0.114780
    21  H    0.114950
 Sum of Mulliken charges =  -2.00000
 Mulliken charges with hydrogens summed into heavy atoms:
               1
     1  Si   0.838369
     2  O   -0.452754
     3  O   -0.448562
     4  O   -0.525057
     5  O   -0.398121
     6  O   -0.482119
     7  C    0.022441
    10  C    0.094431
    13  C    0.099519
    16  C   -0.006734
    19  O   -0.741413
 Electronic spatial extent (au):  <R**2>=           1744.9211
 Charge=             -2.0000 electrons
 Dipole moment (field-independent basis, Debye):
    X=              0.6972    Y=             -2.6748    Z=              0.0372  Tot=              2.7644
 Quadrupole moment (field-independent basis, Debye-Ang):
   XX=            -96.7027   YY=           -106.1792   ZZ=            -92.6664
   XY=             -2.1587   XZ=             -0.5176   YZ=              3.4876
 Traceless Quadrupole moment (field-independent basis, Debye-Ang):
   XX=              1.8134   YY=             -7.6631   ZZ=              5.8497
   XY=             -2.1587   XZ=             -0.5176   YZ=              3.4876
 Octapole moment (field-independent basis, Debye-Ang**2):
  XXX=             -0.5913  YYY=            -37.1033  ZZZ=              0.2670  XYY=              5.7872
  XXY=             -3.0135  XXZ=             -0.8600  XZZ=              0.4359  YZZ=              1.1477
  YYZ=             -2.8348  XYZ=              1.4906
 Hexadecapole moment (field-independent basis, Debye-Ang**3):
 XXXX=          -1610.2013 YYYY=           -745.1376 ZZZZ=           -460.6418 XXXY=             -0.8130
 XXXZ=             -0.1076 YYYX=            -16.9850 YYYZ=             17.5510 ZZZX=             -1.4166
 ZZZY=              9.1966 XXYY=           -345.5937 XXZZ=           -350.8462 YYZZ=           -158.8044
 XXYZ=              8.3746 YYXZ=             -5.1598 ZZXY=             -1.0719
 N-N= 8.756085902694D+02 E-N=-3.911253372902D+03  KE= 8.962951746316D+02
   1 Symmetry operations used in ECPInt.
 ECPInt:  NShTT=   17020 NPrTT=   47563 LenC2=   16256 LenP2D=   35296.
 LDataN:  DoStor=T MaxTD1= 7 Len=  274
 Calling FoFJK, ICntrl=      2127 FMM=F ISym2X=0 I1Cent= 0 IOpClX= 0 NMat=1 NMatS=1 NMatT=0.
 ***** Axes restored to original set *****
 -------------------------------------------------------------------
 Center     Atomic                   Forces (Hartrees/Bohr)
 Number     Number              X              Y              Z
 -------------------------------------------------------------------
      1       14           0.000004218    0.003204925    0.000058179
      2        8          -0.000503436    0.000089672   -0.000271394
      3        8           0.000553309   -0.000051647    0.000367248
      4        8           0.000152887    0.000814471   -0.000113210
      5        8          -0.000029769    0.001325405    0.000077618
      6        8          -0.000161197    0.000666053    0.000185118
      7        6          -0.000152325   -0.000011981    0.000027339
      8        1           0.000007706   -0.000010163    0.000015402
      9        1          -0.000019568   -0.000002309   -0.000007978
     10        6          -0.000565538   -0.000386604   -0.000268673
     11        1          -0.000021042   -0.000055068    0.000006908
     12        1          -0.000073033   -0.000020337   -0.000032092
     13        6           0.000526438   -0.000213341   -0.000001962
     14        1           0.000012514   -0.000046495    0.000010379
     15        1           0.000082681   -0.000020195   -0.000009825
     16        6           0.000356818   -0.000269044    0.000085179
     17        1           0.000003096   -0.000017232   -0.000003370
     18        1           0.000030870   -0.000023123    0.000001508
     19        8          -0.000388728   -0.004953010   -0.002166126
     20        1           0.000197260   -0.000075721    0.002046502
     21        1          -0.000013160    0.000055744   -0.000006750
 -------------------------------------------------------------------
 Cartesian Forces:  Max     0.004953010 RMS     0.000879668

 GradGradGradGradGradGradGradGradGradGradGradGradGradGradGradGradGradGrad
 Berny optimization.
 FormGI is forming the generalized inverse of G from B-inverse, IUseBI=4.
 Internal  Forces:  Max     0.003898163 RMS     0.000952104
 Search for a local minimum.
 Step number   1 out of a maximum of  126
 All quantities printed in internal units (Hartrees-Bohrs-Radians)
 Mixed Optimization -- En-DIIS/RFO-DIIS
 Second derivative matrix not updated -- first step.
 ITU=  0
     Eigenvalues ---    0.00486   0.01052   0.01105   0.01960   0.02272
     Eigenvalues ---    0.02432   0.02514   0.02795   0.03334   0.04002
     Eigenvalues ---    0.04444   0.04559   0.05025   0.05270   0.05623
     Eigenvalues ---    0.06093   0.06136   0.06545   0.07413   0.08506
     Eigenvalues ---    0.08934   0.09245   0.10443   0.11259   0.11290
     Eigenvalues ---    0.11353   0.12421   0.13350   0.13545   0.14673
     Eigenvalues ---    0.15108   0.16000   0.16044   0.16814   0.19613
     Eigenvalues ---    0.21063   0.25670   0.26837   0.27601   0.28864
     Eigenvalues ---    0.29012   0.29677   0.31060   0.32229   0.32446
     Eigenvalues ---    0.32940   0.32977   0.33055   0.33094   0.33285
     Eigenvalues ---    0.33733   0.44037   0.45538   0.46145   0.47786
     Eigenvalues ---    0.56421   0.56552
 RFO step:  Lambda=-1.65967246D-03 EMin= 4.86165218D-03
 Linear search not attempted -- first point.
 Iteration  1 RMS(Cart)=  0.04713877 RMS(Int)=  0.00129791
 Iteration  2 RMS(Cart)=  0.00195032 RMS(Int)=  0.00051692
 Iteration  3 RMS(Cart)=  0.00000236 RMS(Int)=  0.00051692
 Iteration  4 RMS(Cart)=  0.00000000 RMS(Int)=  0.00051692
 Variable       Old X    -DE/DX   Delta X   Delta X   Delta X     New X
                                 (Linear)    (Quad)   (Total)
    R1        3.29552   0.00070   0.00000   0.00315   0.00349   3.29901
    R2        3.31952   0.00053   0.00000   0.00359   0.00318   3.32270
    R3        3.35222   0.00077   0.00000   0.00262   0.00301   3.35524
    R4        3.29597  -0.00139   0.00000  -0.00444  -0.00444   3.29154
    R5        3.30760   0.00025   0.00000   0.00198   0.00136   3.30896
    R6        2.61363  -0.00038   0.00000  -0.00085  -0.00052   2.61311
    R7        2.59875  -0.00030   0.00000   0.00059  -0.00032   2.59843
    R8        2.61610  -0.00058   0.00000  -0.00073  -0.00047   2.61563
    R9        1.80478  -0.00001   0.00000  -0.00002  -0.00002   1.80477
   R10        2.60266  -0.00018   0.00000   0.00076  -0.00004   2.60262
   R11        2.10035   0.00001   0.00000   0.00002   0.00002   2.10038
   R12        2.08955   0.00000   0.00000   0.00000   0.00000   2.08955
   R13        2.90068  -0.00046   0.00000  -0.00121  -0.00118   2.89950
   R14        2.09092   0.00002   0.00000   0.00006   0.00006   2.09098
   R15        2.07672  -0.00244   0.00000  -0.00783  -0.00771   2.06901
   R16        4.40045  -0.00035   0.00000  -0.04297  -0.04252   4.35793
   R17        2.09157   0.00001   0.00000   0.00004   0.00004   2.09162
   R18        2.07499  -0.00242   0.00000  -0.00748  -0.00740   2.06759
   R19        2.90319  -0.00026   0.00000  -0.00152  -0.00176   2.90143
   R20        4.42269  -0.00041   0.00000  -0.03724  -0.03676   4.38593
   R21        2.10428   0.00002   0.00000   0.00005   0.00005   2.10433
   R22        2.08887  -0.00000   0.00000  -0.00001  -0.00001   2.08886
   R23        1.80591   0.00206   0.00000   0.00364   0.00364   1.80955
    A1        2.80290   0.00191   0.00000   0.01630   0.01609   2.81899
    A2        1.59020   0.00064   0.00000   0.00399   0.00404   1.59424
    A3        1.72997  -0.00105   0.00000  -0.00821  -0.00814   1.72182
    A4        1.56279  -0.00004   0.00000  -0.00111  -0.00067   1.56212
    A5        1.54435  -0.00024   0.00000  -0.00143  -0.00148   1.54287
    A6        1.75018  -0.00087   0.00000  -0.00809  -0.00795   1.74223
    A7        1.53537   0.00034   0.00000   0.00495   0.00425   1.53961
    A8        1.62002  -0.00077   0.00000  -0.00586  -0.00578   1.61424
    A9        1.67202  -0.00047   0.00000  -0.00607  -0.00594   1.66608
   A10        1.94335  -0.00047   0.00000  -0.00060  -0.00142   1.94193
   A11        1.99478   0.00019   0.00000   0.00061   0.00087   1.99566
   A12        1.93529  -0.00022   0.00000  -0.00132  -0.00182   1.93347
   A13        1.80540  -0.00010   0.00000  -0.00065  -0.00065   1.80475
   A14        1.97934   0.00017   0.00000   0.00043   0.00038   1.97972
   A15        1.93754   0.00023   0.00000   0.00296   0.00314   1.94069
   A16        1.93694  -0.00011   0.00000  -0.00181  -0.00210   1.93484
   A17        1.87184  -0.00019   0.00000  -0.00273  -0.00257   1.86928
   A18        1.86897  -0.00002   0.00000   0.00041   0.00043   1.86940
   A19        1.91499  -0.00012   0.00000   0.00261   0.00250   1.91749
   A20        1.93425   0.00022   0.00000  -0.00134  -0.00132   1.93293
   A21        1.85161   0.00080   0.00000   0.00136   0.00157   1.85318
   A22        1.93164   0.00004   0.00000   0.01034   0.01064   1.94228
   A23        1.91722  -0.00033   0.00000  -0.02352  -0.02432   1.89289
   A24        1.93302   0.00005   0.00000   0.01048   0.00982   1.94284
   A25        1.90288  -0.00167   0.00000  -0.01571  -0.01546   1.88741
   A26        1.92597   0.00106   0.00000   0.01567   0.01594   1.94190
   A27        1.99887  -0.00274   0.00000  -0.02915  -0.02928   1.96960
   A28        1.93255   0.00030   0.00000   0.01076   0.01105   1.94360
   A29        1.92375  -0.00062   0.00000  -0.02117  -0.02187   1.90188
   A30        1.85104   0.00059   0.00000   0.00110   0.00118   1.85222
   A31        1.92666   0.00083   0.00000   0.01626   0.01652   1.94318
   A32        1.93176  -0.00030   0.00000   0.01009   0.00947   1.94123
   A33        1.89645  -0.00085   0.00000  -0.01848  -0.01824   1.87821
   A34        1.99624  -0.00271   0.00000  -0.02916  -0.02881   1.96742
   A35        1.88214  -0.00014   0.00000  -0.00410  -0.00410   1.87804
   A36        1.93428   0.00025   0.00000   0.00392   0.00411   1.93839
   A37        1.93993  -0.00015   0.00000  -0.00205  -0.00224   1.93768
   A38        1.91187  -0.00018   0.00000   0.00345   0.00339   1.91526
   A39        1.92982   0.00025   0.00000  -0.00164  -0.00158   1.92824
   A40        1.86618  -0.00002   0.00000   0.00059   0.00059   1.86677
   A41        2.30397   0.00390   0.00000   0.01953   0.01680   2.32077
   A42        1.92621  -0.00044   0.00000   0.00867   0.00905   1.93526
   A43        1.82290  -0.00056   0.00000   0.00858   0.00901   1.83191
   A44        3.15299   0.00060   0.00000   0.00289   0.00337   3.15636
   A45        3.29581  -0.00120   0.00000  -0.01191  -0.01163   3.28418
    D1       -1.07089  -0.00052   0.00000  -0.01048  -0.00984  -1.08073
    D2       -2.61717  -0.00151   0.00000  -0.01671  -0.01638  -2.63356
    D3        2.04223  -0.00080   0.00000  -0.01119  -0.01092   2.03130
    D4        0.37020  -0.00031   0.00000  -0.00480  -0.00475   0.36545
    D5       -1.50534  -0.00089   0.00000  -0.01786  -0.01792  -1.52326
    D6        0.04879   0.00021   0.00000  -0.01109  -0.01085   0.03793
    D7        1.66483  -0.00060   0.00000  -0.01715  -0.01683   1.64799
    D8       -2.95108  -0.00101   0.00000  -0.02229  -0.02199  -2.97306
    D9        2.38055   0.00200   0.00000   0.01998   0.01964   2.40020
   D10       -0.42233   0.00010   0.00000   0.00375   0.00361  -0.41872
   D11       -2.17147   0.00096   0.00000   0.01181   0.01152  -2.15995
   D12        1.58166   0.00017   0.00000   0.00099   0.00091   1.58257
   D13       -1.56955   0.00013   0.00000   0.00121   0.00102  -1.56853
   D14       -0.01673  -0.00029   0.00000  -0.00167  -0.00185  -0.01858
   D15       -3.12258  -0.00005   0.00000  -0.00196  -0.00151  -3.12409
   D16        0.02212  -0.00010   0.00000   0.00876   0.00855   0.03067
   D17        2.82776   0.00179   0.00000   0.02471   0.02433   2.85209
   D18       -1.70786   0.00096   0.00000   0.01717   0.01684  -1.69102
   D19       -0.61722   0.00029   0.00000  -0.00079  -0.00070  -0.61791
   D20       -2.71512  -0.00027   0.00000  -0.01995  -0.01957  -2.73468
   D21        1.43704  -0.00140   0.00000  -0.03071  -0.03013   1.40691
   D22        0.29167  -0.00044   0.00000   0.01465   0.01452   0.30618
   D23       -1.80085  -0.00029   0.00000   0.01068   0.01052  -1.79034
   D24        2.40962  -0.00032   0.00000   0.00872   0.00857   2.41818
   D25        2.73703   0.00004   0.00000   0.02370   0.02345   2.76048
   D26       -1.40922   0.00087   0.00000   0.03711   0.03674  -1.37248
   D27        0.64049  -0.00012   0.00000   0.00494   0.00504   0.64553
   D28        1.73251   0.00026   0.00000  -0.00662  -0.00640   1.72612
   D29       -2.47428   0.00030   0.00000  -0.00535  -0.00518  -2.47946
   D30       -0.35930   0.00039   0.00000  -0.00981  -0.00966  -0.36896
   D31        0.61591  -0.00024   0.00000   0.00681   0.00693   0.62285
   D32        2.71291   0.00031   0.00000   0.02589   0.02634   2.73925
   D33       -1.44788   0.00056   0.00000   0.04176   0.04220  -1.40568
   D34       -1.49025  -0.00033   0.00000   0.00338   0.00325  -1.48700
   D35        0.60675   0.00022   0.00000   0.02246   0.02266   0.62940
   D36        2.72914   0.00047   0.00000   0.03834   0.03852   2.76766
   D37        2.73259  -0.00037   0.00000   0.00207   0.00197   2.73456
   D38       -1.45360   0.00019   0.00000   0.02115   0.02138  -1.43222
   D39        0.66880   0.00044   0.00000   0.03702   0.03723   0.70604
   D40       -0.67633   0.00071   0.00000  -0.02154  -0.02036  -0.69669
   D41        1.34578   0.00054   0.00000  -0.04196  -0.03993   1.30585
   D42       -2.81073   0.00019   0.00000  -0.02920  -0.02778  -2.83850
   D43        0.91344   0.00322   0.00000   0.13903   0.13980   1.05324
   D44       -1.42214  -0.00037   0.00000   0.08166   0.08184  -1.34030
   D45        0.86642  -0.00135   0.00000  -0.00207  -0.00312   0.86330
   D46        3.00681  -0.00082   0.00000   0.00816   0.00695   3.01376
   D47       -1.15498  -0.00122   0.00000   0.01890   0.01706  -1.13792
   D48       -0.59025   0.00023   0.00000  -0.01237  -0.01248  -0.60273
   D49        1.51637   0.00034   0.00000  -0.00807  -0.00800   1.50837
   D50       -2.71448   0.00035   0.00000  -0.00623  -0.00616  -2.72064
   D51       -2.68730  -0.00033   0.00000  -0.03155  -0.03190  -2.71921
   D52       -0.58068  -0.00022   0.00000  -0.02725  -0.02742  -0.60811
   D53        1.47165  -0.00020   0.00000  -0.02541  -0.02559   1.44606
   D54        1.47761  -0.00062   0.00000  -0.04604  -0.04635   1.43126
   D55       -2.69896  -0.00050   0.00000  -0.04174  -0.04187  -2.74082
   D56       -0.64662  -0.00049   0.00000  -0.03990  -0.04003  -0.68665
   D57       -1.10511  -0.00324   0.00000  -0.12868  -0.12939  -1.23450
   D58        1.26315   0.00010   0.00000  -0.07396  -0.07400   1.18916
         Item               Value     Threshold  Converged?
 Maximum Force            0.003898     0.000450     NO 
 RMS     Force            0.000952     0.000300     NO 
 Maximum Displacement     0.384369     0.001800     NO 
 RMS     Displacement     0.047102     0.001200     NO 
 Predicted change in Energy=-9.043877D-04
 GradGradGradGradGradGradGradGradGradGradGradGradGradGradGradGradGradGrad

                          Input orientation:                          
 ---------------------------------------------------------------------
 Center     Atomic      Atomic             Coordinates (Angstroms)
 Number     Number       Type             X           Y           Z
 ---------------------------------------------------------------------
      1         14           0       -0.017069   -0.326276   -0.023821
      2          8           0       -1.217453   -0.016760   -1.253029
      3          8           0        1.177987   -0.074050    1.241024
      4          8           0        1.293683   -0.212355   -1.216049
      5          8           0       -0.023068   -2.067028   -0.084096
      6          8           0       -1.261048   -0.197730    1.201776
      7          6           0       -2.517657    0.027586    0.685077
      8          1           0       -3.103513   -0.915205    0.627737
      9          1           0       -3.087290    0.726094    1.325603
     10          6           0       -2.329224    0.610676   -0.721596
     11          1           0       -3.224232    0.442277   -1.350041
     12          1           0       -2.109682    1.678619   -0.621337
     13          6           0        2.360707    0.506461   -0.705570
     14          1           0        3.299818    0.268993   -1.241074
     15          1           0        2.129522    1.574403   -0.761765
     16          6           0        2.457213    0.129521    0.779677
     17          1           0        3.075220   -0.789603    0.894991
     18          1           0        2.961607    0.930834    1.350064
     19          8           0        0.039633    2.086356    0.108295
     20          1           0        0.117158    1.924882    1.048965
     21          1           0        0.650770   -2.268517   -0.730198
 ---------------------------------------------------------------------
                    Distance matrix (angstroms):
                    1          2          3          4          5
     1  Si   0.000000
     2  O    1.745759   0.000000
     3  O    1.758298   3.458572   0.000000
     4  O    1.775516   2.519014   2.463680   0.000000
     5  O    1.741806   2.645101   2.677767   2.540662   0.000000
     6  O    1.751027   2.461853   2.442485   3.517491   2.584635
     7  C    2.623108   2.334256   3.738609   4.265931   3.346940
     8  H    3.208972   2.810998   4.406235   4.819635   3.364899
     9  H    3.514923   3.270699   4.340504   5.151078   4.379297
    10  C    2.590527   1.382799   4.076918   3.747976   3.590942
    11  H    3.554635   2.060895   5.134175   4.567062   4.259892
    12  H    2.958996   2.017279   4.165214   3.938573   4.321164
    13  C    2.609991   3.657417   2.350542   1.384133   3.562507
    14  H    3.582986   4.526315   3.283391   2.063225   4.223407
    15  H    2.960574   3.738366   2.762966   2.024229   4.284029
    16  C    2.641105   4.201960   1.375028   2.335295   3.423847
    17  H    3.259009   4.861925   2.056999   2.821981   3.491391
    18  H    3.512890   5.013838   2.050117   3.267076   4.466797
    19  O    2.416911   2.802956   2.691892   2.934382   4.158310
    20  H    2.497318   3.293985   2.271117   3.329005   4.151968
    21  H    2.171930   2.972208   2.996558   2.208437   0.955041
                    6          7          8          9         10
     6  O    0.000000
     7  C    1.377248   0.000000
     8  H    2.058875   1.111472   0.000000
     9  H    2.050352   1.105744   1.783576   0.000000
    10  C    2.343902   1.534349   2.179113   2.186095   0.000000
    11  H    3.282601   2.193837   2.401861   2.694138   1.106499
    12  H    2.750382   2.144544   3.045621   2.377730   1.094875
    13  C    4.153428   5.095258   5.801426   5.818469   4.691116
    14  H    5.194886   6.132809   6.774764   6.898690   5.663278
    15  H    4.300223   5.107081   5.959322   5.682593   4.561886
    16  C    3.756425   4.976814   5.660055   5.603164   5.039377
    17  H    4.387215   5.656159   6.185785   6.360762   5.812241
    18  H    4.373381   5.592888   6.380854   6.052410   5.690973
    19  O    2.846843   3.333308   4.377048   3.620745   2.911672
    20  H    2.535406   3.267170   4.314655   3.432508   3.293450
    21  H    3.416977   4.161012   4.215457   5.212207   4.143693
                   11         12         13         14         15
    11  H    0.000000
    12  H    1.817078   0.000000
    13  C    5.622367   4.622275   0.000000
    14  H    6.527260   5.624394   1.106835   0.000000
    15  H    5.503677   4.242810   1.094123   1.817532   0.000000
    16  C    6.075553   5.021860   1.535369   2.193826   2.138016
    17  H    6.800058   5.939241   2.179932   2.394545   3.037715
    18  H    6.767116   5.492138   2.183302   2.695630   2.359316
    19  O    3.934787   2.306115   2.923325   3.968930   2.320935
    20  H    4.372441   2.794526   3.181795   4.256238   2.729686
    21  H    4.769512   4.817865   3.259600   3.703702   4.117735
                   16         17         18         19         20
    16  C    0.000000
    17  H    1.113561   0.000000
    18  H    1.105376   1.783228   0.000000
    19  O    3.181926   4.254976   3.378632   0.000000
    20  H    2.961705   4.017744   3.028148   0.957572   0.000000
    21  H    3.360588   3.272061   4.461312   4.476771   4.586366
                   21
    21  H    0.000000
 Stoichiometry    C4H10O6Si(2-)
 Framework group  C1[X(C4H10O6Si)]
 Deg. of freedom    57
 Full point group                 C1      NOp   1
 Largest Abelian subgroup         C1      NOp   1
 Largest concise Abelian subgroup C1      NOp   1
                         Standard orientation:                         
 ---------------------------------------------------------------------
 Center     Atomic      Atomic             Coordinates (Angstroms)
 Number     Number       Type             X           Y           Z
 ---------------------------------------------------------------------
      1         14           0       -0.019916   -0.355822   -0.023481
      2          8           0       -1.226491   -0.066173   -1.251469
      3          8           0        1.179628   -0.083334    1.232884
      4          8           0        1.285410   -0.253124   -1.222661
      5          8           0       -0.020426   -2.097220   -0.061168
      6          8           0       -1.259130   -0.215424    1.205638
      7          6           0       -2.518644   -0.000908    0.691424
      8          1           0       -3.101623   -0.946259    0.648804
      9          1           0       -3.087871    0.703998    1.325268
     10          6           0       -2.338074    0.564493   -0.723477
     11          1           0       -3.235166    0.385054   -1.345867
     12          1           0       -2.121636    1.634353   -0.638002
     13          6           0        2.352201    0.475711   -0.726093
     14          1           0        3.289822    0.234365   -1.262473
     15          1           0        2.117259    1.542079   -0.795136
     16          6           0        2.456218    0.118384    0.763490
     17          1           0        3.077734   -0.797157    0.888068
     18          1           0        2.960367    0.928661    1.321290
     19          8           0        0.029382    2.058492    0.077117
     20          1           0        0.111409    1.909486    1.019462
     21          1           0        0.651340   -2.304886   -0.707471
 ---------------------------------------------------------------------
 Rotational constants (GHZ):           1.6828564           0.8712771           0.8219785
 Standard basis: def2TZVPP (5D, 7F)
 There are   558 symmetry adapted cartesian basis functions of A   symmetry.
 There are   492 symmetry adapted basis functions of A   symmetry.
   492 basis functions,   749 primitive gaussians,   558 cartesian basis functions
    49 alpha electrons       49 beta electrons
       nuclear repulsion energy       881.3654135366 Hartrees.
 NAtoms=   21 NActive=   21 NUniq=   21 SFac= 1.00D+00 NAtFMM=   60 NAOKFM=F Big=F
 Integral buffers will be    131072 words long.
 Raffenetti 2 integral format.
 Two-electron integral symmetry is turned on.
 Nuclear repulsion after empirical dispersion term =      881.3529045103 Hartrees.
 One-electron integrals computed using PRISM.
   1 Symmetry operations used in ECPInt.
 ECPInt:  NShTT=   17020 NPrTT=   47563 LenC2=   16264 LenP2D=   35360.
 LDataN:  DoStor=T MaxTD1= 6 Len=  172
 NBasis=   492 RedAO= T EigKep=  2.39D-04  NBF=   492
 NBsUse=   492 1.00D-06 EigRej= -1.00D+00 NBFU=   492
 Initial guess from the checkpoint file:  "IRCForward_HBiL2toPBiL2_productOpt.chk"
 B after Tr=    -0.000000    0.000000    0.000000
         Rot=    0.999865    0.016370   -0.000523   -0.000916 Ang=   1.88 deg.
 ExpMin= 7.01D-02 ExpMax= 4.48D+04 ExpMxC= 1.53D+03 IAcc=3 IRadAn=         5 AccDes= 0.00D+00
 Harris functional with IExCor= 4639 and IRadAn=       5 diagonalized for initial guess.
 HarFok:  IExCor= 4639 AccDes= 0.00D+00 IRadAn=         5 IDoV= 1 UseB2=F ITyADJ=14
 ICtDFT=  3500011 ScaDFX=  1.000000  1.000000  1.000000  1.000000
 FoFCou: FMM=F IPFlag=           0 FMFlag=      100000 FMFlg1=           0
         NFxFlg=           0 DoJE=T BraDBF=F KetDBF=T FulRan=T
         wScrn=  0.000000 ICntrl=       500 IOpCl=  0 I1Cent=   200000004 NGrid=           0
         NMat0=    1 NMatS0=      1 NMatT0=    0 NMatD0=    1 NMtDS0=    0 NMtDT0=    0
 Petite list used in FoFCou.
 Requested convergence on RMS density matrix=1.00D-08 within 128 cycles.
 Requested convergence on MAX density matrix=1.00D-06.
 Requested convergence on             energy=1.00D-06.
 No special actions if energy rises.
 Integral accuracy reduced to 1.0D-05 until final iterations.
 Initial convergence to 1.0D-05 achieved.  Increase integral accuracy.
 SCF Done:  E(RwB97XD) =  -899.438442536     A.U. after   14 cycles
            NFock= 14  Conv=0.77D-08     -V/T= 2.0034
   1 Symmetry operations used in ECPInt.
 ECPInt:  NShTT=   17020 NPrTT=   47563 LenC2=   16264 LenP2D=   35360.
 LDataN:  DoStor=T MaxTD1= 7 Len=  274
 Calling FoFJK, ICntrl=      2127 FMM=F ISym2X=0 I1Cent= 0 IOpClX= 0 NMat=1 NMatS=1 NMatT=0.
 ***** Axes restored to original set *****
 -------------------------------------------------------------------
 Center     Atomic                   Forces (Hartrees/Bohr)
 Number     Number              X              Y              Z
 -------------------------------------------------------------------
      1       14          -0.000431352    0.014544405   -0.000442010
      2        8          -0.003163608   -0.003378785   -0.003923653
      3        8           0.004701352   -0.005032375    0.004648890
      4        8           0.002370689   -0.001732611   -0.002530162
      5        8           0.000092097   -0.001090803    0.000027338
      6        8          -0.002988230   -0.002582605    0.002697159
      7        6           0.000880450   -0.000411391    0.000341817
      8        1          -0.000076407   -0.000207054   -0.000057012
      9        1          -0.000494187    0.000127068    0.000070738
     10        6           0.003537845   -0.001061831    0.000883401
     11        1           0.000379891   -0.000020349    0.000031931
     12        1          -0.003009150    0.003633650   -0.000435665
     13        6          -0.003020897   -0.000696788    0.001309543
     14        1          -0.000545620    0.000049959   -0.000048175
     15        1           0.002738669    0.003402915   -0.001240998
     16        6          -0.000945149   -0.000867775    0.000438373
     17        1           0.000163196   -0.000275665   -0.000066764
     18        1           0.000559123    0.000114755    0.000154779
     19        8          -0.000748248   -0.008095358   -0.001035334
     20        1           0.000076741    0.003560757   -0.000827090
     21        1          -0.000077207    0.000019878    0.000002894
 -------------------------------------------------------------------
 Cartesian Forces:  Max     0.014544405 RMS     0.002846219

 GradGradGradGradGradGradGradGradGradGradGradGradGradGradGradGradGradGrad
 Berny optimization.
 Using GEDIIS/GDIIS optimizer.
 FormGI is forming the generalized inverse of G from B-inverse, IUseBI=4.
 Internal  Forces:  Max     0.005271212 RMS     0.001486572
 Search for a local minimum.
 Step number   2 out of a maximum of  126
 All quantities printed in internal units (Hartrees-Bohrs-Radians)
 Mixed Optimization -- RFO/linear search
 Update second derivatives using D2CorX and points    1    2
 DE= -1.12D-03 DEPred=-9.04D-04 R= 1.24D+00
 TightC=F SS=  1.41D+00  RLast= 2.86D-01 DXNew= 5.0454D-01 8.5866D-01
 Trust test= 1.24D+00 RLast= 2.86D-01 DXMaxT set to 5.05D-01
 ITU=  1  0
 Use linear search instead of GDIIS.
     Eigenvalues ---    0.00488   0.01033   0.01180   0.01515   0.02000
     Eigenvalues ---    0.02432   0.02541   0.02787   0.02956   0.03641
     Eigenvalues ---    0.04441   0.04528   0.04904   0.05283   0.05552
     Eigenvalues ---    0.06100   0.06152   0.06439   0.07366   0.08492
     Eigenvalues ---    0.08849   0.09356   0.10268   0.11262   0.11298
     Eigenvalues ---    0.11386   0.11851   0.13460   0.14176   0.15050
     Eigenvalues ---    0.15630   0.16000   0.16205   0.17847   0.19473
     Eigenvalues ---    0.22296   0.25555   0.26761   0.27569   0.28844
     Eigenvalues ---    0.29576   0.30173   0.31679   0.32233   0.32448
     Eigenvalues ---    0.32942   0.32979   0.33056   0.33095   0.33273
     Eigenvalues ---    0.38851   0.44132   0.45561   0.46080   0.47777
     Eigenvalues ---    0.56552   0.57718
 RFO step:  Lambda=-4.40592281D-03 EMin= 4.87858691D-03
 Quartic linear search produced a step of  0.15883.
 Iteration  1 RMS(Cart)=  0.07310381 RMS(Int)=  0.00559817
 Iteration  2 RMS(Cart)=  0.00509367 RMS(Int)=  0.00397956
 Iteration  3 RMS(Cart)=  0.00005682 RMS(Int)=  0.00397939
 Iteration  4 RMS(Cart)=  0.00000093 RMS(Int)=  0.00397939
 Variable       Old X    -DE/DX   Delta X   Delta X   Delta X     New X
                                 (Linear)    (Quad)   (Total)
    R1        3.29901   0.00282   0.00055   0.01576   0.01529   3.31430
    R2        3.32270   0.00401   0.00051   0.02083   0.01995   3.34265
    R3        3.35524   0.00187   0.00048   0.01114   0.00936   3.36460
    R4        3.29154   0.00107  -0.00070  -0.00866  -0.00937   3.28217
    R5        3.30896   0.00265   0.00022   0.01167   0.00946   3.31842
    R6        2.61311  -0.00079  -0.00008  -0.00426  -0.00648   2.60663
    R7        2.59843  -0.00088  -0.00005  -0.00120  -0.00414   2.59429
    R8        2.61563  -0.00115  -0.00007  -0.00393  -0.00611   2.60952
    R9        1.80477  -0.00006  -0.00000  -0.00013  -0.00013   1.80463
   R10        2.60262  -0.00057  -0.00001  -0.00026  -0.00334   2.59928
   R11        2.10038   0.00022   0.00000   0.00064   0.00065   2.10102
   R12        2.08955   0.00037   0.00000   0.00097   0.00097   2.09053
   R13        2.89950   0.00116  -0.00019   0.00118   0.00122   2.90072
   R14        2.09098  -0.00032   0.00001  -0.00067  -0.00066   2.09032
   R15        2.06901   0.00075  -0.00122  -0.01894  -0.01903   2.04999
   R16        4.35793   0.00030  -0.00675  -0.08496  -0.08661   4.27132
   R17        2.09162  -0.00045   0.00001  -0.00107  -0.00106   2.09056
   R18        2.06759   0.00108  -0.00118  -0.01594  -0.01570   2.05190
   R19        2.90143   0.00208  -0.00028   0.00189   0.00095   2.90237
   R20        4.38593   0.00063  -0.00584  -0.05507  -0.05528   4.33065
   R21        2.10433   0.00031   0.00001   0.00096   0.00096   2.10529
   R22        2.08886   0.00042  -0.00000   0.00107   0.00107   2.08992
   R23        1.80955  -0.00141   0.00058   0.00745   0.00803   1.81758
    A1        2.81899   0.00527   0.00255   0.07604   0.07779   2.89678
    A2        1.59424   0.00011   0.00064   0.01066   0.00798   1.60221
    A3        1.72182  -0.00251  -0.00129  -0.03843  -0.03943   1.68240
    A4        1.56212   0.00034  -0.00011   0.00044   0.00214   1.56426
    A5        1.54287   0.00052  -0.00024   0.00025   0.00071   1.54358
    A6        1.74223  -0.00276  -0.00126  -0.03757  -0.03832   1.70391
    A7        1.53961   0.00079   0.00067   0.01896   0.01515   1.55476
    A8        1.61424  -0.00175  -0.00092  -0.03154  -0.03177   1.58247
    A9        1.66608  -0.00153  -0.00094  -0.03081  -0.03125   1.63483
   A10        1.94193  -0.00111  -0.00023  -0.00642  -0.00891   1.93302
   A11        1.99566  -0.00183   0.00014  -0.00434  -0.00444   1.99121
   A12        1.93347  -0.00109  -0.00029  -0.00935  -0.01118   1.92229
   A13        1.80475  -0.00001  -0.00010  -0.00172  -0.00183   1.80293
   A14        1.97972  -0.00117   0.00006  -0.00191  -0.00296   1.97676
   A15        1.94069  -0.00021   0.00050   0.00615   0.00724   1.94793
   A16        1.93484  -0.00039  -0.00033  -0.00412  -0.00535   1.92949
   A17        1.86928   0.00121  -0.00041  -0.00050  -0.00045   1.86883
   A18        1.86940   0.00008   0.00007  -0.00083  -0.00071   1.86869
   A19        1.91749  -0.00103   0.00040   0.00169   0.00170   1.91919
   A20        1.93293   0.00032  -0.00021  -0.00234  -0.00241   1.93052
   A21        1.85318   0.00044   0.00025   0.00821   0.00930   1.86248
   A22        1.94228  -0.00034   0.00169   0.01656   0.01860   1.96088
   A23        1.89289  -0.00030  -0.00386  -0.05429  -0.05984   1.83305
   A24        1.94284  -0.00078   0.00156   0.01792   0.01704   1.95988
   A25        1.88741   0.00154  -0.00246  -0.02599  -0.02777   1.85964
   A26        1.94190  -0.00046   0.00253   0.03338   0.03651   1.97842
   A27        1.96960  -0.00348  -0.00465  -0.08423  -0.07929   1.89031
   A28        1.94360  -0.00006   0.00176   0.01520   0.01645   1.96005
   A29        1.90188  -0.00126  -0.00347  -0.05058  -0.05478   1.84710
   A30        1.85222   0.00029   0.00019   0.00797   0.00916   1.86138
   A31        1.94318  -0.00065   0.00262   0.03246   0.03582   1.97901
   A32        1.94123  -0.00146   0.00150   0.01483   0.01470   1.95593
   A33        1.87821   0.00329  -0.00290  -0.02367  -0.02682   1.85139
   A34        1.96742  -0.00293  -0.00458  -0.07596  -0.06983   1.89759
   A35        1.87804   0.00121  -0.00065  -0.00406  -0.00543   1.87262
   A36        1.93839   0.00019   0.00065   0.00919   0.01068   1.94907
   A37        1.93768  -0.00076  -0.00036  -0.00482  -0.00560   1.93208
   A38        1.91526  -0.00107   0.00054   0.00319   0.00382   1.91908
   A39        1.92824   0.00036  -0.00025  -0.00243  -0.00247   1.92577
   A40        1.86677   0.00004   0.00009  -0.00091  -0.00087   1.86590
   A41        2.32077   0.00443   0.00267   0.11022   0.09393   2.41470
   A42        1.93526  -0.00030   0.00144   0.05184   0.03063   1.96589
   A43        1.83191  -0.00054   0.00143   0.05058   0.02952   1.86144
   A44        3.15636   0.00045   0.00053   0.01111   0.01011   3.16647
   A45        3.28418  -0.00334  -0.00185  -0.06279  -0.06361   3.22057
    D1       -1.08073   0.00004  -0.00156  -0.03608  -0.03611  -1.11684
    D2       -2.63356  -0.00177  -0.00260  -0.06647  -0.06756  -2.70111
    D3        2.03130   0.00006  -0.00174  -0.03501  -0.03530   1.99600
[...]
 99762,-0.00063593,-0.00186050,-0.00070039,0.00073298,0.00737446,-0.009
 14246,0.04496457,0.02485993,0.46021612,0.00466847,-0.00218362,0.008126
 13,-0.04739319,-0.00361731,-0.01144714,-0.00058109,0.00019959,-0.00038
 566,-0.00244688,-0.00006402,-0.00026666,-0.00049637,0.00191195,-0.0007
 4474,0.00105567,0.00072100,-0.00108894,0.00045545,-0.00311991,-0.00045
 610,0.00043877,0.00144309,-0.00010236,-0.00013739,0.00041287,-0.001620
 01,-0.13236015,-0.05937907,-0.08199861,0.17365873,0.00161768,-0.001415
 35,0.00106759,0.00337212,0.00859638,0.00663061,-0.00029445,0.00022629,
 -0.00015430,-0.00021822,0.00010980,0.00006807,-0.00012532,0.00015029,-
 0.00015157,0.00085175,0.00099741,0.00222929,0.00883722,0.00299324,0.00
 768070,0.00044130,0.00117175,-0.00051589,-0.00040964,0.00011121,-0.000
 16154,-0.06140792,-0.09150953,-0.05505087,0.06816780,0.09270275,0.0029
 8466,-0.00014392,-0.00285477,0.01156975,0.00702975,0.01347915,-0.00077
 403,0.00008282,0.00018714,0.00000419,0.00000272,0.00021278,-0.00024702
 ,0.00051366,0.00031198,-0.00292938,0.00383914,-0.00671931,-0.02274384,
 -0.01768852,-0.00994041,0.00019982,0.00118715,0.00162748,0.00164084,-0
 .00013484,-0.00067213,-0.08017274,-0.05147538,-0.12104110,0.09215909,0
 .05820868,0.12565347,0.00326684,0.00457742,0.00594412,-0.02637181,0.03
 640142,0.00964144,0.00007371,-0.00057076,-0.00010473,-0.00094983,-0.00
 063043,-0.00041137,-0.00111762,0.00132519,-0.00168558,0.00089705,-0.00
 025172,-0.00036724,0.00093173,-0.00039099,0.00070944,0.00096320,0.0001
 4702,0.00046433,0.00045745,-0.00043133,-0.00024734,-0.04633078,0.01800
 132,-0.00564363,0.00362815,-0.02016463,-0.00150323,0.06316547,-0.00527
 538,-0.00301656,-0.00584349,0.02497187,-0.00329404,-0.00846648,0.00036
 006,0.00044374,0.00018402,0.00144178,0.00051287,0.00029607,0.00127645,
 -0.00092347,0.00123220,0.00102373,0.00238205,0.00067959,-0.00113451,-0
 .01721742,-0.00188088,-0.00027214,0.00010378,0.00380528,-0.00148841,0.
 00115864,0.00113231,0.01903835,-0.24826742,-0.00083954,-0.00233263,-0.
 01475521,-0.00100448,-0.03606927,0.28004658,-0.00179014,-0.00014647,-0
 .00285079,0.01260415,-0.01479740,0.00261847,0.00001065,-0.00000586,0.0
 0014611,0.00044592,-0.00000023,0.00010885,0.00032391,-0.00078455,0.000
 83927,0.00014753,-0.00239012,0.00203469,-0.00072233,0.03253259,-0.0007
 1107,-0.00027785,0.00381487,-0.00538356,0.00006588,-0.00052487,0.00162
 188,-0.00223054,-0.00798899,-0.05156675,-0.00123960,-0.01994831,-0.000
 63401,-0.00705300,0.00979583,0.05360940,-0.04240917,-0.00084013,0.0263
 6667,0.00346323,-0.00047265,-0.00034272,-0.03038036,-0.00692780,0.0304
 3708,-0.22869322,-0.03682990,-0.05398683,0.00468945,0.00503897,-0.0047
 6939,0.00081008,-0.00043750,-0.00161627,-0.00057438,-0.00001045,-0.000
 14666,-0.00008797,0.00015609,0.00002632,0.00038383,-0.00019957,-0.0003
 1879,-0.00217042,0.00057896,0.00060474,0.00065315,0.00019273,0.0001347
 8,0.00035503,-0.00060485,-0.00018089,0.54329047,-0.00906602,0.00668932
 ,0.00838369,0.00365592,-0.00076856,-0.00066229,0.00290924,0.00749385,-
 0.01063561,-0.03851432,-0.08164809,-0.02313329,0.00152021,0.00006430,0
 .00052929,0.00036376,-0.00079534,-0.00025357,-0.00005186,-0.00007107,0
 .00006023,-0.00005546,0.00000425,0.00001145,0.00016917,-0.00007364,-0.
 00015674,-0.00052434,0.00099509,0.00053212,0.00042732,-0.00002565,-0.0
 0001146,0.00022038,-0.00039214,-0.00007520,-0.00803578,0.52250978,0.00
 084249,0.00354702,0.01679777,0.00399324,-0.00041699,-0.00057814,0.0181
 4258,-0.00088545,-0.03370422,-0.07962196,-0.02546873,-0.11451663,0.001
 54627,0.00438380,-0.00414992,-0.00041091,-0.00025093,-0.00092338,-0.00
 014865,0.00005052,0.00019114,-0.00005758,0.00002331,-0.00000902,0.0000
 7779,-0.00007804,-0.00014669,-0.00069621,0.00040886,0.00102858,0.00050
 285,0.00002567,-0.00003279,0.00020428,-0.00029285,-0.00009488,-0.04164
 370,0.02042419,0.45442198,0.00542028,0.00122658,-0.00795597,-0.0026123
 8,0.00016990,0.00024965,0.00081934,-0.00084509,0.00142054,-0.04719409,
 0.00241777,0.00874629,-0.00067033,-0.00218619,0.00092391,-0.00063651,-
 0.00014671,0.00037801,0.00038896,0.00014837,0.00007390,-0.00005036,-0.
 00014242,-0.00002665,-0.00018773,0.00005832,0.00012120,0.00070235,-0.0
 0035532,-0.00051741,-0.00042112,-0.00007374,-0.00005793,-0.00012424,0.
 00021657,0.00006534,-0.14380589,0.06451895,0.07932980,0.18642984,-0.00
 157736,-0.00134186,0.00033089,0.00016498,0.00011702,0.00011203,-0.0005
 6030,0.00142281,0.00167172,-0.00627183,0.00908719,0.00689049,0.0002027
 7,0.00009758,-0.00007760,0.00035901,0.00021139,-0.00010208,-0.00020990
 ,-0.00007254,-0.00009403,0.00003932,0.00006878,0.00001772,0.00006599,-
 0.00001556,-0.00002362,-0.00020733,-0.00002762,0.00000523,0.00006892,0
 .00005136,0.00003921,-0.00000947,-0.00001586,-0.00000831,0.06626814,-0
 .09270253,-0.05040347,-0.07268049,0.09381217,-0.00241159,-0.00029472,-
 0.00344343,-0.00016614,0.00003123,0.00024669,0.00345182,0.00347378,-0.
 00719023,-0.01418769,0.00709170,0.01258601,0.00023879,0.00046773,0.000
 32840,0.00074558,0.00010081,0.00025458,-0.00032191,-0.00012083,-0.0001
 4512,0.00005987,0.00008980,0.00002798,0.00011458,-0.00002402,-0.000009
 70,-0.00010272,-0.00002340,-0.00006257,0.00003131,0.00002797,0.0000661
 0,-0.00000477,-0.00002418,-0.00000651,0.07719215,-0.04723175,-0.108321
 53,-0.08744774,0.05353987,0.11144138,0.00309221,-0.00510089,-0.0048121
 4,-0.00073847,0.00061376,0.00033303,0.00071420,0.00032273,0.00020015,-
 0.02288243,-0.03719244,-0.00873254,-0.00112803,-0.00142302,0.00151193,
 0.00006495,0.00058433,0.00007734,-0.00006651,-0.00007828,-0.00005408,0
 .00007191,0.00004867,0.00000522,-0.00004598,0.00003576,0.00004935,0.00
 029569,-0.00015547,-0.00015798,-0.00008236,0.00001100,-0.00000092,-0.0
 0018075,0.00015439,0.00002256,-0.04538511,-0.01114387,0.00660108,0.002
 65019,0.02158552,0.00032676,0.05999028,0.00552052,-0.00385175,-0.00559
 044,-0.00152268,0.00057082,0.00023440,-0.00101227,0.00274535,0.0004756
 1,-0.02600354,-0.00760199,-0.00988672,-0.00141916,-0.00114805,0.001174
 07,-0.00041718,0.00048699,0.00020765,0.00020137,-0.00001330,0.00003095
 ,0.00004420,-0.00001381,-0.00001635,-0.00014889,0.00006845,0.00009522,
 0.00061637,-0.00035394,-0.00028406,-0.00020980,-0.00001628,-0.00003785
 ,-0.00018092,0.00026892,0.00006555,-0.01216244,-0.24704863,0.00999846,
 0.00290373,-0.01491678,0.00010651,0.02910106,0.28122592,0.00170985,-0.
 00035550,-0.00246233,-0.00037739,0.00000612,0.00007370,-0.00037380,-0.
 00243577,0.00233130,-0.01192658,-0.01684885,0.00273980,-0.00020591,-0.
 00094096,0.00088576,-0.00003137,0.00001454,0.00015647,0.00003000,0.000
 01124,-0.00000848,0.00000431,-0.00001376,-0.00000493,-0.00002348,0.000
 01419,0.00002405,0.00017820,-0.00003442,-0.00008276,-0.00005559,-0.000
 01034,-0.00001104,-0.00002923,0.00005452,0.00002349,0.00378459,0.00305
 743,-0.05096298,0.00169316,-0.01809048,0.00059033,0.00506051,-0.001622
 90,0.05363821,-0.04134937,0.00003266,-0.02875092,0.00074220,0.00046351
 ,0.00168386,-0.23498971,0.03541154,0.04974872,-0.02860016,0.00638013,-
 0.03002182,0.00047580,0.00690879,0.00397584,0.00363339,0.00053423,0.00
 049620,-0.00218389,-0.00062792,-0.00072410,0.00035660,0.00062767,0.000
 19756,0.00068632,-0.00018915,-0.00011118,-0.00058534,0.00000413,0.0001
 1720,0.00037715,0.00020756,0.00034111,-0.00009027,-0.00015802,-0.00003
 033,-0.06116119,-0.00040521,0.00951207,-0.00048818,-0.00781439,0.02415
 960,0.00106057,0.00178376,0.00001399,0.53953897,0.00802297,0.00676618,
 0.00823570,-0.00033664,-0.00079000,-0.00024299,0.03695930,-0.08054396,
 -0.02077608,-0.00310616,0.00754297,-0.01125219,0.00257329,-0.00544582,
 -0.00163162,-0.00355389,-0.00078568,-0.00077160,0.00045981,0.00098849,
 0.00053315,-0.00020661,-0.00038336,-0.00007887,-0.00041595,-0.00003077
 ,-0.00002733,0.00004156,-0.00007090,0.00006350,-0.00015735,-0.00007220
 ,-0.00015740,0.00005484,0.00000227,0.00001319,-0.00046826,-0.09473431,
 0.03803575,0.00372760,0.00228341,-0.01792579,-0.00038224,-0.01572019,0
 .03355515,0.00736213,0.52258283,-0.00309412,0.00348477,0.01566574,0.00
 046809,-0.00022533,-0.00084348,0.07544917,-0.02279277,-0.10964776,-0.0
 1790059,-0.00091591,-0.03550479,-0.00073325,-0.00203088,-0.00271386,-0
 .00384645,-0.00043481,-0.00069780,0.00056808,0.00038674,0.00102875,-0.
 00018632,-0.00027139,-0.00009432,-0.00047728,0.00001465,-0.00005459,0.
 00011917,0.00005252,0.00020156,-0.00005775,-0.00007062,-0.00013627,0.0
 0005352,0.00001830,-0.00000774,-0.00698024,0.03790882,-0.14400642,0.00
 033687,0.00659629,-0.00801776,-0.00041994,-0.00096856,-0.00264777,0.04
 436611,0.02109369,0.45757547,0.00298397,0.00518524,0.00512481,0.000066
 16,-0.00058803,-0.00008854,-0.02468669,0.03757364,0.00782890,0.0007027
 3,-0.00026053,-0.00027436,0.00150173,-0.00187093,0.00038747,-0.0007684
 6,-0.00062859,-0.00036721,0.00030843,0.00016272,0.00017724,-0.00018233
 ,-0.00016333,-0.00003163,-0.00008905,-0.00001010,-0.00000059,-0.000063
 93,0.00007650,0.00005277,-0.00004724,-0.00003807,-0.00005413,0.0000735
 1,-0.00004667,-0.00000222,0.00106913,-0.00064171,0.00057063,0.00034690
 ,-0.00038804,-0.00028616,0.00093254,0.00021987,0.00055443,-0.04541772,
 0.01434656,-0.00654369,0.06133277,-0.00520700,-0.00383269,-0.00571914,
 0.00040610,0.00048058,0.00022354,0.02614829,-0.00655024,-0.00875063,0.
 00097510,0.00275970,0.00052273,-0.00160500,0.00299264,0.00034361,0.001
 50314,0.00057614,0.00028177,-0.00060229,-0.00035503,-0.00030259,0.0001
 7436,0.00026913,0.00007152,0.00021100,-0.00001576,-0.00003112,-0.00020
 364,-0.00001338,0.00002438,0.00014464,0.00006945,0.00010008,-0.0000432
 0,-0.00001510,-0.00001807,-0.00148686,-0.01572210,-0.00104702,-0.00142
 735,0.00106981,0.00118082,-0.00034163,0.00039532,0.00343965,0.01502100
 ,-0.24628539,0.01063560,-0.03266886,0.27990818,-0.00148527,-0.00017416
 ,-0.00233239,0.00002771,-0.00000932,0.00015426,0.01112919,-0.01520275,
 0.00354500,0.00034230,-0.00244150,0.00233033,0.00019585,0.00010244,0.0
 0007025,0.00034533,-0.00001447,0.00007422,-0.00016281,-0.00002853,-0.0
 0008178,0.00002149,0.00004852,0.00002330,0.00005260,-0.00001037,-0.000
 00913,-0.00003157,0.00001380,-0.00000783,0.00002051,0.00001275,0.00002
 275,-0.00000115,-0.00001563,-0.00000519,-0.00042172,0.03353074,-0.0026
 0895,0.00016117,-0.00060062,0.00161796,-0.00034626,0.00343908,-0.00581
 485,-0.00361337,0.00369912,-0.05138295,-0.00474222,-0.00310681,0.05319
 179,0.00501750,-0.00115356,0.00829213,-0.00058926,0.00013484,-0.000407
 19,-0.04738607,-0.00356719,-0.01115705,0.00098072,0.00070622,-0.001133
 78,-0.00047998,-0.00176741,-0.00095587,-0.00261665,-0.00019743,-0.0003
 5418,0.00067533,0.00036172,0.00054461,-0.00012209,-0.00021752,-0.00006
 927,-0.00042268,0.00006875,0.00004032,0.00037502,-0.00013956,-0.000053
 48,-0.00017749,-0.00005856,-0.00012706,-0.00004907,0.00013732,0.000023
 79,0.00035989,-0.00308056,-0.00013260,-0.00001938,0.00027879,-0.001652
 08,0.00031402,0.00137019,-0.00019994,-0.13549220,-0.06334321,-0.079399
 58,0.00311188,-0.00263163,-0.00131314,0.17715060,0.00166663,-0.0013245
 2,0.00053058,-0.00036765,0.00020776,-0.00012002,0.00506319,0.00917686,
 0.00696312,0.00048703,0.00144607,0.00166611,-0.00129853,0.00090409,-0.
 00011222,-0.00021334,0.00010996,0.00009867,0.00021969,-0.00001881,0.00
 002150,0.00000680,-0.00002005,-0.00000905,-0.00007759,0.00005153,0.000
 03746,0.00021890,-0.00007266,-0.00008780,-0.00006792,-0.00001707,-0.00
 002805,-0.00004093,0.00007032,0.00001687,0.00749819,0.00233316,0.00688
 859,-0.00027024,0.00006013,-0.00027350,0.00040231,0.00110414,-0.000579
 61,-0.06496345,-0.09484146,-0.05417630,-0.02058062,-0.01538390,-0.0189
 1863,0.07193463,0.09623873,0.00274174,-0.00030155,-0.00303068,-0.00077
 659,0.00009853,0.00021188,0.01173432,0.00719756,0.01271766,-0.00320426
 ,0.00345008,-0.00736098,-0.00046990,-0.00058440,0.00044526,0.00005580,
 0.00002420,0.00023818,0.00013297,-0.00000818,-0.00003770,0.00000003,-0
 .00003286,-0.00000899,-0.00005020,0.00003040,0.00006643,0.00034141,-0.
 00012390,-0.00013668,-0.00012067,-0.00002714,-0.00001853,-0.00006279,0
 .00009417,0.00002677,-0.02353965,-0.01844521,-0.00897976,0.00167355,-0
 .00023561,-0.00053045,0.00021181,0.00123395,0.00162162,-0.07726450,-0.
 05087966,-0.11415980,-0.00023230,-0.00000356,0.00053897,0.08894150,0.0
 5768221,0.11803896,-0.04375788,-0.00330557,-0.00099763,-0.00456285,-0.
 01314138,-0.00915256,-0.00662012,0.01960261,-0.01371479,-0.00196059,0.
 01328969,0.00783584,0.00455424,0.00036552,0.00009814,-0.00667342,-0.01
 885393,0.00966940,0.00432190,0.00128583,0.00174799,-0.00112985,-0.0013
 1613,-0.00037912,-0.00050462,0.00012700,0.00021390,0.00040465,0.001515
 91,-0.00060466,-0.00086431,-0.00104238,-0.00046788,0.00072799,-0.00125
 488,-0.00008204,0.00067860,-0.00245708,0.00089555,-0.00057065,0.001300
 61,0.00043935,0.00143319,0.00163090,-0.00012491,0.00463829,-0.00148017
 ,-0.00124034,-0.00110777,0.00136809,0.00013405,-0.00064341,-0.00021360
 ,-0.00028390,0.13265553,0.00410881,-0.07535390,0.01196063,-0.01243584,
 -0.01018892,-0.00879850,0.02172792,-0.01611109,0.01401751,0.01483280,-
 0.01351142,-0.00991992,-0.00027825,-0.00236134,-0.00010648,-0.01833797
 ,-0.01389144,0.01002137,0.00470962,-0.00029619,0.00365067,-0.00130624,
 -0.00094977,-0.00083613,-0.00193325,0.00013806,0.00045312,0.00543551,-
 0.00461288,-0.00202765,-0.00156210,0.00065150,-0.00049787,-0.00143986,
 0.00262027,0.00012382,-0.00677298,-0.00560976,-0.00230758,0.00176123,0
 .00095713,-0.00050964,0.00185024,0.00304477,0.00017169,-0.00517739,-0.
 00002411,0.00415844,0.00146533,-0.00110826,-0.00088451,0.00215444,0.00
 013247,0.00055141,0.04394898,0.19275908,-0.00115444,-0.01077712,-0.037
 60407,-0.01606057,-0.01678039,-0.00590032,-0.01672591,0.01473680,-0.00
 324860,0.01283909,-0.01456908,-0.00246152,-0.00002594,-0.00009583,0.00
 261411,0.01469886,0.01558815,-0.00124131,-0.00490355,0.00052074,-0.004
 11566,0.00160496,0.00119955,0.00088314,0.00071406,-0.00014295,0.000344
 06,0.00486481,-0.00249190,-0.00317933,-0.00112563,0.00003662,0.0004163
 3,0.00013323,0.00082839,0.00024672,-0.00381509,-0.00179289,-0.00282970
 ,0.00091270,-0.00004955,0.00050031,-0.00033456,0.00038982,0.00003939,0
 .00512567,0.00053703,-0.00400648,-0.00161008,0.00120540,0.00083418,-0.
 00095875,-0.00010245,0.00028000,0.18872519,0.10626768,0.49689828,0.006
 13389,-0.00162448,-0.00337241,-0.00205668,-0.00277108,-0.00084247,-0.0
 0272946,-0.00093805,-0.00105982,-0.00306865,0.00195133,0.00030072,-0.0
 0079798,-0.00020860,-0.00000648,0.00118136,0.00246069,0.00144453,-0.00
 147710,-0.00016097,-0.00089449,0.00044023,0.00044424,0.00025330,0.0000
 7966,-0.00003520,0.00006245,0.00155785,-0.00063632,-0.00084480,-0.0000
 1383,0.00009927,0.00010669,0.00022097,0.00045623,0.00013829,0.00089940
 ,0.00172317,0.00085090,-0.00004350,-0.00046614,-0.00021876,-0.00037868
 ,-0.00077854,0.00029599,-0.00206457,0.00153073,0.00030357,0.00028982,-
 0.00047717,-0.00001254,0.00007077,0.00014927,-0.00003929,-0.08023658,-
 0.05295030,-0.18287290,0.08204548,-0.01185610,-0.01067454,-0.02463590,
 -0.00408148,-0.00420629,-0.00237893,-0.00389032,0.00298713,0.00134905,
 0.00257517,-0.00183900,0.00011107,0.00078918,0.00037524,0.00095455,0.0
 0244213,0.00030384,0.00167727,-0.00112540,0.00023619,-0.00077938,0.000
 31620,0.00026176,0.00017855,0.00034747,-0.00006866,0.00005653,0.001533
 37,-0.00035662,-0.00076309,-0.00045744,0.00005049,0.00013205,-0.000189
 03,0.00003623,0.00016201,-0.00033507,-0.00006316,-0.00083232,0.0001657
 5,0.00001762,0.00037421,-0.00000288,-0.00026064,0.00009790,0.00421671,
 -0.00036420,-0.00163785,-0.00114510,0.00101305,0.00046536,-0.00080911,
 -0.00017688,-0.00008958,-0.04052957,-0.05665352,-0.09543108,0.05213415
 ,0.06924473,-0.00327587,0.00063893,-0.00315857,-0.00067162,-0.00092535
 ,0.00104328,-0.00232798,0.00522075,-0.00345007,0.00148662,-0.00043761,
 0.00047652,0.00021437,-0.00011911,-0.00002998,0.00070412,0.00062810,-0
 .00081970,0.00002936,-0.00001571,-0.00006597,-0.00006023,-0.00003690,-
 0.00001756,-0.00001390,0.00004360,0.00007986,0.00099074,-0.00040514,-0
 .00032000,-0.00014360,0.00005793,0.00000488,-0.00011378,0.00029920,0.0
 0000886,-0.00093180,-0.00170850,-0.00039208,0.00001618,0.00038700,-0.0
 0000248,0.00042092,0.00080670,-0.00003888,-0.00022203,-0.00028191,-0.0
 0016457,-0.00002183,0.00012796,-0.00009511,0.00009763,0.00010295,0.000
 07229,-0.18246856,-0.12537427,-0.43843444,0.18634896,0.12101418,0.4453
 6053,0.00568162,0.00178937,0.00400747,0.00132219,-0.00244902,-0.001401
 85,-0.00292363,-0.00194430,-0.00043685,-0.00291734,0.00065673,0.001058
 64,-0.09592618,0.05726249,0.19716161,-0.00217031,0.00282454,0.00075644
 ,0.00157812,0.00065708,0.00091260,0.00021803,-0.00046235,-0.00013373,-
 0.00002179,-0.00010135,-0.00010846,-0.00151069,0.00013653,0.00085190,0
 .00008589,0.00003450,-0.00006274,0.00045327,-0.00043999,-0.00023908,-0
 .00198454,-0.00153189,-0.00035791,0.00006652,-0.00014878,0.00003975,0.
 00026854,0.00046344,0.00002317,0.00091330,-0.00162830,-0.00078502,-0.0
 0035637,0.00074290,-0.00030015,-0.00005742,0.00044722,0.00021092,-0.00
 078233,0.00019930,-0.00003115,-0.00005239,-0.00009862,-0.00005771,0.09
 811553,0.01298897,-0.01051178,-0.02413490,-0.00247926,0.00023666,0.001
 58299,-0.00257598,-0.00188284,0.00001026,0.00376671,0.00302766,0.00152
 291,0.04368846,-0.05549091,-0.09152301,0.00417036,-0.00411759,-0.00222
 438,-0.00148085,-0.00036340,-0.00080330,0.00018463,0.00003410,0.000165
 98,0.00045446,0.00005284,0.00014564,0.00111958,0.00024636,-0.00072904,
 -0.00034602,-0.00007063,0.00004452,-0.00031507,0.00025153,0.00016367,-
 0.00414887,-0.00043477,-0.00180278,0.00081278,-0.00016366,-0.00005663,
 0.00111096,0.00103467,0.00051016,0.00038171,-0.00007382,-0.00082542,0.
 00000072,-0.00025214,0.00009549,-0.00018115,0.00002014,0.00036916,-0.0
 0084044,0.00036935,0.00092308,0.00009778,0.00013725,-0.00002282,-0.056
 40951,0.06795098,0.00361703,0.00076094,-0.00292111,-0.00063354,0.00052
 610,-0.00089141,-0.00160502,-0.00053408,0.00040011,0.00229905,0.005292
 99,-0.00329429,0.19706396,-0.12099012,-0.42394669,0.00057258,-0.000825
 76,0.00108971,-0.00091628,-0.00039037,-0.00032208,0.00011812,0.0002823
 7,0.00000804,0.00014410,0.00005373,0.00000617,-0.00008000,-0.00001120,
 -0.00003777,0.00001315,0.00004469,0.00007830,0.00007749,-0.00005233,-0
 .00002399,0.00014745,-0.00033143,-0.00018238,-0.00009657,0.00009494,0.
 00007006,0.00003777,0.00014891,-0.00009011,0.00100032,-0.00174083,-0.0
 0038516,-0.00044128,0.00082187,-0.00006484,-0.00002600,0.00039956,0.00
 000553,-0.00024304,-0.00011379,-0.00003509,0.00005858,-0.00002460,-0.0
 0005682,-0.20110784,0.11658841,0.43059383\\0.00013899,-0.00010260,-0.0
 0035149,-0.00012072,0.00000726,0.00012448,-0.00005484,0.00006955,0.000
 16701,0.00001037,-0.00002066,0.00002572,0.00000431,-0.00003002,0.00001
 122,0.00005476,0.00001066,-0.00004360,0.00000413,-0.00000780,-0.000004
 70,-0.00000137,0.00000421,0.00001408,-0.00000658,0.00000781,-0.0000051
 8,0.00001021,0.00000540,0.00000685,0.00000403,0.00000381,-0.00000025,-
 0.00003717,0.00001765,0.00003326,0.00001039,-0.00001569,-0.00002834,-0
 .00000317,0.00000629,-0.00000690,-0.00000983,0.00001022,0.00006591,-0.
 00005235,0.00000859,0.00000861,0.00000716,-0.00000462,0.00001256,0.000
 01933,0.00000484,-0.00000161,-0.00000512,0.00001567,-0.00001870,0.0000
 2970,0.00000976,-0.00001224,-0.00000225,-0.00000035,0.00000332\\\@
 The archive entry for this job was punched.


 IT IS A QUALITY OF REVOLUTIONS NOT TO GO BY OLD LINES OR OLD LAWS,
 BUT TO BREAK UP BOTH, AND MAKE NEW ONES.
                                              -- A. LINCOLN (1848)
 Job cpu time:       0 days  5 hours 34 minutes 15.8 seconds.
 Elapsed time:       0 days  1 hours 23 minutes 41.1 seconds.
 File lengths (MBytes):  RWF=    424 Int=      0 D2E=      0 Chk=     20 Scr=      1
 Normal termination of Gaussian 16 at Sat Mar 30 07:22:14 2024.
