 Entering Gaussian System, Link 0=/opt/software/gaussian/g16.c01/g16
 Initial command:
 /opt/software/gaussian/g16.c01/l1.exe "/scratch/arhender/16037662/Gau-163874.inp" -scrdir="/scratch/arhender/16037662/"
 Entering Link 1 = /opt/software/gaussian/g16.c01/l1.exe PID=    163882.
  
 Copyright (c) 1988-2019, Gaussian, Inc.  All Rights Reserved.
  
 This is part of the Gaussian(R) 16 program.  It is based on
 the Gaussian(R) 09 system (copyright 2009, Gaussian, Inc.),
 the Gaussian(R) 03 system (copyright 2003, Gaussian, Inc.),
 the Gaussian(R) 98 system (copyright 1998, Gaussian, Inc.),
 the Gaussian(R) 94 system (copyright 1995, Gaussian, Inc.),
 the Gaussian 92(TM) system (copyright 1992, Gaussian, Inc.),
 the Gaussian 90(TM) system (copyright 1990, Gaussian, Inc.),
 the Gaussian 88(TM) system (copyright 1988, Gaussian, Inc.),
 the Gaussian 86(TM) system (copyright 1986, Carnegie Mellon
 University), and the Gaussian 82(TM) system (copyright 1983,
 Carnegie Mellon University). Gaussian is a federally registered
 trademark of Gaussian, Inc.
  
 This software contains proprietary and confidential information,
 including trade secrets, belonging to Gaussian, Inc.
  
 This software is provided under written license and may be
 used, copied, transmitted, or stored only in accord with that
 written license.
  
 The following legend is applicable only to US Government
 contracts under FAR:
  
                    RESTRICTED RIGHTS LEGEND
  
 Use, reproduction and disclosure by the US Government is
 subject to restrictions as set forth in subparagraphs (a)
 and (c) of the Commercial Computer Software - Restricted
 Rights clause in FAR 52.227-19.
  
 Gaussian, Inc.
 340 Quinnipiac St., Bldg. 40, Wallingford CT 06492
  
  
 ---------------------------------------------------------------
 Warning -- This program may not be used in any manner that
 competes with the business of Gaussian, Inc. or will provide
 assistance to any competitor of Gaussian, Inc.  The licensee
 of this program is prohibited from giving any competitor of
 Gaussian, Inc. access to this program.  By using this program,
 the user acknowledges that Gaussian, Inc. is engaged in the
 business of creating and licensing software in the field of
 computational chemistry and represents and warrants to the
 licensee that it is not a competitor of Gaussian, Inc. and that
 it will not use this program in any manner prohibited above.
 ---------------------------------------------------------------
  

 Cite this work as:
 Gaussian 16, Revision C.01,
 M. J. Frisch, G. W. Trucks, H. B. Schlegel, G. E. Scuseria, 
 M. A. Robb, J. R. Cheeseman, G. Scalmani, V. Barone, 
 G. A. Petersson, H. Nakatsuji, X. Li, M. Caricato, A. V. Marenich, 
 J. Bloino, B. G. Janesko, R. Gomperts, B. Mennucci, H. P. Hratchian, 
 J. V. Ortiz, A. F. Izmaylov, J. L. Sonnenberg, D. Williams-Young, 
 F. Ding, F. Lipparini, F. Egidi, J. Goings, B. Peng, A. Petrone, 
 T. Henderson, D. Ranasinghe, V. G. Zakrzewski, J. Gao, N. Rega, 
 G. Zheng, W. Liang, M. Hada, M. Ehara, K. Toyota, R. Fukuda, 
 J. Hasegawa, M. Ishida, T. Nakajima, Y. Honda, O. Kitao, H. Nakai, 
 T. Vreven, K. Throssell, J. A. Montgomery, Jr., J. E. Peralta, 
 F. Ogliaro, M. J. Bearpark, J. J. Heyd, E. N. Brothers, K. N. Kudin, 
 V. N. Staroverov, T. A. Keith, R. Kobayashi, J. Normand, 
 K. Raghavachari, A. P. Rendell, J. C. Burant, S. S. Iyengar, 
 J. Tomasi, M. Cossi, J. M. Millam, M. Klene, C. Adamo, R. Cammi, 
 J. W. Ochterski, R. L. Martin, K. Morokuma, O. Farkas, 
 J. B. Foresman, and D. J. Fox, Gaussian, Inc., Wallingford CT, 2019.
 
 ******************************************
 Gaussian 16:  ES64L-G16RevC.01  3-Jul-2019
                22-Oct-2023 
 ******************************************
 %chk=SiAttackIRCReactantOpt.chk
 %mem=8GB
 %nprocs=16
 Will use up to   16 processors via shared memory.
 ---------------------------------------------
 # opt freq wb97xd/Def2TZVPP geom=connectivity
 ---------------------------------------------
 1/18=20,19=15,26=3,38=1,57=2/1,3;
 2/9=110,12=2,17=6,18=5,40=1/2;
 3/5=44,7=202,11=2,25=1,30=1,71=1,74=-58/1,2,3;
 4//1;
 5/5=2,38=5/2;
 6/7=2,8=2,9=2,10=2,28=1/1;
 7//1,2,3,16;
 1/18=20,19=15,26=3/3(2);
 2/9=110/2;
 99//99;
 2/9=110/2;
 3/5=44,7=202,11=2,25=1,30=1,71=1,74=-58/1,2,3;
 4/5=5,16=3,69=1/1;
 5/5=2,38=5/2;
 7//1,2,3,16;
 1/18=20,19=15,26=3/3(-5);
 2/9=110/2;
 6/7=2,8=2,9=2,10=2,19=2,28=1/1;
 99/9=1/99;
 ----------------------------------------------------------
 SiOH4 attack IRC reactant optiminization back to a minimum
 ----------------------------------------------------------
 Symbolic Z-matrix:
 Charge =  0 Multiplicity = 1
 C                    -2.16958   1.00998   0. 
 H                    -3.13713   1.26176   0.41946 
 H                    -1.38982   1.3423    0.68902 
 C                    -1.98002  -0.4603   -0.33696 
 H                    -2.75247  -0.81992  -1.00105 
 H                    -1.87913  -1.1179    0.52311 
 O                    -1.98457   1.63652  -1.26676 
 H                    -1.28117   1.07343  -1.63061 
 O                    -0.71822  -0.38531  -1.0836 
 H                    -0.7042   -1.05718  -1.7622 
 Si                   -5.2565    0.33253  -0.92674 
 O                    -5.91968   1.6042   -0.12797 
 H                    -6.58338   1.37216   0.51778 
 O                    -4.20556   0.82744  -2.0204 
 H                    -3.32754   1.24674  -1.82946 
 O                    -4.54837  -0.62083   0.24625 
 H                    -4.99796  -1.45463   0.36262 
 O                    -6.44187  -0.69276  -1.44196 
 H                    -6.75004  -0.61941  -2.34174 
 
 Add virtual bond connecting atoms H15        and O7         Dist= 2.85D+00.

 GradGradGradGradGradGradGradGradGradGradGradGradGradGradGradGradGradGrad
 Berny optimization.
 Initialization pass.
                           ----------------------------
                           !    Initial Parameters    !
                           ! (Angstroms and Degrees)  !
 --------------------------                            --------------------------
 ! Name  Definition              Value          Derivative Info.                !
 --------------------------------------------------------------------------------
 ! R1    R(1,2)                  1.0842         estimate D2E/DX2                !
 ! R2    R(1,3)                  1.0923         estimate D2E/DX2                !
 ! R3    R(1,4)                  1.5203         estimate D2E/DX2                !
 ! R4    R(1,7)                  1.4253         estimate D2E/DX2                !
 ! R5    R(4,5)                  1.0803         estimate D2E/DX2                !
 ! R6    R(4,6)                  1.0874         estimate D2E/DX2                !
 ! R7    R(4,9)                  1.4681         estimate D2E/DX2                !
 ! R8    R(7,8)                  0.9717         estimate D2E/DX2                !
 ! R9    R(7,15)                 1.5074         estimate D2E/DX2                !
 ! R10   R(9,10)                 0.955          estimate D2E/DX2                !
 ! R11   R(11,12)                1.6416         estimate D2E/DX2                !
 ! R12   R(11,14)                1.5955         estimate D2E/DX2                !
 ! R13   R(11,16)                1.6692         estimate D2E/DX2                !
 ! R14   R(11,18)                1.6498         estimate D2E/DX2                !
 ! R15   R(12,13)                0.9546         estimate D2E/DX2                !
 ! R16   R(14,15)                0.9916         estimate D2E/DX2                !
 ! R17   R(16,17)                0.9544         estimate D2E/DX2                !
 ! R18   R(18,19)                0.9539         estimate D2E/DX2                !
 ! A1    A(2,1,3)              108.805          estimate D2E/DX2                !
 ! A2    A(2,1,4)              114.9367         estimate D2E/DX2                !
 ! A3    A(2,1,7)              110.9528         estimate D2E/DX2                !
 ! A4    A(3,1,4)              110.1839         estimate D2E/DX2                !
 ! A5    A(3,1,7)              109.5249         estimate D2E/DX2                !
 ! A6    A(4,1,7)              102.2373         estimate D2E/DX2                !
 ! A7    A(1,4,5)              111.6568         estimate D2E/DX2                !
 ! A8    A(1,4,6)              114.9068         estimate D2E/DX2                !
 ! A9    A(1,4,9)               99.8163         estimate D2E/DX2                !
 ! A10   A(5,4,6)              110.5644         estimate D2E/DX2                !
 ! A11   A(5,4,9)              108.5984         estimate D2E/DX2                !
 ! A12   A(6,4,9)              110.6967         estimate D2E/DX2                !
 ! A13   A(1,7,8)               99.9054         estimate D2E/DX2                !
 ! A14   A(1,7,15)              95.881          estimate D2E/DX2                !
 ! A15   A(8,7,15)             110.8116         estimate D2E/DX2                !
 ! A16   A(4,9,10)             109.7585         estimate D2E/DX2                !
 ! A17   A(12,11,14)           111.0599         estimate D2E/DX2                !
 ! A18   A(12,11,16)           105.7763         estimate D2E/DX2                !
 ! A19   A(12,11,18)           110.0665         estimate D2E/DX2                !
 ! A20   A(14,11,16)           112.2981         estimate D2E/DX2                !
 ! A21   A(14,11,18)           116.8711         estimate D2E/DX2                !
 ! A22   A(16,11,18)            99.7485         estimate D2E/DX2                !
 ! A23   A(11,12,13)           114.9423         estimate D2E/DX2                !
 ! A24   A(11,14,15)           125.6232         estimate D2E/DX2                !
 ! A25   A(11,16,17)           112.6324         estimate D2E/DX2                !
 ! A26   A(11,18,19)           118.6139         estimate D2E/DX2                !
 ! A27   L(7,15,14,5,-1)       167.706          estimate D2E/DX2                !
 ! A28   L(7,15,14,5,-2)       173.2195         estimate D2E/DX2                !
 ! D1    D(2,1,4,5)             55.3991         estimate D2E/DX2                !
 ! D2    D(2,1,4,6)            -71.5473         estimate D2E/DX2                !
 ! D3    D(2,1,4,9)            170.0418         estimate D2E/DX2                !
 ! D4    D(3,1,4,5)            178.7437         estimate D2E/DX2                !
 ! D5    D(3,1,4,6)             51.7973         estimate D2E/DX2                !
 ! D6    D(3,1,4,9)            -66.6136         estimate D2E/DX2                !
 ! D7    D(7,1,4,5)            -64.8909         estimate D2E/DX2                !
 ! D8    D(7,1,4,6)            168.1627         estimate D2E/DX2                !
 ! D9    D(7,1,4,9)             49.7518         estimate D2E/DX2                !
 ! D10   D(2,1,7,8)           -159.8979         estimate D2E/DX2                !
 ! D11   D(2,1,7,15)           -47.529          estimate D2E/DX2                !
 ! D12   D(3,1,7,8)             79.9685         estimate D2E/DX2                !
 ! D13   D(3,1,7,15)          -167.6626         estimate D2E/DX2                !
 ! D14   D(4,1,7,8)            -36.872          estimate D2E/DX2                !
 ! D15   D(4,1,7,15)            75.4969         estimate D2E/DX2                !
 ! D16   D(1,4,9,10)          -147.4933         estimate D2E/DX2                !
 ! D17   D(5,4,9,10)           -30.5319         estimate D2E/DX2                !
 ! D18   D(6,4,9,10)            91.023          estimate D2E/DX2                !
 ! D19   D(1,7,14,11)           17.3097         estimate D2E/DX2                !
 ! D20   D(8,7,14,11)          118.0956         estimate D2E/DX2                !
 ! D21   D(14,11,12,13)        177.7247         estimate D2E/DX2                !
 ! D22   D(16,11,12,13)        -60.1827         estimate D2E/DX2                !
 ! D23   D(18,11,12,13)         46.7067         estimate D2E/DX2                !
 ! D24   D(12,11,14,15)         68.9182         estimate D2E/DX2                !
 ! D25   D(16,11,14,15)        -49.2981         estimate D2E/DX2                !
 ! D26   D(18,11,14,15)       -163.6885         estimate D2E/DX2                !
 ! D27   D(12,11,16,17)        111.2897         estimate D2E/DX2                !
 ! D28   D(14,11,16,17)       -127.4148         estimate D2E/DX2                !
 ! D29   D(18,11,16,17)         -2.9342         estimate D2E/DX2                !
 ! D30   D(12,11,18,19)         97.2856         estimate D2E/DX2                !
 ! D31   D(14,11,18,19)        -30.5911         estimate D2E/DX2                !
 ! D32   D(16,11,18,19)       -151.8319         estimate D2E/DX2                !
 --------------------------------------------------------------------------------
 Trust Radius=3.00D-01 FncErr=1.00D-07 GrdErr=1.00D-06 EigMax=2.50D+02 EigMin=1.00D-04
 Number of steps in this run=     88 maximum allowed number of steps=    114.
 GradGradGradGradGradGradGradGradGradGradGradGradGradGradGradGradGradGrad

                          Input orientation:                          
 ---------------------------------------------------------------------
 Center     Atomic      Atomic             Coordinates (Angstroms)
 Number     Number       Type             X           Y           Z
 ---------------------------------------------------------------------
      1          6           0       -2.169576    1.009975    0.000000
      2          1           0       -3.137127    1.261762    0.419455
      3          1           0       -1.389825    1.342299    0.689020
      4          6           0       -1.980024   -0.460299   -0.336959
      5          1           0       -2.752473   -0.819917   -1.001046
      6          1           0       -1.879132   -1.117900    0.523107
      7          8           0       -1.984566    1.636520   -1.266756
      8          1           0       -1.281175    1.073426   -1.630611
      9          8           0       -0.718224   -0.385309   -1.083602
     10          1           0       -0.704200   -1.057182   -1.762195
     11         14           0       -5.256504    0.332527   -0.926739
     12          8           0       -5.919679    1.604195   -0.127967
     13          1           0       -6.583380    1.372161    0.517776
     14          8           0       -4.205558    0.827436   -2.020403
     15          1           0       -3.327540    1.246742   -1.829462
     16          8           0       -4.548374   -0.620830    0.246247
     17          1           0       -4.997956   -1.454635    0.362618
     18          8           0       -6.441873   -0.692757   -1.441963
     19          1           0       -6.750040   -0.619406   -2.341741
 ---------------------------------------------------------------------
                    Distance matrix (angstroms):
                    1          2          3          4          5
     1  C    0.000000
     2  H    1.084202   0.000000
     3  H    1.092337   1.769807   0.000000
     4  C    1.520256   2.208290   2.156462   0.000000
     5  H    2.165725   2.549347   3.064035   1.080284   0.000000
     6  H    2.210396   2.693712   2.513867   1.087351   1.781730
     7  O    1.425292   2.076571   2.065271   2.293729   2.587347
     8  H    1.858003   2.771786   2.337688   2.124674   2.479076
     9  O    2.286358   3.289850   2.564735   1.468073   2.081795
    10  H    3.086389   4.007023   3.498006   2.003820   2.197968
    11  Si   3.293464   2.677214   4.310629   3.422241   2.757502
    12  O    3.799045   2.856489   4.610383   4.452718   4.082864
    13  H    4.458804   3.449422   5.196463   5.027859   4.667748
    14  O    2.874121   2.698720   3.941371   3.073312   2.421635
    15  H    2.178043   2.257014   3.179091   2.637680   2.299577
    16  O    2.894623   2.359189   3.745178   2.638621   2.195595
    17  H    3.769022   3.293133   4.576897   3.253617   2.702710
    18  O    4.819863   4.266892   5.848567   4.602517   3.717829
    19  H    5.396229   4.920989   6.462639   5.176632   4.221162
                    6          7          8          9         10
     6  H    0.000000
     7  O    3.286572   0.000000
     8  H    3.130170   0.971712   0.000000
     9  O    2.113270   2.392689   1.656515   0.000000
    10  H    2.570361   3.023380   2.211268   0.955038   0.000000
    11  Si   3.951257   3.538586   4.104584   4.597378   4.832468
    12  O    4.915254   4.096706   4.904628   5.650354   6.079050
    13  H    5.322629   4.939993   5.728716   6.328757   6.757569
    14  O    3.958034   2.481009   2.960484   3.809179   3.984716
    15  H    3.636482   1.507363   2.063296   3.166769   3.492063
    16  O    2.729209   3.736030   4.131306   4.061283   4.359119
    17  H    3.141052   4.614176   4.917165   4.642318   4.807197
    18  O    4.986066   5.032277   5.457820   5.743092   5.758146
    19  H    5.672882   5.380942   5.768871   6.166078   6.089311
                   11         12         13         14         15
    11  Si   0.000000
    12  O    1.641639   0.000000
    13  H    2.219924   0.954632   0.000000
    14  O    1.595470   2.668872   3.520386   0.000000
    15  H    2.317671   3.121225   4.015688   0.991560   0.000000
    16  O    1.669202   2.640312   2.861292   2.711586   3.047430
    17  H    2.218837   3.232134   3.244753   3.393307   3.859137
    18  O    1.649777   2.697269   2.850349   2.765264   3.689293
    19  H    2.266949   3.245720   3.488689   2.944656   3.931723
                   16         17         18         19
    16  O    0.000000
    17  H    0.954409   0.000000
    18  O    2.537827   2.433489   0.000000
    19  H    3.397796   3.328808   0.953912   0.000000
 Stoichiometry    C2H10O6Si
 Framework group  C1[X(C2H10O6Si)]
 Deg. of freedom    51
 Full point group                 C1      NOp   1
 Largest Abelian subgroup         C1      NOp   1
 Largest concise Abelian subgroup C1      NOp   1
                         Standard orientation:                         
 ---------------------------------------------------------------------
 Center     Atomic      Atomic             Coordinates (Angstroms)
 Number     Number       Type             X           Y           Z
 ---------------------------------------------------------------------
      1          6           0        1.675455    0.599612    0.824236
      2          1           0        0.714184    0.829832    1.269715
      3          1           0        2.464461    0.873567    1.528238
      4          6           0        1.846805   -0.844206    0.380160
      5          1           0        1.065028   -1.147258   -0.301015
      6          1           0        1.948156   -1.563275    1.189481
      7          8           0        1.856196    1.314342   -0.395580
      8          1           0        2.550560    0.772205   -0.805664
      9          8           0        3.102918   -0.727722   -0.370739
     10          1           0        3.104167   -1.348833   -1.096216
     11         14           0       -1.426138    0.021210   -0.120475
     12          8           0       -2.069207    1.238164    0.774210
     13          1           0       -2.729771    0.966510    1.407600
     14          8           0       -0.379438    0.583665   -1.185175
     15          1           0        0.504494    0.979452   -0.972551
     16          8           0       -0.718022   -1.021405    0.973947
     17          1           0       -1.175260   -1.857010    1.033902
     18          8           0       -2.626465   -0.952467   -0.697476
     19          1           0       -2.941497   -0.811189   -1.586714
 ---------------------------------------------------------------------
 Rotational constants (GHZ):           2.4325659           0.7663974           0.7225233
 Standard basis: def2TZVPP (5D, 7F)
 There are   486 symmetry adapted cartesian basis functions of A   symmetry.
 There are   430 symmetry adapted basis functions of A   symmetry.
   430 basis functions,   647 primitive gaussians,   486 cartesian basis functions
    42 alpha electrons       42 beta electrons
       nuclear repulsion energy       646.6994866306 Hartrees.
 NAtoms=   19 NActive=   19 NUniq=   19 SFac= 1.00D+00 NAtFMM=   60 NAOKFM=F Big=F
 Integral buffers will be    131072 words long.
 Raffenetti 2 integral format.
 Two-electron integral symmetry is turned on.
 Nuclear repulsion after empirical dispersion term =      646.6888146620 Hartrees.
 One-electron integrals computed using PRISM.
   1 Symmetry operations used in ECPInt.
 ECPInt:  NShTT=   13203 NPrTT=   36019 LenC2=   12520 LenP2D=   26839.
 LDataN:  DoStor=T MaxTD1= 6 Len=  172
 NBasis=   430 RedAO= T EigKep=  2.06D-04  NBF=   430
 NBsUse=   430 1.00D-06 EigRej= -1.00D+00 NBFU=   430
 ExpMin= 7.01D-02 ExpMax= 4.48D+04 ExpMxC= 1.53D+03 IAcc=3 IRadAn=         5 AccDes= 0.00D+00
 Harris functional with IExCor= 4639 and IRadAn=       5 diagonalized for initial guess.
 HarFok:  IExCor= 4639 AccDes= 0.00D+00 IRadAn=         5 IDoV= 1 UseB2=F ITyADJ=14
 ICtDFT=  3500011 ScaDFX=  1.000000  1.000000  1.000000  1.000000
 FoFCou: FMM=F IPFlag=           0 FMFlag=      100000 FMFlg1=           0
         NFxFlg=           0 DoJE=T BraDBF=F KetDBF=T FulRan=T
         wScrn=  0.000000 ICntrl=       500 IOpCl=  0 I1Cent=   200000004 NGrid=           0
         NMat0=    1 NMatS0=      1 NMatT0=    0 NMatD0=    1 NMtDS0=    0 NMtDT0=    0
 Petite list used in FoFCou.
 Requested convergence on RMS density matrix=1.00D-08 within 128 cycles.
 Requested convergence on MAX density matrix=1.00D-06.
 Requested convergence on             energy=1.00D-06.
 No special actions if energy rises.
 Integral accuracy reduced to 1.0D-05 until final iterations.
 Initial convergence to 1.0D-05 achieved.  Increase integral accuracy.
 SCF Done:  E(RwB97XD) =  -823.342570623     A.U. after   13 cycles
            NFock= 13  Conv=0.72D-08     -V/T= 2.0032

 **********************************************************************

            Population analysis using the SCF Density.

 **********************************************************************

 Orbital symmetries:
       Occupied  (A) (A) (A) (A) (A) (A) (A) (A) (A) (A) (A) (A)
                 (A) (A) (A) (A) (A) (A) (A) (A) (A) (A) (A) (A)
                 (A) (A) (A) (A) (A) (A) (A) (A) (A) (A) (A) (A)
                 (A) (A) (A) (A) (A) (A)
       Virtual   (A) (A) (A) (A) (A) (A) (A) (A) (A) (A) (A) (A)
                 (A) (A) (A) (A) (A) (A) (A) (A) (A) (A) (A) (A)
                 (A) (A) (A) (A) (A) (A) (A) (A) (A) (A) (A) (A)
                 (A) (A) (A) (A) (A) (A) (A) (A) (A) (A) (A) (A)
                 (A) (A) (A) (A) (A) (A) (A) (A) (A) (A) (A) (A)
                 (A) (A) (A) (A) (A) (A) (A) (A) (A) (A) (A) (A)
                 (A) (A) (A) (A) (A) (A) (A) (A) (A) (A) (A) (A)
                 (A) (A) (A) (A) (A) (A) (A) (A) (A) (A) (A) (A)
                 (A) (A) (A) (A) (A) (A) (A) (A) (A) (A) (A) (A)
                 (A) (A) (A) (A) (A) (A) (A) (A) (A) (A) (A) (A)
                 (A) (A) (A) (A) (A) (A) (A) (A) (A) (A) (A) (A)
                 (A) (A) (A) (A) (A) (A) (A) (A) (A) (A) (A) (A)
                 (A) (A) (A) (A) (A) (A) (A) (A) (A) (A) (A) (A)
                 (A) (A) (A) (A) (A) (A) (A) (A) (A) (A) (A) (A)
                 (A) (A) (A) (A) (A) (A) (A) (A) (A) (A) (A) (A)
                 (A) (A) (A) (A) (A) (A) (A) (A) (A) (A) (A) (A)
                 (A) (A) (A) (A) (A) (A) (A) (A) (A) (A) (A) (A)
                 (A) (A) (A) (A) (A) (A) (A) (A) (A) (A) (A) (A)
                 (A) (A) (A) (A) (A) (A) (A) (A) (A) (A) (A) (A)
                 (A) (A) (A) (A) (A) (A) (A) (A) (A) (A) (A) (A)
                 (A) (A) (A) (A) (A) (A) (A) (A) (A) (A) (A) (A)
                 (A) (A) (A) (A) (A) (A) (A) (A) (A) (A) (A) (A)
                 (A) (A) (A) (A) (A) (A) (A) (A) (A) (A) (A) (A)
                 (A) (A) (A) (A) (A) (A) (A) (A) (A) (A) (A) (A)
                 (A) (A) (A) (A) (A) (A) (A) (A) (A) (A) (A) (A)
                 (A) (A) (A) (A) (A) (A) (A) (A) (A) (A) (A) (A)
                 (A) (A) (A) (A) (A) (A) (A) (A) (A) (A) (A) (A)
                 (A) (A) (A) (A) (A) (A) (A) (A) (A) (A) (A) (A)
                 (A) (A) (A) (A) (A) (A) (A) (A) (A) (A) (A) (A)
                 (A) (A) (A) (A) (A) (A) (A) (A) (A) (A) (A) (A)
                 (A) (A) (A) (A) (A) (A) (A) (A) (A) (A) (A) (A)
                 (A) (A) (A) (A) (A) (A) (A) (A) (A) (A) (A) (A)
                 (A) (A) (A) (A)
 The electronic state is 1-A.
 Alpha  occ. eigenvalues --  -66.30141 -19.27450 -19.25716 -19.25121 -19.23851
 Alpha  occ. eigenvalues --  -19.23663 -19.22485 -10.33712 -10.33427  -5.41821
 Alpha  occ. eigenvalues --   -3.76406  -3.76298  -3.76238  -1.17198  -1.12988
 Alpha  occ. eigenvalues --   -1.12017  -1.09264  -1.08643  -1.07586  -0.84645
 Alpha  occ. eigenvalues --   -0.72731  -0.67455  -0.65205  -0.62034  -0.60468
 Alpha  occ. eigenvalues --   -0.59806  -0.58115  -0.57698  -0.51815  -0.50283
 Alpha  occ. eigenvalues --   -0.48277  -0.47190  -0.46800  -0.45536  -0.44242
 Alpha  occ. eigenvalues --   -0.43308  -0.42470  -0.41738  -0.40288  -0.39201
 Alpha  occ. eigenvalues --   -0.38421  -0.37489
 Alpha virt. eigenvalues --    0.08602   0.09866   0.13243   0.13912   0.15427
 Alpha virt. eigenvalues --    0.16773   0.18321   0.18974   0.19978   0.21083
 Alpha virt. eigenvalues --    0.21763   0.23921   0.24489   0.25768   0.26974
 Alpha virt. eigenvalues --    0.27365   0.29890   0.30657   0.31483   0.32622
 Alpha virt. eigenvalues --    0.33582   0.34840   0.38924   0.39531   0.39829
 Alpha virt. eigenvalues --    0.42726   0.43004   0.44551   0.45160   0.45879
 Alpha virt. eigenvalues --    0.46957   0.47279   0.47731   0.49785   0.50022
 Alpha virt. eigenvalues --    0.51898   0.52083   0.53210   0.54158   0.55408
 Alpha virt. eigenvalues --    0.55751   0.56695   0.57907   0.58297   0.58736
 Alpha virt. eigenvalues --    0.59675   0.61054   0.61793   0.63690   0.65152
 Alpha virt. eigenvalues --    0.65637   0.67612   0.68627   0.70220   0.70596
 Alpha virt. eigenvalues --    0.73604   0.74148   0.75416   0.75829   0.76962
 Alpha virt. eigenvalues --    0.79649   0.80083   0.80981   0.83334   0.84358
 Alpha virt. eigenvalues --    0.85229   0.88184   0.89908   0.91165   0.92165
 Alpha virt. eigenvalues --    0.92295   0.93927   0.95296   0.96648   0.97629
 Alpha virt. eigenvalues --    0.99645   1.01921   1.02874   1.05258   1.06052
 Alpha virt. eigenvalues --    1.06800   1.08707   1.10183   1.12005   1.12812
 Alpha virt. eigenvalues --    1.14635   1.16433   1.17261   1.19109   1.20201
 Alpha virt. eigenvalues --    1.22011   1.22874   1.23552   1.24181   1.26418
 Alpha virt. eigenvalues --    1.28967   1.29715   1.30937   1.32376   1.34099
 Alpha virt. eigenvalues --    1.35634   1.36289   1.36770   1.39196   1.40066
 Alpha virt. eigenvalues --    1.44333   1.45733   1.47792   1.48776   1.49577
 Alpha virt. eigenvalues --    1.50115   1.53660   1.54140   1.55560   1.57242
 Alpha virt. eigenvalues --    1.60398   1.62830   1.64533   1.66901   1.67920
 Alpha virt. eigenvalues --    1.69578   1.73397   1.77242   1.78869   1.81353
 Alpha virt. eigenvalues --    1.82263   1.85275   1.86398   1.89336   1.91305
 Alpha virt. eigenvalues --    1.91843   1.93827   1.94701   1.98416   1.98758
 Alpha virt. eigenvalues --    2.00741   2.03715   2.04558   2.05980   2.07953
 Alpha virt. eigenvalues --    2.09068   2.11258   2.13107   2.16061   2.18272
 Alpha virt. eigenvalues --    2.19504   2.20903   2.21264   2.23064   2.24940
 Alpha virt. eigenvalues --    2.25955   2.27722   2.29083   2.29911   2.32318
 Alpha virt. eigenvalues --    2.36158   2.36693   2.39716   2.44951   2.49071
 Alpha virt. eigenvalues --    2.53361   2.59209   2.59530   2.64321   2.65838
 Alpha virt. eigenvalues --    2.66944   2.71585   2.72876   2.75975   2.80074
 Alpha virt. eigenvalues --    2.81401   2.82268   2.85660   2.87235   2.88330
 Alpha virt. eigenvalues --    2.89610   2.92555   2.93246   2.94900   2.98712
 Alpha virt. eigenvalues --    3.01137   3.02690   3.03944   3.05593   3.07358
 Alpha virt. eigenvalues --    3.08359   3.09214   3.10442   3.12660   3.13914
 Alpha virt. eigenvalues --    3.17406   3.19923   3.24773   3.25755   3.27523
 Alpha virt. eigenvalues --    3.29989   3.31011   3.32193   3.33509   3.35778
 Alpha virt. eigenvalues --    3.36379   3.37718   3.38834   3.39708   3.41604
 Alpha virt. eigenvalues --    3.42475   3.42660   3.43945   3.45552   3.46811
 Alpha virt. eigenvalues --    3.47662   3.48869   3.53298   3.55720   3.57538
 Alpha virt. eigenvalues --    3.58152   3.61700   3.63217   3.64209   3.66155
 Alpha virt. eigenvalues --    3.66962   3.69507   3.71485   3.74438   3.75871
 Alpha virt. eigenvalues --    3.77072   3.77833   3.80629   3.81436   3.82392
 Alpha virt. eigenvalues --    3.83123   3.87344   3.87793   3.90848   3.93375
 Alpha virt. eigenvalues --    3.95178   3.96506   3.97165   3.99145   4.02601
 Alpha virt. eigenvalues --    4.04016   4.06468   4.07623   4.09223   4.10795
 Alpha virt. eigenvalues --    4.11131   4.11909   4.12795   4.16574   4.17542
 Alpha virt. eigenvalues --    4.17965   4.19409   4.20170   4.20980   4.23645
 Alpha virt. eigenvalues --    4.24114   4.25302   4.28987   4.30843   4.33139
 Alpha virt. eigenvalues --    4.33538   4.36612   4.37390   4.38348   4.41931
 Alpha virt. eigenvalues --    4.43804   4.45015   4.46577   4.54113   4.55851
 Alpha virt. eigenvalues --    4.58213   4.64192   4.66350   4.66666   4.71863
 Alpha virt. eigenvalues --    4.73953   4.76338   4.77690   4.82427   4.87285
 Alpha virt. eigenvalues --    4.89714   4.91461   4.92890   4.96028   4.98339
 Alpha virt. eigenvalues --    5.01471   5.02127   5.03826   5.06545   5.08474
 Alpha virt. eigenvalues --    5.09774   5.10567   5.16718   5.18739   5.23812
 Alpha virt. eigenvalues --    5.27128   5.29150   5.30449   5.32982   5.33807
 Alpha virt. eigenvalues --    5.37528   5.38220   5.42784   5.43537   5.46117
 Alpha virt. eigenvalues --    5.46538   5.48796   5.49228   5.54193   5.54740
 Alpha virt. eigenvalues --    5.56383   5.56908   5.59081   5.62956   5.67988
 Alpha virt. eigenvalues --    5.70373   5.72838   5.76156   5.77953   5.80638
 Alpha virt. eigenvalues --    5.86069   5.87630   5.92440   5.98157   6.03559
 Alpha virt. eigenvalues --    6.14169   6.18500   6.24213   6.49138   6.50612
 Alpha virt. eigenvalues --    6.52852   6.55687   6.59597   6.61187   6.61620
 Alpha virt. eigenvalues --    6.64145   6.66559   6.67602   6.68078   6.69680
 Alpha virt. eigenvalues --    6.70205   6.71437   6.71894   6.72650   6.73371
 Alpha virt. eigenvalues --    6.75083   6.76996   6.77355   6.79972   6.80189
 Alpha virt. eigenvalues --    6.80901   6.82299   6.86541   6.89580   6.91165
 Alpha virt. eigenvalues --    6.91890   6.95510   6.96292   7.00511   7.03530
 Alpha virt. eigenvalues --    7.12316   7.20851   7.23722   7.29073   7.31897
 Alpha virt. eigenvalues --    7.32671   7.35939   7.37656   7.40601   7.43585
 Alpha virt. eigenvalues --    7.46651   7.51891   7.56787   7.58676   7.62820
 Alpha virt. eigenvalues --    7.69182   7.72734   7.80824   7.95696  12.31916
 Alpha virt. eigenvalues --   23.43734  23.52504  43.85986  43.94945  44.00789
 Alpha virt. eigenvalues --   44.09105  44.18540  44.37147
          Condensed to atoms (all electrons):
               1          2          3          4          5          6
     1  C    4.894878   0.428602   0.385138   0.239593  -0.010737  -0.057478
     2  H    0.428602   0.560789  -0.028817  -0.033482  -0.002795   0.001071
     3  H    0.385138  -0.028817   0.595937  -0.013126   0.004956  -0.002511
     4  C    0.239593  -0.033482  -0.013126   4.862289   0.430650   0.431222
     5  H   -0.010737  -0.002795   0.004956   0.430650   0.547435  -0.024616
     6  H   -0.057478   0.001071  -0.002511   0.431222  -0.024616   0.574417
     7  O    0.199964  -0.028210  -0.025060  -0.018834  -0.007604   0.004877
     8  H   -0.045890   0.007093  -0.003472  -0.015076  -0.001580   0.003042
     9  O   -0.069845   0.003054   0.001992   0.212634  -0.039222  -0.023953
    10  H    0.004462  -0.000601  -0.000342  -0.019673  -0.008918   0.000263
    11  Si   0.009342  -0.002194  -0.000175  -0.007748  -0.004323   0.000317
    12  O   -0.008108   0.006794  -0.000055   0.001161  -0.000377   0.000006
    13  H    0.000188  -0.000213  -0.000001  -0.000006  -0.000037  -0.000004
    14  O    0.019079  -0.004752  -0.000302  -0.011047   0.004504   0.001066
    15  H   -0.023447  -0.008680   0.002779   0.008564  -0.001082   0.000135
    16  O   -0.008133  -0.000439  -0.000146  -0.024039   0.001685   0.003464
    17  H   -0.000057   0.000817  -0.000054  -0.000187   0.001598  -0.000547
    18  O   -0.000539   0.000133  -0.000006   0.000944  -0.001802  -0.000012
    19  H   -0.000002  -0.000031   0.000000   0.000044  -0.000001  -0.000004
               7          8          9         10         11         12
     1  C    0.199964  -0.045890  -0.069845   0.004462   0.009342  -0.008108
     2  H   -0.028210   0.007093   0.003054  -0.000601  -0.002194   0.006794
     3  H   -0.025060  -0.003472   0.001992  -0.000342  -0.000175  -0.000055
     4  C   -0.018834  -0.015076   0.212634  -0.019673  -0.007748   0.001161
     5  H   -0.007604  -0.001580  -0.039222  -0.008918  -0.004323  -0.000377
     6  H    0.004877   0.003042  -0.023953   0.000263   0.000317   0.000006
     7  O    7.880146   0.342556  -0.061081   0.001407   0.000078   0.000206
     8  H    0.342556   0.455244   0.071519  -0.005122   0.000157  -0.000004
     9  O   -0.061081   0.071519   7.904670   0.326843  -0.000300  -0.000002
    10  H    0.001407  -0.005122   0.326843   0.528715  -0.000129   0.000000
    11  Si   0.000078   0.000157  -0.000300  -0.000129  11.511725   0.460227
    12  O    0.000206  -0.000004  -0.000002   0.000000   0.460227   7.673376
    13  H    0.000010  -0.000000  -0.000000  -0.000000  -0.018281   0.326920
    14  O   -0.071223   0.002451  -0.000485   0.000007   0.485915  -0.023759
    15  H    0.108273  -0.005009   0.002483   0.000450  -0.025365  -0.000061
    16  O    0.000718  -0.000050   0.001430   0.000042   0.381298  -0.037917
    17  H   -0.000027   0.000016  -0.000014  -0.000007  -0.019286   0.001153
    18  O   -0.000015   0.000002  -0.000002  -0.000000   0.456304  -0.029924
    19  H    0.000002  -0.000001  -0.000001   0.000000  -0.020233  -0.000443
              13         14         15         16         17         18
     1  C    0.000188   0.019079  -0.023447  -0.008133  -0.000057  -0.000539
     2  H   -0.000213  -0.004752  -0.008680  -0.000439   0.000817   0.000133
     3  H   -0.000001  -0.000302   0.002779  -0.000146  -0.000054  -0.000006
     4  C   -0.000006  -0.011047   0.008564  -0.024039  -0.000187   0.000944
     5  H   -0.000037   0.004504  -0.001082   0.001685   0.001598  -0.001802
     6  H   -0.000004   0.001066   0.000135   0.003464  -0.000547  -0.000012
     7  O    0.000010  -0.071223   0.108273   0.000718  -0.000027  -0.000015
     8  H   -0.000000   0.002451  -0.005009  -0.000050   0.000016   0.000002
     9  O   -0.000000  -0.000485   0.002483   0.001430  -0.000014  -0.000002
    10  H   -0.000000   0.000007   0.000450   0.000042  -0.000007  -0.000000
    11  Si  -0.018281   0.485915  -0.025365   0.381298  -0.019286   0.456304
    12  O    0.326920  -0.023759  -0.000061  -0.037917   0.001153  -0.029924
    13  H    0.516664   0.001271  -0.000071   0.000038  -0.000386  -0.001294
    14  O    0.001271   7.750308   0.340544  -0.024314   0.000636  -0.022167
    15  H   -0.000071   0.340544   0.375904   0.001014  -0.000045  -0.000606
    16  O    0.000038  -0.024314   0.001014   7.814808   0.338236  -0.035746
    17  H   -0.000386   0.000636  -0.000045   0.338236   0.499460   0.002166
    18  O   -0.001294  -0.022167  -0.000606  -0.035746   0.002166   7.708042
    19  H    0.000134  -0.000671  -0.000079   0.002038  -0.000153   0.338191
              19
     1  C   -0.000002
     2  H   -0.000031
     3  H    0.000000
     4  C    0.000044
     5  H   -0.000001
     6  H   -0.000004
     7  O    0.000002
     8  H   -0.000001
     9  O   -0.000001
    10  H    0.000000
    11  Si  -0.020233
    12  O   -0.000443
    13  H    0.000134
    14  O   -0.000671
    15  H   -0.000079
    16  O    0.002038
    17  H   -0.000153
    18  O    0.338191
    19  H    0.502582
 Mulliken charges:
               1
     1  C    0.042987
     2  H    0.101861
     3  H    0.083267
     4  C   -0.043885
     5  H    0.112265
     6  H    0.089245
     7  O   -0.326181
     8  H    0.194123
     9  O   -0.329722
    10  H    0.172603
    11  Si   0.792672
    12  O   -0.369195
    13  H    0.175068
    14  O   -0.447063
    15  H    0.224300
    16  O   -0.413988
    17  H    0.176683
    18  O   -0.413668
    19  H    0.178627
 Sum of Mulliken charges =  -0.00000
 Mulliken charges with hydrogens summed into heavy atoms:
               1
     1  C    0.228116
     4  C    0.157625
     7  O   -0.132058
     9  O   -0.157119
    11  Si   0.792672
    12  O   -0.194127
    14  O   -0.222763
    16  O   -0.237305
    18  O   -0.235041
 Electronic spatial extent (au):  <R**2>=           1656.0413
 Charge=             -0.0000 electrons
 Dipole moment (field-independent basis, Debye):
    X=             -0.0337    Y=             -3.1960    Z=             -0.1303  Tot=              3.1988
 Quadrupole moment (field-independent basis, Debye-Ang):
   XX=            -55.4723   YY=            -61.4200   ZZ=            -54.6477
   XY=             -1.9799   XZ=             -2.1022   YZ=              2.7236
 Traceless Quadrupole moment (field-independent basis, Debye-Ang):
   XX=              1.7077   YY=             -4.2400   ZZ=              2.5323
   XY=             -1.9799   XZ=             -2.1022   YZ=              2.7236
 Octapole moment (field-independent basis, Debye-Ang**2):
  XXX=            -30.3237  YYY=            -21.5720  ZZZ=             -6.7244  XYY=              5.2495
  XXY=             -5.8809  XXZ=            -12.3672  XZZ=             -7.1788  YZZ=             -5.0329
  YYZ=              0.2539  XYZ=              4.7157
 Hexadecapole moment (field-independent basis, Debye-Ang**3):
 XXXX=          -1357.9240 YYYY=           -339.2012 ZZZZ=           -243.1927 XXXY=            -22.2070
 XXXZ=            -39.3040 YYYX=             -5.1724 YYYZ=             -7.8990 ZZZX=             -8.9800
 ZZZY=             13.6759 XXYY=           -285.9389 XXZZ=           -179.9653 YYZZ=            -87.9925
 XXYZ=             29.4148 YYXZ=            -15.0265 ZZXY=             -0.4894
 N-N= 6.466888146620D+02 E-N=-3.243063155470D+03  KE= 8.207141696486D+02
   1 Symmetry operations used in ECPInt.
 ECPInt:  NShTT=   13203 NPrTT=   36019 LenC2=   12520 LenP2D=   26839.
 LDataN:  DoStor=T MaxTD1= 7 Len=  274
 Calling FoFJK, ICntrl=      2127 FMM=F ISym2X=0 I1Cent= 0 IOpClX= 0 NMat=1 NMatS=1 NMatT=0.
 ***** Axes restored to original set *****
 -------------------------------------------------------------------
 Center     Atomic                   Forces (Hartrees/Bohr)
 Number     Number              X              Y              Z
 -------------------------------------------------------------------
      1        6           0.008715834   -0.004415286   -0.004576983
      2        1           0.000455474   -0.000040476   -0.001151494
      3        1          -0.000309736   -0.000239947    0.000786562
      4        6           0.024455311    0.001026609   -0.004072152
      5        1           0.001129249   -0.000826166    0.001106724
      6        1           0.000769324    0.001105722    0.000750571
      7        8          -0.003185651    0.021716004    0.009283639
      8        1           0.002422176    0.006633264   -0.004880857
      9        8          -0.001297383   -0.018519032    0.007805296
     10        1          -0.000285428   -0.002551909    0.001906840
     11       14          -0.007242244   -0.009533941    0.021695915
     12        8           0.002402557    0.001958155   -0.007617921
     13        1           0.000613951    0.000619153    0.000163989
     14        8          -0.020511761   -0.006038621   -0.007869574
     15        1          -0.002058920    0.002039795   -0.001647246
     16        8          -0.010569056    0.000780685   -0.001880789
     17        1           0.000178572   -0.000409913    0.000055418
     18        8           0.005555179    0.006353604   -0.009823125
     19        1          -0.001237447    0.000342301   -0.000034815
 -------------------------------------------------------------------
 Cartesian Forces:  Max     0.024455311 RMS     0.007603701

 GradGradGradGradGradGradGradGradGradGradGradGradGradGradGradGradGradGrad
 Berny optimization.
 FormGI is forming the generalized inverse of G from B-inverse, IUseBI=4.
 Internal  Forces:  Max     0.063996394 RMS     0.017489846
 Search for a local minimum.
 Step number   1 out of a maximum of   88
 All quantities printed in internal units (Hartrees-Bohrs-Radians)
 Mixed Optimization -- RFO/linear search
 Second derivative matrix not updated -- first step.
 ITU=  0
     Eigenvalues ---    0.00230   0.00498   0.00791   0.01130   0.01140
     Eigenvalues ---    0.01357   0.03424   0.03681   0.03788   0.04399
     Eigenvalues ---    0.05212   0.05354   0.05740   0.06204   0.06506
     Eigenvalues ---    0.08434   0.10368   0.10605   0.10608   0.11145
     Eigenvalues ---    0.11812   0.12091   0.12905   0.14350   0.16000
     Eigenvalues ---    0.16000   0.16000   0.16000   0.16000   0.16000
     Eigenvalues ---    0.20206   0.21110   0.21765   0.21868   0.30342
     Eigenvalues ---    0.34544   0.35121   0.35491   0.35960   0.35972
     Eigenvalues ---    0.39868   0.41673   0.42683   0.43941   0.49202
     Eigenvalues ---    0.52104   0.53029   0.56554   0.56644   0.56694
     Eigenvalues ---    0.56804
 RFO step:  Lambda=-1.11509589D-01 EMin= 2.30000000D-03
 Linear search not attempted -- first point.
 Maximum step size (   0.300) exceeded in Quadratic search.
    -- Step size scaled by   0.417
 Iteration  1 RMS(Cart)=  0.27048600 RMS(Int)=  0.01766525
 Iteration  2 RMS(Cart)=  0.12983918 RMS(Int)=  0.00283164
 Iteration  3 RMS(Cart)=  0.00524282 RMS(Int)=  0.00044673
 Iteration  4 RMS(Cart)=  0.00000898 RMS(Int)=  0.00044671
 Iteration  5 RMS(Cart)=  0.00000001 RMS(Int)=  0.00044671
 Variable       Old X    -DE/DX   Delta X   Delta X   Delta X     New X
                                 (Linear)    (Quad)   (Total)
    R1        2.04884  -0.00086   0.00000  -0.00077  -0.00077   2.04808
    R2        2.06422   0.00020   0.00000   0.00018   0.00018   2.06440
    R3        2.87287   0.02075   0.00000   0.02085   0.02085   2.89372
    R4        2.69341   0.00832   0.00000   0.00657   0.00657   2.69998
    R5        2.04144  -0.00107   0.00000  -0.00094  -0.00095   2.04050
    R6        2.05480  -0.00000   0.00000  -0.00000  -0.00000   2.05479
    R7        2.77426  -0.00738   0.00000  -0.00653  -0.00653   2.76773
    R8        1.83627  -0.00026   0.00000  -0.00017  -0.00017   1.83610
    R9        2.84850   0.03292   0.00000   0.06159   0.06159   2.91009
   R10        1.80476   0.00043   0.00000   0.00027   0.00027   1.80503
   R11        3.10225  -0.00285   0.00000  -0.00216  -0.00216   3.10009
   R12        3.01500   0.00851   0.00000   0.00561   0.00561   3.02061
   R13        3.15433  -0.00590   0.00000  -0.00482  -0.00482   3.14951
   R14        3.11763  -0.00418   0.00000  -0.00324  -0.00324   3.11439
   R15        1.80399  -0.00047   0.00000  -0.00029  -0.00029   1.80371
   R16        1.87378   0.03076   0.00000   0.02124   0.02124   1.89502
   R17        1.80357   0.00028   0.00000   0.00017   0.00017   1.80374
   R18        1.80263   0.00046   0.00000   0.00028   0.00028   1.80291
    A1        1.89901   0.00723   0.00000   0.00231   0.00196   1.90096
    A2        2.00602  -0.00561   0.00000  -0.00202  -0.00195   2.00408
    A3        1.93649  -0.02117   0.00000  -0.02701  -0.02739   1.90910
    A4        1.92307  -0.01870   0.00000  -0.02728  -0.02736   1.89572
    A5        1.91157  -0.00898   0.00000  -0.00742  -0.00711   1.90446
    A6        1.78438   0.04776   0.00000   0.06282   0.06289   1.84727
    A7        1.94878  -0.00361   0.00000  -0.00072  -0.00098   1.94780
    A8        2.00550  -0.01232   0.00000  -0.01820  -0.01802   1.98748
    A9        1.74212   0.04053   0.00000   0.05284   0.05282   1.79494
   A10        1.92971   0.00419   0.00000   0.00009  -0.00010   1.92962
   A11        1.89540  -0.00886   0.00000  -0.00476  -0.00517   1.89023
   A12        1.93202  -0.01798   0.00000  -0.02553  -0.02535   1.90668
   A13        1.74368  -0.01336   0.00000  -0.01630  -0.01843   1.72525
   A14        1.67344   0.05665   0.00000   0.09008   0.08930   1.76273
   A15        1.93403   0.00361   0.00000   0.01565   0.01554   1.94957
   A16        1.91565  -0.00286   0.00000  -0.00440  -0.00440   1.91125
   A17        1.93836  -0.00896   0.00000  -0.01395  -0.01418   1.92418
   A18        1.84614   0.00067   0.00000   0.00483   0.00483   1.85098
   A19        1.92102   0.00727   0.00000   0.00588   0.00562   1.92665
   A20        1.95997   0.01895   0.00000   0.02905   0.02916   1.98913
   A21        2.03979  -0.01501   0.00000  -0.02350  -0.02363   2.01616
   A22        1.74094  -0.00002   0.00000   0.00285   0.00296   1.74390
   A23        2.00612   0.00101   0.00000   0.00155   0.00155   2.00767
   A24        2.19254   0.06400   0.00000   0.09828   0.09828   2.29082
   A25        1.96581   0.00047   0.00000   0.00073   0.00073   1.96653
   A26        2.07020   0.00096   0.00000   0.00148   0.00148   2.07168
   A27        2.92702   0.05646   0.00000   0.19214   0.19176   3.11879
   A28        3.02325   0.04029   0.00000   0.13709   0.13705   3.16030
    D1        0.96690   0.00120   0.00000   0.00681   0.00682   0.97372
    D2       -1.24874   0.00897   0.00000   0.02271   0.02273  -1.22601
    D3        2.96779   0.01069   0.00000   0.02840   0.02863   2.99642
    D4        3.11967  -0.00829   0.00000  -0.01340  -0.01329   3.10638
    D5        0.90403  -0.00052   0.00000   0.00250   0.00262   0.90665
    D6       -1.16263   0.00120   0.00000   0.00819   0.00852  -1.15411
    D7       -1.13256  -0.00180   0.00000  -0.00095  -0.00129  -1.13385
    D8        2.93499   0.00597   0.00000   0.01495   0.01461   2.94961
    D9        0.86833   0.00769   0.00000   0.02064   0.02051   0.88885
   D10       -2.79074  -0.00751   0.00000  -0.00779  -0.00739  -2.79814
   D11       -0.82954   0.00687   0.00000   0.02620   0.02628  -0.80325
   D12        1.39571   0.00272   0.00000   0.01122   0.01138   1.40709
   D13       -2.92626   0.01709   0.00000   0.04521   0.04506  -2.88121
   D14       -0.64354   0.00365   0.00000   0.01365   0.01357  -0.62997
   D15        1.31767   0.01802   0.00000   0.04764   0.04725   1.36492
   D16       -2.57424  -0.00534   0.00000  -0.01380  -0.01400  -2.58825
   D17       -0.53288   0.00626   0.00000   0.00826   0.00824  -0.52464
   D18        1.58865  -0.00557   0.00000  -0.01073  -0.01051   1.57814
   D19        0.30211   0.00926   0.00000   0.03935   0.03731   0.33942
   D20        2.06116   0.02653   0.00000   0.09178   0.09381   2.15497
   D21        3.10188  -0.01302   0.00000  -0.02211  -0.02209   3.07979
   D22       -1.05039   0.00530   0.00000   0.00826   0.00820  -1.04218
   D23        0.81519   0.00854   0.00000   0.01615   0.01619   0.83137
   D24        1.20285   0.00179   0.00000   0.00200   0.00177   1.20462
   D25       -0.86041  -0.00550   0.00000  -0.01382  -0.01390  -0.87431
   D26       -2.85690  -0.00933   0.00000  -0.02314  -0.02284  -2.87974
   D27        1.94237   0.00268   0.00000   0.00242   0.00231   1.94468
   D28       -2.22381   0.00313   0.00000   0.00531   0.00533  -2.21848
   D29       -0.05121  -0.00541   0.00000  -0.00660  -0.00652  -0.05773
   D30        1.69795  -0.00785   0.00000  -0.01591  -0.01589   1.68206
   D31       -0.53391   0.01092   0.00000   0.01847   0.01841  -0.51550
   D32       -2.64997  -0.00476   0.00000  -0.00733  -0.00729  -2.65726
         Item               Value     Threshold  Converged?
 Maximum Force            0.063996     0.000450     NO 
 RMS     Force            0.017490     0.000300     NO 
 Maximum Displacement     1.289048     0.001800     NO 
 RMS     Displacement     0.393954     0.001200     NO 
 Predicted change in Energy=-4.292834D-02
 GradGradGradGradGradGradGradGradGradGradGradGradGradGradGradGradGradGrad

                          Input orientation:                          
 ---------------------------------------------------------------------
 Center     Atomic      Atomic             Coordinates (Angstroms)
 Number     Number       Type             X           Y           Z
 ---------------------------------------------------------------------
      1          6           0       -1.850222    1.077228   -0.014491
      2          1           0       -2.730848    1.288565    0.580862
      3          1           0       -0.985452    1.557033    0.449592
      4          6           0       -1.542042   -0.411130   -0.200681
      5          1           0       -2.381557   -0.940769   -0.625687
      6          1           0       -1.196997   -0.905656    0.704149
      7          8           0       -2.028905    1.606011   -1.329725
      8          1           0       -1.360357    1.076869   -1.795665
      9          8           0       -0.459222   -0.398494   -1.186810
     10          1           0       -0.512512   -1.183007   -1.729091
     11         14           0       -5.563472    0.286942   -0.916754
     12          8           0       -6.182062    1.545828   -0.066000
     13          1           0       -6.932516    1.331906    0.483626
     14          8           0       -4.376655    0.788541   -1.862726
     15          1           0       -3.457414    1.126608   -1.647516
     16          8           0       -5.096479   -0.846942    0.211939
     17          1           0       -5.637480   -1.632996    0.189426
     18          8           0       -6.770046   -0.544078   -1.671535
     19          1           0       -6.962987   -0.343651   -2.584133
 ---------------------------------------------------------------------
                    Distance matrix (angstroms):
                    1          2          3          4          5
     1  C    0.000000
     2  H    1.083795   0.000000
     3  H    1.092434   1.770795   0.000000
     4  C    1.531291   2.216536   2.146233   0.000000
     5  H    2.174441   2.558847   3.056853   1.079784   0.000000
     6  H    2.207934   2.680019   2.484832   1.087349   1.781257
     7  O    1.428768   2.060058   2.063289   2.362337   2.665731
     8  H    1.847308   2.751534   2.326433   2.188864   2.546088
     9  O    2.342428   3.336333   2.603616   1.464619   2.074679
    10  H    3.136556   4.045438   3.532443   1.997940   2.183921
    11  Si   3.902161   3.357061   4.943511   4.143907   3.422948
    12  O    4.357416   3.520723   5.222137   5.037619   4.576052
    13  H    5.112992   4.203016   5.951420   5.706457   5.206424
    14  O    3.143593   2.988282   4.175841   3.498090   2.915681
    15  H    2.291785   2.349425   3.270126   2.850723   2.544731
    16  O    3.780461   3.208224   4.768241   3.604748   2.842749
    17  H    4.661569   4.139716   5.646711   4.291591   3.427043
    18  O    5.438667   4.974635   6.509637   5.432597   4.528796
    19  H    5.895958   5.531032   6.967568   5.922165   5.018123
                    6          7          8          9         10
     6  H    0.000000
     7  O    3.337242   0.000000
     8  H    3.194708   0.971621   0.000000
     9  O    2.092188   2.549974   1.832878   0.000000
    10  H    2.542853   3.199619   2.414604   0.955180   0.000000
    11  Si   4.807881   3.795214   4.366079   5.157142   5.322859
    12  O    5.608366   4.341581   5.143977   6.147153   6.508164
    13  H    6.160477   5.235338   6.025708   6.905662   7.241363
    14  O    4.423728   2.542494   3.030789   4.148758   4.340099
    15  H    3.843164   1.539953   2.102872   3.395194   3.743451
    16  O    3.930862   4.219444   4.657266   4.864335   4.989317
    17  H    4.529001   5.081417   5.438542   5.498398   5.490765
    18  O    6.069059   5.217099   5.648682   6.331086   6.290331
    19  H    6.661477   5.451594   5.833439   6.652403   6.560810
                   11         12         13         14         15
    11  Si   0.000000
    12  O    1.640497   0.000000
    13  H    2.219751   0.954480   0.000000
    14  O    1.598437   2.657292   3.511843   0.000000
    15  H    2.382127   3.178150   4.081696   1.002800   0.000000
    16  O    1.666650   2.642174   2.862205   2.738099   3.168439
    17  H    2.217042   3.235234   3.248740   3.415385   3.967677
    18  O    1.648062   2.700218   2.861893   2.746042   3.710161
    19  H    2.266372   3.243604   3.495649   2.914000   3.915093
                   16         17         18         19
    16  O    0.000000
    17  H    0.954500   0.000000
    18  O    2.537721   2.435493   0.000000
    19  H    3.399289   3.333468   0.954060   0.000000
 Stoichiometry    C2H10O6Si
 Framework group  C1[X(C2H10O6Si)]
 Deg. of freedom    51
 Full point group                 C1      NOp   1
 Largest Abelian subgroup         C1      NOp   1
 Largest concise Abelian subgroup C1      NOp   1
                         Standard orientation:                         
 ---------------------------------------------------------------------
 Center     Atomic      Atomic             Coordinates (Angstroms)
 Number     Number       Type             X           Y           Z
 ---------------------------------------------------------------------
      1          6           0        2.100859    0.676393    0.795051
      2          1           0        1.235040    0.859253    1.420775
      3          1           0        2.981542    1.111496    1.273062
      4          6           0        2.382581   -0.800114    0.502797
      5          1           0        1.527123   -1.287932    0.059901
      6          1           0        2.737116   -1.359570    1.365144
      7          8           0        1.905369    1.295484   -0.477698
      8          1           0        2.556755    0.789789   -0.991524
      9          8           0        3.446549   -0.735909   -0.501672
     10          1           0        3.370945   -1.481072   -1.094449
     11         14           0       -1.640538    0.001166   -0.084083
     12          8           0       -2.223480    1.208097    0.861816
     13          1           0       -2.966557    0.967988    1.410649
     14          8           0       -0.464340    0.548986   -1.017599
     15          1           0        0.463898    0.858780   -0.798490
     16          8           0       -1.169648   -1.212987    0.956021
     17          1           0       -1.722973   -1.988050    0.891366
     18          8           0       -2.873830   -0.759832   -0.868928
     19          1           0       -3.080965   -0.495377   -1.761895
 ---------------------------------------------------------------------
 Rotational constants (GHZ):           2.3862426           0.6099019           0.5844893
 Standard basis: def2TZVPP (5D, 7F)
 There are   486 symmetry adapted cartesian basis functions of A   symmetry.
 There are   430 symmetry adapted basis functions of A   symmetry.
   430 basis functions,   647 primitive gaussians,   486 cartesian basis functions
    42 alpha electrons       42 beta electrons
       nuclear repulsion energy       615.4424495350 Hartrees.
 NAtoms=   19 NActive=   19 NUniq=   19 SFac= 1.00D+00 NAtFMM=   60 NAOKFM=F Big=F
 Integral buffers will be    131072 words long.
 Raffenetti 2 integral format.
 Two-electron integral symmetry is turned on.
 Nuclear repulsion after empirical dispersion term =      615.4328429866 Hartrees.
 One-electron integrals computed using PRISM.
   1 Symmetry operations used in ECPInt.
 ECPInt:  NShTT=   13203 NPrTT=   36019 LenC2=   12212 LenP2D=   25919.
 LDataN:  DoStor=T MaxTD1= 6 Len=  172
 NBasis=   430 RedAO= T EigKep=  2.99D-04  NBF=   430
 NBsUse=   430 1.00D-06 EigRej= -1.00D+00 NBFU=   430
 Initial guess from the checkpoint file:  "SiAttackIRCReactantOpt.chk"
 B after Tr=     0.000000   -0.000000   -0.000000
         Rot=    0.999880   -0.014685   -0.004255    0.002465 Ang=  -1.77 deg.
 ExpMin= 7.01D-02 ExpMax= 4.48D+04 ExpMxC= 1.53D+03 IAcc=3 IRadAn=         5 AccDes= 0.00D+00
 Harris functional with IExCor= 4639 and IRadAn=       5 diagonalized for initial guess.
 HarFok:  IExCor= 4639 AccDes= 0.00D+00 IRadAn=         5 IDoV= 1 UseB2=F ITyADJ=14
 ICtDFT=  3500011 ScaDFX=  1.000000  1.000000  1.000000  1.000000
 FoFCou: FMM=F IPFlag=           0 FMFlag=      100000 FMFlg1=           0
         NFxFlg=           0 DoJE=T BraDBF=F KetDBF=T FulRan=T
         wScrn=  0.000000 ICntrl=       500 IOpCl=  0 I1Cent=   200000004 NGrid=           0
         NMat0=    1 NMatS0=      1 NMatT0=    0 NMatD0=    1 NMtDS0=    0 NMtDT0=    0
 Petite list used in FoFCou.
 Requested convergence on RMS density matrix=1.00D-08 within 128 cycles.
 Requested convergence on MAX density matrix=1.00D-06.
 Requested convergence on             energy=1.00D-06.
 No special actions if energy rises.
 Integral accuracy reduced to 1.0D-05 until final iterations.
 Initial convergence to 1.0D-05 achieved.  Increase integral accuracy.
 SCF Done:  E(RwB97XD) =  -823.358884189     A.U. after   13 cycles
            NFock= 13  Conv=0.90D-08     -V/T= 2.0035
   1 Symmetry operations used in ECPInt.
 ECPInt:  NShTT=   13203 NPrTT=   36019 LenC2=   12212 LenP2D=   25919.
 LDataN:  DoStor=T MaxTD1= 7 Len=  274
 Calling FoFJK, ICntrl=      2127 FMM=F ISym2X=0 I1Cent= 0 IOpClX= 0 NMat=1 NMatS=1 NMatT=0.
 ***** Axes restored to original set *****
 -------------------------------------------------------------------
 Center     Atomic                   Forces (Hartrees/Bohr)
 Number     Number              X              Y              Z
 -------------------------------------------------------------------
      1        6           0.008256348   -0.006007196   -0.003614788
      2        1          -0.003471623   -0.003536835    0.000707679
      3        1          -0.000663030    0.001188216    0.001210707
      4        6           0.016585541    0.006863893   -0.010467834
      5        1          -0.008336688   -0.001843628    0.001259028
      6        1          -0.001286431    0.001568939    0.002722588
      7        8           0.006603202   -0.001674070    0.010023089
      8        1          -0.001894082    0.007725070   -0.008752158
      9        8          -0.008620591   -0.002756377    0.010999040
     10        1          -0.000446551   -0.000974500    0.001453675
     11       14          -0.001307270   -0.011416726    0.019542834
     12        8           0.002292683    0.003259740   -0.006197668
     13        1           0.000838575    0.000378774    0.000391928
     14        8          -0.002972297   -0.002818945   -0.000659813
     15        1          -0.015085621   -0.001679329   -0.004439580
     16        8           0.003492243    0.006038146   -0.005493530
     17        1           0.001694079   -0.000752838   -0.000440095
     18        8           0.005124880    0.005863390   -0.008571969
     19        1          -0.000803366    0.000574276    0.000326866
 -------------------------------------------------------------------
 Cartesian Forces:  Max     0.019542834 RMS     0.006227591

 GradGradGradGradGradGradGradGradGradGradGradGradGradGradGradGradGradGrad
 Berny optimization.
 Using GEDIIS/GDIIS optimizer.
 FormGI is forming the generalized inverse of G from B-inverse, IUseBI=4.
 Internal  Forces:  Max     0.022318112 RMS     0.005885104
 Search for a local minimum.
 Step number   2 out of a maximum of   88
 All quantities printed in internal units (Hartrees-Bohrs-Radians)
 Mixed Optimization -- RFO/linear search
 Update second derivatives using D2CorX and points    1    2
 DE= -1.63D-02 DEPred=-4.29D-02 R= 3.80D-01
 Trust test= 3.80D-01 RLast= 3.32D-01 DXMaxT set to 3.00D-01
 ITU=  0  0
 Use linear search instead of GDIIS.
     Eigenvalues ---    0.00245   0.00501   0.00791   0.01136   0.01340
     Eigenvalues ---    0.02337   0.03423   0.03681   0.03788   0.04428
     Eigenvalues ---    0.04970   0.05428   0.05681   0.05892   0.06153
     Eigenvalues ---    0.08833   0.10689   0.10866   0.11011   0.11542
     Eigenvalues ---    0.11871   0.12387   0.13147   0.13913   0.15958
     Eigenvalues ---    0.16000   0.16000   0.16000   0.16000   0.19195
     Eigenvalues ---    0.20338   0.21075   0.21855   0.29509   0.34542
     Eigenvalues ---    0.34938   0.35144   0.35523   0.35944   0.39777
     Eigenvalues ---    0.41593   0.42507   0.42683   0.43941   0.51364
     Eigenvalues ---    0.53024   0.56554   0.56643   0.56691   0.56803
     Eigenvalues ---    0.62453
 RFO step:  Lambda=-2.00684059D-02 EMin= 2.45077988D-03
 Quartic linear search produced a step of  0.17480.
 Maximum step size (   0.300) exceeded in Quadratic search.
    -- Step size scaled by   0.959
 Iteration  1 RMS(Cart)=  0.19703174 RMS(Int)=  0.01195611
 Iteration  2 RMS(Cart)=  0.02674722 RMS(Int)=  0.00193269
 Iteration  3 RMS(Cart)=  0.00038554 RMS(Int)=  0.00192579
 Iteration  4 RMS(Cart)=  0.00000175 RMS(Int)=  0.00192579
 Iteration  5 RMS(Cart)=  0.00000001 RMS(Int)=  0.00192579
 Variable       Old X    -DE/DX   Delta X   Delta X   Delta X     New X
                                 (Linear)    (Quad)   (Total)
    R1        2.04808   0.00252  -0.00013   0.00726   0.00712   2.05520
    R2        2.06440   0.00051   0.00003   0.00162   0.00166   2.06606
    R3        2.89372  -0.00395   0.00365  -0.00662  -0.00298   2.89075
    R4        2.69998   0.00625   0.00115   0.01813   0.01928   2.71926
    R5        2.04050   0.00688  -0.00017   0.01993   0.01977   2.06026
    R6        2.05479   0.00114  -0.00000   0.00344   0.00344   2.05824
    R7        2.76773  -0.01512  -0.00114  -0.04666  -0.04780   2.71993
    R8        1.83610  -0.00131  -0.00003  -0.00272  -0.00275   1.83335
    R9        2.91009   0.00755   0.01077   0.08820   0.09897   3.00906
   R10        1.80503   0.00000   0.00005   0.00009   0.00013   1.80516
   R11        3.10009  -0.00140  -0.00038  -0.00410  -0.00448   3.09561
   R12        3.02061  -0.00992   0.00098  -0.01868  -0.01770   3.00291
   R13        3.14951  -0.00616  -0.00084  -0.01803  -0.01887   3.13064
   R14        3.11439  -0.00263  -0.00057  -0.00764  -0.00821   3.10618
   R15        1.80371  -0.00052  -0.00005  -0.00108  -0.00113   1.80257
   R16        1.89502  -0.00779   0.00371  -0.01017  -0.00646   1.88856
   R17        1.80374  -0.00033   0.00003  -0.00057  -0.00054   1.80320
   R18        1.80291  -0.00003   0.00005   0.00003   0.00008   1.80300
    A1        1.90096   0.00368   0.00034  -0.00327  -0.00455   1.89642
    A2        2.00408  -0.01135  -0.00034  -0.08167  -0.08057   1.92351
    A3        1.90910  -0.00693  -0.00479  -0.04688  -0.04849   1.86061
    A4        1.89572  -0.00172  -0.00478   0.00655  -0.00212   1.89359
    A5        1.90446  -0.00574  -0.00124  -0.00268  -0.00776   1.89670
    A6        1.84727   0.02232   0.01099   0.13319   0.14370   1.99097
    A7        1.94780  -0.00406  -0.00017  -0.02497  -0.02813   1.91967
    A8        1.98748  -0.00576  -0.00315  -0.05351  -0.05739   1.93009
    A9        1.79494   0.01157   0.00923   0.08112   0.09036   1.88530
   A10        1.92962   0.00187  -0.00002  -0.01103  -0.01328   1.91634
   A11        1.89023   0.00013  -0.00090   0.03384   0.03251   1.92274
   A12        1.90668  -0.00296  -0.00443  -0.01478  -0.01740   1.88927
   A13        1.72525   0.01402  -0.00322   0.12335   0.11616   1.84141
   A14        1.76273   0.00289   0.01561   0.06848   0.08016   1.84290
   A15        1.94957  -0.00308   0.00272   0.00237  -0.00451   1.94506
   A16        1.91125  -0.00252  -0.00077  -0.01727  -0.01804   1.89321
   A17        1.92418  -0.00281  -0.00248  -0.03501  -0.03826   1.88592
   A18        1.85098   0.00543   0.00084   0.04698   0.04643   1.89741
   A19        1.92665   0.00290   0.00098   0.01885   0.01603   1.94268
   A20        1.98913  -0.00484   0.00510  -0.01524  -0.00886   1.98027
   A21        2.01616  -0.00863  -0.00413  -0.06662  -0.07120   1.94496
   A22        1.74390   0.01013   0.00052   0.06927   0.06860   1.81250
   A23        2.00767   0.00079   0.00027   0.00548   0.00575   2.01343
   A24        2.29082  -0.01119   0.01718  -0.03354  -0.01636   2.27446
   A25        1.96653   0.00159   0.00013   0.01016   0.01029   1.97682
   A26        2.07168   0.00033   0.00026   0.00262   0.00288   2.07456
   A27        3.11879  -0.00600   0.03352  -0.04266  -0.00914   3.10964
   A28        3.16030  -0.00429   0.02396  -0.05360  -0.02964   3.13065
    D1        0.97372  -0.00177   0.00119  -0.02335  -0.02258   0.95114
    D2       -1.22601   0.00375   0.00397   0.05596   0.05759  -1.16841
    D3        2.99642   0.00294   0.00500   0.04960   0.05383   3.05025
    D4        3.10638  -0.00611  -0.00232  -0.07892  -0.08085   3.02553
    D5        0.90665  -0.00059   0.00046   0.00039  -0.00067   0.90597
    D6       -1.15411  -0.00140   0.00149  -0.00598  -0.00444  -1.15855
    D7       -1.13385  -0.00196  -0.00023  -0.00915  -0.00708  -1.14094
    D8        2.94961   0.00356   0.00255   0.07016   0.07309   3.02269
    D9        0.88885   0.00275   0.00359   0.06380   0.06932   0.95817
   D10       -2.79814  -0.00160  -0.00129  -0.04775  -0.05160  -2.84973
   D11       -0.80325  -0.00011   0.00459   0.00742   0.01507  -0.78818
   D12        1.40709   0.00145   0.00199  -0.01443  -0.01473   1.39236
   D13       -2.88121   0.00294   0.00788   0.04073   0.05194  -2.82927
   D14       -0.62997  -0.00556   0.00237  -0.09146  -0.09267  -0.72263
   D15        1.36492  -0.00408   0.00826  -0.03630  -0.02600   1.33892
   D16       -2.58825  -0.00164  -0.00245  -0.04708  -0.05080  -2.63905
   D17       -0.52464  -0.00045   0.00144  -0.02040  -0.01724  -0.54187
   D18        1.57814   0.00014  -0.00184  -0.02217  -0.02445   1.55369
   D19        0.33942  -0.00867   0.00652  -0.09037  -0.08389   0.25553
   D20        2.15497   0.00605   0.01640   0.06866   0.08510   2.24007
   D21        3.07979  -0.00200  -0.00386  -0.02218  -0.02592   3.05387
   D22       -1.04218  -0.00611   0.00143  -0.03164  -0.03092  -1.07311
   D23        0.83137   0.00931   0.00283   0.07810   0.08153   0.91290
   D24        1.20462   0.00181   0.00031   0.01240   0.01128   1.21590
   D25       -0.87431   0.00010  -0.00243  -0.01267  -0.01501  -0.88932
   D26       -2.87974  -0.00355  -0.00399  -0.04531  -0.04797  -2.92771
   D27        1.94468   0.00480   0.00040   0.04699   0.04875   1.99343
   D28       -2.21848   0.00211   0.00093   0.02661   0.02745  -2.19103
   D29       -0.05773  -0.00416  -0.00114  -0.01635  -0.01875  -0.07648
   D30        1.68206  -0.00723  -0.00278  -0.07025  -0.07354   1.60852
   D31       -0.51550   0.00107   0.00322   0.01511   0.01739  -0.49811
   D32       -2.65726   0.00454  -0.00127   0.02092   0.02110  -2.63616
         Item               Value     Threshold  Converged?
 Maximum Force            0.022318     0.000450     NO 
 RMS     Force            0.005885     0.000300     NO 
 Maximum Displacement     0.618899     0.001800     NO 
 RMS     Displacement     0.211303     0.001200     NO 
 Predicted change in Energy=-9.862675D-03
 GradGradGradGradGradGradGradGradGradGradGradGradGradGradGradGradGradGrad

                          Input orientation:                          
 ---------------------------------------------------------------------
 Center     Atomic      Atomic             Coordinates (Angstroms)
 Number     Number       Type             X           Y           Z
 ---------------------------------------------------------------------
      1          6           0       -1.800510    1.109934   -0.104032
      2          1           0       -2.667455    1.302410    0.523784
      3          1           0       -0.943366    1.648870    0.308499
      4          6           0       -1.475564   -0.384848   -0.112444
      5          1           0       -2.355792   -0.955929   -0.408581
      6          1           0       -1.139209   -0.709181    0.871409
      7          8           0       -2.104244    1.651909   -1.401973
      8          1           0       -1.463706    1.247653   -2.008199
      9          8           0       -0.404683   -0.602435   -1.049208
     10          1           0       -0.485763   -1.486607   -1.401584
     11         14           0       -5.605593    0.248751   -0.919648
     12          8           0       -6.119968    1.445594    0.073549
     13          1           0       -6.832113    1.209799    0.662735
     14          8           0       -4.519566    0.859717   -1.905757
     15          1           0       -3.590180    1.180026   -1.725734
     16          8           0       -5.028859   -0.998633    0.005527
     17          1           0       -5.550626   -1.794253   -0.067071
     18          8           0       -6.858427   -0.421139   -1.746366
     19          1           0       -7.081600   -0.072829   -2.606128
 ---------------------------------------------------------------------
                    Distance matrix (angstroms):
                    1          2          3          4          5
     1  C    0.000000
     2  H    1.087563   0.000000
     3  H    1.093311   1.771684   0.000000
     4  C    1.529717   2.161534   2.143930   0.000000
     5  H    2.160759   2.463034   3.048628   1.090244   0.000000
     6  H    2.167484   2.550074   2.432207   1.089171   1.783068
     7  O    1.438972   2.036638   2.067211   2.491285   2.801950
     8  H    1.938622   2.804095   2.408074   2.501816   2.865374
     9  O    2.402893   3.350056   2.683640   1.439325   2.083791
    10  H    3.186570   4.030563   3.600695   1.963534   2.182815
    11  Si   3.985665   3.438946   5.020462   4.255603   3.503377
    12  O    4.336118   3.484689   5.185916   4.995557   4.490967
    13  H    5.090671   4.168004   5.915708   5.642376   5.086801
    14  O    3.271405   3.086902   4.279591   3.745779   3.196878
    15  H    2.416143   2.434487   3.370985   3.085957   2.796589
    16  O    3.857499   3.337607   4.877737   3.607846   2.705291
    17  H    4.743315   4.272131   5.763939   4.312147   3.320600
    18  O    5.533893   5.068377   6.595101   5.625498   4.727515
    19  H    5.962325   5.583216   7.009794   6.143570   5.286052
                    6          7          8          9         10
     6  H    0.000000
     7  O    3.416768   0.000000
     8  H    3.496661   0.970166   0.000000
     9  O    2.059051   2.845174   2.337523   0.000000
    10  H    2.489554   3.531255   2.966569   0.955251   0.000000
    11  Si   4.906537   3.802753   4.397496   5.271694   5.427374
    12  O    5.485216   4.283196   5.104275   6.174097   6.520590
    13  H    6.011255   5.177955   5.996258   6.893968   7.197790
    14  O    4.647678   2.591360   3.082089   4.450149   4.693719
    15  H    4.039989   1.592325   2.146218   3.712444   4.105291
    16  O    3.995361   4.190441   4.670247   4.759458   4.780984
    17  H    4.638828   5.053270   5.451980   5.372685   5.246753
    18  O    6.296441   5.197921   5.653002   6.493821   6.470313
    19  H    6.914493   5.403589   5.801889   6.876460   6.852355
                   11         12         13         14         15
    11  Si   0.000000
    12  O    1.638125   0.000000
    13  H    2.220789   0.953882   0.000000
    14  O    1.589070   2.611932   3.473842   0.000000
    15  H    2.361978   3.115730   4.026885   0.999383   0.000000
    16  O    1.656664   2.677572   2.925888   2.714010   3.132669
    17  H    2.214447   3.292496   3.346514   3.389308   3.929485
    18  O    1.643718   2.709632   2.909368   2.671379   3.639450
    19  H    2.264117   3.226610   3.520347   2.814992   3.812447
                   16         17         18         19
    16  O    0.000000
    17  H    0.954213   0.000000
    18  O    2.598066   2.532947   0.000000
    19  H    3.448419   3.428410   0.954105   0.000000
 Stoichiometry    C2H10O6Si
 Framework group  C1[X(C2H10O6Si)]
 Deg. of freedom    51
 Full point group                 C1      NOp   1
 Largest Abelian subgroup         C1      NOp   1
 Largest concise Abelian subgroup C1      NOp   1
                         Standard orientation:                         
 ---------------------------------------------------------------------
 Center     Atomic      Atomic             Coordinates (Angstroms)
 Number     Number       Type             X           Y           Z
 ---------------------------------------------------------------------
      1          6           0        2.164486    0.707556    0.730377
      2          1           0        1.326899    0.793738    1.418719
      3          1           0        3.039586    1.181235    1.183319
      4          6           0        2.488256   -0.765333    0.473852
      5          1           0        1.595353   -1.289099    0.131763
      6          1           0        2.868689   -1.237068    1.378855
      7          8           0        1.802494    1.443532   -0.451968
      8          1           0        2.414817    1.143269   -1.141985
      9          8           0        3.515581   -0.826683   -0.532377
     10          1           0        3.418366   -1.645496   -1.014662
     11         14           0       -1.673874   -0.041410   -0.038757
     12          8           0       -2.142407    0.982109    1.151344
     13          1           0       -2.827233    0.652369    1.727691
     14          8           0       -0.633396    0.723415   -0.964820
     15          1           0        0.303284    1.017960   -0.778703
     16          8           0       -1.056249   -1.414053    0.653289
     17          1           0       -1.581013   -2.192083    0.480621
     18          8           0       -2.963044   -0.582421   -0.903140
     19          1           0       -3.224787   -0.105620   -1.687020
 ---------------------------------------------------------------------
 Rotational constants (GHZ):           2.2818295           0.5984986           0.5670364
 Standard basis: def2TZVPP (5D, 7F)
 There are   486 symmetry adapted cartesian basis functions of A   symmetry.
 There are   430 symmetry adapted basis functions of A   symmetry.
   430 basis functions,   647 primitive gaussians,   486 cartesian basis functions
    42 alpha electrons       42 beta electrons
       nuclear repulsion energy       609.6473317096 Hartrees.
 NAtoms=   19 NActive=   19 NUniq=   19 SFac= 1.00D+00 NAtFMM=   60 NAOKFM=F Big=F
 Integral buffers will be    131072 words long.
 Raffenetti 2 integral format.
 Two-electron integral symmetry is turned on.
 Nuclear repulsion after empirical dispersion term =      609.6380020877 Hartrees.
 One-electron integrals computed using PRISM.
   1 Symmetry operations used in ECPInt.
 ECPInt:  NShTT=   13203 NPrTT=   36019 LenC2=   12192 LenP2D=   25771.
 LDataN:  DoStor=T MaxTD1= 6 Len=  172
 NBasis=   430 RedAO= T EigKep=  2.88D-04  NBF=   430
 NBsUse=   430 1.00D-06 EigRej= -1.00D+00 NBFU=   430
 Initial guess from the checkpoint file:  "SiAttackIRCReactantOpt.chk"
 B after Tr=    -0.000000    0.000000    0.000000
         Rot=    0.998188   -0.058635   -0.011623   -0.006866 Ang=  -6.90 deg.
 ExpMin= 7.01D-02 ExpMax= 4.48D+04 ExpMxC= 1.53D+03 IAcc=3 IRadAn=         5 AccDes= 0.00D+00
 Harris functional with IExCor= 4639 and IRadAn=       5 diagonalized for initial guess.
 HarFok:  IExCor= 4639 AccDes= 0.00D+00 IRadAn=         5 IDoV= 1 UseB2=F ITyADJ=14
 ICtDFT=  3500011 ScaDFX=  1.000000  1.000000  1.000000  1.000000
 FoFCou: FMM=F IPFlag=           0 FMFlag=      100000 FMFlg1=           0
         NFxFlg=           0 DoJE=T BraDBF=F KetDBF=T FulRan=T
         wScrn=  0.000000 ICntrl=       500 IOpCl=  0 I1Cent=   200000004 NGrid=           0
         NMat0=    1 NMatS0=      1 NMatT0=    0 NMatD0=    1 NMtDS0=    0 NMtDT0=    0
 Petite list used in FoFCou.
 Requested convergence on RMS density matrix=1.00D-08 within 128 cycles.
 Requested convergence on MAX density matrix=1.00D-06.
 Requested convergence on             energy=1.00D-06.
 No special actions if energy rises.
 Integral accuracy reduced to 1.0D-05 until final iterations.
 Initial convergence to 1.0D-05 achieved.  Increase integral accuracy.
 SCF Done:  E(RwB97XD) =  -823.366178008     A.U. after   12 cycles
            NFock= 12  Conv=0.78D-08     -V/T= 2.0035
   1 Symmetry operations used in ECPInt.
 ECPInt:  NShTT=   13203 NPrTT=   36019 LenC2=   12192 LenP2D=   25771.
 LDataN:  DoStor=T MaxTD1= 7 Len=  274
 Calling FoFJK, ICntrl=      2127 FMM=F ISym2X=0 I1Cent= 0 IOpClX= 0 NMat=1 NMatS=1 NMatT=0.
 ***** Axes restored to original set *****
 -------------------------------------------------------------------
 Center     Atomic                   Forces (Hartrees/Bohr)
 Number     Number              X              Y              Z
 -------------------------------------------------------------------
      1        6           0.006963644   -0.000372332   -0.000599373
      2        1          -0.000759201   -0.000687001    0.000944140
      3        1          -0.000898203    0.001317128   -0.000427752
      4        6           0.004108530    0.003768608   -0.014960979
      5        1          -0.001813524   -0.000391432    0.001086940
      6        1          -0.003904054    0.002412389    0.004315400
      7        8           0.013368709   -0.015578646    0.004989639
      8        1          -0.004867644    0.004453107    0.003991691
      9        8          -0.007985299    0.005329251    0.002817802
     10        1           0.000422762    0.000624837    0.000235419
     11       14          -0.002623900   -0.005657866    0.006909599
     12        8           0.000129039   -0.000588345   -0.000860746
     13        1           0.000020751    0.000933097    0.001442541
     14        8           0.013506230    0.003488650   -0.005836996
     15        1          -0.017704900   -0.004216043   -0.001667895
     16        8          -0.002311724    0.004992088   -0.002886129
     17        1           0.001397184   -0.001570204   -0.000119294
     18        8           0.002169809    0.000946168   -0.000648282
     19        1           0.000781791    0.000796545    0.001274278
 -------------------------------------------------------------------
 Cartesian Forces:  Max     0.017704900 RMS     0.005404142

[...]
 -0.00061330,0.00036536,0.00089205,0.00156812,-0.00094654,-0.22818847,-
 0.11102531,-0.04019044,0.25976035,-0.02843685,-0.01971670,-0.00848363,
 0.00010131,0.00075502,-0.00026107,0.00123996,-0.00538060,0.00290211,-0
 .11503277,-0.12294165,-0.02184391,0.11628264,0.13124130,0.00867127,0.0
 0687549,0.00143790,-0.00018819,-0.00075584,0.00018922,0.00032146,0.002
 01631,0.00005164,-0.04478735,-0.02648976,-0.06427738,0.03668861,0.0276
 8467,0.06353284,-0.00058077,-0.00408188,-0.00173237,-0.00011079,-0.000
 09503,-0.00010886,0.00033450,0.00031668,0.00046706,-0.06516762,-0.0006
 1886,-0.06260796,-0.00355029,0.00129147,-0.02535342,0.06904735,0.00695
 032,0.00542251,0.02899336,0.00051923,0.00067694,-0.00080770,-0.0009287
 3,0.00098251,-0.00061670,-0.00382664,-0.05480486,0.00396696,-0.0047537
 3,0.00225283,-0.01714153,-0.00408671,0.05393495,-0.00446845,-0.0020445
 7,-0.01067131,-0.00028251,0.00076283,-0.00001922,0.00065387,0.00013045
 ,0.00034079,-0.05874787,0.00408688,-0.28543623,-0.00227640,0.00121176,
 -0.00432308,0.05382613,0.00078816,0.31727165,-0.09300778,0.01430353,-0
 .00844005,0.00983954,-0.00135827,0.02747208,0.00106553,0.00209415,-0.0
 3476725,-0.00043325,0.00264877,-0.00530482,0.00053783,0.00164373,0.000
 62595,0.00153795,0.00100055,-0.00009828,0.34569553,0.01200929,-0.07661
 792,-0.02208688,-0.00461459,0.00225019,-0.01968519,-0.00099688,0.00499
 653,-0.01774271,0.00926422,-0.00050016,0.03815002,0.00024254,0.0040039
 7,-0.00086469,0.00187218,-0.00696834,0.00304510,-0.23433384,0.28597500
 ,-0.04221574,0.01322759,-0.22377494,-0.00451774,0.00029821,-0.02805304
 ,-0.00962709,-0.00224795,-0.02877043,-0.00533764,0.00406263,-0.0423640
 8,0.00079030,-0.00083896,0.00189031,-0.00145052,0.00641263,-0.00007549
 ,-0.07762191,0.12111157,0.43756954,0.00537884,-0.00430355,-0.00270772,
 0.00087177,0.00004157,-0.00086645,-0.00007864,-0.00070351,-0.00169421,
 0.00179307,0.00033361,-0.00207875,-0.00051265,-0.00024153,0.00050078,-
 0.00076386,0.00064101,0.00006608,-0.24975476,0.21896282,0.13871875,0.2
 4666254,-0.00042443,0.00161889,-0.00058719,-0.00096787,0.00004621,0.00
 173509,0.00071883,-0.00042342,0.00007889,-0.00232494,0.00233451,0.0053
 3619,0.00008569,-0.00037078,-0.00005836,0.00055645,-0.00056236,-0.0008
 2550,0.21814184,-0.21073520,-0.13775070,-0.21586763,0.20826336,0.03062
 257,-0.02791818,-0.02770101,-0.00270976,0.00045527,-0.00680378,-0.0001
 9419,-0.00058883,0.00030867,0.00308529,-0.00056724,-0.00206116,-0.0001
 0028,0.00034682,-0.00003163,0.00006598,-0.00063351,0.00071336,0.102963
 76,-0.10537192,-0.11795247,-0.13421146,0.13461141,0.14974581,-0.009359
 17,0.01231595,0.00524092,0.00132377,0.00041436,-0.00043708,0.00150339,
 0.00052454,-0.00088771,-0.16758560,0.01589960,0.06945194,-0.03066679,0
 .02215465,0.02499840,-0.00104077,0.00533218,0.01080055,0.00117210,0.00
 088825,0.00025296,-0.00184366,-0.00030648,0.00002268,0.23905678,0.0429
 5693,-0.02733690,-0.02438769,0.00027380,-0.00777048,0.00438035,-0.0007
 2367,0.00329483,-0.00093156,0.05750468,-0.11344540,-0.03873749,-0.0033
 5219,0.00784541,0.00674224,0.00589297,-0.00078855,-0.00775200,0.001838
 45,0.00077787,-0.00130372,-0.00085955,-0.00043686,-0.00145141,-0.03529
 161,0.68196121,-0.00244129,0.00052676,-0.00097216,-0.00038677,0.001650
 50,0.00031282,-0.00024119,-0.00035246,0.00026615,0.07330042,-0.0174809
 1,-0.11151639,0.00560836,-0.00202241,0.00116368,0.03593559,-0.01944068
 ,-0.01711492,-0.00296200,0.00399349,0.00507927,-0.00032872,-0.00300867
 ,0.00136648,-0.13134405,0.01664687,0.13892832,-0.00589094,0.00284803,0
 .00403156,0.00014057,0.00173089,-0.00065132,0.00013284,-0.00012071,0.0
 0019789,-0.00179375,0.03743032,-0.00083713,0.00026233,0.00042130,-0.00
 076041,0.00021004,-0.00031100,0.00037249,0.00012838,-0.00053105,0.0002
 2772,-0.00002090,0.00007825,-0.00023335,-0.03196693,-0.06797964,0.0223
 3717,0.03847111,0.00365750,-0.00111695,-0.00217311,-0.00003288,-0.0005
 9733,0.00065809,0.00009125,0.00072637,-0.00011625,-0.00630297,-0.01493
 230,0.00384057,-0.00094521,0.00259038,0.00141715,-0.00070340,0.0001770
 4,0.00062006,-0.00038720,0.00087177,-0.00104521,-0.00031027,-0.0003697
 3,0.00011881,-0.02157217,-0.54415573,0.01935507,0.02645252,0.55691501,
 0.00220626,-0.00011017,-0.00279891,-0.00001378,-0.00049992,0.00047996,
 -0.00008322,0.00010082,-0.00012198,-0.00016184,-0.02380172,-0.00133003
 ,0.00055858,0.00063730,0.00103563,0.00055896,-0.00156050,-0.00092303,-
 0.00141644,0.00100202,0.00035241,0.00113731,-0.00027520,0.00135586,0.0
 2173382,0.04713255,-0.01776721,-0.02467640,-0.02269863,0.01980148,-0.0
 0203151,-0.00134682,-0.00245153,-0.00048854,-0.00081892,-0.00053673,0.
 00082881,0.00032936,0.00016826,-0.00412817,-0.00103797,0.00033344,-0.0
 0118900,0.00208202,-0.00123226,0.00110402,0.00037034,0.00052358,0.0039
 1347,0.00228913,0.00073610,-0.00103673,-0.00020447,0.00078852,0.003278
 15,-0.00099734,-0.00011087,-0.00081656,0.00060658,-0.00025312,0.516253
 38,-0.00261006,0.00131084,-0.00244364,-0.00080443,-0.00099459,-0.00059
 597,0.00075488,-0.00063779,0.00058251,0.00114935,0.00219342,0.00021077
 ,0.00118278,0.00156272,0.00070512,-0.00036222,-0.00055325,-0.00008400,
 0.00603389,-0.00039315,0.00254153,-0.00001059,0.00131669,0.00012329,-0
 .00000570,-0.00226807,-0.00038974,0.00110426,0.00033354,0.00041067,0.0
 3311888,0.51880614,-0.00046896,0.00061759,0.00923893,-0.00081339,-0.00
 177952,0.00011857,0.00025877,-0.00014550,-0.00182942,-0.00287581,0.000
 05004,0.00032934,-0.00085375,0.00135400,0.00133394,-0.00049143,0.00044
 988,-0.00067376,-0.01077459,-0.00247571,-0.00814187,0.00069317,-0.0004
 2374,0.00012254,0.00248173,-0.00045227,-0.00238858,-0.00015358,0.00022
 246,0.00036126,0.01137805,-0.03582842,0.53658046,0.00030521,-0.0007462
 6,-0.00194247,-0.00136926,0.00115664,0.00040719,-0.00066605,0.00016603
 ,0.00044979,0.00185176,-0.00015897,0.00007485,-0.00139449,-0.00093056,
 -0.00042877,0.00003145,-0.00010586,0.00003804,0.00024343,0.00005849,0.
 00140267,0.00014663,0.00001717,-0.00022373,-0.00195588,0.00077927,0.00
 078996,0.00019238,-0.00031885,-0.00004025,-0.04991958,-0.02258781,-0.0
 2475135,0.10540944,0.00053344,-0.00116310,-0.00090717,-0.00006782,0.00
 032026,0.00016662,-0.00029164,0.00039173,0.00010445,-0.00098514,-0.001
 38707,-0.00015392,0.00024218,0.00007235,0.00017119,0.00016010,0.000097
 40,0.00012218,0.00003475,0.00076090,0.00040238,-0.00008824,-0.00033470
 ,0.00009916,0.00057791,0.00075025,0.00009744,-0.00038788,0.00003137,-0
 .00010259,-0.02336544,-0.09038730,-0.07208762,0.10659510,0.21793524,0.
 00027319,-0.00041115,-0.00307858,0.00038228,0.00062802,-0.00075698,0.0
 0006584,0.00008842,0.00049206,0.00040846,-0.00052917,-0.00052165,0.000
 07904,-0.00027394,-0.00091967,0.00067867,-0.00001476,0.00053813,0.0026
 6327,0.00095906,0.00306630,-0.00033129,0.00003306,0.00001123,-0.000572
 66,0.00029331,0.00115799,-0.00014938,-0.00009849,-0.00026179,-0.040256
 37,-0.09850475,-0.22033626,-0.10426673,-0.08994873,0.65522094,-0.00003
 747,-0.00019808,0.00038996,0.00000856,-0.00009767,0.00027479,-0.000023
 05,0.00008757,-0.00004665,-0.00051007,-0.00005280,0.00028306,-0.000055
 06,0.00017123,0.00040694,-0.00022154,-0.00001653,-0.00019241,-0.000121
 28,0.00006879,-0.00052744,-0.00001549,-0.00006437,0.00006137,0.0005391
 1,-0.00006415,-0.00041609,-0.00008238,0.00009909,0.00005624,0.00169516
 ,-0.00048780,-0.00716173,-0.06147564,-0.07824277,0.15192914,0.06081841
 ,-0.00021991,0.00009797,-0.00000429,0.00008256,-0.00001477,0.00015311,
 -0.00002217,-0.00004637,0.00003088,0.00021275,0.00013252,0.00011366,0.
 00004470,0.00002887,-0.00017437,0.00001526,0.00004012,-0.00000959,0.00
 008456,-0.00012014,-0.00001670,0.00000635,0.00006581,-0.00004078,-0.00
 012784,-0.00011706,0.00001132,0.00008537,0.00000395,-0.00000799,0.0016
 1857,0.00272227,-0.01668038,-0.08127990,-0.11603464,0.21146795,0.08067
 764,0.11545272,-0.00006139,-0.00000327,0.00001893,0.00021137,0.0001130
 0,0.00009768,-0.00011257,-0.00001680,0.00004969,0.00031636,0.00015173,
 0.00027040,0.00007508,-0.00011141,0.00001226,-0.00014555,-0.00004387,-
 0.00012842,-0.00008232,-0.00006739,-0.00008305,0.00003848,0.00002386,-
 0.00002805,-0.00024799,0.00000791,-0.00012493,0.00008992,-0.00001669,0
 .00006504,0.00846364,0.01033919,-0.02392382,0.13688160,0.18279393,-0.4
 0030219,-0.14446270,-0.19376710,0.42027439,-0.00092549,-0.00016630,0.0
 0931823,0.00021130,-0.00015501,-0.00026828,-0.00064805,-0.00010494,-0.
 00231041,0.00009100,-0.00056656,-0.00024973,-0.00035532,-0.00020154,0.
 00048493,-0.00042906,0.00044753,-0.00049757,-0.02467687,-0.00421037,-0
 .00958363,-0.00010344,-0.00200803,-0.00180123,-0.00051556,0.00111328,-
 0.00083462,0.00010765,-0.00029890,-0.00001084,-0.12086325,-0.06783987,
 0.09475963,0.00638372,-0.00059677,0.00664196,0.00154654,-0.00022564,-0
 .00050672,0.57885677,0.00015184,-0.00045423,0.00305230,0.00022894,-0.0
 0016509,0.00040653,-0.00022200,0.00014653,-0.00071468,-0.00109111,-0.0
 0121692,-0.00007201,-0.00002913,0.00009714,-0.00016231,0.00009715,0.00
 039289,-0.00010002,-0.00791721,0.00371778,-0.00289291,-0.00137871,-0.0
 0141199,-0.00094248,0.00032071,0.00097803,-0.00010231,-0.00038611,-0.0
 0005076,-0.00022800,-0.06204122,-0.10174903,0.09433126,0.00184829,0.00
 753404,-0.00237897,-0.00040141,0.00076466,-0.00158337,0.19694865,0.145
 21263,0.00155432,0.00021561,-0.00254845,0.00036570,0.00063578,0.000331
 93,-0.00007173,-0.00000649,0.00078394,0.00142394,0.00001909,-0.0001205
 1,0.00008959,-0.00048054,-0.00014957,-0.00001421,-0.00022302,0.0001911
 9,-0.00001377,0.00064205,0.00683161,-0.00109620,-0.00047269,-0.0008892
 7,-0.00100068,0.00028106,0.00087210,0.00012765,-0.00007186,-0.00015071
 ,0.08101813,0.08739123,-0.17687917,0.01015696,0.00783400,-0.02715169,0
 .00038292,-0.00262683,-0.00144482,-0.05264120,-0.09670182,0.22395130,0
 .00162980,-0.00002691,-0.01248259,0.00014227,0.00035155,0.00109419,0.0
 0104359,0.00011600,0.00325188,0.00080643,0.00143710,0.00055974,0.00002
 551,-0.00018326,-0.00032335,0.00027828,-0.00081282,0.00055621,0.005629
 78,0.00020108,0.00883789,-0.00118425,0.00222157,0.00237000,0.00010921,
 -0.00131626,0.00085901,0.00004836,0.00026152,0.00021546,-0.01506161,-0
 .01138390,0.01601597,-0.00014659,0.00018193,-0.00749936,0.00060908,-0.
 00018113,-0.00007553,-0.42444627,-0.10975303,-0.04724713,0.42688744,0.
 00028553,0.00015488,-0.00184147,-0.00008323,0.00016729,-0.00041312,0.0
 0012401,-0.00008741,0.00036393,0.00114599,0.00103589,0.00029898,-0.000
 18221,-0.00046054,0.00028162,-0.00017706,-0.00036621,0.00003811,-0.000
 68806,-0.00812631,-0.00076455,0.00369161,0.00166517,0.00188570,-0.0003
 5037,-0.00070929,-0.00003697,0.00024142,-0.00004533,0.00022843,-0.0142
 0892,-0.00703935,0.00592035,0.00019651,-0.00067234,-0.00220928,-0.0000
 0779,-0.00017563,0.00004490,-0.10480685,-0.04222147,-0.00878981,0.1130
 4772,0.05409160,-0.00489794,-0.00093121,-0.00222455,-0.00019917,-0.000
 49070,-0.00059600,0.00034454,0.00003427,-0.00037082,-0.00079850,0.0004
 5578,-0.00014463,0.00008607,0.00044239,-0.00020893,0.00022628,0.000007
 43,0.00009599,0.00476473,-0.00119735,-0.00815497,0.00237901,0.00147360
 ,0.00195118,0.00064666,-0.00068367,-0.00024779,-0.00002088,0.00010186,
 0.00011712,0.02225867,0.00838067,-0.00242975,-0.00170862,-0.00064721,-
 0.00051917,-0.00053959,0.00012710,-0.00012226,-0.06372922,-0.01403820,
 -0.02791269,0.03945485,0.00485490,0.04293556,-0.00045804,0.00051443,-0
 .00016947,-0.00003205,-0.00006644,-0.00000862,-0.00003895,-0.00031196,
 0.00012459,0.00177429,0.00075758,-0.00017077,-0.00109963,-0.00015677,0
 .00033679,-0.00049935,-0.00036326,-0.00021494,0.00021225,-0.00074161,0
 .00033210,0.00032332,0.00045773,-0.00021883,-0.00102204,-0.00027313,-0
 .00012901,0.00075015,-0.00008433,0.00028317,-0.05789673,0.04403498,-0.
 01269354,0.00763921,-0.00311191,-0.00127187,-0.00109180,-0.00025566,-0
 .00071582,0.00923895,-0.00729532,0.00269074,-0.00057117,0.00166897,-0.
 00056064,0.13389252,0.00090994,-0.00022768,0.00082654,0.00030835,0.000
 41706,0.00010261,-0.00031735,0.00012139,-0.00017067,0.00083217,-0.0003
 9372,-0.00059763,-0.00022547,-0.00123311,-0.00008976,-0.00019127,-0.00
 003283,-0.00003544,-0.00226259,0.00006518,-0.00077735,0.00014879,-0.00
 047816,-0.00013092,-0.00101781,0.00123882,0.00053496,-0.00047702,-0.00
 042451,-0.00016648,0.06422129,-0.25033773,0.03720766,0.00222712,-0.022
 26387,-0.01179930,-0.00049369,-0.00138724,0.00262451,-0.00258104,-0.01
 501977,0.00984645,0.00542520,0.00049812,0.00026589,0.05979928,0.568489
 30,-0.00020189,0.00003394,-0.00170854,0.00007645,0.00022246,-0.0000260
 8,-0.00000189,-0.00008446,0.00034005,0.00094580,-0.00007357,-0.0001877
 8,0.00005388,-0.00012898,-0.00051759,0.00006468,-0.00007093,0.00014560
 ,0.00148111,0.00034319,0.00156455,-0.00023957,-0.00002584,-0.00015525,
 -0.00075488,0.00015341,0.00078269,0.00003551,-0.00006179,-0.00025703,-
 0.01091206,0.01356973,-0.05227681,0.00215001,-0.02141426,-0.00172537,-
 0.00070396,0.00138524,0.00264781,0.00330967,0.01613196,0.00260859,-0.0
 0344327,0.00019182,-0.00142135,0.14418092,0.20685008,0.27303249,-0.000
 01234,0.00002474,-0.00011309,-0.00001110,0.00002094,0.00001019,0.00001
 339,-0.00001303,0.00002274,0.00020090,-0.00009249,-0.00022672,0.000223
 70,-0.00010585,-0.00005822,-0.00004592,-0.00002066,0.00002569,-0.00000
 869,0.00013621,0.00012244,-0.00008057,-0.00013830,-0.00003380,-0.00019
 018,0.00023518,0.00030950,-0.00017855,-0.00008793,-0.00014834,0.002951
 56,0.00945244,0.00337716,0.00099744,0.00340396,0.00083106,0.00019608,-
 0.00032156,-0.00048812,-0.00069440,0.00064218,0.00056384,0.00011088,-0
 .00009625,-0.00014800,-0.07579603,-0.13841265,-0.12902475,0.07372732,-
 0.00004335,-0.00004904,-0.00025711,-0.00001384,-0.00002686,-0.00001182
 ,0.00004786,0.00003368,0.00003986,-0.00021901,0.00007933,0.00007598,-0
 .00019845,-0.00007345,-0.00007409,0.00006856,0.00001941,0.00003760,0.0
 0046741,0.00014158,0.00021877,-0.00010374,0.00001040,0.00003227,0.0002
 9141,-0.00016431,-0.00003641,-0.00003679,0.00011291,-0.00000214,-0.008
 33260,-0.02307750,-0.01756242,0.00109584,-0.00175245,0.00003503,-0.000
 04721,-0.00023151,-0.00007387,0.00173314,0.00171334,0.00085405,-0.0008
 7512,-0.00004168,-0.00012135,-0.11838694,-0.27363021,-0.22425511,0.126
 92405,0.29354129,-0.00000598,-0.00005360,0.00008430,0.00000293,-0.0000
 1480,-0.00001174,0.00000223,0.00001244,-0.00001951,-0.00004172,0.00003
 439,0.00011913,-0.00005119,-0.00000541,-0.00009100,0.00002357,0.000005
 46,-0.00001591,0.00001523,0.00000664,-0.00014604,0.00003217,0.00002939
 ,0.00007883,0.00004844,-0.00002466,-0.00011979,-0.00002232,-0.00000923
 ,0.00007682,-0.00064683,0.00698222,0.00094401,-0.00015412,-0.00088190,
 0.00135186,-0.00038429,0.00032133,0.00038439,-0.00034519,0.00137294,-0
 .00238461,-0.00009616,-0.00018946,0.00018429,-0.12308673,-0.24918189,-
 0.22898236,0.12581044,0.24031595,0.22984980,0.00028819,0.00010766,0.00
 100201,0.00024390,0.00030743,0.00005156,-0.00032869,-0.00008656,-0.000
 19315,0.00100187,-0.00009433,-0.00004977,0.00005034,-0.00016582,0.0001
 2038,-0.00016907,-0.00001547,-0.00012053,-0.00288164,-0.00076837,-0.00
 096035,0.00030609,-0.00001504,-0.00030316,-0.00100242,0.00039908,0.000
 02135,0.00034041,-0.00016529,0.00006671,-0.25930319,-0.01218157,-0.051
 25429,-0.00599559,-0.00368445,-0.01082468,-0.00196072,-0.00013715,0.00
 088481,-0.02766969,-0.00930412,0.00308865,0.00528362,0.00119040,0.0027
 3905,-0.01243071,0.01128898,-0.00626748,-0.00138629,-0.00225768,-0.000
 96392,0.39374422,0.00029540,-0.00019800,0.00049386,0.00007542,0.000094
 41,0.00003175,-0.00008033,0.00007992,-0.00012729,-0.00014942,-0.000293
 86,-0.00006705,-0.00013720,-0.00024809,-0.00007630,0.00004513,0.000078
 02,0.00001115,-0.00115868,-0.00001684,-0.00058554,0.00002744,-0.000210
 05,-0.00002390,-0.00001795,0.00035675,0.00006194,-0.00017543,-0.000068
 25,-0.00006716,0.01233844,-0.05007942,0.00838795,-0.00589717,0.0078279
 3,-0.00583226,-0.00108508,-0.00125494,-0.00071435,-0.01417098,0.003311
 18,0.00126334,0.00107743,0.00225059,0.00193940,0.02299804,-0.00647991,
 0.00680536,-0.00126177,0.00313366,0.00096370,-0.14919963,0.37476844,0.
 00014915,-0.00008875,-0.00135923,0.00013279,0.00032518,-0.00001430,-0.
 00008840,0.00001140,0.00027486,0.00058660,-0.00008713,-0.00008930,0.00
 004686,-0.00013816,-0.00013810,0.00006124,-0.00007663,0.00009772,0.001
 45858,0.00022660,0.00127687,-0.00000491,0.00011540,-0.00008201,-0.0005
 3560,0.00013509,0.00038631,0.00010478,-0.00005697,-0.00005011,-0.06670
 018,0.00033680,-0.05775110,-0.01889301,-0.00407661,-0.00635974,0.00058
 658,-0.00050352,0.00225796,0.01673084,0.00416448,0.00569441,-0.0019620
 9,0.00021760,-0.00068285,-0.01056046,0.00606810,0.00412922,-0.00044527
 ,0.00018904,-0.00146503,0.17734286,-0.23305636,0.20935323,-0.00012580,
 -0.00000375,-0.00045022,-0.00004939,-0.00004079,-0.00003014,0.00007949
 ,0.00000430,0.00008879,-0.00011923,0.00006387,0.00001185,0.00002547,0.
 00006663,-0.00002354,0.00003545,-0.00001976,0.00003633,0.00090849,0.00
 020372,0.00042114,-0.00008730,0.00004403,0.00004960,0.00016650,-0.0001
 3612,0.00003324,-0.00003422,0.00004093,-0.00001230,-0.01728969,0.02144
 249,-0.01667207,-0.00027759,-0.00090731,0.00121942,0.00018157,-0.00005
 678,-0.00006259,0.00489146,-0.00041838,0.00062249,-0.00119434,-0.00099
 144,-0.00029731,-0.00289421,0.00081777,-0.00074828,-0.00001719,-0.0001
 1353,-0.00013656,-0.08813063,0.13647637,-0.09801037,0.10393115,0.00000
 084,0.00001010,0.00005053,0.00002247,0.00004022,-0.00001047,-0.0000263
 1,0.00000076,-0.00001079,0.00002966,0.00001190,0.00000104,0.00000350,-
 0.00002508,-0.00000679,0.00000050,0.00000176,-0.00000316,-0.00018576,-
 0.00008270,-0.00005173,0.00001413,0.00001220,-0.00000355,-0.00002964,-
 0.00001053,-0.00000779,0.00001328,-0.00000144,0.00000872,-0.00462091,-
 0.00072844,-0.00110559,-0.00211510,-0.00172600,-0.00150404,0.00015503,
 0.00007340,0.00029910,-0.00230980,-0.00157896,0.00039040,0.00021132,0.
 00008200,0.00002640,0.00081632,0.00107885,0.00042773,-0.00028921,0.000
 26142,0.00031648,0.16478194,-0.33305156,0.22629445,-0.15647227,0.33563
 211,-0.00003604,0.00000972,0.00011192,-0.00001970,-0.00002888,-0.00000
 886,0.00001531,0.00000286,-0.00001549,-0.00010306,0.00003449,0.0000212
 8,-0.00001267,0.00000936,0.00000954,-0.00000386,0.00000597,-0.00001307
 ,0.00003670,0.00001210,-0.00011450,-0.00000647,-0.00000899,0.00005066,
 0.00010256,-0.00004832,-0.00006403,-0.00001993,0.00001414,0.00001522,-
 0.00256845,0.00627279,-0.00239850,0.00005798,-0.00157134,0.00009459,0.
 00006385,0.00022096,0.00007897,0.00153335,0.00045762,-0.00163359,-0.00
 008571,-0.00008170,-0.00024836,0.00185240,-0.00137735,0.00200717,-0.00
 038677,0.00059578,0.00016257,-0.11438004,0.22059177,-0.15547880,0.1139
 6053,-0.22511097,0.15742328\\0.00000537,0.00000034,0.00000460,0.000000
 60,-0.00000133,-0.00000382,-0.00000019,-0.00000205,-0.00000268,-0.0000
 1157,0.00001059,0.00000592,0.00000287,-0.00000185,-0.00000299,0.000003
 53,0.00000273,-0.00000420,-0.00000560,-0.00000752,-0.00000502,0.000003
 35,0.00000342,-0.00000044,0.00001335,-0.00000941,-0.00000385,-0.000002
 22,-0.00000212,-0.00000021,0.00001713,-0.00000022,-0.00000780,-0.00000
 219,-0.00000335,-0.00000166,0.00000619,0.00000459,0.00000141,-0.000005
 75,-0.00001888,0.00000846,-0.00000240,0.00002146,0.00000304,-0.0000076
 8,0.00000387,0.00000267,-0.00000223,0.00000038,0.00000419,-0.00001750,
 -0.00000256,0.00000645,0.00000494,0.00000191,-0.00000408\\\@
 The archive entry for this job was punched.


 Other things may change us, but we start and end with family.
 -- Anthony Brandt
 Job cpu time:       0 days  3 hours 10 minutes 55.2 seconds.
 Elapsed time:       0 days  0 hours 12 minutes  9.0 seconds.
 File lengths (MBytes):  RWF=    293 Int=      0 D2E=      0 Chk=     16 Scr=      1
 Normal termination of Gaussian 16 at Sun Oct 22 20:31:24 2023.
