 Entering Gaussian System, Link 0=/opt/software/gaussian/g16.c01/g16
 Initial command:
 /opt/software/gaussian/g16.c01/l1.exe "/scratch/arhender/15251215/Gau-213294.inp" -scrdir="/scratch/arhender/15251215/"
 Entering Link 1 = /opt/software/gaussian/g16.c01/l1.exe PID=    213297.
  
 Copyright (c) 1988-2019, Gaussian, Inc.  All Rights Reserved.
  
 This is part of the Gaussian(R) 16 program.  It is based on
 the Gaussian(R) 09 system (copyright 2009, Gaussian, Inc.),
 the Gaussian(R) 03 system (copyright 2003, Gaussian, Inc.),
 the Gaussian(R) 98 system (copyright 1998, Gaussian, Inc.),
 the Gaussian(R) 94 system (copyright 1995, Gaussian, Inc.),
 the Gaussian 92(TM) system (copyright 1992, Gaussian, Inc.),
 the Gaussian 90(TM) system (copyright 1990, Gaussian, Inc.),
 the Gaussian 88(TM) system (copyright 1988, Gaussian, Inc.),
 the Gaussian 86(TM) system (copyright 1986, Carnegie Mellon
 University), and the Gaussian 82(TM) system (copyright 1983,
 Carnegie Mellon University). Gaussian is a federally registered
 trademark of Gaussian, Inc.
  
 This software contains proprietary and confidential information,
 including trade secrets, belonging to Gaussian, Inc.
  
 This software is provided under written license and may be
 used, copied, transmitted, or stored only in accord with that
 written license.
  
 The following legend is applicable only to US Government
 contracts under FAR:
  
                    RESTRICTED RIGHTS LEGEND
  
 Use, reproduction and disclosure by the US Government is
 subject to restrictions as set forth in subparagraphs (a)
 and (c) of the Commercial Computer Software - Restricted
 Rights clause in FAR 52.227-19.
  
 Gaussian, Inc.
 340 Quinnipiac St., Bldg. 40, Wallingford CT 06492
  
  
 ---------------------------------------------------------------
 Warning -- This program may not be used in any manner that
 competes with the business of Gaussian, Inc. or will provide
 assistance to any competitor of Gaussian, Inc.  The licensee
 of this program is prohibited from giving any competitor of
 Gaussian, Inc. access to this program.  By using this program,
 the user acknowledges that Gaussian, Inc. is engaged in the
 business of creating and licensing software in the field of
 computational chemistry and represents and warrants to the
 licensee that it is not a competitor of Gaussian, Inc. and that
 it will not use this program in any manner prohibited above.
 ---------------------------------------------------------------
  

 Cite this work as:
 Gaussian 16, Revision C.01,
 M. J. Frisch, G. W. Trucks, H. B. Schlegel, G. E. Scuseria, 
 M. A. Robb, J. R. Cheeseman, G. Scalmani, V. Barone, 
 G. A. Petersson, H. Nakatsuji, X. Li, M. Caricato, A. V. Marenich, 
 J. Bloino, B. G. Janesko, R. Gomperts, B. Mennucci, H. P. Hratchian, 
 J. V. Ortiz, A. F. Izmaylov, J. L. Sonnenberg, D. Williams-Young, 
 F. Ding, F. Lipparini, F. Egidi, J. Goings, B. Peng, A. Petrone, 
 T. Henderson, D. Ranasinghe, V. G. Zakrzewski, J. Gao, N. Rega, 
 G. Zheng, W. Liang, M. Hada, M. Ehara, K. Toyota, R. Fukuda, 
 J. Hasegawa, M. Ishida, T. Nakajima, Y. Honda, O. Kitao, H. Nakai, 
 T. Vreven, K. Throssell, J. A. Montgomery, Jr., J. E. Peralta, 
 F. Ogliaro, M. J. Bearpark, J. J. Heyd, E. N. Brothers, K. N. Kudin, 
 V. N. Staroverov, T. A. Keith, R. Kobayashi, J. Normand, 
 K. Raghavachari, A. P. Rendell, J. C. Burant, S. S. Iyengar, 
 J. Tomasi, M. Cossi, J. M. Millam, M. Klene, C. Adamo, R. Cammi, 
 J. W. Ochterski, R. L. Martin, K. Morokuma, O. Farkas, 
 J. B. Foresman, and D. J. Fox, Gaussian, Inc., Wallingford CT, 2019.
 
 ******************************************
 Gaussian 16:  ES64L-G16RevC.01  3-Jul-2019
                14-Oct-2023 
 ******************************************
 %chk=IRCAttemptEGAttackAxialDeprotonatedSi_Forward.chk
 %mem=8GB
 %nprocs=16
 Will use up to   16 processors via shared memory.
 ----------------------------------------------------------------------
 # irc=(forward,calcfc,maxpoints=20,maxcycles=100) wb97xd/def2tzvpp geo
 m=connectivity
 ----------------------------------------------------------------------
 1/6=100,10=4,18=10,22=1,26=3,38=1,42=20,44=3,57=2,172=1/1,23;
 2/12=2,17=6,18=5,29=1,40=1/2;
 3/5=44,7=202,11=2,25=1,30=1,71=2,74=-58,140=1/1,2,3;
 4//1;
 5/5=2,38=5/2;
 8/6=4,10=90,11=11/1;
 11/6=1,8=1,9=11,15=111,16=1/1,2,10;
 10/6=1,13=1/2;
 6/7=2,8=2,9=2,10=2,28=1/1;
 7/10=1,25=1/1,2,3,16;
 1/6=100,10=4,18=10,22=1,26=3,42=20,44=3/23(2);
 2/29=1/2;
 99/5=20/99;
 2/29=1/2;
 3/5=44,7=202,11=2,25=1,30=1,71=2,74=-58,140=1/1,2,3;
 4/5=5,16=3,69=1/1;
 5/5=2,38=5/2;
 8/6=4,10=90,11=11/1;
 11/6=1,8=1,9=11,15=111,16=1/1,2,10;
 10/6=1,13=1/2;
 7/10=1,25=1/1,2,3,16;
 1/6=100,18=10,22=1,26=3,42=20,44=3/23(-8);
 2/29=1/2;
 6/7=2,8=2,9=2,10=2,19=2,28=1/1;
 99/5=20,9=1/99;
 ----------------------------------------------------------------------
 IRC Attempt EGOH on deprotonated axial silicic acid trig bypryamid TS 
 Deprotonated
 ----------------------------------------------------------------------
 Symbolic Z-matrix:
 Charge = -1 Multiplicity = 1
 Si                    0.96276  -0.4947   -0.13866 
 O                     1.73069  -1.64604  -0.78829 
 O                     2.24083   1.68507   0.38804 
 H                     3.14095   1.61412   0.07826 
 O                     0.44227   0.81167  -1.01365 
 H                     1.15912   1.46029  -0.63326 
 O                     0.86892  -0.22142   1.48244 
 H                     1.44953   0.56996   1.54668 
 C                    -1.97078  -0.73689   0.70096 
 H                    -1.65892  -0.92602   1.72509 
 H                    -2.88522  -1.29431   0.48181 
 C                    -2.16964   0.75375   0.45586 
 H                    -1.36034   1.30304   0.94193 
 H                    -3.11807   1.05656   0.90986 
 O                    -0.93438  -1.27907  -0.1291 
 O                    -2.21013   1.0378   -0.91877 
 H                    -1.26272   1.11715  -1.16852 
 H                    -1.20606  -1.18015  -1.04682 
 
 IRC-IRC-IRC-IRC-IRC-IRC-IRC-IRC-IRC-IRC-IRC-IRC-IRC-IRC-IRC-IRC-IRC-IRC
 ------------------------------------------------------------------------
 INPUT DATA FOR L123
 ------------------------------------------------------------------------
 GENERAL PARAMETERS:
 Rxn path following direction = Forward
 Maximum points per path      =  20
 Step size                    =   0.100 bohr
 Integration scheme           = HPC                                 
    Redo corrector integration= Yes                                 
    DWI Weight Power          =  2
    DWI will use Hessian update vectors when possible.
    Max correction cycles     = 100
 Initial Hessian              = CalcFC
 Hessian evaluation           = All updating
 Hessian updating method      = Bofill                              
 ------------------------------------------------------------------------
 IRC-IRC-IRC-IRC-IRC-IRC-IRC-IRC-IRC-IRC-IRC-IRC-IRC-IRC-IRC-IRC-IRC-IRC
                          Input orientation:                          
 ---------------------------------------------------------------------
 Center     Atomic      Atomic             Coordinates (Angstroms)
 Number     Number       Type             X           Y           Z
 ---------------------------------------------------------------------
      1         14           0        0.962759   -0.494704   -0.138657
      2          8           0        1.730694   -1.646043   -0.788288
      3          8           0        2.240829    1.685070    0.388035
      4          1           0        3.140954    1.614115    0.078261
      5          8           0        0.442272    0.811674   -1.013651
      6          1           0        1.159115    1.460286   -0.633262
      7          8           0        0.868921   -0.221416    1.482436
      8          1           0        1.449526    0.569958    1.546682
      9          6           0       -1.970778   -0.736886    0.700955
     10          1           0       -1.658919   -0.926017    1.725089
     11          1           0       -2.885224   -1.294306    0.481811
     12          6           0       -2.169642    0.753745    0.455855
     13          1           0       -1.360336    1.303038    0.941928
     14          1           0       -3.118074    1.056557    0.909864
     15          8           0       -0.934378   -1.279072   -0.129098
     16          8           0       -2.210133    1.037796   -0.918771
     17          1           0       -1.262719    1.117149   -1.168515
     18          1           0       -1.206059   -1.180150   -1.046824
 ---------------------------------------------------------------------
                    Distance matrix (angstroms):
                    1          2          3          4          5
     1  Si   0.000000
     2  O    1.528832   0.000000
     3  O    2.581140   3.569354   0.000000
     4  H    3.039524   3.656278   0.954578   0.000000
     5  O    1.656244   2.784096   2.441793   3.019779   0.000000
     6  H    2.026123   3.162280   1.504553   2.111306   1.038873
     7  O    1.646643   2.815742   2.591242   3.240836   2.734914
     8  H    2.052027   3.231378   1.792233   2.471326   2.761936
     9  C    3.060921   4.092103   4.868411   5.660809   3.340767
    10  H    3.245424   4.280768   4.879910   5.674777   3.864618
    11  H    3.978859   4.800372   5.929747   6.703476   4.212338
    12  C    3.424034   4.745471   4.508239   5.393074   2.997482
    13  H    3.129906   4.609251   3.663487   4.593942   2.704648
    14  H    4.489878   5.805025   5.420809   6.338601   4.054126
    15  O    2.052913   2.769803   4.374415   5.002185   2.654961
    16  O    3.608930   4.769710   4.683777   5.473605   2.663717
    17  H    2.934524   4.091494   3.875594   4.603668   1.739049
    18  H    2.449158   2.984697   4.706309   5.288691   2.585625
                    6          7          8          9         10
     6  H    0.000000
     7  O    2.718182   0.000000
     8  H    2.372589   0.983617   0.000000
     9  C    4.050177   2.990035   3.757868   0.000000
    10  H    4.381504   2.635397   3.454302   1.087142   0.000000
    11  H    5.018749   4.030626   4.837302   1.093139   1.784713
    12  C    3.572954   3.352264   3.784450   1.523680   2.166424
    13  H    2.975497   2.754214   2.966220   2.142895   2.381424
    14  H    4.564929   4.225776   4.637379   2.139245   2.593130
    15  O    3.484390   2.639615   3.451108   1.434252   2.021786
    16  O    3.407616   4.102680   4.437391   2.414601   3.339221
    17  H    2.503901   3.655569   3.876595   2.726483   3.564330
    18  H    3.568891   3.409086   4.103813   1.958573   2.820136
                   11         12         13         14         15
    11  H    0.000000
    12  C    2.169618   0.000000
    13  H    3.046832   1.092230   0.000000
    14  H    2.400834   1.094231   1.775225   0.000000
    15  O    2.044319   2.449570   2.827690   3.362013   0.000000
    16  O    2.802870   1.404251   2.062695   2.041719   2.760256
    17  H    3.342337   1.895561   2.120861   2.786696   2.632503
    18  H    2.273621   2.631822   3.185147   3.533736   0.962194
                   16         17         18
    16  O    0.000000
    17  H    0.982986   0.000000
    18  H    2.438001   2.301217   0.000000
 Symmetry turned off by external request.
 Stoichiometry    C2H9O6Si(1-)
 Framework group  C1[X(C2H9O6Si)]
 Deg. of freedom    48
 Full point group                 C1      NOp   1
 Rotational constants (GHZ):           1.8494746           1.0092262           0.8706963
 Standard basis: def2TZVPP (5D, 7F)
   416 basis functions,   630 primitive gaussians,   471 cartesian basis functions
    42 alpha electrons       42 beta electrons
       nuclear repulsion energy       640.9892613507 Hartrees.
 NAtoms=   18 NActive=   18 NUniq=   18 SFac= 1.00D+00 NAtFMM=   60 NAOKFM=F Big=F
 Integral buffers will be    131072 words long.
 Raffenetti 2 integral format.
 Two-electron integral symmetry is turned off.
 Nuclear repulsion after empirical dispersion term =      640.9786127245 Hartrees.
 One-electron integrals computed using PRISM.
   1 Symmetry operations used in ECPInt.
 ECPInt:  NShTT=   12246 NPrTT=   33908 LenC2=   11761 LenP2D=   25609.
 LDataN:  DoStor=T MaxTD1= 6 Len=  172
 NBasis=   416 RedAO= T EigKep=  2.03D-04  NBF=   416
 NBsUse=   416 1.00D-06 EigRej= -1.00D+00 NBFU=   416
 ExpMin= 7.01D-02 ExpMax= 4.48D+04 ExpMxC= 1.53D+03 IAcc=3 IRadAn=         5 AccDes= 0.00D+00
 Harris functional with IExCor= 4639 and IRadAn=       5 diagonalized for initial guess.
 HarFok:  IExCor= 4639 AccDes= 0.00D+00 IRadAn=         5 IDoV= 1 UseB2=F ITyADJ=14
 ICtDFT=  3500011 ScaDFX=  1.000000  1.000000  1.000000  1.000000
 FoFCou: FMM=F IPFlag=           0 FMFlag=      100000 FMFlg1=           0
         NFxFlg=           0 DoJE=T BraDBF=F KetDBF=T FulRan=T
         wScrn=  0.000000 ICntrl=       500 IOpCl=  0 I1Cent=   200000004 NGrid=           0
         NMat0=    1 NMatS0=      1 NMatT0=    0 NMatD0=    1 NMtDS0=    0 NMtDT0=    0
 Symmetry not used in FoFCou.
 Requested convergence on RMS density matrix=1.00D-08 within 128 cycles.
 Requested convergence on MAX density matrix=1.00D-06.
 Requested convergence on             energy=1.00D-06.
 No special actions if energy rises.
 Integral accuracy reduced to 1.0D-05 until final iterations.
 EnCoef did     1 forward-backward iterations
 Initial convergence to 1.0D-05 achieved.  Increase integral accuracy.
 SCF Done:  E(RwB97XD) =  -822.729097238     A.U. after   15 cycles
            NFock= 15  Conv=0.32D-08     -V/T= 2.0034
 DoSCS=F DFT=T ScalE2(SS,OS)=  1.000000  1.000000
 Range of M.O.s used for correlation:     1   416
 NBasis=   416 NAE=    42 NBE=    42 NFC=     0 NFV=     0
 NROrb=    416 NOA=    42 NOB=    42 NVA=   374 NVB=   374

 **** Warning!!: The largest alpha MO coefficient is  0.11823360D+02

   1 Symmetry operations used in ECPInt.
 ECPInt:  NShTT=   12246 NPrTT=   33908 LenC2=   11761 LenP2D=   25609.
 LDataN:  DoStor=T MaxTD1= 7 Len=  274
 Number of processors reduced to  12 by ecpmxn.
 Symmetrizing basis deriv contribution to polar:
 IMax=3 JMax=2 DiffMx= 0.00D+00
 G2DrvN: will do    19 centers at a time, making    1 passes.
 Calling FoFCou, ICntrl=  3107 FMM=F I1Cent=   0 AccDes= 0.00D+00.
 End of G2Drv F.D. properties file   721 does not exist.
 End of G2Drv F.D. properties file   722 does not exist.
 End of G2Drv F.D. properties file   788 does not exist.
          IDoAtm=111111111111111111
          Differentiating once with respect to nuclear coordinates.
 CalDSu exits because no D1Ps are significant.
          There are    57 degrees of freedom in the 1st order CPHF.  IDoFFX=6 NUNeed=     0.
     51 vectors produced by pass  0 Test12= 2.76D-14 1.75D-09 XBig12= 8.81D-02 5.69D-02.
 AX will form    51 AO Fock derivatives at one time.
     51 vectors produced by pass  1 Test12= 2.76D-14 1.75D-09 XBig12= 2.54D-02 3.59D-02.
     51 vectors produced by pass  2 Test12= 2.76D-14 1.75D-09 XBig12= 1.08D-03 5.77D-03.
     51 vectors produced by pass  3 Test12= 2.76D-14 1.75D-09 XBig12= 2.52D-05 7.09D-04.
     51 vectors produced by pass  4 Test12= 2.76D-14 1.75D-09 XBig12= 2.81D-07 6.46D-05.
     51 vectors produced by pass  5 Test12= 2.76D-14 1.75D-09 XBig12= 2.96D-09 5.97D-06.
     51 vectors produced by pass  6 Test12= 2.76D-14 1.75D-09 XBig12= 2.20D-11 4.77D-07.
     21 vectors produced by pass  7 Test12= 2.76D-14 1.75D-09 XBig12= 1.38D-13 3.19D-08.
      3 vectors produced by pass  8 Test12= 2.76D-14 1.75D-09 XBig12= 9.00D-16 2.52D-09.
 InvSVY:  IOpt=1 It=  1 EMax= 1.67D-16
 Solved reduced A of dimension   381 with    57 vectors.
 End of Minotr F.D. properties file   721 does not exist.
 End of Minotr F.D. properties file   722 does not exist.
 End of Minotr F.D. properties file   788 does not exist.

 **********************************************************************

            Population analysis using the SCF Density.

 **********************************************************************

 Alpha  occ. eigenvalues --  -66.11717 -19.18807 -19.11857 -19.06815 -19.06273
 Alpha  occ. eigenvalues --  -19.00100 -18.98744 -10.23313 -10.21461  -5.23553
 Alpha  occ. eigenvalues --   -3.58478  -3.57898  -3.57649  -1.06332  -0.99845
 Alpha  occ. eigenvalues --   -0.93856  -0.90892  -0.82600  -0.80444  -0.73617
 Alpha  occ. eigenvalues --   -0.61536  -0.52932  -0.49429  -0.46657  -0.45174
 Alpha  occ. eigenvalues --   -0.40666  -0.39969  -0.38755  -0.37427  -0.36557
 Alpha  occ. eigenvalues --   -0.31531  -0.30723  -0.29039  -0.28506  -0.27270
 Alpha  occ. eigenvalues --   -0.24186  -0.23528  -0.22570  -0.18301  -0.17196
 Alpha  occ. eigenvalues --   -0.16466  -0.16230
 Alpha virt. eigenvalues --    0.21712   0.23692   0.25559   0.27664   0.28642
 Alpha virt. eigenvalues --    0.30366   0.30748   0.32742   0.33700   0.35068
 Alpha virt. eigenvalues --    0.36500   0.38023   0.38804   0.39266   0.40771
 Alpha virt. eigenvalues --    0.42386   0.43217   0.44362   0.46103   0.49038
 Alpha virt. eigenvalues --    0.49754   0.50828   0.53060   0.54278   0.54802
 Alpha virt. eigenvalues --    0.55335   0.57371   0.57498   0.58187   0.59218
 Alpha virt. eigenvalues --    0.60310   0.61153   0.62681   0.63574   0.64931
 Alpha virt. eigenvalues --    0.66089   0.67345   0.68150   0.68787   0.69766
 Alpha virt. eigenvalues --    0.71023   0.72734   0.74044   0.75644   0.76422
 Alpha virt. eigenvalues --    0.78423   0.79814   0.80419   0.81299   0.82017
 Alpha virt. eigenvalues --    0.82823   0.84392   0.85387   0.86482   0.89176
 Alpha virt. eigenvalues --    0.89903   0.91660   0.92115   0.95026   0.95896
 Alpha virt. eigenvalues --    0.96508   0.99339   1.00027   1.01589   1.03850
 Alpha virt. eigenvalues --    1.05097   1.06636   1.07910   1.08355   1.10164
 Alpha virt. eigenvalues --    1.10766   1.11788   1.14902   1.16383   1.18479
 Alpha virt. eigenvalues --    1.19125   1.20389   1.21366   1.21956   1.23603
 Alpha virt. eigenvalues --    1.25566   1.26510   1.29044   1.30376   1.32599
 Alpha virt. eigenvalues --    1.33747   1.34592   1.35603   1.36233   1.38349
 Alpha virt. eigenvalues --    1.39066   1.42037   1.43671   1.43943   1.47061
 Alpha virt. eigenvalues --    1.48682   1.49595   1.51498   1.52502   1.53901
 Alpha virt. eigenvalues --    1.55672   1.56467   1.59926   1.61308   1.61461
 Alpha virt. eigenvalues --    1.65135   1.65315   1.68286   1.69401   1.70200
 Alpha virt. eigenvalues --    1.72434   1.73954   1.74766   1.77685   1.78699
 Alpha virt. eigenvalues --    1.79824   1.82712   1.90555   1.91513   1.95312
 Alpha virt. eigenvalues --    1.96987   1.99506   2.02091   2.04575   2.06604
 Alpha virt. eigenvalues --    2.07501   2.09683   2.10007   2.11943   2.14384
 Alpha virt. eigenvalues --    2.16419   2.18247   2.19418   2.20625   2.22076
 Alpha virt. eigenvalues --    2.23619   2.25162   2.26044   2.29487   2.31219
 Alpha virt. eigenvalues --    2.33263   2.34084   2.35336   2.38847   2.42272
 Alpha virt. eigenvalues --    2.43668   2.45337   2.48313   2.50882   2.52579
 Alpha virt. eigenvalues --    2.53531   2.55338   2.56466   2.57615   2.61248
 Alpha virt. eigenvalues --    2.69778   2.71715   2.73856   2.76277   2.77779
 Alpha virt. eigenvalues --    2.81951   2.83844   2.88386   2.89284   2.90202
 Alpha virt. eigenvalues --    2.96114   2.96636   2.98185   3.00464   3.04337
 Alpha virt. eigenvalues --    3.04953   3.07119   3.09691   3.10426   3.12718
 Alpha virt. eigenvalues --    3.13620   3.17827   3.19103   3.20690   3.22292
 Alpha virt. eigenvalues --    3.23272   3.24332   3.27683   3.29734   3.30498
 Alpha virt. eigenvalues --    3.33414   3.34065   3.36432   3.37016   3.37725
 Alpha virt. eigenvalues --    3.39660   3.44107   3.47220   3.48764   3.50322
 Alpha virt. eigenvalues --    3.52640   3.52942   3.54695   3.55765   3.57777
 Alpha virt. eigenvalues --    3.61263   3.62025   3.63926   3.65871   3.67567
 Alpha virt. eigenvalues --    3.68635   3.71612   3.72541   3.74881   3.77149
 Alpha virt. eigenvalues --    3.80367   3.80580   3.83719   3.84667   3.86006
 Alpha virt. eigenvalues --    3.89348   3.90554   3.91794   3.93795   3.95181
 Alpha virt. eigenvalues --    3.97431   3.98806   4.00226   4.03081   4.03874
 Alpha virt. eigenvalues --    4.05606   4.07030   4.09910   4.11206   4.12336
 Alpha virt. eigenvalues --    4.12954   4.15626   4.17686   4.20244   4.23816
 Alpha virt. eigenvalues --    4.24641   4.26290   4.27590   4.28631   4.31379
 Alpha virt. eigenvalues --    4.33325   4.33447   4.35149   4.37534   4.40220
 Alpha virt. eigenvalues --    4.42628   4.43133   4.45196   4.45389   4.47796
 Alpha virt. eigenvalues --    4.48879   4.53846   4.55124   4.56674   4.58684
 Alpha virt. eigenvalues --    4.59172   4.61073   4.61657   4.68241   4.74431
 Alpha virt. eigenvalues --    4.77111   4.80347   4.82304   4.84701   4.86142
 Alpha virt. eigenvalues --    4.88061   4.90611   4.93334   5.00458   5.02642
 Alpha virt. eigenvalues --    5.05453   5.09271   5.12021   5.14650   5.15719
 Alpha virt. eigenvalues --    5.18085   5.19515   5.20421   5.22831   5.24678
 Alpha virt. eigenvalues --    5.26566   5.32466   5.37309   5.44863   5.48829
 Alpha virt. eigenvalues --    5.49465   5.50521   5.52149   5.54319   5.56344
 Alpha virt. eigenvalues --    5.56469   5.57768   5.59528   5.62296   5.62613
 Alpha virt. eigenvalues --    5.65440   5.66037   5.68478   5.71437   5.72756
 Alpha virt. eigenvalues --    5.76886   5.78248   5.80199   5.83091   5.84890
 Alpha virt. eigenvalues --    5.85653   5.87805   5.88739   5.92157   5.97542
 Alpha virt. eigenvalues --    5.98302   6.02281   6.06485   6.09936   6.17738
 Alpha virt. eigenvalues --    6.26433   6.32716   6.51822   6.63350   6.63571
 Alpha virt. eigenvalues --    6.67491   6.68741   6.69036   6.70834   6.73921
 Alpha virt. eigenvalues --    6.78580   6.83699   6.85152   6.85608   6.88120
 Alpha virt. eigenvalues --    6.89631   6.90594   6.92229   6.93223   6.94424
 Alpha virt. eigenvalues --    6.94773   6.96789   6.99198   6.99580   7.01275
 Alpha virt. eigenvalues --    7.02829   7.05481   7.08775   7.12932   7.13207
 Alpha virt. eigenvalues --    7.16611   7.18413   7.23002   7.25260   7.25681
 Alpha virt. eigenvalues --    7.30701   7.33337   7.35192   7.39833   7.48860
 Alpha virt. eigenvalues --    7.52453   7.60937   7.64248   7.64695   7.67339
 Alpha virt. eigenvalues --    7.75669   7.77879   7.82920   7.91642   7.97375
 Alpha virt. eigenvalues --   12.72536  23.52180  23.60762  43.97077  43.98802
 Alpha virt. eigenvalues --   44.09703  44.18628  44.28054  44.34083
          Condensed to atoms (all electrons):
               1          2          3          4          5          6
     1  Si  11.725798   0.771526   0.083746  -0.005829   0.307025  -0.038002
     2  O    0.771526   8.038736  -0.007601  -0.000060  -0.039458  -0.002836
     3  O    0.083746  -0.007601   8.400276   0.290741  -0.122439   0.132871
     4  H   -0.005829  -0.000060   0.290741   0.576239   0.007920  -0.010509
     5  O    0.307025  -0.039458  -0.122439   0.007920   8.151762   0.255112
     6  H   -0.038002  -0.002836   0.132871  -0.010509   0.255112   0.395342
     7  O    0.355524  -0.034259  -0.071485   0.003841  -0.026932   0.007601
     8  H   -0.041692  -0.002811   0.070882  -0.004638   0.007763  -0.006821
     9  C   -0.005065  -0.000322   0.000297  -0.000025  -0.007702   0.000384
    10  H   -0.007158   0.000247   0.000096  -0.000006   0.000129  -0.000147
    11  H    0.001018  -0.000209   0.000006  -0.000001  -0.000265  -0.000018
    12  C   -0.005897  -0.000135  -0.001212   0.000125   0.011690  -0.001967
    13  H   -0.002915  -0.000227   0.001435  -0.000116   0.002343   0.000566
    14  H    0.000694  -0.000004  -0.000015   0.000001   0.000509  -0.000053
    15  O    0.125389  -0.029698  -0.000203   0.000009  -0.018640   0.001606
    16  O   -0.000852  -0.000018  -0.000092   0.000007  -0.041791   0.001053
    17  H   -0.006847  -0.000283   0.000708  -0.000095   0.068654  -0.001588
    18  H   -0.009181   0.002389   0.000249  -0.000019   0.000713  -0.000527
               7          8          9         10         11         12
     1  Si   0.355524  -0.041692  -0.005065  -0.007158   0.001018  -0.005897
     2  O   -0.034259  -0.002811  -0.000322   0.000247  -0.000209  -0.000135
     3  O   -0.071485   0.070882   0.000297   0.000096   0.000006  -0.001212
     4  H    0.003841  -0.004638  -0.000025  -0.000006  -0.000001   0.000125
     5  O   -0.026932   0.007763  -0.007702   0.000129  -0.000265   0.011690
     6  H    0.007601  -0.006821   0.000384  -0.000147  -0.000018  -0.001967
     7  O    7.971506   0.306639   0.015601   0.008550   0.001008  -0.026536
     8  H    0.306639   0.433539  -0.002510  -0.000006  -0.000019   0.001175
     9  C    0.015601  -0.002510   4.951031   0.392991   0.401621   0.242361
    10  H    0.008550  -0.000006   0.392991   0.576870  -0.025728  -0.017381
    11  H    0.001008  -0.000019   0.401621  -0.025728   0.617073  -0.035134
    12  C   -0.026536   0.001175   0.242361  -0.017381  -0.035134   4.757237
    13  H    0.016734   0.000276  -0.066985  -0.000959   0.008258   0.448956
    14  H    0.000205   0.000020  -0.039808   0.004961  -0.010397   0.398041
    15  O   -0.021545   0.001769   0.200389  -0.027462  -0.031240  -0.040607
    16  O    0.000388   0.000068  -0.077909   0.005604   0.003889   0.273869
    17  H    0.000371  -0.000154   0.006141  -0.000749  -0.000481  -0.047205
    18  H    0.000935  -0.000208  -0.031092   0.010744  -0.008630  -0.006183
              13         14         15         16         17         18
     1  Si  -0.002915   0.000694   0.125389  -0.000852  -0.006847  -0.009181
     2  O   -0.000227  -0.000004  -0.029698  -0.000018  -0.000283   0.002389
     3  O    0.001435  -0.000015  -0.000203  -0.000092   0.000708   0.000249
     4  H   -0.000116   0.000001   0.000009   0.000007  -0.000095  -0.000019
     5  O    0.002343   0.000509  -0.018640  -0.041791   0.068654   0.000713
     6  H    0.000566  -0.000053   0.001606   0.001053  -0.001588  -0.000527
     7  O    0.016734   0.000205  -0.021545   0.000388   0.000371   0.000935
     8  H    0.000276   0.000020   0.001769   0.000068  -0.000154  -0.000208
     9  C   -0.066985  -0.039808   0.200389  -0.077909   0.006141  -0.031092
    10  H   -0.000959   0.004961  -0.027462   0.005604  -0.000749   0.010744
    11  H    0.008258  -0.010397  -0.031240   0.003889  -0.000481  -0.008630
    12  C    0.448956   0.398041  -0.040607   0.273869  -0.047205  -0.006183
    13  H    0.579144  -0.030256   0.001159  -0.042939  -0.009067   0.000911
    14  H   -0.030256   0.647383   0.004305  -0.029650   0.005386   0.000683
    15  O    0.001159   0.004305   7.722731  -0.002775   0.001621   0.304590
    16  O   -0.042939  -0.029650  -0.002775   8.000412   0.344999   0.025880
    17  H   -0.009067   0.005386   0.001621   0.344999   0.396919  -0.000300
    18  H    0.000911   0.000683   0.304590   0.025880  -0.000300   0.531231
 Mulliken charges:
               1
     1  Si   0.752718
     2  O   -0.694978
     3  O   -0.778260
     4  H    0.142413
     5  O   -0.556389
     6  H    0.267931
     7  O   -0.508144
     8  H    0.236728
     9  C    0.020603
    10  H    0.079402
    11  H    0.079250
    12  C    0.048802
    13  H    0.093683
    14  H    0.047994
    15  O   -0.191398
    16  O   -0.460143
    17  H    0.241970
    18  H    0.177816
 Sum of Mulliken charges =  -1.00000
 Mulliken charges with hydrogens summed into heavy atoms:
               1
     1  Si   0.752718
     2  O   -0.694978
     3  O   -0.635847
     5  O   -0.288457
     7  O   -0.271415
     9  C    0.179255
    12  C    0.190479
    15  O   -0.013582
    16  O   -0.218173
 APT charges:
               1
     1  Si   0.259906
     2  O   -0.372137
     3  O   -1.190309
     4  H    0.522971
     5  O   -0.556951
     6  H    0.327511
     7  O   -0.578444
     8  H    0.393873
     9  C   -0.639951
    10  H    0.277904
    11  H    0.549513
    12  C   -0.576308
    13  H    0.111796
    14  H    0.583271
    15  O   -0.338005
    16  O   -0.277752
    17  H    0.109111
    18  H    0.394000
 Sum of APT charges =  -1.00000
 APT charges with hydrogens summed into heavy atoms:
               1
     1  Si   0.259906
     2  O   -0.372137
     3  O   -0.667338
     5  O   -0.229440
     7  O   -0.184570
     9  C    0.187465
    12  C    0.118759
    15  O    0.055995
    16  O   -0.168640
 Electronic spatial extent (au):  <R**2>=           1490.2793
 Charge=             -1.0000 electrons
 Dipole moment (field-independent basis, Debye):
    X=             -7.4346    Y=             -0.0736    Z=              1.5312  Tot=              7.5910
 Quadrupole moment (field-independent basis, Debye-Ang):
   XX=            -78.2983   YY=            -80.8035   ZZ=            -69.4095
   XY=              7.7617   XZ=             -2.7239   YZ=             -1.7835
 Traceless Quadrupole moment (field-independent basis, Debye-Ang):
   XX=             -2.1278   YY=             -4.6331   ZZ=              6.7609
   XY=              7.7617   XZ=             -2.7239   YZ=             -1.7835
 Octapole moment (field-independent basis, Debye-Ang**2):
  XXX=             -4.6683  YYY=              2.4714  ZZZ=             -3.4988  XYY=            -29.9951
  XXY=             -4.1705  XXZ=             12.6145  XZZ=             -8.4969  YZZ=              0.5985
  YYZ=              2.3812  XYZ=            -18.3553
 Hexadecapole moment (field-independent basis, Debye-Ang**3):
 XXXX=          -1101.8202 YYYY=           -569.1680 ZZZZ=           -311.3535 XXXY=             58.5898
 XXXZ=            -25.5116 YYYX=              6.0090 YYYZ=            -24.3478 ZZZX=             10.8447
 ZZZY=              2.1131 XXYY=           -330.1665 XXZZ=           -250.6233 YYZZ=           -139.8113
 XXYZ=            -12.7795 YYXZ=              1.4468 ZZXY=             16.6210
 N-N= 6.409786127245D+02 E-N=-3.244402613536D+03  KE= 8.199658720307D+02
  Exact polarizability:       0.000       0.000       0.000       0.000       0.000       0.000
 Approx polarizability:      85.282       0.920      79.557      -1.119       1.905      80.160
   1 Symmetry operations used in ECPInt.
 ECPInt:  NShTT=   12246 NPrTT=   33908 LenC2=   11761 LenP2D=   25609.
 LDataN:  DoStor=T MaxTD1= 8 Len=  415
 Calling FoFJK, ICntrl=    100127 FMM=F ISym2X=0 I1Cent= 0 IOpClX= 0 NMat=1 NMatS=1 NMatT=0.
 -------------------------------------------------------------------
 Center     Atomic                   Forces (Hartrees/Bohr)
 Number     Number              X              Y              Z
 -------------------------------------------------------------------
      1       14           0.000000707   -0.000000956    0.000000680
      2        8           0.000000143    0.000001358    0.000000240
      3        8           0.000000257   -0.000002020    0.000009190
      4        1           0.000001448   -0.000002265    0.000010541
      5        8           0.000002260    0.000001869    0.000002815
      6        1           0.000003663    0.000001726    0.000006585
      7        8          -0.000003475   -0.000004343    0.000001423
      8        1          -0.000002877   -0.000004597    0.000004791
      9        6          -0.000001974   -0.000000530   -0.000005039
     10        1          -0.000004357   -0.000002720   -0.000005703
     11        1          -0.000001694    0.000001079   -0.000008930
     12        6          -0.000000594    0.000000806   -0.000002138
     13        1          -0.000000075   -0.000001598    0.000000714
     14        1          -0.000001103    0.000000057   -0.000003669
     15        8          -0.000000504    0.000001085   -0.000004442
     16        8           0.000003242    0.000003942   -0.000002227
     17        1           0.000003283    0.000003381    0.000000447
     18        1           0.000001651    0.000003726   -0.000005278
 -------------------------------------------------------------------
 Cartesian Forces:  Max     0.000010541 RMS     0.000003567
 IRC-IRC-IRC-IRC-IRC-IRC-IRC-IRC-IRC-IRC-IRC-IRC-IRC-IRC-IRC-IRC-IRC-IRC
          ******** Start new reaction path calculation ********
 Supplied step size of   0.1000 bohr.
    Integration on MW PES will use step size of   0.2647 sqrt(amu)*bohr.
 Point Number:   0          Path Number:   1
 Calculating another point on the path.
 IRC-IRC-IRC-IRC-IRC-IRC-IRC-IRC-IRC-IRC-IRC-IRC-IRC-IRC-IRC-IRC-IRC-IRC
                          Input orientation:                          
 ---------------------------------------------------------------------
 Center     Atomic      Atomic             Coordinates (Angstroms)
 Number     Number       Type             X           Y           Z
 ---------------------------------------------------------------------
      1         14           0        0.935983   -0.461706   -0.117847
      2          8           0        1.697789   -1.616143   -0.769432
      3          8           0        2.208371    1.686456    0.404020
      4          1           0        3.114190    1.626197    0.108464
      5          8           0        0.396537    0.834286   -1.003445
      6          1           0        1.101882    1.487934   -0.643701
      7          8           0        0.827348   -0.197012    1.503670
      8          1           0        1.411730    0.590539    1.574781
      9          6           0       -2.007367   -0.714164    0.717766
     10          1           0       -1.696866   -0.903070    1.742417
     11          1           0       -2.921997   -1.271372    0.498167
     12          6           0       -2.207382    0.776448    0.473886
     13          1           0       -1.397263    1.325849    0.958564
     14          1           0       -3.154841    1.078909    0.930181
     15          8           0       -0.969879   -1.255174   -0.110402
     16          8           0       -2.251604    1.061686   -0.900512
     17          1           0       -1.305360    1.139060   -1.153356
     18          1           0       -1.240088   -1.157964   -1.028535
 ---------------------------------------------------------------------
                    Distance matrix (angstroms):
                    1          2          3          4          5
     1  Si   0.000000
     2  O    1.528933   0.000000
     3  O    2.550670   3.541871   0.000000
     4  H    3.025746   3.645499   0.954721   0.000000
     5  O    1.659784   2.784353   2.447426   3.041233   0.000000
     6  H    2.026115   3.163260   1.536700   2.152731   1.026734
     7  O    1.646566   2.817551   2.581454   3.240422   2.744959
     8  H    2.049035   3.232122   1.790630   2.474075   2.781597
     9  C    3.070064   4.093104   4.861467   5.663822   3.337517
    10  H    3.253809   4.282702   4.873174   5.675671   3.865294
    11  H    3.989868   4.802926   5.922693   6.706961   4.207292
    12  C    3.429857   4.745598   4.509088   5.401364   2.994370
    13  H    3.130184   4.606586   3.665809   4.600661   2.703485
    14  H    4.495187   5.805171   5.423100   6.346298   4.051054
    15  O    2.064450   2.771474   4.361088   5.002981   2.651502
    16  O    3.618563   4.773433   4.688659   5.488939   2.659879
    17  H    2.942508   4.093587   3.882186   4.621895   1.735459
    18  H    2.459555   2.984658   4.694125   5.291885   2.578416
                    6          7          8          9         10
     6  H    0.000000
     7  O    2.743285   0.000000
     8  H    2.413086   0.983257   0.000000
     9  C    4.046017   2.986754   3.758583   0.000000
    10  H    4.386735   2.631952   3.452873   1.087201   0.000000
    11  H    5.010912   4.027764   4.838078   1.093276   1.784587
    12  C    3.564610   3.349279   3.787414   1.523617   2.165774
    13  H    2.973087   2.750480   2.968307   2.142864   2.381652
    14  H    4.556764   4.220746   4.637627   2.139376   2.591073
    15  O    3.478683   2.637226   3.452326   1.433504   2.021244
    16  O    3.390207   4.104188   4.446242   2.414978   3.339622
    17  H    2.485211   3.659689   3.889240   2.725500   3.564978
    18  H    3.554391   3.407313   4.106903   1.958378   2.819892
                   11         12         13         14         15
    11  H    0.000000
    12  C    2.169062   0.000000
    13  H    3.046693   1.092268   0.000000
    14  H    2.400973   1.094242   1.775069   0.000000
    15  O    2.044844   2.449550   2.826133   3.362264   0.000000
    16  O    2.801587   1.404381   2.062970   2.041463   2.763138
    17  H    3.339345   1.895533   2.122155   2.786633   2.632994
    18  H    2.274314   2.633415   3.184744   3.536446   0.961993
                   16         17         18
    16  O    0.000000
    17  H    0.982494   0.000000
    18  H    2.442622   2.301339   0.000000
 Symmetry turned off by external request.
 Stoichiometry    C2H9O6Si(1-)
 Framework group  C1[X(C2H9O6Si)]
 Deg. of freedom    48
 Full point group                 C1      NOp   1
 Rotational constants (GHZ):           1.8597599           1.0060364           0.8717169
 Standard basis: def2TZVPP (5D, 7F)
   416 basis functions,   630 primitive gaussians,   471 cartesian basis functions
    42 alpha electrons       42 beta electrons
       nuclear repulsion energy       640.9902110960 Hartrees.
 NAtoms=   18 NActive=   18 NUniq=   18 SFac= 1.00D+00 NAtFMM=   60 NAOKFM=F Big=F
 Integral buffers will be    131072 words long.
 Raffenetti 2 integral format.
 Two-electron integral symmetry is turned off.
 Nuclear repulsion after empirical dispersion term =      640.9795509309 Hartrees.
 One-electron integrals computed using PRISM.
   1 Symmetry operations used in ECPInt.
 ECPInt:  NShTT=   12246 NPrTT=   33908 LenC2=   11756 LenP2D=   25604.
 LDataN:  DoStor=T MaxTD1= 6 Len=  172
 NBasis=   416 RedAO= T EigKep=  2.03D-04  NBF=   416
 NBsUse=   416 1.00D-06 EigRej= -1.00D+00 NBFU=   416
 Initial guess from the checkpoint file:  "IRCAttemptEGAttackAxialDeprotonatedSi_Forward.chk"
 B after Tr=    -0.068414    0.044140    0.033656
         Rot=    1.000000    0.000014    0.000010   -0.000001 Ang=   0.00 deg.
 ExpMin= 7.01D-02 ExpMax= 4.48D+04 ExpMxC= 1.53D+03 IAcc=3 IRadAn=         5 AccDes= 0.00D+00
 Harris functional with IExCor= 4639 and IRadAn=       5 diagonalized for initial guess.
 HarFok:  IExCor= 4639 AccDes= 0.00D+00 IRadAn=         5 IDoV= 1 UseB2=F ITyADJ=14
 ICtDFT=  3500011 ScaDFX=  1.000000  1.000000  1.000000  1.000000
 FoFCou: FMM=F IPFlag=           0 FMFlag=      100000 FMFlg1=           0
         NFxFlg=           0 DoJE=T BraDBF=F KetDBF=T FulRan=T
         wScrn=  0.000000 ICntrl=       500 IOpCl=  0 I1Cent=   200000004 NGrid=           0
         NMat0=    1 NMatS0=      1 NMatT0=    0 NMatD0=    1 NMtDS0=    0 NMtDT0=    0
 Symmetry not used in FoFCou.
 Requested convergence on RMS density matrix=1.00D-08 within 128 cycles.
 Requested convergence on MAX density matrix=1.00D-06.
 Requested convergence on             energy=1.00D-06.
 No special actions if energy rises.
 Integral accuracy reduced to 1.0D-05 until final iterations.
 Initial convergence to 1.0D-05 achieved.  Increase integral accuracy.
 SCF Done:  E(RwB97XD) =  -822.729163339     A.U. after   11 cycles
            NFock= 11  Conv=0.54D-08     -V/T= 2.0034
 DoSCS=F DFT=T ScalE2(SS,OS)=  1.000000  1.000000
 Range of M.O.s used for correlation:     1   416
 NBasis=   416 NAE=    42 NBE=    42 NFC=     0 NFV=     0
 NROrb=    416 NOA=    42 NOB=    42 NVA=   374 NVB=   374

 **** Warning!!: The largest alpha MO coefficient is  0.11828885D+02

 Symmetrizing basis deriv contribution to polar:
 IMax=3 JMax=2 DiffMx= 0.00D+00
   1 Symmetry operations used in ECPInt.
 ECPInt:  NShTT=   12246 NPrTT=   33908 LenC2=   11756 LenP2D=   25604.
 LDataN:  DoStor=T MaxTD1= 7 Len=  274
 Calling FoFJK, ICntrl=      2127 FMM=F ISym2X=0 I1Cent= 0 IOpClX= 0 NMat=1 NMatS=1 NMatT=0.
 -------------------------------------------------------------------
 Center     Atomic                   Forces (Hartrees/Bohr)
 Number     Number              X              Y              Z
 -------------------------------------------------------------------
      1       14           0.000981779    0.001097981    0.000262722
      2        8           0.000171496    0.000356050    0.000056419
      3        8           0.000343067   -0.001318048   -0.000203246
      4        1          -0.000150536   -0.000061562    0.000115527
      5        8          -0.000724102   -0.000362395   -0.000460756
      6        1           0.000141944    0.000303709    0.000002398
      7        8          -0.000289606    0.000086502    0.000181215
      8        1          -0.000052356   -0.000068238    0.000062440
      9        6          -0.000023434   -0.000033640   -0.000054976
     10        1          -0.000011610   -0.000004940   -0.000008121
     11        1          -0.000005314   -0.000000854   -0.000014626
     12        6          -0.000072590   -0.000030907   -0.000001193
     13        1          -0.000002641   -0.000004928   -0.000004984
     14        1          -0.000003285   -0.000004541    0.000004836
     15        8           0.000014443    0.000017462    0.000044745
     16        8          -0.000313986    0.000034428    0.000028741
     17        1          -0.000014531   -0.000007919   -0.000007646
     18        1           0.000011263    0.000001841   -0.000003494
 -------------------------------------------------------------------
 Cartesian Forces:  Max     0.001318048 RMS     0.000321018
 IRC-IRC-IRC-IRC-IRC-IRC-IRC-IRC-IRC-IRC-IRC-IRC-IRC-IRC-IRC-IRC-IRC-IRC
 Pt  1 Step number   1 out of a maximum of 100
 Modified Bulirsch-Stoer Extrapolation Cycles:
    EPS =    0.000010000000000
      PEZero:  N= 2 I= 1 D=  6.89D-04 Err=  3.53D-02
      PEZero:  N= 3 I= 2 D=  6.89D-04 Err=  5.24D-02
      PEZero:  N= 3 I= 1 D=  1.38D-03 Err=  4.33D-02
      PEZero:  N= 4 I= 3 D=  3.45D-04 Err=  3.46D-02
      PEZero:  N= 4 I= 2 D=  1.03D-03 Err=  6.24D-03
      PEZero:  N= 4 I= 1 D=  1.72D-03 Err=  3.35D-02
      PEZero:  N= 5 I= 4 D=  3.45D-04 Err=  3.58D-03
      PEZero:  N= 5 I= 3 D=  6.89D-04 Err=  2.92D-02
      PEZero:  N= 6 I= 5 D=  1.72D-04 Err=  3.49D-04
      PEZero:  N= 6 I= 4 D=  5.17D-04 Err=  3.12D-03
      PEZero:  N= 7 I= 6 D=  1.72D-04 Err=  2.26D-04
      PEZero:  N= 7 I= 5 D=  3.45D-04 Err=  9.82D-06
      PEZero:  N= 7 I= 4 D=  6.89D-04 Err=  3.11D-03
 Maximum DWI energy   std dev =  0.000000283 at pt     2
 Maximum DWI gradient std dev =  0.412933852 at pt     5
 CORRECTOR INTEGRATION CONVERGENCE:
   Recorrection delta-x convergence threshold:    0.010000
   Delta-x Convergence NOT Met
 IRC-IRC-IRC-IRC-IRC-IRC-IRC-IRC-IRC-IRC-IRC-IRC-IRC-IRC-IRC-IRC-IRC-IRC
                          Input orientation:                          
 ---------------------------------------------------------------------
 Center     Atomic      Atomic             Coordinates (Angstroms)
 Number     Number       Type             X           Y           Z
 ---------------------------------------------------------------------
      1         14           0        0.936098   -0.461458   -0.117910
      2          8           0        1.697846   -1.616085   -0.769301
      3          8           0        2.208127    1.686405    0.403590
      4          1           0        3.113407    1.624558    0.107349
      5          8           0        0.396839    0.834396   -1.003018
      6          1           0        1.103386    1.488383   -0.642047
      7          8           0        0.827124   -0.197420    1.503817
      8          1           0        1.410962    0.590056    1.576076
      9          6           0       -2.007527   -0.714242    0.717574
     10          1           0       -1.697263   -0.903342    1.742255
     11          1           0       -2.922213   -1.271279    0.497717
     12          6           0       -2.207410    0.776416    0.473843
     13          1           0       -1.397304    1.325720    0.958651
     14          1           0       -3.154910    1.078888    0.930051
     15          8           0       -0.969999   -1.255253   -0.110476
     16          8           0       -2.251453    1.061775   -0.900521
     17          1           0       -1.305109    1.139012   -1.153209
     18          1           0       -1.239948   -1.157555   -1.028641
 ---------------------------------------------------------------------
                    Distance matrix (angstroms):
                    1          2          3          4          5
     1  Si   0.000000
     2  O    1.528965   0.000000
     3  O    2.550164   3.541539   0.000000
     4  H    3.023719   3.643362   0.954524   0.000000
     5  O    1.659353   2.784259   2.446473   3.039246   0.000000
     6  H    2.025978   3.163432   1.533957   2.149494   1.028206
     7  O    1.646691   2.817416   2.581951   3.239880   2.744815
     8  H    2.049577   3.232670   1.792255   2.475010   2.782063
     9  C    3.070320   4.093154   4.861423   5.662714   3.337617
    10  H    3.254239   4.282837   4.873488   5.675011   3.865426
    11  H    3.990160   4.803038   5.922597   6.705742   4.207395
    12  C    3.429890   4.745576   4.508879   5.400441   2.994427
    13  H    3.130136   4.606516   3.665695   4.600058   2.703422
    14  H    4.495246   5.805163   5.422952   6.345580   4.051104
    15  O    2.064793   2.771579   4.360975   5.001496   2.651699
    16  O    3.618452   4.773376   4.688147   5.487645   2.660010
    17  H    2.942169   4.093371   3.881506   4.620394   1.735504
    18  H    2.459504   2.984651   4.693465   5.289832   2.578293
                    6          7          8          9         10
     6  H    0.000000
     7  O    2.742807   0.000000
     8  H    2.412813   0.982958   0.000000
     9  C    4.046963   2.986725   3.758229   0.000000
    10  H    4.387355   2.632054   3.452378   1.087195   0.000000
    11  H    5.012010   4.027771   4.837751   1.093288   1.784588
    12  C    3.565596   3.349268   3.787118   1.523620   2.165803
    13  H    2.973574   2.750498   2.967957   2.142880   2.381749
    14  H    4.557659   4.220754   4.637185   2.139381   2.591070
    15  O    3.479803   2.637158   3.452332   1.433466   2.021230
    16  O    3.391717   4.104150   4.446272   2.414947   3.339622
    17  H    2.486804   3.659544   3.889395   2.725394   3.564928
    18  H    3.555511   3.407050   4.106826   1.958308   2.819863
                   11         12         13         14         15
    11  H    0.000000
    12  C    2.169002   0.000000
    13  H    3.046673   1.092266   0.000000
    14  H    2.400906   1.094244   1.775084   0.000000
    15  O    2.044822   2.449550   2.826136   3.362253   0.000000
    16  O    2.801452   1.404368   2.062949   2.041451   2.763135
    17  H    3.339175   1.895501   2.122101   2.786638   2.632888
    18  H    2.274361   2.633189   3.184453   3.536273   0.962000
                   16         17         18
    16  O    0.000000
    17  H    0.982539   0.000000
    18  H    2.442331   2.300866   0.000000
 Symmetry turned off by external request.
 Stoichiometry    C2H9O6Si(1-)
 Framework group  C1[X(C2H9O6Si)]
 Deg. of freedom    48
 Full point group                 C1      NOp   1
 Rotational constants (GHZ):           1.8599164           1.0060919           0.8717404
 Standard basis: def2TZVPP (5D, 7F)
   416 basis functions,   630 primitive gaussians,   471 cartesian basis functions
    42 alpha electrons       42 beta electrons
       nuclear repulsion energy       641.0025647185 Hartrees.
 NAtoms=   18 NActive=   18 NUniq=   18 SFac= 1.00D+00 NAtFMM=   60 NAOKFM=F Big=F
 Integral buffers will be    131072 words long.
 Raffenetti 2 integral format.
 Two-electron integral symmetry is turned off.
 Nuclear repulsion after empirical dispersion term =      640.9919057264 Hartrees.
 One-electron integrals computed using PRISM.
   1 Symmetry operations used in ECPInt.
 ECPInt:  NShTT=   12246 NPrTT=   33908 LenC2=   11756 LenP2D=   25604.
 LDataN:  DoStor=T MaxTD1= 6 Len=  172
 NBasis=   416 RedAO= T EigKep=  2.03D-04  NBF=   416
 NBsUse=   416 1.00D-06 EigRej= -1.00D+00 NBFU=   416
 Initial guess from the checkpoint file:  "IRCAttemptEGAttackAxialDeprotonatedSi_Forward.chk"
 B after Tr=    -0.000011   -0.000024    0.000011
         Rot=    1.000000   -0.000031    0.000024    0.000009 Ang=  -0.00 deg.
 ExpMin= 7.01D-02 ExpMax= 4.48D+04 ExpMxC= 1.53D+03 IAcc=3 IRadAn=         5 AccDes= 0.00D+00
 Harris functional with IExCor= 4639 and IRadAn=       5 diagonalized for initial guess.
 HarFok:  IExCor= 4639 AccDes= 0.00D+00 IRadAn=         5 IDoV= 1 UseB2=F ITyADJ=14
 ICtDFT=  3500011 ScaDFX=  1.000000  1.000000  1.000000  1.000000
 FoFCou: FMM=F IPFlag=           0 FMFlag=      100000 FMFlg1=           0
         NFxFlg=           0 DoJE=T BraDBF=F KetDBF=T FulRan=T
         wScrn=  0.000000 ICntrl=       500 IOpCl=  0 I1Cent=   200000004 NGrid=           0
         NMat0=    1 NMatS0=      1 NMatT0=    0 NMatD0=    1 NMtDS0=    0 NMtDT0=    0
 Symmetry not used in FoFCou.
 Requested convergence on RMS density matrix=1.00D-08 within 128 cycles.
 Requested convergence on MAX density matrix=1.00D-06.
 Requested convergence on             energy=1.00D-06.
 No special actions if energy rises.
 Integral accuracy reduced to 1.0D-05 until final iterations.
 Initial convergence to 1.0D-05 achieved.  Increase integral accuracy.
 SCF Done:  E(RwB97XD) =  -822.729163914     A.U. after    9 cycles
            NFock=  9  Conv=0.60D-08     -V/T= 2.0034
 DoSCS=F DFT=T ScalE2(SS,OS)=  1.000000  1.000000
 Range of M.O.s used for correlation:     1   416
 NBasis=   416 NAE=    42 NBE=    42 NFC=     0 NFV=     0
 NROrb=    416 NOA=    42 NOB=    42 NVA=   374 NVB=   374

 **** Warning!!: The largest alpha MO coefficient is  0.11828542D+02

 Symmetrizing basis deriv contribution to polar:
 IMax=3 JMax=2 DiffMx= 0.00D+00
   1 Symmetry operations used in ECPInt.
 ECPInt:  NShTT=   12246 NPrTT=   33908 LenC2=   11756 LenP2D=   25604.
 LDataN:  DoStor=T MaxTD1= 7 Len=  274
 Calling FoFJK, ICntrl=      2127 FMM=F ISym2X=0 I1Cent= 0 IOpClX= 0 NMat=1 NMatS=1 NMatT=0.
 -------------------------------------------------------------------
 Center     Atomic                   Forces (Hartrees/Bohr)
 Number     Number              X              Y              Z
 -------------------------------------------------------------------
      1       14           0.000950533    0.000991328    0.000303055
      2        8           0.000189956    0.000378185    0.000073274
      3        8           0.000161526   -0.001265833   -0.000150139
      4        1           0.000052948   -0.000045419    0.000027104
      5        8          -0.000467549    0.000034938   -0.000368415
      6        1          -0.000120997   -0.000041456   -0.000111902
      7        8          -0.000341238    0.000003697    0.000206220
      8        1          -0.000012055   -0.000016452    0.000042241
      9        6          -0.000039316   -0.000039032   -0.000062947
     10        1          -0.000009383   -0.000003810   -0.000003528
     11        1          -0.000003957   -0.000001207   -0.000008693
     12        6          -0.000074502   -0.000035611    0.000003261
     13        1          -0.000003245   -0.000003229   -0.000003082
     14        1          -0.000002960   -0.000003873    0.000006913
     15        8           0.000017320    0.000016618    0.000034453
     16        8          -0.000282859    0.000037081    0.000019666
     17        1          -0.000021359   -0.000003791   -0.000007679
     18        1           0.000007137   -0.000002133    0.000000198
 -------------------------------------------------------------------
 Cartesian Forces:  Max     0.001265833 RMS     0.000287487
 IRC-IRC-IRC-IRC-IRC-IRC-IRC-IRC-IRC-IRC-IRC-IRC-IRC-IRC-IRC-IRC-IRC-IRC
 Error in corrector energy =          -0.0000001272
 Magnitude of corrector gradient =     0.0021270788
 Magnitude of analytic gradient =      0.0021125896
 Magnitude of difference =             0.0001241885
 Angle between gradients (degrees)=    3.3342
 Pt  1 Step number   2 out of a maximum of 100
 Modified Bulirsch-Stoer Extrapolation Cycles:
    EPS =    0.000010000000000
      PEZero:  N= 2 I= 1 D=  6.89D-04 Err=  3.52D-02
      PEZero:  N= 3 I= 2 D=  6.89D-04 Err=  5.24D-02
      PEZero:  N= 3 I= 1 D=  1.38D-03 Err=  4.33D-02
      PEZero:  N= 4 I= 3 D=  3.45D-04 Err=  3.45D-02
      PEZero:  N= 4 I= 2 D=  1.03D-03 Err=  6.43D-03
      PEZero:  N= 4 I= 1 D=  1.72D-03 Err=  3.37D-02
      PEZero:  N= 5 I= 4 D=  3.45D-04 Err=  3.74D-03
      PEZero:  N= 5 I= 3 D=  6.89D-04 Err=  2.89D-02
      PEZero:  N= 6 I= 5 D=  1.72D-04 Err=  3.45D-04
      PEZero:  N= 6 I= 4 D=  5.17D-04 Err=  3.28D-03
      PEZero:  N= 7 I= 6 D=  1.72D-04 Err=  2.24D-04
      PEZero:  N= 7 I= 5 D=  3.45D-04 Err=  8.76D-06
      PEZero:  N= 7 I= 4 D=  6.89D-04 Err=  3.21D-03
 Maximum DWI energy   std dev =  0.000000109 at pt     3
 Maximum DWI gradient std dev =  0.336167998 at pt     5
 CORRECTOR INTEGRATION CONVERGENCE:
   Recorrection delta-x convergence threshold:    0.010000
   Delta-x Convergence Met
 Point Number:   1          Path Number:   1
   CHANGE IN THE REACTION COORDINATE =    0.26452
   NET REACTION COORDINATE UP TO THIS POINT =    0.26452
  # OF POINTS ALONG THE PATH =   1
  # OF STEPS =   2

 Calculating another point on the path.
 IRC-IRC-IRC-IRC-IRC-IRC-IRC-IRC-IRC-IRC-IRC-IRC-IRC-IRC-IRC-IRC-IRC-IRC
                          Input orientation:                          
 ---------------------------------------------------------------------
 Center     Atomic      Atomic             Coordinates (Angstroms)
 Number     Number       Type             X           Y           Z
 ---------------------------------------------------------------------
      1         14           0        0.945597   -0.451571   -0.114970
      2          8           0        1.701127   -1.609517   -0.768095
      3          8           0        2.211469    1.664284    0.401028
      4          1           0        3.121770    1.611825    0.117796
      5          8           0        0.387559    0.833837   -1.010013
      6          1           0        1.083847    1.493045   -0.668353
      7          8           0        0.821283   -0.197165    1.507465
      8          1           0        1.408258    0.586366    1.588120
      9          6           0       -2.008361   -0.715116    0.716182
     10          1           0       -1.699821   -0.904319    1.741426
     11          1           0       -2.923315   -1.271672    0.495466
     12          6           0       -2.209127    0.775612    0.473946
     13          1           0       -1.398268    1.324831    0.957680
     14          1           0       -3.155749    1.077773    0.932219
     15          8           0       -0.969659   -1.254918   -0.109816
     16          8           0       -2.256460    1.062410   -0.900133
     17          1           0       -1.311127    1.137549   -1.155586
     18          1           0       -1.237784   -1.158237   -1.028425
 ---------------------------------------------------------------------
                    Distance matrix (angstroms):
                    1          2          3          4          5
     1  Si   0.000000
     2  O    1.529129   0.000000
     3  O    2.519033   3.513555   0.000000
     4  H    3.007909   3.630437   0.954788   0.000000
     5  O    1.662764   2.784594   2.450984   3.058289   0.000000
     6  H    2.026543   3.164944   1.563467   2.187526   1.017891
     7  O    1.646958   2.819049   2.573288   3.239732   2.754773
     8  H    2.047409   3.234103   1.793389   2.479827   2.802385
     9  C    3.079957   4.094305   4.854671   5.664889   3.334582
    10  H    3.263345   4.285026   4.867502   5.675817   3.866362
    11  H    4.001709   4.805849   5.915637   6.708222   4.202561
    12  C    3.435853   4.745692   4.509626   5.407824   2.991371
    13  H    3.130477   4.603797   3.668145   4.606356   2.702233
    14  H    4.500727   5.805329   5.425236   6.352617   4.048062
    15  O    2.076921   2.773477   4.347675   5.000982   2.648640
    16  O    3.627918   4.776937   4.692298   5.501218   2.656154
    17  H    2.949744   4.095143   3.887053   4.636488   1.731753
    18  H    2.470006   2.984732   4.680524   5.290821   2.571078
                    6          7          8          9         10
     6  H    0.000000
     7  O    2.767658   0.000000
     8  H    2.453361   0.982326   0.000000
     9  C    4.044090   2.983503   3.758646   0.000000
    10  H    4.393540   2.628835   3.450478   1.087253   0.000000
    11  H    5.005545   4.025012   4.838256   1.093440   1.784461
    12  C    3.558544   3.346318   3.789812   1.523567   2.165195
    13  H    2.972065   2.746842   2.969743   2.142877   2.382080
    14  H    4.550655   4.215823   4.637008   2.139539   2.589061
    15  O    3.475651   2.634751   3.453665   1.432676   2.020681
    16  O    3.375918   4.105552   4.455130   2.415290   3.340016
    17  H    2.469752   3.663397   3.902151   2.724338   3.565527
    18  H    3.542445   3.405019   4.109925   1.958009   2.819579
                   11         12         13         14         15
    11  H    0.000000
    12  C    2.168387   0.000000
    13  H    3.046513   1.092306   0.000000
    14  H    2.400974   1.094262   1.774944   0.000000
    15  O    2.045340   2.449512   2.824599   3.362481   0.000000
    16  O    2.800059   1.404488   2.063208   2.041194   2.765948
    17  H    3.336086   1.895462   2.123337   2.786599   2.633275
    18  H    2.275110   2.634464   3.183708   3.538709   0.961811
                   16         17         18
    16  O    0.000000
    17  H    0.982118   0.000000
    18  H    2.446515   2.300475   0.000000
 Symmetry turned off by external request.
 Stoichiometry    C2H9O6Si(1-)
 Framework group  C1[X(C2H9O6Si)]
 Deg. of freedom    48
 Full point group                 C1      NOp   1
 Rotational constants (GHZ):           1.8703213           1.0029741           0.8727157
 Standard basis: def2TZVPP (5D, 7F)
   416 basis functions,   630 primitive gaussians,   471 cartesian basis functions
    42 alpha electrons       42 beta electrons
       nuclear repulsion energy       641.0043211181 Hartrees.
 NAtoms=   18 NActive=   18 NUniq=   18 SFac= 1.00D+00 NAtFMM=   60 NAOKFM=F Big=F
 Integral buffers will be    131072 words long.
 Raffenetti 2 integral format.
 Two-electron integral symmetry is turned off.
 Nuclear repulsion after empirical dispersion term =      640.9936554302 Hartrees.
 One-electron integrals computed using PRISM.
   1 Symmetry operations used in ECPInt.
 ECPInt:  NShTT=   12246 NPrTT=   33908 LenC2=   11756 LenP2D=   25605.
 LDataN:  DoStor=T MaxTD1= 6 Len=  172
 NBasis=   416 RedAO= T EigKep=  2.02D-04  NBF=   416
 NBsUse=   416 1.00D-06 EigRej= -1.00D+00 NBFU=   416
 Initial guess from the checkpoint file:  "IRCAttemptEGAttackAxialDeprotonatedSi_Forward.chk"
 B after Tr=    -0.000245   -0.000182   -0.000080
         Rot=    1.000000   -0.000038    0.000049    0.000013 Ang=  -0.01 deg.
 ExpMin= 7.01D-02 ExpMax= 4.48D+04 ExpMxC= 1.53D+03 IAcc=3 IRadAn=         5 AccDes= 0.00D+00
 Harris functional with IExCor= 4639 and IRadAn=       5 diagonalized for initial guess.
 HarFok:  IExCor= 4639 AccDes= 0.00D+00 IRadAn=         5 IDoV= 1 UseB2=F ITyADJ=14
 ICtDFT=  3500011 ScaDFX=  1.000000  1.000000  1.000000  1.000000
 FoFCou: FMM=F IPFlag=           0 FMFlag=      100000 FMFlg1=           0
         NFxFlg=           0 DoJE=T BraDBF=F KetDBF=T FulRan=T
         wScrn=  0.000000 ICntrl=       500 IOpCl=  0 I1Cent=   200000004 NGrid=           0
         NMat0=    1 NMatS0=      1 NMatT0=    0 NMatD0=    1 NMtDS0=    0 NMtDT0=    0
 Symmetry not used in FoFCou.
 Requested convergence on RMS density matrix=1.00D-08 within 128 cycles.
 Requested convergence on MAX density matrix=1.00D-06.
 Requested convergence on             energy=1.00D-06.
 No special actions if energy rises.
 Integral accuracy reduced to 1.0D-05 until final iterations.
 Initial convergence to 1.0D-05 achieved.  Increase integral accuracy.
 SCF Done:  E(RwB97XD) =  -822.729361664     A.U. after   11 cycles
            NFock= 11  Conv=0.50D-08     -V/T= 2.0034
 DoSCS=F DFT=T ScalE2(SS,OS)=  1.000000  1.000000
 Range of M.O.s used for correlation:     1   416
 NBasis=   416 NAE=    42 NBE=    42 NFC=     0 NFV=     0
 NROrb=    416 NOA=    42 NOB=    42 NVA=   374 NVB=   374

 **** Warning!!: The largest alpha MO coefficient is  0.11956800D+02

 Symmetrizing basis deriv contribution to polar:
 IMax=3 JMax=2 DiffMx= 0.00D+00
   1 Symmetry operations used in ECPInt.
 ECPInt:  NShTT=   12246 NPrTT=   33908 LenC2=   11756 LenP2D=   25605.
 LDataN:  DoStor=T MaxTD1= 7 Len=  274
 Calling FoFJK, ICntrl=      2127 FMM=F ISym2X=0 I1Cent= 0 IOpClX= 0 NMat=1 NMatS=1 NMatT=0.
 -------------------------------------------------------------------
 Center     Atomic                   Forces (Hartrees/Bohr)
 Number     Number              X              Y              Z
 -------------------------------------------------------------------
      1       14           0.001987341    0.002206345    0.000564820
      2        8           0.000355710    0.000722570    0.000144201
      3        8           0.000536384   -0.002576583   -0.000484026
      4        1          -0.000225793   -0.000138823    0.000139053
      5        8          -0.001240581   -0.000522352   -0.000774077
      6        1           0.000149725    0.000428720   -0.000052828
      7        8          -0.000596817    0.000116742    0.000359134
      8        1          -0.000105084   -0.000129692    0.000101858
      9        6          -0.000073112   -0.000077978   -0.000121075
     10        1          -0.000014915   -0.000004740   -0.000002456
     11        1          -0.000007607   -0.000003796   -0.000008164
     12        6          -0.000149134   -0.000068308   -0.000001638
     13        1          -0.000004990   -0.000006370   -0.000009077
     14        1          -0.000004494   -0.000009498    0.000017557
     15        8          -0.000002853    0.000013210    0.000080863
     16        8          -0.000584952    0.000076748    0.000054433
     17        1          -0.000035698   -0.000022532   -0.000014394
     18        1           0.000016872   -0.000003664    0.000005818
 -------------------------------------------------------------------
 Cartesian Forces:  Max     0.002576583 RMS     0.000618053
 IRC-IRC-IRC-IRC-IRC-IRC-IRC-IRC-IRC-IRC-IRC-IRC-IRC-IRC-IRC-IRC-IRC-IRC
 Pt  2 Step number   1 out of a maximum of 100
 Modified Bulirsch-Stoer Extrapolation Cycles:
    EPS =    0.000010000000000
      PEZero:  N= 2 I= 1 D=  1.38D-03 Err=  6.52D-02
      PEZero:  N= 3 I= 2 D=  1.38D-03 Err=  9.82D-02
      PEZero:  N= 3 I= 1 D=  2.76D-03 Err=  8.21D-02
      PEZero:  N= 4 I= 3 D=  6.89D-04 Err=  5.21D-02
      PEZero:  N= 4 I= 2 D=  2.07D-03 Err=  2.88D-02
      PEZero:  N= 4 I= 1 D=  3.45D-03 Err=  8.38D-02
      PEZero:  N= 5 I= 4 D=  6.89D-04 Err=  2.59D-05
      PEZero:  N= 5 I= 3 D=  1.38D-03 Err=  5.21D-02
      PEZero:  N= 6 I= 5 D=  3.45D-04 Err=  1.85D-05
      PEZero:  N= 6 I= 4 D=  1.03D-03 Err=  6.70D-06
      PEZero:  N= 6 I= 3 D=  1.72D-03 Err=  1.72D-02
 Maximum DWI energy   std dev =  0.000000251 at pt    47
 Maximum DWI gradient std dev =  0.209753081 at pt    72
 CORRECTOR INTEGRATION CONVERGENCE:
   Recorrection delta-x convergence threshold:    0.010000
   Delta-x Convergence NOT Met
 IRC-IRC-IRC-IRC-IRC-IRC-IRC-IRC-IRC-IRC-IRC-IRC-IRC-IRC-IRC-IRC-IRC-IRC
                          Input orientation:                          
 ---------------------------------------------------------------------
 Center     Atomic      Atomic             Coordinates (Angstroms)
 Number     Number       Type             X           Y           Z
 ---------------------------------------------------------------------
      1         14           0        0.945750   -0.451321   -0.115044
      2          8           0        1.701114   -1.609529   -0.767994
      3          8           0        2.211136    1.664308    0.400597
      4          1           0        3.120594    1.609521    0.116176
      5          8           0        0.387831    0.833771   -1.009642
      6          1           0        1.085186    1.493741   -0.666759
      7          8           0        0.821186   -0.197374    1.507491
      8          1           0        1.407525    0.586097    1.589122
      9          6           0       -2.008408   -0.715143    0.716168
     10          1           0       -1.699824   -0.904271    1.741420
     11          1           0       -2.923430   -1.271662    0.495614
     12          6           0       -2.209142    0.775599    0.473911
     13          1           0       -1.398271    1.324798    0.957651
     14          1           0       -3.155758    1.077771    0.932199
     15          8           0       -0.969805   -1.255031   -0.109806
     16          8           0       -2.256414    1.062435   -0.900144
     17          1           0       -1.310998    1.137226   -1.155549
     18          1           0       -1.237791   -1.158069   -1.028420
 ---------------------------------------------------------------------
                    Distance matrix (angstroms):
                    1          2          3          4          5
     1  Si   0.000000
     2  O    1.529172   0.000000
     3  O    2.518527   3.513366   0.000000
     4  H    3.005076   3.627529   0.954469   0.000000
     5  O    1.662239   2.784390   2.450103   3.055691   0.000000
     6  H    2.026597   3.165423   1.560803   2.183867   1.019526
     7  O    1.647005   2.818916   2.573526   3.238504   2.754453
     8  H    2.047841   3.234650   1.794693   2.480237   2.802622
     9  C    3.080188   4.094290   4.854474   5.663101   3.334593
    10  H    3.263539   4.284965   4.867342   5.674240   3.866191
    11  H    4.002051   4.805962   5.915464   6.706371   4.202748
    12  C    3.435920   4.745658   4.509328   5.406430   2.991418
    13  H    3.130448   4.603728   3.667887   4.605354   2.702130
    14  H    4.500800   5.805294   5.424958   6.351475   4.048123
    15  O    2.077337   2.773570   4.347579   4.998809   2.648769
    16  O    3.627905   4.776912   4.691821   5.499493   2.656371
    17  H    2.949414   4.094837   3.886494   4.634583   1.731876
    18  H    2.470141   2.984762   4.680064   5.288211   2.571075
                    6          7          8          9         10
     6  H    0.000000
     7  O    2.767116   0.000000
     8  H    2.452900   0.981980   0.000000
     9  C    4.044994   2.983433   3.758173   0.000000
    10  H    4.393867   2.628672   3.449639   1.087261   0.000000
    11  H    5.006752   4.024939   4.837788   1.093446   1.784438
    12  C    3.559418   3.346319   3.789444   1.523580   2.165168
    13  H    2.972340   2.746874   2.969331   2.142881   2.382011
    14  H    4.551406   4.215808   4.636468   2.139538   2.589030
    15  O    3.476915   2.634755   3.453666   1.432622   2.020643
    16  O    3.377393   4.105538   4.455086   2.415317   3.339998
    17  H    2.471380   3.663216   3.902221   2.724146   3.565295
    18  H    3.543885   3.404873   4.109907   1.957963   2.819557
                   11         12         13         14         15
    11  H    0.000000
    12  C    2.168400   0.000000
    13  H    3.046505   1.092307   0.000000
    14  H    2.400920   1.094265   1.774945   0.000000
    15  O    2.045351   2.449519   2.824635   3.362459   0.000000
    16  O    2.800189   1.404470   2.063164   2.041209   2.765980
    17  H    3.336018   1.895410   2.123302   2.786640   2.633037
    18  H    2.275294   2.634311   3.183529   3.538588   0.961805
                   16         17         18
    16  O    0.000000
    17  H    0.982159   0.000000
    18  H    2.446362   2.299978   0.000000
 Symmetry turned off by external request.
 Stoichiometry    C2H9O6Si(1-)
 Framework group  C1[X(C2H9O6Si)]
 Deg. of freedom    48
 Full point group                 C1      NOp   1
 Rotational constants (GHZ):           1.8704865           1.0030445           0.8727515
 Standard basis: def2TZVPP (5D, 7F)
   416 basis functions,   630 primitive gaussians,   471 cartesian basis functions
    42 alpha electrons       42 beta electrons
       nuclear repulsion energy       641.0223993739 Hartrees.
 NAtoms=   18 NActive=   18 NUniq=   18 SFac= 1.00D+00 NAtFMM=   60 NAOKFM=F Big=F
 Integral buffers will be    131072 words long.
 Raffenetti 2 integral format.
 Two-electron integral symmetry is turned off.
 Nuclear repulsion after empirical dispersion term =      641.0117345274 Hartrees.
 One-electron integrals computed using PRISM.
   1 Symmetry operations used in ECPInt.
 ECPInt:  NShTT=   12246 NPrTT=   33908 LenC2=   11756 LenP2D=   25606.
 LDataN:  DoStor=T MaxTD1= 6 Len=  172
 NBasis=   416 RedAO= T EigKep=  2.02D-04  NBF=   416
 NBsUse=   416 1.00D-06 EigRej= -1.00D+00 NBFU=   416
 Initial guess from the checkpoint file:  "IRCAttemptEGAttackAxialDeprotonatedSi_Forward.chk"
 B after Tr=    -0.000023   -0.000036    0.000007
         Rot=    1.000000    0.000003    0.000000    0.000004 Ang=   0.00 deg.
 ExpMin= 7.01D-02 ExpMax= 4.48D+04 ExpMxC= 1.53D+03 IAcc=3 IRadAn=         5 AccDes= 0.00D+00
 Harris functional with IExCor= 4639 and IRadAn=       5 diagonalized for initial guess.
 HarFok:  IExCor= 4639 AccDes= 0.00D+00 IRadAn=         5 IDoV= 1 UseB2=F ITyADJ=14
 ICtDFT=  3500011 ScaDFX=  1.000000  1.000000  1.000000  1.000000
 FoFCou: FMM=F IPFlag=           0 FMFlag=      100000 FMFlg1=           0
         NFxFlg=           0 DoJE=T BraDBF=F KetDBF=T FulRan=T
         wScrn=  0.000000 ICntrl=       500 IOpCl=  0 I1Cent=   200000004 NGrid=           0
         NMat0=    1 NMatS0=      1 NMatT0=    0 NMatD0=    1 NMtDS0=    0 NMtDT0=    0
 Symmetry not used in FoFCou.
 Requested convergence on RMS density matrix=1.00D-08 within 128 cycles.
 Requested convergence on MAX density matrix=1.00D-06.
 Requested convergence on             energy=1.00D-06.
 No special actions if energy rises.
 Integral accuracy reduced to 1.0D-05 until final iterations.
 Initial convergence to 1.0D-05 achieved.  Increase integral accuracy.
 SCF Done:  E(RwB97XD) =  -822.729362706     A.U. after    9 cycles
            NFock=  9  Conv=0.62D-08     -V/T= 2.0034
 DoSCS=F DFT=T ScalE2(SS,OS)=  1.000000  1.000000
 Range of M.O.s used for correlation:     1   416
 NBasis=   416 NAE=    42 NBE=    42 NFC=     0 NFV=     0
 NROrb=    416 NOA=    42 NOB=    42 NVA=   374 NVB=   374

 **** Warning!!: The largest alpha MO coefficient is  0.11954683D+02

 Symmetrizing basis deriv contribution to polar:
 IMax=3 JMax=2 DiffMx= 0.00D+00
   1 Symmetry operations used in ECPInt.
 ECPInt:  NShTT=   12246 NPrTT=   33908 LenC2=   11756 LenP2D=   25606.
 LDataN:  DoStor=T MaxTD1= 7 Len=  274
 Calling FoFJK, ICntrl=      2127 FMM=F ISym2X=0 I1Cent= 0 IOpClX= 0 NMat=1 NMatS=1 NMatT=0.
 -------------------------------------------------------------------
 Center     Atomic                   Forces (Hartrees/Bohr)
 Number     Number              X              Y              Z
 -------------------------------------------------------------------
      1       14           0.001961267    0.002069273    0.000581018
      2        8           0.000378615    0.000752755    0.000170580
      3        8           0.000240188   -0.002513399   -0.000415854
      4        1           0.000113867   -0.000113091    0.000022135
      5        8          -0.000889042    0.000062398   -0.000672861
      6        1          -0.000233084   -0.000087039   -0.000204654
      7        8          -0.000691601   -0.000025607    0.000419445
      8        1          -0.000029511   -0.000033331    0.000092556
      9        6          -0.000081230   -0.000078969   -0.000109868
     10        1          -0.000016456   -0.000005493   -0.000004775
     11        1          -0.000008999   -0.000002430   -0.000011919
     12        6          -0.000148906   -0.000071829    0.000008273
     13        1          -0.000006253   -0.000006160   -0.000006232
     14        1          -0.000005298   -0.000007224    0.000013549
     15        8           0.000001832    0.000004762    0.000086721
     16        8          -0.000557257    0.000070223    0.000043768
     17        1          -0.000040640   -0.000011759   -0.000013916
     18        1           0.000012511   -0.000003078    0.000002035
 -------------------------------------------------------------------
 Cartesian Forces:  Max     0.002513399 RMS     0.000580162
 IRC-IRC-IRC-IRC-IRC-IRC-IRC-IRC-IRC-IRC-IRC-IRC-IRC-IRC-IRC-IRC-IRC-IRC
 Error in corrector energy =          -0.0000003223
 Magnitude of corrector gradient =     0.0042945654
 Magnitude of analytic gradient =      0.0042633040
 Magnitude of difference =             0.0002687619
 Angle between gradients (degrees)=    3.5750
 Pt  2 Step number   2 out of a maximum of 100
 Modified Bulirsch-Stoer Extrapolation Cycles:
    EPS =    0.000010000000000
      PEZero:  N= 2 I= 1 D=  1.38D-03 Err=  6.50D-02
      PEZero:  N= 3 I= 2 D=  1.38D-03 Err=  9.84D-02
      PEZero:  N= 3 I= 1 D=  2.76D-03 Err=  8.26D-02
      PEZero:  N= 4 I= 3 D=  6.89D-04 Err=  5.32D-02
      PEZero:  N= 4 I= 2 D=  2.07D-03 Err=  2.75D-02
      PEZero:  N= 4 I= 1 D=  3.45D-03 Err=  8.25D-02
      PEZero:  N= 5 I= 4 D=  6.89D-04 Err=  2.13D-05
      PEZero:  N= 5 I= 3 D=  1.38D-03 Err=  5.32D-02
      PEZero:  N= 6 I= 5 D=  3.45D-04 Err=  1.50D-05
      PEZero:  N= 6 I= 4 D=  1.03D-03 Err=  7.78D-06
      PEZero:  N= 6 I= 3 D=  1.72D-03 Err=  1.65D-02
 Maximum DWI energy   std dev =  0.000000463 at pt    47
 Maximum DWI gradient std dev =  0.147974108 at pt   145
 CORRECTOR INTEGRATION CONVERGENCE:
   Recorrection delta-x convergence threshold:    0.010000
   Delta-x Convergence Met
 Point Number:   2          Path Number:   1
   CHANGE IN THE REACTION COORDINATE =    0.26453
   NET REACTION COORDINATE UP TO THIS POINT =    0.52905
  # OF POINTS ALONG THE PATH =   2
  # OF STEPS =   2

 Calculating another point on the path.
 IRC-IRC-IRC-IRC-IRC-IRC-IRC-IRC-IRC-IRC-IRC-IRC-IRC-IRC-IRC-IRC-IRC-IRC
                          Input orientation:                          
 ---------------------------------------------------------------------
 Center     Atomic      Atomic             Coordinates (Angstroms)
 Number     Number       Type             X           Y           Z
 ---------------------------------------------------------------------
      1         14           0        0.955585   -0.441011   -0.112189
      2          8           0        1.704449   -1.602958   -0.766547
      3          8           0        2.213928    1.642329    0.396896
      4          1           0        3.127099    1.593902    0.122927
      5          8           0        0.378972    0.833290   -1.015986
      6          1           0        1.067330    1.499055   -0.690698
      7          8           0        0.815185   -0.197590    1.511267
      8          1           0        1.403735    0.581895    1.602789
      9          6           0       -2.009324   -0.716046    0.714909
     10          1           0       -1.702287   -0.905084    1.740717
     11          1           0       -2.924772   -1.272004    0.493898
     12          6           0       -2.210856    0.774790    0.474017
     13          1           0       -1.399238    1.323886    0.956718
     14          1           0       -3.156606    1.076726    0.934300
     15          8           0       -0.969809   -1.254951   -0.109054
     16          8           0       -2.261232    1.063071   -0.899737
     17          1           0       -1.316699    1.135373   -1.157763
     18          1           0       -1.235840   -1.158437   -1.028085
 ---------------------------------------------------------------------
                    Distance matrix (angstroms):
                    1          2          3          4          5
     1  Si   0.000000
     2  O    1.529412   0.000000
     3  O    2.486544   3.484975   0.000000
     4  H    2.985234   3.610403   0.954613   0.000000
     5  O    1.665286   2.784675   2.453129   3.070482   0.000000
     6  H    2.027564   3.167674   1.586844   2.216671   1.011382
     7  O    1.647598   2.820335   2.565854   3.237573   2.764056
     8  H    2.046540   3.236938   1.798641   2.486791   2.823353
     9  C    3.090376   4.095539   4.847569   5.662963   3.331726
    10  H    3.273059   4.287104   4.861267   5.673196   3.866910
    11  H    4.014357   4.809151   5.908382   6.706428   4.198420
    12  C    3.442115   4.745766   4.509688   5.411836   2.988434
    13  H    3.130913   4.600971   3.670119   4.610406   2.700792
    14  H    4.506527   5.805467   5.426910   6.356945   4.045144
    15  O    2.090370   2.775799   4.334327   4.995441   2.646220
    16  O    3.637362   4.780384   4.695088   5.510148   2.652732
    17  H    2.956601   4.096198   3.890925   4.647339   1.728194
    18  H    2.481110   2.985180   4.666450   5.285398   2.564125
                    6          7          8          9         10
     6  H    0.000000
     7  O    2.791206   0.000000
     8  H    2.492876   0.981002   0.000000
     9  C    4.043291   2.980073   3.757919   0.000000
    10  H    4.400278   2.625045   3.446376   1.087332   0.000000
    11  H    5.001891   4.022025   4.837618   1.093608   1.784280
    12  C    3.553537   3.343401   3.791649   1.523560   2.164520
    13  H    2.971300   2.743371   2.970625   2.142895   2.382184
    14  H    4.545395   4.210926   4.635563   2.139725   2.587069
    15  O    3.474592   2.632424   3.455158   1.431756   2.020046
    16  O    3.363495   4.106890   4.463871   2.415739   3.340367
    17  H    2.456422   3.666803   3.915066   2.722936   3.565575
    18  H    3.532801   3.402681   4.113102   1.957553   2.819224
                   11         12         13         14         15
    11  H    0.000000
    12  C    2.167818   0.000000
    13  H    3.046326   1.092351   0.000000
    14  H    2.400882   1.094290   1.774806   0.000000
    15  O    2.045904   2.449493   2.823239   3.362646   0.000000
    16  O    2.799121   1.404579   2.063367   2.040973   2.768786
    17  H    3.333068   1.895321   2.124472   2.786651   2.633205
    18  H    2.276361   2.635209   3.182463   3.540657   0.961616
                   16         17         18
    16  O    0.000000
    17  H    0.981808   0.000000
[...]
 
 Total number of points:                   20
 Total number of gradient calculations:    29
 Total number of Hessian calculations:      1
 IRC-IRC-IRC-IRC-IRC-IRC-IRC-IRC-IRC-IRC-IRC-IRC-IRC-IRC-IRC-IRC-IRC-IRC
                          Input orientation:                          
 ---------------------------------------------------------------------
 Center     Atomic      Atomic             Coordinates (Angstroms)
 Number     Number       Type             X           Y           Z
 ---------------------------------------------------------------------
      1         14           0        1.149907   -0.241484   -0.067604
      2          8           0        1.749324   -1.495260   -0.732566
      3          8           0        2.210358    1.292594    0.300298
      4          1           0        3.126163    1.173260    0.060023
      5          8           0        0.272592    0.820079   -1.077917
      6          1           0        0.810633    1.612699   -1.011701
      7          8           0        0.719215   -0.228609    1.553493
      8          1           0        1.261456    0.476726    1.909357
      9          6           0       -2.042044   -0.731820    0.701589
     10          1           0       -1.748605   -0.915653    1.734069
     11          1           0       -2.980908   -1.261421    0.494073
     12          6           0       -2.235475    0.763879    0.476335
     13          1           0       -1.408959    1.303119    0.946521
     14          1           0       -3.168043    1.075035    0.958456
     15          8           0       -1.013589   -1.278287   -0.097750
     16          8           0       -2.317207    1.072567   -0.893233
     17          1           0       -1.380528    1.081672   -1.180282
     18          1           0       -1.231748   -1.137644   -1.021021
 ---------------------------------------------------------------------
                    Distance matrix (angstroms):
                    1          2          3          4          5
     1  Si   0.000000
     2  O    1.540594   0.000000
     3  O    1.900869   3.008570   0.000000
     4  H    2.433799   3.105621   0.954291   0.000000
     5  O    1.708020   2.767815   2.424394   3.092331   0.000000
     6  H    2.108180   3.258599   1.945004   2.589089   0.960270
     7  O    1.677384   2.809198   2.471450   3.160552   2.867671
     8  H    2.106334   3.332642   2.038413   2.717043   3.165367
     9  C    3.319735   4.124817   4.726755   5.545386   3.306444
    10  H    3.478779   4.319229   4.754519   5.561416   3.873663
    11  H    4.291781   4.892281   5.788763   6.588807   4.170018
    12  C    3.573155   4.737486   4.480620   5.393335   2.951145
    13  H    3.156270   4.541476   3.676570   4.622777   2.675684
    14  H    4.629332   5.800558   5.422887   6.358762   4.006218
    15  O    2.399288   2.843195   4.142669   4.813784   2.649175
    16  O    3.798589   4.812092   4.687406   5.527125   2.608623
    17  H    3.064620   4.078848   3.889867   4.675148   1.676817
    18  H    2.717423   3.016270   4.415884   5.049784   2.469606
                    6          7          8          9         10
     6  H    0.000000
     7  O    3.158955   0.000000
     8  H    3.166427   0.958208   0.000000
     9  C    4.070614   2.933175   3.719194   0.000000
    10  H    4.525651   2.568029   3.321132   1.088998   0.000000
    11  H    4.990361   3.984969   4.798108   1.097727   1.782053
    12  C    3.494784   3.297801   3.790057   1.524884   2.154011
    13  H    2.976081   2.691418   2.956534   2.145172   2.378769
    14  H    4.472188   4.142986   4.569754   2.144429   2.564998
    15  O    3.538487   2.613625   3.504908   1.412547   2.006816
    16  O    3.176343   4.110886   4.584361   2.423837   3.343508
    17  H    2.260883   3.687720   4.109977   2.695885   3.552215
    18  H    3.425754   3.355700   4.172454   1.946448   2.811929
                   11         12         13         14         15
    11  H    0.000000
    12  C    2.158200   0.000000
    13  H    3.041808   1.093152   0.000000
    14  H    2.389497   1.094962   1.773850   0.000000
    15  O    2.054478   2.448064   2.812556   3.360858   0.000000
    16  O    2.795106   1.406302   2.064646   2.037813   2.803342
    17  H    3.294657   1.891112   2.138489   2.787374   2.622198
    18  H    2.317410   2.620178   3.140055   3.544505   0.959064
                   16         17         18
    16  O    0.000000
    17  H    0.979718   0.000000
    18  H    2.465682   2.229991   0.000000
 Symmetry turned off by external request.
 Stoichiometry    C2H9O6Si(1-)
 Framework group  C1[X(C2H9O6Si)]
 Deg. of freedom    48
 Full point group                 C1      NOp   1
 Rotational constants (GHZ):           2.0578450           0.9622146           0.8802705

 **********************************************************************

            Population analysis using the SCF Density.

 **********************************************************************

 Alpha  occ. eigenvalues --  -66.10576 -19.12576 -19.09877 -19.07651 -19.06299
 Alpha  occ. eigenvalues --  -19.05220 -18.96637 -10.19774 -10.19300  -5.22113
 Alpha  occ. eigenvalues --   -3.56884  -3.56581  -3.56296  -1.01202  -0.97662
 Alpha  occ. eigenvalues --   -0.94675  -0.92014  -0.88009  -0.78238  -0.70370
 Alpha  occ. eigenvalues --   -0.58414  -0.48585  -0.47309  -0.44691  -0.42541
 Alpha  occ. eigenvalues --   -0.41763  -0.40292  -0.37846  -0.36098  -0.33170
 Alpha  occ. eigenvalues --   -0.30639  -0.30359  -0.28141  -0.26949  -0.25765
 Alpha  occ. eigenvalues --   -0.24147  -0.23758  -0.21712  -0.20747  -0.20509
 Alpha  occ. eigenvalues --   -0.15211  -0.14751
 Alpha virt. eigenvalues --    0.23439   0.25228   0.26227   0.28533   0.29389
 Alpha virt. eigenvalues --    0.31231   0.32237   0.33273   0.33330   0.36408
 Alpha virt. eigenvalues --    0.36496   0.38642   0.39201   0.40590   0.41154
 Alpha virt. eigenvalues --    0.43270   0.44164   0.46423   0.48764   0.50586
 Alpha virt. eigenvalues --    0.52171   0.53541   0.54827   0.55209   0.56277
 Alpha virt. eigenvalues --    0.57168   0.58421   0.58700   0.60390   0.61032
 Alpha virt. eigenvalues --    0.61936   0.62880   0.63633   0.64379   0.65317
 Alpha virt. eigenvalues --    0.65715   0.68198   0.68545   0.69455   0.71096
 Alpha virt. eigenvalues --    0.72851   0.73943   0.75005   0.75793   0.77389
 Alpha virt. eigenvalues --    0.78758   0.79341   0.80458   0.81790   0.82507
 Alpha virt. eigenvalues --    0.83407   0.85920   0.86804   0.87752   0.88367
 Alpha virt. eigenvalues --    0.89640   0.91312   0.93106   0.93818   0.95647
 Alpha virt. eigenvalues --    0.97849   0.99181   1.01325   1.01827   1.02993
 Alpha virt. eigenvalues --    1.03722   1.06533   1.08244   1.09996   1.11298
 Alpha virt. eigenvalues --    1.11755   1.14660   1.15579   1.16431   1.19665
 Alpha virt. eigenvalues --    1.21600   1.22014   1.22188   1.23387   1.26624
 Alpha virt. eigenvalues --    1.28130   1.29175   1.31701   1.32859   1.34205
 Alpha virt. eigenvalues --    1.35451   1.36431   1.37570   1.38693   1.39329
 Alpha virt. eigenvalues --    1.40270   1.42619   1.43676   1.46509   1.46871
 Alpha virt. eigenvalues --    1.48462   1.49676   1.50722   1.53115   1.54641
 Alpha virt. eigenvalues --    1.56590   1.57899   1.58202   1.59658   1.62588
 Alpha virt. eigenvalues --    1.65183   1.66128   1.67733   1.69625   1.71011
 Alpha virt. eigenvalues --    1.72964   1.73912   1.75231   1.79618   1.81432
 Alpha virt. eigenvalues --    1.82291   1.86054   1.92730   1.93296   1.95103
 Alpha virt. eigenvalues --    1.97513   2.01850   2.03594   2.04658   2.07149
 Alpha virt. eigenvalues --    2.08259   2.10509   2.10785   2.13136   2.13630
 Alpha virt. eigenvalues --    2.15808   2.17917   2.19369   2.21129   2.23768
 Alpha virt. eigenvalues --    2.25680   2.25809   2.28648   2.30059   2.31643
 Alpha virt. eigenvalues --    2.32140   2.33463   2.35185   2.38381   2.39208
 Alpha virt. eigenvalues --    2.40958   2.45771   2.47890   2.49750   2.51713
 Alpha virt. eigenvalues --    2.53789   2.56098   2.57140   2.57490   2.61877
 Alpha virt. eigenvalues --    2.71400   2.72176   2.74322   2.76322   2.78766
 Alpha virt. eigenvalues --    2.81957   2.86667   2.88719   2.90509   2.92278
 Alpha virt. eigenvalues --    2.93410   2.96165   2.97760   3.02721   3.04463
 Alpha virt. eigenvalues --    3.05975   3.06576   3.10837   3.12682   3.15620
 Alpha virt. eigenvalues --    3.15949   3.19585   3.22830   3.23107   3.23570
 Alpha virt. eigenvalues --    3.25597   3.27830   3.29124   3.32425   3.33534
 Alpha virt. eigenvalues --    3.35330   3.35544   3.38813   3.39228   3.40706
 Alpha virt. eigenvalues --    3.41419   3.43114   3.47477   3.49067   3.49994
 Alpha virt. eigenvalues --    3.51711   3.53877   3.54171   3.56061   3.58846
 Alpha virt. eigenvalues --    3.59844   3.61498   3.62824   3.65258   3.65896
 Alpha virt. eigenvalues --    3.70193   3.71546   3.73053   3.73483   3.73937
 Alpha virt. eigenvalues --    3.77508   3.79610   3.79887   3.86139   3.86790
 Alpha virt. eigenvalues --    3.88153   3.89334   3.92043   3.94158   3.98578
 Alpha virt. eigenvalues --    3.98853   3.99706   4.01027   4.03463   4.05248
 Alpha virt. eigenvalues --    4.08253   4.08718   4.09290   4.12726   4.15181
 Alpha virt. eigenvalues --    4.16103   4.17349   4.19728   4.22198   4.23736
 Alpha virt. eigenvalues --    4.24415   4.26361   4.28653   4.29858   4.31131
 Alpha virt. eigenvalues --    4.33354   4.33808   4.35015   4.36594   4.38568
 Alpha virt. eigenvalues --    4.41298   4.44138   4.46435   4.46899   4.48590
 Alpha virt. eigenvalues --    4.50559   4.51320   4.53272   4.54462   4.57668
 Alpha virt. eigenvalues --    4.59721   4.61540   4.63233   4.65596   4.73349
 Alpha virt. eigenvalues --    4.79743   4.80031   4.81361   4.82746   4.88876
 Alpha virt. eigenvalues --    4.89765   4.95098   5.00915   5.04218   5.06469
 Alpha virt. eigenvalues --    5.07930   5.10573   5.12502   5.13035   5.19839
 Alpha virt. eigenvalues --    5.19989   5.21067   5.23704   5.24422   5.26329
 Alpha virt. eigenvalues --    5.29201   5.34772   5.40900   5.43926   5.48966
 Alpha virt. eigenvalues --    5.50289   5.50901   5.52214   5.52593   5.53823
 Alpha virt. eigenvalues --    5.55225   5.58283   5.60806   5.61759   5.63607
 Alpha virt. eigenvalues --    5.67086   5.68978   5.69883   5.71436   5.73413
 Alpha virt. eigenvalues --    5.76065   5.77590   5.80932   5.81631   5.85255
 Alpha virt. eigenvalues --    5.86147   5.87324   5.91543   5.93689   5.99394
 Alpha virt. eigenvalues --    6.01523   6.03897   6.07072   6.13309   6.22892
 Alpha virt. eigenvalues --    6.29206   6.36264   6.64720   6.67910   6.68517
 Alpha virt. eigenvalues --    6.71908   6.72667   6.73312   6.75261   6.76304
 Alpha virt. eigenvalues --    6.79673   6.82306   6.83883   6.84345   6.85169
 Alpha virt. eigenvalues --    6.89198   6.89653   6.90998   6.93817   6.94774
 Alpha virt. eigenvalues --    6.96022   6.96820   6.97484   6.99828   7.01659
 Alpha virt. eigenvalues --    7.02105   7.03917   7.06681   7.09931   7.12538
 Alpha virt. eigenvalues --    7.15063   7.18136   7.23332   7.24048   7.29457
 Alpha virt. eigenvalues --    7.32087   7.35752   7.40606   7.42302   7.46637
 Alpha virt. eigenvalues --    7.49633   7.61662   7.66611   7.67582   7.70350
 Alpha virt. eigenvalues --    7.72120   7.80243   7.82546   7.91135   7.98423
 Alpha virt. eigenvalues --   12.59167  23.54228  23.64540  43.97468  44.00932
 Alpha virt. eigenvalues --   44.09111  44.26070  44.32264  44.37396
          Condensed to atoms (all electrons):
               1          2          3          4          5          6
     1  Si  11.632296   0.782166   0.254911  -0.033392   0.266370  -0.029754
     2  O    0.782166   8.069064  -0.027482  -0.000281  -0.042644  -0.001370
     3  O    0.254911  -0.027482   8.182250   0.307791  -0.075343   0.033902
     4  H   -0.033392  -0.000281   0.307791   0.556835   0.004132  -0.000474
     5  O    0.266370  -0.042644  -0.075343   0.004132   8.015948   0.317265
     6  H   -0.029754  -0.001370   0.033902  -0.000474   0.317265   0.493501
     7  O    0.339640  -0.036916  -0.061479   0.003081  -0.025136   0.000558
     8  H   -0.038052  -0.001153   0.020613   0.000191   0.000730   0.000200
     9  C   -0.003907  -0.000772   0.000232  -0.000037  -0.006470   0.000260
    10  H   -0.006112   0.000296   0.000086  -0.000014   0.000284  -0.000093
    11  H   -0.000139  -0.000221   0.000008  -0.000001  -0.000201   0.000024
    12  C   -0.007802  -0.000311  -0.000837   0.000035   0.010867  -0.000539
    13  H   -0.003796  -0.000406   0.000603  -0.000030   0.003593  -0.000307
    14  H   -0.000346  -0.000015  -0.000013   0.000000   0.000486  -0.000013
    15  O    0.056603  -0.020903   0.000042   0.000038  -0.015891   0.002499
    16  O    0.000612  -0.000005  -0.000058   0.000008  -0.049363   0.002121
    17  H   -0.006784  -0.000278   0.000267  -0.000082   0.071215  -0.003611
    18  H   -0.007943   0.003275   0.000053  -0.000027   0.001220  -0.000495
               7          8          9         10         11         12
     1  Si   0.339640  -0.038052  -0.003907  -0.006112  -0.000139  -0.007802
     2  O   -0.036916  -0.001153  -0.000772   0.000296  -0.000221  -0.000311
     3  O   -0.061479   0.020613   0.000232   0.000086   0.000008  -0.000837
     4  H    0.003081   0.000191  -0.000037  -0.000014  -0.000001   0.000035
     5  O   -0.025136   0.000730  -0.006470   0.000284  -0.000201   0.010867
     6  H    0.000558   0.000200   0.000260  -0.000093   0.000024  -0.000539
     7  O    7.935295   0.318301   0.008040   0.011826   0.001076  -0.026873
     8  H    0.318301   0.523150  -0.002373  -0.000689   0.000032   0.001551
     9  C    0.008040  -0.002373   4.895054   0.383543   0.391618   0.262130
    10  H    0.011826  -0.000689   0.383543   0.627726  -0.035598  -0.020553
    11  H    0.001076   0.000032   0.391618  -0.035598   0.670581  -0.043143
    12  C   -0.026873   0.001551   0.262130  -0.020553  -0.043143   4.776212
    13  H    0.020210  -0.000123  -0.077897  -0.001820   0.010923   0.445799
    14  H    0.000219  -0.000015  -0.036899   0.005863  -0.009394   0.389975
    15  O   -0.022978   0.002437   0.225675  -0.036230  -0.033433  -0.049949
    16  O    0.000485   0.000026  -0.078643   0.006041   0.004832   0.275602
    17  H    0.000377  -0.000167   0.005013  -0.000634  -0.000395  -0.049660
    18  H    0.000540  -0.000168  -0.030000   0.013478  -0.010905  -0.010603
              13         14         15         16         17         18
     1  Si  -0.003796  -0.000346   0.056603   0.000612  -0.006784  -0.007943
     2  O   -0.000406  -0.000015  -0.020903  -0.000005  -0.000278   0.003275
     3  O    0.000603  -0.000013   0.000042  -0.000058   0.000267   0.000053
     4  H   -0.000030   0.000000   0.000038   0.000008  -0.000082  -0.000027
     5  O    0.003593   0.000486  -0.015891  -0.049363   0.071215   0.001220
     6  H   -0.000307  -0.000013   0.002499   0.002121  -0.003611  -0.000495
     7  O    0.020210   0.000219  -0.022978   0.000485   0.000377   0.000540
     8  H   -0.000123  -0.000015   0.002437   0.000026  -0.000167  -0.000168
     9  C   -0.077897  -0.036899   0.225675  -0.078643   0.005013  -0.030000
    10  H   -0.001820   0.005863  -0.036230   0.006041  -0.000634   0.013478
    11  H    0.010923  -0.009394  -0.033433   0.004832  -0.000395  -0.010905
    12  C    0.445799   0.389975  -0.049949   0.275602  -0.049660  -0.010603
    13  H    0.620740  -0.033421   0.002712  -0.048130  -0.008368   0.000610
    14  H   -0.033421   0.661927   0.005352  -0.030367   0.006443   0.000709
    15  O    0.002712   0.005352   7.879556  -0.001673   0.001185   0.297611
    16  O   -0.048130  -0.030367  -0.001673   8.005717   0.354882   0.021549
    17  H   -0.008368   0.006443   0.001185   0.354882   0.400888   0.000442
    18  H    0.000610   0.000709   0.297611   0.021549   0.000442   0.551290
 Mulliken charges:
               1
     1  Si   0.805430
     2  O   -0.722044
     3  O   -0.635544
     4  H    0.162226
     5  O   -0.477062
     6  H    0.186327
     7  O   -0.466267
     8  H    0.175510
     9  C    0.065432
    10  H    0.052598
    11  H    0.054336
    12  C    0.048099
    13  H    0.069108
    14  H    0.039508
    15  O   -0.292653
    16  O   -0.463636
    17  H    0.229267
    18  H    0.169365
 Sum of Mulliken charges =  -1.00000
 Mulliken charges with hydrogens summed into heavy atoms:
               1
     1  Si   0.805430
     2  O   -0.722044
     3  O   -0.473319
     5  O   -0.290734
     7  O   -0.290757
     9  C    0.172367
    12  C    0.156715
    15  O   -0.123289
    16  O   -0.234369
 APT charges:
               1
     1  Si   0.277516
     2  O   -0.432678
     3  O   -1.067620
     4  H    0.609300
     5  O   -0.639723
     6  H    0.455732
     7  O   -0.671834
     8  H    0.470223
     9  C   -0.630371
    10  H    0.258483
    11  H    0.514977
    12  C   -0.576132
    13  H    0.092462
    14  H    0.581848
    15  O   -0.391302
    16  O   -0.265805
    17  H    0.078639
    18  H    0.336283
 Sum of APT charges =  -1.00000
 APT charges with hydrogens summed into heavy atoms:
               1
     1  Si   0.277516
     2  O   -0.432678
     3  O   -0.458320
     5  O   -0.183991
     7  O   -0.201610
     9  C    0.143088
    12  C    0.098179
    15  O   -0.055018
    16  O   -0.187166
 Electronic spatial extent (au):  <R**2>=           1477.7266
 Charge=             -1.0000 electrons
 Dipole moment (field-independent basis, Debye):
    X=             -3.7456    Y=              3.0756    Z=              1.8538  Tot=              5.1890
 Quadrupole moment (field-independent basis, Debye-Ang):
   XX=            -77.1120   YY=            -76.2088   ZZ=            -67.4754
   XY=             11.5773   XZ=             -0.7936   YZ=             -0.7597
 Traceless Quadrupole moment (field-independent basis, Debye-Ang):
   XX=             -3.5133   YY=             -2.6101   ZZ=              6.1233
   XY=             11.5773   XZ=             -0.7936   YZ=             -0.7597
 Octapole moment (field-independent basis, Debye-Ang**2):
  XXX=             26.2262  YYY=             11.8489  ZZZ=             -3.9451  XYY=            -11.2484
  XXY=              2.1282  XXZ=             15.5152  XZZ=              1.1707  YZZ=              3.5802
  YYZ=              0.5776  XYZ=            -15.7446
 Hexadecapole moment (field-independent basis, Debye-Ang**3):
 XXXX=          -1153.0486 YYYY=           -456.1953 ZZZZ=           -314.7066 XXXY=             93.1932
 XXXZ=            -11.5343 YYYX=             42.3412 YYYZ=             -3.6887 ZZZX=             23.2798
 ZZZY=             18.9542 XXYY=           -314.2739 XXZZ=           -256.9475 YYZZ=           -123.3566
 XXYZ=              1.0561 YYXZ=              5.2269 ZZXY=             26.1202
 N-N= 6.429458146399D+02 E-N=-3.249307444282D+03  KE= 8.200156328108D+02
  Exact polarizability:       0.000       0.000       0.000       0.000       0.000       0.000
 Approx polarizability:      82.447       0.585      79.083      -1.256       1.903      79.208

 This type of calculation cannot be archived.


 Everything starts as somebody's daydream.
                           -- Larry Niven
 Job cpu time:       1 days  6 hours 36 minutes 39.3 seconds.
 Elapsed time:       0 days  2 hours 14 minutes 20.2 seconds.
 File lengths (MBytes):  RWF=    265 Int=      0 D2E=      0 Chk=     15 Scr=      1
 Normal termination of Gaussian 16 at Sun Oct 15 01:21:51 2023.
