 Entering Gaussian System, Link 0=/opt/software/gaussian/g16.c01/g16
 Initial command:
 /opt/software/gaussian/g16.c01/l1.exe "/scratch/arhender/24435754/Gau-11114.inp" -scrdir="/scratch/arhender/24435754/"
 Entering Link 1 = /opt/software/gaussian/g16.c01/l1.exe PID=     11115.
  
 Copyright (c) 1988-2019, Gaussian, Inc.  All Rights Reserved.
  
 This is part of the Gaussian(R) 16 program.  It is based on
 the Gaussian(R) 09 system (copyright 2009, Gaussian, Inc.),
 the Gaussian(R) 03 system (copyright 2003, Gaussian, Inc.),
 the Gaussian(R) 98 system (copyright 1998, Gaussian, Inc.),
 the Gaussian(R) 94 system (copyright 1995, Gaussian, Inc.),
 the Gaussian 92(TM) system (copyright 1992, Gaussian, Inc.),
 the Gaussian 90(TM) system (copyright 1990, Gaussian, Inc.),
 the Gaussian 88(TM) system (copyright 1988, Gaussian, Inc.),
 the Gaussian 86(TM) system (copyright 1986, Carnegie Mellon
 University), and the Gaussian 82(TM) system (copyright 1983,
 Carnegie Mellon University). Gaussian is a federally registered
 trademark of Gaussian, Inc.
  
 This software contains proprietary and confidential information,
 including trade secrets, belonging to Gaussian, Inc.
  
 This software is provided under written license and may be
 used, copied, transmitted, or stored only in accord with that
 written license.
  
 The following legend is applicable only to US Government
 contracts under FAR:
  
                    RESTRICTED RIGHTS LEGEND
  
 Use, reproduction and disclosure by the US Government is
 subject to restrictions as set forth in subparagraphs (a)
 and (c) of the Commercial Computer Software - Restricted
 Rights clause in FAR 52.227-19.
  
 Gaussian, Inc.
 340 Quinnipiac St., Bldg. 40, Wallingford CT 06492
  
  
 ---------------------------------------------------------------
 Warning -- This program may not be used in any manner that
 competes with the business of Gaussian, Inc. or will provide
 assistance to any competitor of Gaussian, Inc.  The licensee
 of this program is prohibited from giving any competitor of
 Gaussian, Inc. access to this program.  By using this program,
 the user acknowledges that Gaussian, Inc. is engaged in the
 business of creating and licensing software in the field of
 computational chemistry and represents and warrants to the
 licensee that it is not a competitor of Gaussian, Inc. and that
 it will not use this program in any manner prohibited above.
 ---------------------------------------------------------------
  

 Cite this work as:
 Gaussian 16, Revision C.01,
 M. J. Frisch, G. W. Trucks, H. B. Schlegel, G. E. Scuseria, 
 M. A. Robb, J. R. Cheeseman, G. Scalmani, V. Barone, 
 G. A. Petersson, H. Nakatsuji, X. Li, M. Caricato, A. V. Marenich, 
 J. Bloino, B. G. Janesko, R. Gomperts, B. Mennucci, H. P. Hratchian, 
 J. V. Ortiz, A. F. Izmaylov, J. L. Sonnenberg, D. Williams-Young, 
 F. Ding, F. Lipparini, F. Egidi, J. Goings, B. Peng, A. Petrone, 
 T. Henderson, D. Ranasinghe, V. G. Zakrzewski, J. Gao, N. Rega, 
 G. Zheng, W. Liang, M. Hada, M. Ehara, K. Toyota, R. Fukuda, 
 J. Hasegawa, M. Ishida, T. Nakajima, Y. Honda, O. Kitao, H. Nakai, 
 T. Vreven, K. Throssell, J. A. Montgomery, Jr., J. E. Peralta, 
 F. Ogliaro, M. J. Bearpark, J. J. Heyd, E. N. Brothers, K. N. Kudin, 
 V. N. Staroverov, T. A. Keith, R. Kobayashi, J. Normand, 
 K. Raghavachari, A. P. Rendell, J. C. Burant, S. S. Iyengar, 
 J. Tomasi, M. Cossi, J. M. Millam, M. Klene, C. Adamo, R. Cammi, 
 J. W. Ochterski, R. L. Martin, K. Morokuma, O. Farkas, 
 J. B. Foresman, and D. J. Fox, Gaussian, Inc., Wallingford CT, 2019.
 
 ******************************************
 Gaussian 16:  ES64L-G16RevC.01  3-Jul-2019
                 4-Feb-2024 
 ******************************************
 %chk=PL3HL3_IRC_forward.chk
 %mem=1600MB
 %nprocs=4
 Will use up to    4 processors via shared memory.
 ----------------------------------------------------------------------
 # irc=(forward,calcfc,maxpoints=100,maxcycle=100) wb97xd/def2tzvpp geo
 m=connectivity
 ----------------------------------------------------------------------
 1/6=100,10=4,18=10,22=1,26=3,38=1,42=100,44=3,57=2,172=1/1,23;
 2/12=2,17=6,18=5,29=1,40=1/2;
 3/5=44,7=202,11=2,25=1,30=1,71=2,74=-58,140=1/1,2,3;
 4//1;
 5/5=2,38=5/2;
 8/6=4,10=90,11=11/1;
 11/6=1,8=1,9=11,15=111,16=1/1,2,10;
 10/6=1,13=1/2;
 6/7=2,8=2,9=2,10=2,28=1/1;
 7/10=1,25=1/1,2,3,16;
 1/6=100,10=4,18=10,22=1,26=3,42=100,44=3/23(2);
 2/29=1/2;
 99/5=20/99;
 2/29=1/2;
 3/5=44,7=202,11=2,25=1,30=1,71=2,74=-58,140=1/1,2,3;
 4/5=5,16=3,69=1/1;
 5/5=2,38=5/2;
 8/6=4,10=90,11=11/1;
 11/6=1,8=1,9=11,15=111,16=1/1,2,10;
 10/6=1,13=1/2;
 7/10=1,25=1/1,2,3,16;
 1/6=100,18=10,22=1,26=3,42=100,44=3/23(-8);
 2/29=1/2;
 6/7=2,8=2,9=2,10=2,19=2,28=1/1;
 99/5=20,9=1/99;
 --------------------------
 IRC P(=L)2(L) to H(=L)3 TS
 --------------------------
 Symbolic Z-matrix:
 Charge = -2 Multiplicity = 1
 Si                   -0.28548  -0.12738  -0.05062 
 O                     0.73388  -1.00099  -1.198 
 O                    -1.31554   0.65154   1.17764 
 O                    -1.74277  -0.57627  -0.91388 
 O                     0.08998   1.36762  -0.77865 
 O                     2.05985   0.72869   1.03334 
 O                     0.04638  -1.35738   1.11143 
 C                     2.15991   1.86919   0.35754 
 H                     3.21949   2.18186   0.07412 
 H                     1.75499   2.77474   0.90616 
 C                     1.39394   1.80469  -0.97663 
 H                     1.9311    1.11931  -1.65192 
 H                     1.36027   2.80424  -1.4514 
 C                     1.18025  -2.09894   0.81324 
 H                     2.07206  -1.58238   1.18861 
 H                     1.10829  -3.10248   1.26694 
 C                     1.24199  -2.18332  -0.71637 
 H                     2.27995  -2.34142  -1.05948 
 H                     0.64501  -3.05171  -1.0705 
 C                    -2.90597  -0.1      -0.34182 
 H                    -3.61377   0.25344  -1.11398 
 H                    -3.42025  -0.89613   0.23265 
 C                    -2.50657   1.03357   0.61481 
 H                    -2.41294   1.9772    0.04175 
 H                    -3.28304   1.1898    1.38613 
 
 IRC-IRC-IRC-IRC-IRC-IRC-IRC-IRC-IRC-IRC-IRC-IRC-IRC-IRC-IRC-IRC-IRC-IRC
 ------------------------------------------------------------------------
 INPUT DATA FOR L123
 ------------------------------------------------------------------------
 GENERAL PARAMETERS:
 Rxn path following direction = Forward
 Maximum points per path      = 100
 Step size                    =   0.100 bohr
 Integration scheme           = HPC                                 
    Redo corrector integration= Yes                                 
    DWI Weight Power          =  2
    DWI will use Hessian update vectors when possible.
    Max correction cycles     = 100
 Initial Hessian              = CalcFC
 Hessian evaluation           = All updating
 Hessian updating method      = Bofill                              
 ------------------------------------------------------------------------
 IRC-IRC-IRC-IRC-IRC-IRC-IRC-IRC-IRC-IRC-IRC-IRC-IRC-IRC-IRC-IRC-IRC-IRC
                          Input orientation:                          
 ---------------------------------------------------------------------
 Center     Atomic      Atomic             Coordinates (Angstroms)
 Number     Number       Type             X           Y           Z
 ---------------------------------------------------------------------
      1         14           0       -0.285477   -0.127377   -0.050621
      2          8           0        0.733876   -1.000989   -1.198003
      3          8           0       -1.315540    0.651536    1.177636
      4          8           0       -1.742770   -0.576272   -0.913877
      5          8           0        0.089980    1.367615   -0.778652
      6          8           0        2.059849    0.728690    1.033336
      7          8           0        0.046376   -1.357378    1.111431
      8          6           0        2.159913    1.869191    0.357540
      9          1           0        3.219489    2.181857    0.074117
     10          1           0        1.754992    2.774740    0.906158
     11          6           0        1.393938    1.804692   -0.976630
     12          1           0        1.931097    1.119306   -1.651920
     13          1           0        1.360271    2.804243   -1.451396
     14          6           0        1.180252   -2.098938    0.813243
     15          1           0        2.072061   -1.582378    1.188607
     16          1           0        1.108288   -3.102480    1.266944
     17          6           0        1.241992   -2.183318   -0.716370
     18          1           0        2.279952   -2.341423   -1.059478
     19          1           0        0.645012   -3.051709   -1.070500
     20          6           0       -2.905970   -0.099999   -0.341819
     21          1           0       -3.613771    0.253436   -1.113983
     22          1           0       -3.420251   -0.896127    0.232646
     23          6           0       -2.506565    1.033570    0.614813
     24          1           0       -2.412943    1.977198    0.041750
     25          1           0       -3.283036    1.189802    1.386126
 ---------------------------------------------------------------------
                    Distance matrix (angstroms):
                    1          2          3          4          5
     1  Si   0.000000
     2  O    1.766002   0.000000
     3  O    1.782232   3.546069   0.000000
     4  O    1.752262   2.528811   2.462613   0.000000
     5  O    1.704699   2.490129   2.513030   2.675062   0.000000
     6  O    2.721832   3.119113   3.379353   4.467043   2.751710
     7  O    1.724353   2.435807   2.427948   2.813013   3.316610
     8  C    3.183208   3.562475   3.772799   4.777837   2.413946
     9  H    4.199156   4.234037   4.911835   5.762588   3.344254
    10  H    3.674401   4.441430   3.742975   5.174567   2.755150
    11  C    2.722282   2.890767   3.648548   3.938510   1.389438
    12  H    3.005258   2.476899   4.331957   4.113027   2.052795
    13  H    3.642122   3.864760   4.325034   4.620138   2.032271
    14  C    2.604165   2.334492   3.731872   3.720956   3.967343
    15  H    3.034913   2.797259   4.057873   4.470528   4.062168
    16  H    3.539745   3.260738   4.469402   4.389332   5.020275
    17  C    2.646370   1.374065   4.261998   3.395646   3.733649
    18  H    3.535706   2.050927   5.185561   4.395367   4.316457
    19  H    3.233834   2.056601   4.755197   3.442938   4.463593
    20  C    2.636765   3.846208   2.324439   1.380985   3.364585
    21  H    3.514726   4.525779   3.269842   2.056478   3.882218
    22  H    3.240066   4.394829   2.778142   2.056882   4.297554
    23  C    2.593035   4.233933   1.371590   2.347737   2.965700
    24  H    2.993974   4.506557   2.062016   2.807590   2.703567
    25  H    3.575551   5.254795   2.050424   3.283512   4.011872
                    6          7          8          9         10
     6  O    0.000000
     7  O    2.900319   0.000000
     8  C    1.329457   3.930157   0.000000
     9  H    2.092023   4.865270   1.140522   0.000000
    10  H    2.072543   4.476148   1.133562   1.785652   0.000000
    11  C    2.375117   4.021767   1.539769   2.139850   2.148545
    12  H    2.716571   4.162000   2.156992   2.401702   3.052087
    13  H    3.312284   5.060977   2.187693   2.484199   2.390551
    14  C    2.969446   1.387264   4.112596   4.798958   4.908329
    15  H    2.316310   2.039603   3.551298   4.090005   4.377761
    16  H    3.954479   2.048712   5.162407   5.814140   5.923690
    17  C    3.494303   2.335066   4.291700   4.856966   5.241956
    18  H    3.722084   3.266505   4.444279   4.756872   5.505854
    19  H    4.551846   2.826649   5.343171   5.943761   6.251939
    20  C    5.218921   3.522681   5.479962   6.549894   5.616595
    21  H    6.084966   4.576447   6.173449   7.198877   6.265905
    22  H    5.771710   3.605900   6.229030   7.320196   6.380597
    23  C    4.595677   3.532813   4.747680   5.865033   4.612746
    24  H    4.748461   4.279236   4.585019   5.636242   4.330699
    25  H    5.374338   4.201020   5.580793   6.707337   5.303218
                   11         12         13         14         15
    11  C    0.000000
    12  H    1.101958   0.000000
    13  H    1.107086   1.790270   0.000000
    14  C    4.299725   4.122850   5.403904   0.000000
    15  H    4.076806   3.922698   5.169014   1.096839   0.000000
    16  H    5.403291   5.198101   6.507092   1.103685   1.801584
    17  C    3.999381   3.501063   5.042818   1.533182   2.163118
    18  H    4.240537   3.528361   5.241879   2.185228   2.381859
    19  H    4.914706   4.403343   5.911755   2.177784   3.049421
    20  C    4.745529   5.157547   5.278882   4.693308   5.414836
    21  H    5.244274   5.637789   5.600139   5.677193   6.403188
    22  H    5.650946   6.020838   6.275518   4.790457   5.616965
    23  C    4.282668   4.983801   4.728311   4.841962   5.304360
    24  H    3.944515   4.740800   4.141332   5.488273   5.839617
    25  H    5.275869   6.035054   5.676112   5.573594   6.033329
                   16         17         18         19         20
    16  H    0.000000
    17  C    2.190039   0.000000
    18  H    2.713714   1.104573   0.000000
    19  H    2.383453   1.111709   1.782598   0.000000
    20  C    5.264720   4.656833   5.694981   4.674724   0.000000
    21  H    6.263292   5.447412   6.439894   5.391021   1.105503
    22  H    5.142512   4.928895   6.020862   4.782372   1.108294
    23  C    5.531668   5.115867   6.091352   5.427911   1.536115
    24  H    6.301055   5.589561   6.471975   5.989833   2.169089
    25  H    6.141793   6.022815   7.028326   6.281321   2.188963
                   21         22         23         24         25
    21  H    0.000000
    22  H    1.781111   0.000000
    23  C    2.196190   2.169010   0.000000
    24  H    2.397720   3.050755   1.107971   0.000000
    25  H    2.690114   2.387560   1.105549   1.784489   0.000000
 Symmetry turned off by external request.
 Stoichiometry    C6H12O6Si(2-)
 Framework group  C1[X(C6H12O6Si)]
 Deg. of freedom    69
 Full point group                 C1      NOp   1
 Rotational constants (GHZ):           0.9950533           0.7532654           0.5781285
 Standard basis: def2TZVPP (5D, 7F)
   582 basis functions,   885 primitive gaussians,   660 cartesian basis functions
    56 alpha electrons       56 beta electrons
       nuclear repulsion energy      1102.0001811591 Hartrees.
 NAtoms=   25 NActive=   25 NUniq=   25 SFac= 1.00D+00 NAtFMM=   60 NAOKFM=F Big=F
 Integral buffers will be    131072 words long.
 Raffenetti 2 integral format.
 Two-electron integral symmetry is turned off.
 Nuclear repulsion after empirical dispersion term =     1101.9847506279 Hartrees.
 One-electron integrals computed using PRISM.
   1 Symmetry operations used in ECPInt.
 ECPInt:  NShTT=   23871 NPrTT=   66401 LenC2=   22422 LenP2D=   47521.
 LDataN:  DoStor=T MaxTD1= 6 Len=  172
 NBasis=   582 RedAO= T EigKep=  2.44D-04  NBF=   582
 NBsUse=   582 1.00D-06 EigRej= -1.00D+00 NBFU=   582
 ExpMin= 7.01D-02 ExpMax= 4.48D+04 ExpMxC= 1.53D+03 IAcc=3 IRadAn=         5 AccDes= 0.00D+00
 Harris functional with IExCor= 4639 and IRadAn=       5 diagonalized for initial guess.
 HarFok:  IExCor= 4639 AccDes= 0.00D+00 IRadAn=         5 IDoV= 1 UseB2=F ITyADJ=14
 ICtDFT=  3500011 ScaDFX=  1.000000  1.000000  1.000000  1.000000
 FoFCou: FMM=F IPFlag=           0 FMFlag=      100000 FMFlg1=           0
         NFxFlg=           0 DoJE=T BraDBF=F KetDBF=T FulRan=T
         wScrn=  0.000000 ICntrl=       500 IOpCl=  0 I1Cent=   200000004 NGrid=           0
         NMat0=    1 NMatS0=      1 NMatT0=    0 NMatD0=    1 NMtDS0=    0 NMtDT0=    0
 Symmetry not used in FoFCou.
 Requested convergence on RMS density matrix=1.00D-08 within 128 cycles.
 Requested convergence on MAX density matrix=1.00D-06.
 Requested convergence on             energy=1.00D-06.
 No special actions if energy rises.
 Integral accuracy reduced to 1.0D-05 until final iterations.
 Initial convergence to 1.0D-05 achieved.  Increase integral accuracy.
 SCF Done:  E(RwB97XD) =  -976.849197257     A.U. after   16 cycles
            NFock= 16  Conv=0.71D-08     -V/T= 2.0037
 DoSCS=F DFT=T ScalE2(SS,OS)=  1.000000  1.000000
 Range of M.O.s used for correlation:     1   582
 NBasis=   582 NAE=    56 NBE=    56 NFC=     0 NFV=     0
 NROrb=    582 NOA=    56 NOB=    56 NVA=   526 NVB=   526

 **** Warning!!: The largest alpha MO coefficient is  0.11951322D+02

   1 Symmetry operations used in ECPInt.
 ECPInt:  NShTT=   23871 NPrTT=   66401 LenC2=   22422 LenP2D=   47521.
 LDataN:  DoStor=T MaxTD1= 7 Len=  274
 Number of processors reduced to   3 by ecpmxn.
 Symmetrizing basis deriv contribution to polar:
 IMax=3 JMax=2 DiffMx= 0.00D+00
 G2DrvN: will do    26 centers at a time, making    1 passes.
 Calling FoFCou, ICntrl=  3107 FMM=F I1Cent=   0 AccDes= 0.00D+00.
 End of G2Drv F.D. properties file   721 does not exist.
 End of G2Drv F.D. properties file   722 does not exist.
 End of G2Drv F.D. properties file   788 does not exist.
          IDoAtm=1111111111111111111111111
          Differentiating once with respect to nuclear coordinates.
 CalDSu exits because no D1Ps are significant.
          There are    78 degrees of freedom in the 1st order CPHF.  IDoFFX=6 NUNeed=     0.
     72 vectors produced by pass  0 Test12= 3.78D-14 1.28D-09 XBig12= 9.34D-02 3.68D-02.
 AX will form    72 AO Fock derivatives at one time.
     72 vectors produced by pass  1 Test12= 3.78D-14 1.28D-09 XBig12= 3.20D-02 1.90D-02.
     72 vectors produced by pass  2 Test12= 3.78D-14 1.28D-09 XBig12= 5.99D-04 2.69D-03.
     72 vectors produced by pass  3 Test12= 3.78D-14 1.28D-09 XBig12= 9.48D-06 3.21D-04.
     72 vectors produced by pass  4 Test12= 3.78D-14 1.28D-09 XBig12= 1.18D-07 3.15D-05.
     72 vectors produced by pass  5 Test12= 3.78D-14 1.28D-09 XBig12= 1.17D-09 2.97D-06.
     72 vectors produced by pass  6 Test12= 3.78D-14 1.28D-09 XBig12= 1.02D-11 2.52D-07.
     38 vectors produced by pass  7 Test12= 3.78D-14 1.28D-09 XBig12= 7.36D-14 1.84D-08.
      4 vectors produced by pass  8 Test12= 3.78D-14 1.28D-09 XBig12= 1.22D-15 2.63D-09.
      4 vectors produced by pass  9 Test12= 3.78D-14 1.28D-09 XBig12= 1.46D-15 2.71D-09.
      4 vectors produced by pass 10 Test12= 3.78D-14 1.28D-09 XBig12= 5.47D-15 8.05D-09.
      3 vectors produced by pass 11 Test12= 3.78D-14 1.28D-09 XBig12= 8.50D-16 2.44D-09.
 InvSVY:  IOpt=1 It=  1 EMax= 2.50D-16
 Solved reduced A of dimension   557 with    78 vectors.
 End of Minotr F.D. properties file   721 does not exist.
 End of Minotr F.D. properties file   722 does not exist.
 End of Minotr F.D. properties file   788 does not exist.

 **********************************************************************

            Population analysis using the SCF Density.

 **********************************************************************

 Alpha  occ. eigenvalues --  -65.99242 -18.92159 -18.91315 -18.90634 -18.90471
 Alpha  occ. eigenvalues --  -18.90434 -18.82084 -10.05071 -10.04346 -10.03869
 Alpha  occ. eigenvalues --  -10.02747 -10.01075  -9.99616  -5.10042  -3.44762
 Alpha  occ. eigenvalues --   -3.44494  -3.44486  -0.83581  -0.81160  -0.78098
 Alpha  occ. eigenvalues --   -0.76873  -0.75451  -0.69842  -0.53595  -0.51347
 Alpha  occ. eigenvalues --   -0.48182  -0.41277  -0.39475  -0.35930  -0.31952
 Alpha  occ. eigenvalues --   -0.29684  -0.28267  -0.27872  -0.27043  -0.25437
 Alpha  occ. eigenvalues --   -0.23358  -0.22114  -0.21627  -0.20751  -0.19592
 Alpha  occ. eigenvalues --   -0.18934  -0.17595  -0.15165  -0.11801  -0.09910
 Alpha  occ. eigenvalues --   -0.09219  -0.08508  -0.07797  -0.07192  -0.06060
 Alpha  occ. eigenvalues --   -0.05456  -0.04858  -0.02867  -0.01910   0.03702
 Alpha  occ. eigenvalues --    0.04531
 Alpha virt. eigenvalues --    0.35942   0.37098   0.38387   0.40015   0.40100
 Alpha virt. eigenvalues --    0.40792   0.41526   0.42523   0.43210   0.43628
 Alpha virt. eigenvalues --    0.45584   0.46135   0.47356   0.48613   0.49099
 Alpha virt. eigenvalues --    0.49816   0.52120   0.52316   0.52847   0.53303
 Alpha virt. eigenvalues --    0.53670   0.54961   0.55247   0.56287   0.56918
 Alpha virt. eigenvalues --    0.57794   0.60206   0.61964   0.64098   0.64654
 Alpha virt. eigenvalues --    0.65264   0.66545   0.67470   0.67602   0.68751
 Alpha virt. eigenvalues --    0.69557   0.69890   0.71022   0.71903   0.72319
 Alpha virt. eigenvalues --    0.72548   0.73509   0.74294   0.74692   0.75137
 Alpha virt. eigenvalues --    0.75882   0.76592   0.77128   0.77273   0.77992
 Alpha virt. eigenvalues --    0.78499   0.79170   0.79514   0.79658   0.80682
 Alpha virt. eigenvalues --    0.81329   0.82263   0.82736   0.84142   0.85256
 Alpha virt. eigenvalues --    0.86028   0.86571   0.87131   0.88481   0.88969
 Alpha virt. eigenvalues --    0.90875   0.91328   0.92372   0.93909   0.96677
 Alpha virt. eigenvalues --    0.97026   0.99403   1.00052   1.00320   1.00634
 Alpha virt. eigenvalues --    1.03503   1.04713   1.05286   1.06629   1.06815
 Alpha virt. eigenvalues --    1.08667   1.10317   1.10895   1.11351   1.12948
 Alpha virt. eigenvalues --    1.13167   1.14486   1.15774   1.16954   1.17662
 Alpha virt. eigenvalues --    1.17804   1.18841   1.19883   1.20369   1.21339
 Alpha virt. eigenvalues --    1.21876   1.23302   1.24917   1.25102   1.26942
 Alpha virt. eigenvalues --    1.28557   1.29810   1.30854   1.31491   1.32081
 Alpha virt. eigenvalues --    1.33013   1.33811   1.33959   1.35382   1.36878
 Alpha virt. eigenvalues --    1.38331   1.39169   1.39798   1.41062   1.41753
 Alpha virt. eigenvalues --    1.42050   1.43801   1.44233   1.45091   1.45872
 Alpha virt. eigenvalues --    1.46938   1.47602   1.48586   1.49305   1.49740
 Alpha virt. eigenvalues --    1.51247   1.52508   1.53298   1.54077   1.55558
 Alpha virt. eigenvalues --    1.56225   1.56703   1.57618   1.58719   1.59677
 Alpha virt. eigenvalues --    1.60157   1.60754   1.62624   1.63484   1.65035
 Alpha virt. eigenvalues --    1.65972   1.66948   1.67425   1.68214   1.68837
 Alpha virt. eigenvalues --    1.70449   1.71494   1.72826   1.73785   1.74043
 Alpha virt. eigenvalues --    1.75001   1.76514   1.77292   1.77649   1.78873
 Alpha virt. eigenvalues --    1.79315   1.80723   1.83143   1.83927   1.85300
 Alpha virt. eigenvalues --    1.86552   1.87530   1.88989   1.90022   1.90073
 Alpha virt. eigenvalues --    1.92127   1.92887   1.93293   1.94115   1.96242
 Alpha virt. eigenvalues --    1.96623   1.98501   2.00483   2.01631   2.04561
 Alpha virt. eigenvalues --    2.05208   2.07147   2.09821   2.15369   2.15735
 Alpha virt. eigenvalues --    2.17005   2.19565   2.21072   2.25032   2.25956
 Alpha virt. eigenvalues --    2.28392   2.29495   2.30028   2.32204   2.34525
 Alpha virt. eigenvalues --    2.36645   2.37408   2.38850   2.41387   2.41663
 Alpha virt. eigenvalues --    2.43390   2.44334   2.44599   2.46422   2.48163
 Alpha virt. eigenvalues --    2.49914   2.50621   2.52046   2.53625   2.55232
 Alpha virt. eigenvalues --    2.55631   2.56774   2.60519   2.61845   2.63664
 Alpha virt. eigenvalues --    2.64046   2.65728   2.67332   2.68423   2.71008
 Alpha virt. eigenvalues --    2.73881   2.74028   2.75638   2.76326   2.79015
 Alpha virt. eigenvalues --    2.81316   2.82468   2.85336   2.86910   2.88362
 Alpha virt. eigenvalues --    2.90248   2.92013   2.95568   2.96594   2.98716
 Alpha virt. eigenvalues --    2.99613   3.00125   3.01120   3.01694   3.02135
 Alpha virt. eigenvalues --    3.03766   3.04943   3.07011   3.10648   3.12702
 Alpha virt. eigenvalues --    3.14687   3.15032   3.15489   3.17581   3.18592
 Alpha virt. eigenvalues --    3.19617   3.21183   3.21527   3.23521   3.23888
 Alpha virt. eigenvalues --    3.25388   3.27094   3.27921   3.29734   3.30567
 Alpha virt. eigenvalues --    3.31607   3.32500   3.33418   3.34673   3.34964
 Alpha virt. eigenvalues --    3.35391   3.36238   3.37674   3.39050   3.40072
 Alpha virt. eigenvalues --    3.40560   3.43036   3.44425   3.45458   3.47154
 Alpha virt. eigenvalues --    3.47798   3.48534   3.49257   3.49780   3.50067
 Alpha virt. eigenvalues --    3.51386   3.51803   3.52915   3.53601   3.55033
 Alpha virt. eigenvalues --    3.55235   3.56495   3.56882   3.59261   3.60116
 Alpha virt. eigenvalues --    3.61394   3.62246   3.64105   3.65185   3.66343
 Alpha virt. eigenvalues --    3.68457   3.69003   3.70657   3.71710   3.72766
 Alpha virt. eigenvalues --    3.74353   3.74623   3.77961   3.79477   3.80920
 Alpha virt. eigenvalues --    3.82522   3.85229   3.85526   3.87806   3.88891
 Alpha virt. eigenvalues --    3.89754   3.90486   3.92771   3.93523   3.94071
 Alpha virt. eigenvalues --    3.94805   3.96576   3.97527   3.99171   4.00178
 Alpha virt. eigenvalues --    4.02086   4.03021   4.03493   4.03905   4.05456
 Alpha virt. eigenvalues --    4.06251   4.07129   4.08607   4.09499   4.10234
 Alpha virt. eigenvalues --    4.11095   4.11694   4.13079   4.14145   4.15183
 Alpha virt. eigenvalues --    4.16816   4.18603   4.18949   4.20456   4.20817
 Alpha virt. eigenvalues --    4.21966   4.23624   4.24592   4.29294   4.30294
 Alpha virt. eigenvalues --    4.31545   4.33358   4.33827   4.34582   4.34755
 Alpha virt. eigenvalues --    4.35649   4.38552   4.39749   4.41724   4.42291
 Alpha virt. eigenvalues --    4.42590   4.44444   4.46353   4.48722   4.49852
 Alpha virt. eigenvalues --    4.50697   4.51960   4.53123   4.54386   4.55353
 Alpha virt. eigenvalues --    4.57807   4.58327   4.59486   4.60660   4.62851
 Alpha virt. eigenvalues --    4.63239   4.65689   4.67007   4.68528   4.69082
 Alpha virt. eigenvalues --    4.70338   4.71449   4.72399   4.73020   4.74629
 Alpha virt. eigenvalues --    4.82631   4.84096   4.86872   4.87323   4.91143
 Alpha virt. eigenvalues --    4.93197   4.93638   4.94312   4.95928   4.97092
 Alpha virt. eigenvalues --    4.99873   5.01802   5.02580   5.05158   5.05399
 Alpha virt. eigenvalues --    5.06714   5.09142   5.11778   5.12950   5.14123
 Alpha virt. eigenvalues --    5.14659   5.16266   5.16909   5.18769   5.19419
 Alpha virt. eigenvalues --    5.21648   5.23186   5.25903   5.27244   5.27978
 Alpha virt. eigenvalues --    5.28735   5.30882   5.31915   5.34404   5.34722
 Alpha virt. eigenvalues --    5.37091   5.38442   5.39712   5.42921   5.43597
 Alpha virt. eigenvalues --    5.46567   5.46965   5.48917   5.51400   5.52562
 Alpha virt. eigenvalues --    5.53893   5.54837   5.57418   5.61717   5.62477
 Alpha virt. eigenvalues --    5.64883   5.66026   5.67023   5.69141   5.71156
 Alpha virt. eigenvalues --    5.73048   5.73683   5.75279   5.77319   5.78144
 Alpha virt. eigenvalues --    5.79117   5.80819   5.82045   5.83773   5.84551
 Alpha virt. eigenvalues --    5.86025   5.87100   5.88225   5.89271   5.91481
 Alpha virt. eigenvalues --    5.92572   5.94476   5.95057   5.98541   5.99426
 Alpha virt. eigenvalues --    6.00276   6.00908   6.02246   6.06566   6.08387
 Alpha virt. eigenvalues --    6.09759   6.10719   6.12449   6.13366   6.16186
 Alpha virt. eigenvalues --    6.19632   6.36491   6.37440   6.38622   6.41613
 Alpha virt. eigenvalues --    6.44159   6.46341   6.48090   6.48332   6.52263
 Alpha virt. eigenvalues --    6.54267   6.54465   6.55692   6.57759   6.60257
 Alpha virt. eigenvalues --    6.61820   6.63743   6.69017   6.70411   6.75823
 Alpha virt. eigenvalues --    6.98245   7.00377   7.00831   7.05123   7.06382
 Alpha virt. eigenvalues --    7.10482   7.11327   7.11845   7.16115   7.18391
 Alpha virt. eigenvalues --    7.19089   7.23480   7.29472   7.33653   7.34843
 Alpha virt. eigenvalues --    7.37930   7.40956   7.41568   7.42441   7.44594
 Alpha virt. eigenvalues --    7.46315   7.50818   7.53615   7.56226   7.56776
 Alpha virt. eigenvalues --    7.63724   7.68255   7.70745   7.79431   7.85765
 Alpha virt. eigenvalues --    7.93483   7.97106   8.01731  12.46474  23.66374
 Alpha virt. eigenvalues --   23.67847  23.73258  23.79235  23.81651  23.84475
 Alpha virt. eigenvalues --   44.48171  44.54131  44.57830  44.61941  44.70554
 Alpha virt. eigenvalues --   44.75947
          Condensed to atoms (all electrons):
               1          2          3          4          5          6
     1  Si  11.543285   0.342951   0.374378   0.380318   0.392323   0.086828
     2  O    0.342951   8.088096   0.005094  -0.032927  -0.051658  -0.006507
     3  O    0.374378   0.005094   8.066423  -0.032602  -0.046210  -0.002637
     4  O    0.380318  -0.032927  -0.032602   8.020145  -0.034127   0.000001
     5  O    0.392323  -0.051658  -0.046210  -0.034127   8.026256  -0.007027
     6  O    0.086828  -0.006507  -0.002637   0.000001  -0.007027   8.431925
     7  O    0.408395  -0.042565  -0.052032  -0.020596  -0.005927  -0.021953
     8  C   -0.019251  -0.004667   0.002076  -0.001114  -0.096583   0.528058
     9  H    0.008375  -0.000602  -0.000056   0.000013   0.009625  -0.063258
    10  H   -0.008738  -0.000068   0.001036  -0.000040   0.018136  -0.067550
    11  C   -0.061155  -0.004437   0.000085   0.000286   0.314246  -0.227087
    12  H   -0.029644   0.022921  -0.000414   0.000406  -0.054502   0.022248
    13  H    0.003222   0.000363  -0.000331  -0.000077  -0.034581   0.019114
    14  C   -0.050494  -0.103761   0.003975  -0.005744  -0.003114  -0.023364
    15  H   -0.022768   0.008454   0.000008  -0.000370   0.001019   0.035992
    16  H    0.006217   0.008367   0.000086   0.000135  -0.000118   0.001638
    17  C   -0.042943   0.381010  -0.000700   0.006379   0.002543   0.011820
    18  H    0.006003  -0.049431   0.000056  -0.000532  -0.000379  -0.000008
    19  H   -0.013236  -0.061572  -0.000019   0.002966  -0.000280   0.000268
    20  C   -0.069468   0.002515  -0.118277   0.384887  -0.004802  -0.000267
    21  H   -0.003476  -0.000198   0.007977  -0.049290   0.000714   0.000001
    22  H    0.009724   0.000117   0.015415  -0.066645  -0.000588   0.000017
    23  C   -0.062958  -0.001675   0.381464  -0.116528  -0.007878  -0.001095
    24  H    0.014218   0.000245  -0.063501   0.009962   0.017160   0.000300
    25  H   -0.003214   0.000054  -0.049710   0.005825  -0.000195  -0.000034
               7          8          9         10         11         12
     1  Si   0.408395  -0.019251   0.008375  -0.008738  -0.061155  -0.029644
     2  O   -0.042565  -0.004667  -0.000602  -0.000068  -0.004437   0.022921
     3  O   -0.052032   0.002076  -0.000056   0.001036   0.000085  -0.000414
     4  O   -0.020596  -0.001114   0.000013  -0.000040   0.000286   0.000406
     5  O   -0.005927  -0.096583   0.009625   0.018136   0.314246  -0.054502
     6  O   -0.021953   0.528058  -0.063258  -0.067550  -0.227087   0.022248
     7  O    8.003388   0.001856  -0.000574   0.000099  -0.003757   0.000519
     8  C    0.001856   4.796468   0.118861   0.282147   0.264899  -0.080671
     9  H   -0.000574   0.118861   1.323422  -0.182032  -0.068543  -0.020374
    10  H    0.000099   0.282147  -0.182032   1.222249  -0.180002   0.033228
    11  C   -0.003757   0.264899  -0.068543  -0.180002   5.287965   0.361246
    12  H    0.000519  -0.080671  -0.020374   0.033228   0.361246   0.823662
    13  H   -0.000218  -0.010055   0.036066   0.003603   0.192407  -0.065234
    14  C    0.332006  -0.002636   0.004989  -0.002006  -0.004611   0.000006
    15  H   -0.038179   0.003235  -0.003970   0.001865   0.002302   0.001180
    16  H   -0.046567  -0.000013  -0.000062   0.000069  -0.000242   0.000062
    17  C   -0.111110   0.001436  -0.001848   0.001218  -0.004180   0.003669
    18  H    0.006643  -0.000336   0.000184   0.000036   0.002496  -0.001202
    19  H    0.012492  -0.000092   0.000002   0.000002   0.000378   0.000517
    20  C   -0.002129  -0.000273  -0.000010   0.000057   0.000153  -0.000286
    21  H   -0.000328   0.000003  -0.000000  -0.000002   0.000109   0.000013
    22  H    0.001391  -0.000032   0.000001  -0.000002  -0.000039   0.000004
    23  C    0.001505   0.000623  -0.000094   0.000417  -0.002720  -0.000275
    24  H   -0.000653  -0.001172   0.000043   0.000451  -0.000003   0.000475
    25  H    0.000218  -0.000000  -0.000004  -0.000004   0.000213   0.000002
              13         14         15         16         17         18
     1  Si   0.003222  -0.050494  -0.022768   0.006217  -0.042943   0.006003
     2  O    0.000363  -0.103761   0.008454   0.008367   0.381010  -0.049431
     3  O   -0.000331   0.003975   0.000008   0.000086  -0.000700   0.000056
     4  O   -0.000077  -0.005744  -0.000370   0.000135   0.006379  -0.000532
     5  O   -0.034581  -0.003114   0.001019  -0.000118   0.002543  -0.000379
     6  O    0.019114  -0.023364   0.035992   0.001638   0.011820  -0.000008
     7  O   -0.000218   0.332006  -0.038179  -0.046567  -0.111110   0.006643
     8  C   -0.010055  -0.002636   0.003235  -0.000013   0.001436  -0.000336
     9  H    0.036066   0.004989  -0.003970  -0.000062  -0.001848   0.000184
    10  H    0.003603  -0.002006   0.001865   0.000069   0.001218   0.000036
    11  C    0.192407  -0.004611   0.002302  -0.000242  -0.004180   0.002496
    12  H   -0.065234   0.000006   0.001180   0.000062   0.003669  -0.001202
    13  H    0.911425   0.000603  -0.000166  -0.000002   0.000322  -0.000096
    14  C    0.000603   4.961771   0.387893   0.287660   0.199652  -0.009254
    15  H   -0.000166   0.387893   0.725992  -0.076168  -0.056241  -0.018512
    16  H   -0.000002   0.287660  -0.076168   0.870523  -0.006360   0.015404
    17  C    0.000322   0.199652  -0.056241  -0.006360   4.825397   0.320943
    18  H   -0.000096  -0.009254  -0.018512   0.015404   0.320943   0.883738
    19  H    0.000034  -0.047871   0.019520  -0.025813   0.347508  -0.120883
    20  C   -0.000248  -0.001792  -0.000142   0.000420   0.000835   0.000038
    21  H    0.000009  -0.000024  -0.000004  -0.000003  -0.000016  -0.000006
    22  H    0.000006   0.000715   0.000028  -0.000037  -0.000479  -0.000010
    23  C    0.000483  -0.000817  -0.000062   0.000024  -0.000802   0.000030
    24  H    0.000203   0.000029  -0.000002   0.000003  -0.000009  -0.000002
    25  H   -0.000066   0.000180   0.000006  -0.000006  -0.000007   0.000001
              19         20         21         22         23         24
     1  Si  -0.013236  -0.069468  -0.003476   0.009724  -0.062958   0.014218
     2  O   -0.061572   0.002515  -0.000198   0.000117  -0.001675   0.000245
     3  O   -0.000019  -0.118277   0.007977   0.015415   0.381464  -0.063501
     4  O    0.002966   0.384887  -0.049290  -0.066645  -0.116528   0.009962
     5  O   -0.000280  -0.004802   0.000714  -0.000588  -0.007878   0.017160
     6  O    0.000268  -0.000267   0.000001   0.000017  -0.001095   0.000300
     7  O    0.012492  -0.002129  -0.000328   0.001391   0.001505  -0.000653
     8  C   -0.000092  -0.000273   0.000003  -0.000032   0.000623  -0.001172
     9  H    0.000002  -0.000010  -0.000000   0.000001  -0.000094   0.000043
    10  H    0.000002   0.000057  -0.000002  -0.000002   0.000417   0.000451
    11  C    0.000378   0.000153   0.000109  -0.000039  -0.002720  -0.000003
    12  H    0.000517  -0.000286   0.000013   0.000004  -0.000275   0.000475
    13  H    0.000034  -0.000248   0.000009   0.000006   0.000483   0.000203
    14  C   -0.047871  -0.001792  -0.000024   0.000715  -0.000817   0.000029
    15  H    0.019520  -0.000142  -0.000004   0.000028  -0.000062  -0.000002
    16  H   -0.025813   0.000420  -0.000003  -0.000037   0.000024   0.000003
    17  C    0.347508   0.000835  -0.000016  -0.000479  -0.000802  -0.000009
    18  H   -0.120883   0.000038  -0.000006  -0.000010   0.000030  -0.000002
    19  H    0.927362  -0.000513  -0.000008   0.000090  -0.000110   0.000008
    20  C   -0.000513   4.872610   0.307914   0.360934   0.245919  -0.099717
    21  H   -0.000008   0.307914   0.897733  -0.115381  -0.006123  -0.014589
    22  H    0.000090   0.360934  -0.115381   0.891133  -0.064427   0.024463
    23  C   -0.000110   0.245919  -0.006123  -0.064427   4.859782   0.372423
    24  H    0.000008  -0.099717  -0.014589   0.024463   0.372423   0.872797
    25  H   -0.000004   0.001171   0.015141  -0.027123   0.302531  -0.112286
              25
     1  Si  -0.003214
     2  O    0.000054
     3  O   -0.049710
     4  O    0.005825
     5  O   -0.000195
     6  O   -0.000034
     7  O    0.000218
     8  C   -0.000000
     9  H   -0.000004
    10  H   -0.000004
    11  C    0.000213
    12  H    0.000002
    13  H   -0.000066
    14  C    0.000180
    15  H    0.000006
    16  H   -0.000006
    17  C   -0.000007
    18  H    0.000001
    19  H   -0.000004
    20  C    0.001171
    21  H    0.015141
    22  H   -0.027123
    23  C    0.302531
    24  H   -0.112286
    25  H    0.897866
 Mulliken charges:
               1
     1  Si   0.811110
     2  O   -0.500119
     3  O   -0.491584
     4  O   -0.450733
     5  O   -0.434050
     6  O   -0.717422
     7  O   -0.421922
     8  C    0.217233
     9  H   -0.160156
    10  H   -0.124169
    11  C    0.129992
    12  H   -0.017557
    13  H   -0.056787
    14  C    0.076005
    15  H    0.029087
    16  H   -0.035220
    17  C    0.121965
    18  H   -0.034920
    19  H   -0.040745
    20  C    0.120471
    21  H   -0.040164
    22  H   -0.029275
    23  C    0.100365
    24  H   -0.020846
    25  H   -0.030556
 Sum of Mulliken charges =  -2.00000
 Mulliken charges with hydrogens summed into heavy atoms:
               1
     1  Si   0.811110
     2  O   -0.500119
     3  O   -0.491584
     4  O   -0.450733
     5  O   -0.434050
     6  O   -0.717422
     7  O   -0.421922
     8  C   -0.067092
    11  C    0.055647
    14  C    0.069872
    17  C    0.046299
    20  C    0.051032
    23  C    0.048963
 APT charges:
               1
     1  Si   0.103422
     2  O   -0.403573
     3  O   -0.413224
     4  O   -0.392457
     5  O   -0.376802
     6  O   -0.627645
     7  O   -0.354480
     8  C   -0.383009
     9  H    0.118651
    10  H    0.106814
    11  C   -0.393165
    12  H    0.189620
    13  H    0.298964
    14  C   -0.539107
    15  H    0.235774
    16  H    0.396701
    17  C   -0.527939
    18  H    0.348458
    19  H    0.317931
    20  C   -0.552317
    21  H    0.380781
    22  H    0.335796
    23  C   -0.486831
    24  H    0.219280
    25  H    0.398357
 Sum of APT charges =  -2.00000
 APT charges with hydrogens summed into heavy atoms:
               1
     1  Si   0.103422
     2  O   -0.403573
     3  O   -0.413224
     4  O   -0.392457
     5  O   -0.376802
     6  O   -0.627645
     7  O   -0.354480
     8  C   -0.157544
    11  C    0.095419
    14  C    0.093368
    17  C    0.138450
    20  C    0.164260
    23  C    0.130806
 Electronic spatial extent (au):  <R**2>=           2338.3124
 Charge=             -2.0000 electrons
 Dipole moment (field-independent basis, Debye):
    X=             -3.6602    Y=             -2.3051    Z=             -1.9958  Tot=              4.7638
 Quadrupole moment (field-independent basis, Debye-Ang):
   XX=           -122.8796   YY=           -112.1518   ZZ=           -110.0287
   XY=             -8.1033   XZ=             -5.1460   YZ=             -3.2198
 Traceless Quadrupole moment (field-independent basis, Debye-Ang):
   XX=             -7.8596   YY=              2.8682   ZZ=              4.9913
   XY=             -8.1033   XZ=             -5.1460   YZ=             -3.2198
 Octapole moment (field-independent basis, Debye-Ang**2):
  XXX=            -30.8851  YYY=            -18.7282  ZZZ=             -3.0411  XYY=            -22.8791
  XXY=            -25.8219  XXZ=            -11.6985  XZZ=             -7.6170  YZZ=             -2.0567
  YYZ=              0.0394  XYZ=             -2.0974
 Hexadecapole moment (field-independent basis, Debye-Ang**3):
 XXXX=          -1908.7784 YYYY=          -1328.1600 ZZZZ=           -543.6145 XXXY=            -76.3242
 XXXZ=            -35.4763 YYYX=            -39.2889 YYYZ=             -2.7279 ZZZX=              0.4808
 ZZZY=             -4.2255 XXYY=           -555.1460 XXZZ=           -403.7694 YYZZ=           -316.1022
 XXYZ=            -21.1082 YYXZ=              1.2227 ZZXY=             -9.8847
 N-N= 1.101984750628D+03 E-N=-4.545843256029D+03  KE= 9.732728606871D+02
  Exact polarizability:       0.000       0.000       0.000       0.000       0.000       0.000
 Approx polarizability:     137.775      -1.827     140.281      -2.828      -4.897     124.686
   1 Symmetry operations used in ECPInt.
 ECPInt:  NShTT=   23871 NPrTT=   66401 LenC2=   22422 LenP2D=   47521.
 LDataN:  DoStor=T MaxTD1= 8 Len=  415
 Calling FoFJK, ICntrl=    100127 FMM=F ISym2X=0 I1Cent= 0 IOpClX= 0 NMat=1 NMatS=1 NMatT=0.
 -------------------------------------------------------------------
 Center     Atomic                   Forces (Hartrees/Bohr)
 Number     Number              X              Y              Z
 -------------------------------------------------------------------
      1       14          -0.000005342    0.000003129   -0.000008587
      2        8           0.000000146   -0.000000286    0.000001426
      3        8          -0.000003445    0.000001281    0.000002556
      4        8           0.000004199   -0.000002096    0.000000446
      5        8           0.000000782   -0.000004418    0.000001641
      6        8           0.000008196    0.000011736    0.000002564
      7        8           0.000004601    0.000007720   -0.000000908
      8        6           0.000000184    0.000001594    0.000000940
      9        1          -0.000000366    0.000001429   -0.000001377
     10        1          -0.000001541    0.000001827   -0.000002132
     11        6           0.000000553    0.000000327   -0.000001123
     12        1           0.000000324   -0.000001640   -0.000000201
     13        1          -0.000000981   -0.000000846   -0.000001539
     14        6           0.000000807    0.000001840    0.000001821
     15        1          -0.000010700   -0.000013896    0.000002624
     16        1           0.000000868    0.000001398    0.000003142
     17        6           0.000002234   -0.000001973    0.000002819
     18        1           0.000000782    0.000000036    0.000002773
     19        1           0.000000940   -0.000000487    0.000003013
     20        6           0.000000633   -0.000000921    0.000001439
     21        1           0.000000250   -0.000002198   -0.000001506
     22        1          -0.000000102   -0.000000799   -0.000000410
     23        6          -0.000001332   -0.000002112   -0.000005200
     24        1          -0.000000291   -0.000001079   -0.000002713
     25        1          -0.000001399    0.000000432   -0.000001508
 -------------------------------------------------------------------
 Cartesian Forces:  Max     0.000013896 RMS     0.000003514
 IRC-IRC-IRC-IRC-IRC-IRC-IRC-IRC-IRC-IRC-IRC-IRC-IRC-IRC-IRC-IRC-IRC-IRC
          ******** Start new reaction path calculation ********
 Supplied step size of   0.1000 bohr.
    Integration on MW PES will use step size of   0.3120 sqrt(amu)*bohr.
 Point Number:   0          Path Number:   1
 Calculating another point on the path.
 IRC-IRC-IRC-IRC-IRC-IRC-IRC-IRC-IRC-IRC-IRC-IRC-IRC-IRC-IRC-IRC-IRC-IRC
                          Input orientation:                          
 ---------------------------------------------------------------------
 Center     Atomic      Atomic             Coordinates (Angstroms)
 Number     Number       Type             X           Y           Z
 ---------------------------------------------------------------------
      1         14           0       -0.269681   -0.117476   -0.053806
      2          8           0        0.748140   -0.992506   -1.202054
      3          8           0       -1.299856    0.662996    1.173178
      4          8           0       -1.729143   -0.568881   -0.916392
      5          8           0        0.095833    1.376241   -0.795248
      6          8           0        2.038658    0.728251    1.022582
      7          8           0        0.051865   -1.356061    1.105008
      8          6           0        2.158051    1.871263    0.351910
      9          1           0        3.222956    2.171143    0.078923
     10          1           0        1.759037    2.778396    0.901357
     11          6           0        1.399267    1.815735   -0.986670
     12          1           0        1.939790    1.134377   -1.663720
     13          1           0        1.367397    2.817831   -1.456153
     14          6           0        1.184625   -2.098569    0.807480
     15          1           0        2.077154   -1.586476    1.187693
     16          1           0        1.109712   -3.103999    1.256908
     17          6           0        1.251130   -2.177595   -0.722366
     18          1           0        2.289823   -2.338169   -1.062693
     19          1           0        0.652651   -3.043177   -1.080921
     20          6           0       -2.891854   -0.094166   -0.343186
     21          1           0       -3.601899    0.257706   -1.114269
     22          1           0       -3.404441   -0.890269    0.233194
     23          6           0       -2.492812    1.041304    0.611427
     24          1           0       -2.402106    1.984295    0.036826
     25          1           0       -3.268203    1.197105    1.383995
 ---------------------------------------------------------------------
                    Distance matrix (angstroms):
                    1          2          3          4          5
     1  Si   0.000000
     2  O    1.766383   0.000000
     3  O    1.782102   3.546365   0.000000
     4  O    1.754380   2.529426   2.463354   0.000000
     5  O    1.707199   2.490373   2.516221   2.669965   0.000000
     6  O    2.683710   3.094422   3.342546   4.431535   2.738424
     7  O    1.726365   2.437111   2.430718   2.806725   3.328420
     8  C    3.164423   3.550186   3.753866   4.761635   2.411173
     9  H    4.177787   4.215956   4.891598   5.746448   3.342894
    10  H    3.662528   4.434631   3.729026   5.164870   2.758759
    11  C    2.718994   2.890774   3.644039   3.934245   1.388790
    12  H    3.006779   2.481289   4.331916   4.113473   2.052539
    13  H    3.641790   3.868684   4.320988   4.620576   2.032696
    14  C    2.604140   2.334978   3.732643   3.715067   3.978506
    15  H    3.034289   2.798208   4.057651   4.466606   4.078648
    16  H    3.541188   3.261232   4.472503   4.382825   5.031088
    17  C    2.646493   1.373876   4.262578   3.392290   3.737616
    18  H    3.535589   2.051101   5.185741   4.393617   4.322263
    19  H    3.235025   2.056464   4.756991   3.438336   4.463509
    20  C    2.638195   3.846326   2.325319   1.380513   3.360466
    21  H    3.516962   4.526983   3.270486   2.056603   3.876354
    22  H    3.241342   4.394807   2.779475   2.057052   4.294960
    23  C    2.593765   4.234249   1.371796   2.347364   2.965131
    24  H    2.995478   4.507795   2.062057   2.807171   2.702180
    25  H    3.575826   5.254813   2.050392   3.283168   4.012223
                    6          7          8          9         10
     6  O    0.000000
     7  O    2.880712   0.000000
     8  C    1.330613   3.926677   0.000000
     9  H    2.091647   4.852817   1.139506   0.000000
    10  H    2.072674   4.477683   1.133135   1.785557   0.000000
    11  C    2.372454   4.031241   1.539686   2.141879   2.149604
    12  H    2.718627   4.175212   2.157174   2.399625   3.052063
    13  H    3.310750   5.070656   2.188656   2.493544   2.390144
    14  C    2.960837   1.386718   4.112744   4.787068   4.911573
    15  H    2.320927   2.040030   3.558234   4.081902   4.385806
    16  H    3.950189   2.048756   5.164423   5.803497   5.928795
    17  C    3.479797   2.335048   4.286003   4.841661   5.239875
    18  H    3.716771   3.266790   4.442722   4.744251   5.506220
    19  H    4.535351   2.825879   5.335818   5.927970   6.248538
    20  C    5.181857   3.514986   5.463296   6.534577   5.606361
    21  H    6.050077   4.569401   6.158755   7.187739   6.257496
    22  H    5.733243   3.594868   6.211398   7.301948   6.369228
    23  C    4.560841   3.530774   4.731459   5.850649   4.602148
    24  H    4.719083   4.280300   4.572426   5.628322   4.323554
    25  H    5.339777   4.197540   5.564523   6.692317   5.292123
                   11         12         13         14         15
    11  C    0.000000
    12  H    1.102184   0.000000
    13  H    1.107080   1.790177   0.000000
    14  C    4.311244   4.138725   5.415573   0.000000
    15  H    4.094194   3.943661   5.185710   1.097000   0.000000
    16  H    5.414912   5.213725   6.518833   1.103851   1.801003
    17  C    4.004808   3.511347   5.050371   1.533328   2.163345
    18  H    4.248975   3.541516   5.252620   2.185502   2.382122
    19  H    4.916843   4.410027   5.916340   2.177461   3.049228
    20  C    4.740834   5.157316   5.278223   4.686079   5.409400
    21  H    5.239790   5.637443   5.600449   5.670623   6.399349
    22  H    5.646782   6.021485   6.274898   4.780097   5.607464
    23  C    4.278076   4.983263   4.725690   4.839502   5.303008
    24  H    3.940354   4.739860   4.139193   5.488927   5.842830
    25  H    5.271436   6.034542   5.672917   5.569696   6.029900
                   16         17         18         19         20
    16  H    0.000000
    17  C    2.189920   0.000000
    18  H    2.712878   1.104758   0.000000
    19  H    2.382865   1.111742   1.782610   0.000000
    20  C    5.256607   4.652823   5.692364   4.669522   0.000000
    21  H    6.254824   5.443911   6.438448   5.384992   1.105689
    22  H    5.130903   4.923885   6.016675   4.777228   1.108485
    23  C    5.529770   5.114432   6.090740   5.425953   1.536168
    24  H    6.301761   5.589618   6.473548   5.988019   2.168931
    25  H    6.138549   6.020774   7.026813   6.279244   2.189103
                   21         22         23         24         25
    21  H    0.000000
    22  H    1.781149   0.000000
    23  C    2.195935   2.169125   0.000000
    24  H    2.397005   3.050632   1.107983   0.000000
    25  H    2.689823   2.387475   1.105607   1.784561   0.000000
 Symmetry turned off by external request.
 Stoichiometry    C6H12O6Si(2-)
 Framework group  C1[X(C6H12O6Si)]
 Deg. of freedom    69
 Full point group                 C1      NOp   1
 Rotational constants (GHZ):           0.9935921           0.7578896           0.5805258
 Standard basis: def2TZVPP (5D, 7F)
   582 basis functions,   885 primitive gaussians,   660 cartesian basis functions
    56 alpha electrons       56 beta electrons
       nuclear repulsion energy      1102.9664814910 Hartrees.
 NAtoms=   25 NActive=   25 NUniq=   25 SFac= 1.00D+00 NAtFMM=   60 NAOKFM=F Big=F
 Integral buffers will be    131072 words long.
 Raffenetti 2 integral format.
 Two-electron integral symmetry is turned off.
 Nuclear repulsion after empirical dispersion term =     1102.9510471989 Hartrees.
 One-electron integrals computed using PRISM.
   1 Symmetry operations used in ECPInt.
 ECPInt:  NShTT=   23871 NPrTT=   66401 LenC2=   22433 LenP2D=   47558.
 LDataN:  DoStor=T MaxTD1= 6 Len=  172
 NBasis=   582 RedAO= T EigKep=  2.43D-04  NBF=   582
 NBsUse=   582 1.00D-06 EigRej= -1.00D+00 NBFU=   582
 Initial guess from the checkpoint file:  "PL3HL3_IRC_forward.chk"
 B after Tr=     0.014787    0.011721   -0.011063
         Rot=    1.000000   -0.000072   -0.000007    0.000036 Ang=  -0.01 deg.
 ExpMin= 7.01D-02 ExpMax= 4.48D+04 ExpMxC= 1.53D+03 IAcc=3 IRadAn=         5 AccDes= 0.00D+00
 Harris functional with IExCor= 4639 and IRadAn=       5 diagonalized for initial guess.
 HarFok:  IExCor= 4639 AccDes= 0.00D+00 IRadAn=         5 IDoV= 1 UseB2=F ITyADJ=14
 ICtDFT=  3500011 ScaDFX=  1.000000  1.000000  1.000000  1.000000
 FoFCou: FMM=F IPFlag=           0 FMFlag=      100000 FMFlg1=           0
         NFxFlg=           0 DoJE=T BraDBF=F KetDBF=T FulRan=T
         wScrn=  0.000000 ICntrl=       500 IOpCl=  0 I1Cent=   200000004 NGrid=           0
         NMat0=    1 NMatS0=      1 NMatT0=    0 NMatD0=    1 NMtDS0=    0 NMtDT0=    0
 Symmetry not used in FoFCou.
 Requested convergence on RMS density matrix=1.00D-08 within 128 cycles.
 Requested convergence on MAX density matrix=1.00D-06.
 Requested convergence on             energy=1.00D-06.
 No special actions if energy rises.
 Integral accuracy reduced to 1.0D-05 until final iterations.
 Initial convergence to 1.0D-05 achieved.  Increase integral accuracy.
 SCF Done:  E(RwB97XD) =  -976.849231801     A.U. after   12 cycles
            NFock= 12  Conv=0.60D-08     -V/T= 2.0037
 DoSCS=F DFT=T ScalE2(SS,OS)=  1.000000  1.000000
 Range of M.O.s used for correlation:     1   582
 NBasis=   582 NAE=    56 NBE=    56 NFC=     0 NFV=     0
 NROrb=    582 NOA=    56 NOB=    56 NVA=   526 NVB=   526

 **** Warning!!: The largest alpha MO coefficient is  0.11646341D+02

 Symmetrizing basis deriv contribution to polar:
 IMax=3 JMax=2 DiffMx= 0.00D+00
   1 Symmetry operations used in ECPInt.
 ECPInt:  NShTT=   23871 NPrTT=   66401 LenC2=   22433 LenP2D=   47558.
 LDataN:  DoStor=T MaxTD1= 7 Len=  274
 Calling FoFJK, ICntrl=      2127 FMM=F ISym2X=0 I1Cent= 0 IOpClX= 0 NMat=1 NMatS=1 NMatT=0.
 -------------------------------------------------------------------
 Center     Atomic                   Forces (Hartrees/Bohr)
 Number     Number              X              Y              Z
 -------------------------------------------------------------------
      1       14           0.000470672    0.000146248    0.000222524
      2        8           0.000126188    0.000024230    0.000035269
      3        8           0.000136753    0.000104824    0.000021362
      4        8           0.000111881    0.000025535    0.000059687
      5        8          -0.000046465    0.000070653   -0.000236896
      6        8          -0.000683469   -0.000044870   -0.000227259
      7        8          -0.000052416   -0.000108920   -0.000013867
      8        6          -0.000112211   -0.000092200    0.000020604
      9        1          -0.000072874   -0.000051212    0.000032442
     10        1           0.000002525   -0.000033285   -0.000001228
     11        6          -0.000031392    0.000048315   -0.000035744
     12        1           0.000002833    0.000020664   -0.000002537
     13        1           0.000001451   -0.000001195    0.000009223
     14        6          -0.000064807   -0.000081773    0.000001472
     15        1          -0.000016770   -0.000029829    0.000005970
     16        1          -0.000002953   -0.000003478   -0.000005787
     17        6           0.000016110   -0.000010380   -0.000000094
     18        1          -0.000000170   -0.000004444    0.000005574
     19        1           0.000006008    0.000008474    0.000000340
     20        6           0.000094723   -0.000002404    0.000062457
     21        1           0.000006251   -0.000004432    0.000006079
     22        1           0.000010284   -0.000000101    0.000006378
     23        6           0.000086606    0.000019501    0.000031840
     24        1           0.000003780   -0.000002162   -0.000000134
     25        1           0.000007460    0.000002242    0.000002326
 -------------------------------------------------------------------
 Cartesian Forces:  Max     0.000683469 RMS     0.000117044
 IRC-IRC-IRC-IRC-IRC-IRC-IRC-IRC-IRC-IRC-IRC-IRC-IRC-IRC-IRC-IRC-IRC-IRC
 Pt  1 Step number   1 out of a maximum of 100
 Modified Bulirsch-Stoer Extrapolation Cycles:
    EPS =    0.000010000000000
      PEZero:  N= 2 I= 1 D=  8.12D-04 Err=  2.53D-02
      PEZero:  N= 3 I= 2 D=  8.12D-04 Err=  4.10D-02
      PEZero:  N= 3 I= 1 D=  1.62D-03 Err=  3.62D-02
      PEZero:  N= 4 I= 3 D=  4.06D-04 Err=  7.32D-02
      PEZero:  N= 4 I= 2 D=  1.22D-03 Err=  5.66D-02
      PEZero:  N= 4 I= 1 D=  2.03D-03 Err=  4.62D-02
      PEZero:  N= 5 I= 4 D=  4.06D-04 Err=  5.25D-02
      PEZero:  N= 5 I= 3 D=  8.12D-04 Err=  5.57D-03
      PEZero:  N= 5 I= 2 D=  1.62D-03 Err=  2.27D-02
      PEZero:  N= 6 I= 5 D=  2.03D-04 Err=  1.34D-02
      PEZero:  N= 6 I= 4 D=  6.09D-04 Err=  3.46D-02
      PEZero:  N= 7 I= 6 D=  2.03D-04 Err=  4.21D-04
      PEZero:  N= 7 I= 5 D=  4.06D-04 Err=  1.28D-02
      PEZero:  N= 8 I= 7 D=  1.02D-04 Err=  2.24D-04
      PEZero:  N= 8 I= 6 D=  3.05D-04 Err=  1.22D-04
      PEZero:  N= 8 I= 5 D=  5.08D-04 Err=  3.49D-03
      PEZero:  N= 9 I= 8 D=  1.02D-04 Err=  1.48D-04
      PEZero:  N= 9 I= 7 D=  2.03D-04 Err=  2.76D-06
      PEZero:  N= 9 I= 6 D=  4.06D-04 Err=  5.83D-05
 Maximum DWI energy   std dev =  0.000000517 at pt     1
 Maximum DWI gradient std dev =  0.237972718 at pt    22
 CORRECTOR INTEGRATION CONVERGENCE:
   Recorrection delta-x convergence threshold:    0.010000
   Delta-x Convergence Met
 Point Number:   1          Path Number:   1
   CHANGE IN THE REACTION COORDINATE =    0.31179
   NET REACTION COORDINATE UP TO THIS POINT =    0.31179
  # OF POINTS ALONG THE PATH =   1
  # OF STEPS =   1

 Calculating another point on the path.
 IRC-IRC-IRC-IRC-IRC-IRC-IRC-IRC-IRC-IRC-IRC-IRC-IRC-IRC-IRC-IRC-IRC-IRC
                          Input orientation:                          
 ---------------------------------------------------------------------
 Center     Atomic      Atomic             Coordinates (Angstroms)
 Number     Number       Type             X           Y           Z
 ---------------------------------------------------------------------
      1         14           0       -0.261146   -0.113682   -0.050235
      2          8           0        0.754299   -0.990558   -1.199891
      3          8           0       -1.292944    0.667738    1.174703
      4          8           0       -1.722850   -0.567798   -0.913176
      5          8           0        0.093946    1.378898   -0.805115
      6          8           0        2.009281    0.721289    1.016658
      7          8           0        0.049886   -1.360783    1.105197
      8          6           0        2.148864    1.866881    0.351707
      9          1           0        3.218966    2.152997    0.089122
     10          1           0        1.756501    2.775539    0.902431
     11          6           0        1.396768    1.820561   -0.990776
     12          1           0        1.940286    1.143163   -1.669768
     13          1           0        1.366591    2.825124   -1.455059
     14          6           0        1.181409   -2.104292    0.808054
     15          1           0        2.074774   -1.596745    1.192825
     16          1           0        1.103693   -3.111509    1.253409
     17          6           0        1.252274   -2.178251   -0.722018
     18          1           0        2.291629   -2.341449   -1.059724
     19          1           0        0.652240   -3.041112   -1.084598
     20          6           0       -2.885484   -0.094627   -0.339849
     21          1           0       -3.597092    0.255951   -1.110384
     22          1           0       -3.397099   -0.890695    0.237873
     23          6           0       -2.487430    1.042509    0.613236
     24          1           0       -2.399121    1.984924    0.037312
     25          1           0       -3.262233    1.197862    1.386563
 ---------------------------------------------------------------------
                    Distance matrix (angstroms):
                    1          2          3          4          5
     1  Si   0.000000
     2  O    1.766847   0.000000
     3  O    1.782049   3.546809   0.000000
     4  O    1.757119   2.529268   2.463861   0.000000
     5  O    1.709892   2.491232   2.519701   2.664967   0.000000
     6  O    2.643912   3.068955   3.306438   4.394861   2.723934
     7  O    1.728301   2.438585   2.433706   2.800938   3.340223
     8  C    3.145208   3.537969   3.736483   4.745288   2.408123
     9  H    4.155530   4.197389   4.872558   5.729648   3.341354
    10  H    3.650489   4.428053   3.716998   5.155600   2.762320
    11  C    2.715620   2.891173   3.640447   3.929669   1.388122
    12  H    3.008131   2.485984   4.332531   4.113196   2.052357
    13  H    3.641379   3.872910   4.317765   4.620627   2.033131
    14  C    2.603872   2.335524   3.733766   3.709200   3.989675
    15  H    3.033347   2.799322   4.058293   4.462726   4.095107
    16  H    3.542490   3.261778   4.475799   4.376517   5.041912
    17  C    2.646540   1.373665   4.263255   3.388430   3.741917
    18  H    3.535346   2.051326   5.186236   4.391282   4.328467
    19  H    3.236360   2.056328   4.758545   3.433325   4.463888
    20  C    2.640339   3.845827   2.326210   1.379969   3.356300
    21  H    3.519813   4.527295   3.271129   2.056754   3.870137
    22  H    3.243603   4.394456   2.780977   2.057253   4.292584
    23  C    2.594863   4.234336   1.372040   2.346830   2.964520
    24  H    2.997124   4.508683   2.062102   2.806628   2.700432
    25  H    3.576459   5.254660   2.050369   3.282690   4.012501
                    6          7          8          9         10
     6  O    0.000000
     7  O    2.860435   0.000000
     8  C    1.331925   3.923171   0.000000
     9  H    2.091279   4.839641   1.138390   0.000000
    10  H    2.072894   4.479153   1.132653   1.785450   0.000000
    11  C    2.369254   4.040810   1.539498   2.144085   2.150726
    12  H    2.720225   4.188531   2.157228   2.397599   3.051988
    13  H    3.308861   5.080398   2.189654   2.503507   2.390031
    14  C    2.951744   1.386161   4.112716   4.774203   4.914508
    15  H    2.325640   2.040472   3.565062   4.072824   4.393460
    16  H    3.945438   2.048784   5.166219   5.791802   5.933522
    17  C    3.464590   2.335103   4.280170   4.825509   5.237663
    18  H    3.710990   3.267109   4.441009   4.730734   5.506358
    19  H    4.518019   2.825161   5.328344   5.911385   6.245087
    20  C    5.144371   3.508235   5.447056   6.519213   5.597244
    21  H    6.014338   4.563231   6.144006   7.176088   6.249857
    22  H    5.695080   3.585379   6.194747   7.284127   6.359443
    23  C    4.526184   3.529280   4.716270   5.837023   4.593254
    24  H    4.689339   4.281563   4.560366   5.620839   4.317719
    25  H    5.305922   4.194755   5.549638   6.678441   5.283100
                   11         12         13         14         15
    11  C    0.000000
    12  H    1.102410   0.000000
    13  H    1.107075   1.790033   0.000000
    14  C    4.322805   4.154692   5.427257   0.000000
    15  H    4.111664   3.964797   5.202474   1.097158   0.000000
    16  H    5.426562   5.229445   6.530584   1.104023   1.800329
    17  C    4.010437   3.521844   5.058080   1.533497   2.163627
    18  H    4.257682   3.555013   5.263598   2.185732   2.382349
    19  H    4.919247   4.416973   5.921171   2.177104   3.049009
    20  C    4.735962   5.156439   5.277194   4.679322   5.404592
    21  H    5.234592   5.635833   5.599785   5.664382   6.395883
    22  H    5.642841   6.021906   6.274239   4.770814   5.599271
    23  C    4.273783   4.982661   4.723245   4.837427   5.302386
    24  H    3.936084   4.738474   4.136870   5.489620   5.846307
    25  H    5.267427   6.034099   5.669992   5.566404   6.027521
                   16         17         18         19         20
    16  H    0.000000
    17  C    2.189831   0.000000
    18  H    2.711968   1.104961   0.000000
    19  H    2.382234   1.111771   1.782623   0.000000
    20  C    5.249150   4.648503   5.689370   4.663895   0.000000
    21  H    6.246973   5.439900   6.436310   5.378485   1.105900
    22  H    5.120591   4.918929   6.012493   4.771831   1.108710
    23  C    5.528278   5.112885   6.090105   5.423664   1.536196
    24  H    6.302558   5.589391   6.474885   5.985861   2.168717
    25  H    6.135937   6.018723   7.025413   6.276833   2.189284
                   21         22         23         24         25
    21  H    0.000000
    22  H    1.781176   0.000000
    23  C    2.195653   2.169257   0.000000
    24  H    2.396182   3.050471   1.107986   0.000000
    25  H    2.689623   2.387415   1.105662   1.784631   0.000000
 Symmetry turned off by external request.
 Stoichiometry    C6H12O6Si(2-)
 Framework group  C1[X(C6H12O6Si)]
 Deg. of freedom    69
 Full point group                 C1      NOp   1
 Rotational constants (GHZ):           0.9922899           0.7625052           0.5828934
 Standard basis: def2TZVPP (5D, 7F)
   582 basis functions,   885 primitive gaussians,   660 cartesian basis functions
    56 alpha electrons       56 beta electrons
       nuclear repulsion energy      1103.9503456724 Hartrees.
 NAtoms=   25 NActive=   25 NUniq=   25 SFac= 1.00D+00 NAtFMM=   60 NAOKFM=F Big=F
 Integral buffers will be    131072 words long.
 Raffenetti 2 integral format.
 Two-electron integral symmetry is turned off.
 Nuclear repulsion after empirical dispersion term =     1103.9349091300 Hartrees.
 One-electron integrals computed using PRISM.
   1 Symmetry operations used in ECPInt.
 ECPInt:  NShTT=   23871 NPrTT=   66401 LenC2=   22441 LenP2D=   47583.
 LDataN:  DoStor=T MaxTD1= 6 Len=  172
 NBasis=   582 RedAO= T EigKep=  2.43D-04  NBF=   582
 NBsUse=   582 1.00D-06 EigRej= -1.00D+00 NBFU=   582
 Initial guess from the checkpoint file:  "PL3HL3_IRC_forward.chk"
 B after Tr=     0.000061   -0.000219    0.000167
         Rot=    1.000000   -0.000017    0.000049    0.000031 Ang=  -0.01 deg.
 ExpMin= 7.01D-02 ExpMax= 4.48D+04 ExpMxC= 1.53D+03 IAcc=3 IRadAn=         5 AccDes= 0.00D+00
 Harris functional with IExCor= 4639 and IRadAn=       5 diagonalized for initial guess.
 HarFok:  IExCor= 4639 AccDes= 0.00D+00 IRadAn=         5 IDoV= 1 UseB2=F ITyADJ=14
 ICtDFT=  3500011 ScaDFX=  1.000000  1.000000  1.000000  1.000000
 FoFCou: FMM=F IPFlag=           0 FMFlag=      100000 FMFlg1=           0
         NFxFlg=           0 DoJE=T BraDBF=F KetDBF=T FulRan=T
         wScrn=  0.000000 ICntrl=       500 IOpCl=  0 I1Cent=   200000004 NGrid=           0
         NMat0=    1 NMatS0=      1 NMatT0=    0 NMatD0=    1 NMtDS0=    0 NMtDT0=    0
 Symmetry not used in FoFCou.
 Requested convergence on RMS density matrix=1.00D-08 within 128 cycles.
 Requested convergence on MAX density matrix=1.00D-06.
 Requested convergence on             energy=1.00D-06.
 No special actions if energy rises.
 Integral accuracy reduced to 1.0D-05 until final iterations.
 Initial convergence to 1.0D-05 achieved.  Increase integral accuracy.
 SCF Done:  E(RwB97XD) =  -976.849358923     A.U. after   12 cycles
            NFock= 12  Conv=0.68D-08     -V/T= 2.0037
 DoSCS=F DFT=T ScalE2(SS,OS)=  1.000000  1.000000
 Range of M.O.s used for correlation:     1   582
 NBasis=   582 NAE=    56 NBE=    56 NFC=     0 NFV=     0
 NROrb=    582 NOA=    56 NOB=    56 NVA=   526 NVB=   526

 **** Warning!!: The largest alpha MO coefficient is  0.11752241D+02

 Symmetrizing basis deriv contribution to polar:
 IMax=3 JMax=2 DiffMx= 0.00D+00
   1 Symmetry operations used in ECPInt.
 ECPInt:  NShTT=   23871 NPrTT=   66401 LenC2=   22441 LenP2D=   47583.
 LDataN:  DoStor=T MaxTD1= 7 Len=  274
 Calling FoFJK, ICntrl=      2127 FMM=F ISym2X=0 I1Cent= 0 IOpClX= 0 NMat=1 NMatS=1 NMatT=0.
 -------------------------------------------------------------------
 Center     Atomic                   Forces (Hartrees/Bohr)
 Number     Number              X              Y              Z
 -------------------------------------------------------------------
      1       14           0.001070218    0.000411525    0.000508712
      2        8           0.000295132    0.000054363    0.000085136
      3        8           0.000321126    0.000236753    0.000052021
      4        8           0.000277973    0.000049816    0.000149384
      5        8          -0.000098097    0.000138874   -0.000508654
      6        8          -0.001638675   -0.000186814   -0.000536444
      7        8          -0.000100541   -0.000240693   -0.000007750
      8        6          -0.000279225   -0.000221487    0.000023105
      9        1          -0.000156498   -0.000119294    0.000072532
     10        1           0.000010615   -0.000079272    0.000002245
     11        6          -0.000088080    0.000129658   -0.000109321
     12        1           0.000003116    0.000045948   -0.000009741
     13        1           0.000004544    0.000004443    0.000020470
     14        6          -0.000131409   -0.000192684    0.000014588
     15        1          -0.000011289   -0.000033363    0.000005820
     16        1          -0.000008728   -0.000013832   -0.000019040
     17        6           0.000035685   -0.000015629    0.000006864
     18        1          -0.000001864   -0.000010179    0.000004302
     19        1           0.000007945    0.000015996   -0.000007599
     20        6           0.000226452   -0.000013036    0.000130415
     21        1           0.000013083   -0.000003564    0.000014157
     22        1           0.000021204   -0.000000194    0.000015429
     23        6           0.000199822    0.000041498    0.000077152
     24        1           0.000009750   -0.000001069    0.000006070
     25        1           0.000017743    0.000002238    0.000010146
 -------------------------------------------------------------------
 Cartesian Forces:  Max     0.001638675 RMS     0.000275483
 IRC-IRC-IRC-IRC-IRC-IRC-IRC-IRC-IRC-IRC-IRC-IRC-IRC-IRC-IRC-IRC-IRC-IRC
 Pt  2 Step number   1 out of a maximum of 100
 Modified Bulirsch-Stoer Extrapolation Cycles:
    EPS =    0.000010000000000
      PEZero:  N= 2 I= 1 D=  1.62D-03 Err=  5.05D-02
      PEZero:  N= 3 I= 2 D=  1.62D-03 Err=  9.47D-02
      PEZero:  N= 3 I= 1 D=  3.25D-03 Err=  9.16D-02
      PEZero:  N= 4 I= 3 D=  8.12D-04 Err=  1.40D-01
      PEZero:  N= 4 I= 2 D=  2.44D-03 Err=  9.22D-02
      PEZero:  N= 4 I= 1 D=  4.06D-03 Err=  5.57D-02
      PEZero:  N= 5 I= 4 D=  8.12D-04 Err=  4.23D-02
      PEZero:  N= 5 I= 3 D=  1.62D-03 Err=  7.67D-02
      PEZero:  N= 6 I= 5 D=  4.06D-04 Err=  7.97D-06
      PEZero:  N= 6 I= 4 D=  1.22D-03 Err=  4.23D-02
 Maximum DWI energy   std dev =  0.000002458 at pt    95
 Maximum DWI gradient std dev =  0.145305442 at pt   147
 CORRECTOR INTEGRATION CONVERGENCE:
   Recorrection delta-x convergence threshold:    0.010000
   Delta-x Convergence Met
 Point Number:   2          Path Number:   1
   CHANGE IN THE REACTION COORDINATE =    0.31177
   NET REACTION COORDINATE UP TO THIS POINT =    0.62356
  # OF POINTS ALONG THE PATH =   2
  # OF STEPS =   1

 Calculating another point on the path.
 IRC-IRC-IRC-IRC-IRC-IRC-IRC-IRC-IRC-IRC-IRC-IRC-IRC-IRC-IRC-IRC-IRC-IRC
                          Input orientation:                          
 ---------------------------------------------------------------------
 Center     Atomic      Atomic             Coordinates (Angstroms)
 Number     Number       Type             X           Y           Z
 ---------------------------------------------------------------------
      1         14           0       -0.252108   -0.109642   -0.046007
      2          8           0        0.759659   -0.988916   -1.198058
      3          8           0       -1.286675    0.672084    1.176342
      4          8           0       -1.716625   -0.566635   -0.909909
      5          8           0        0.092232    1.381715   -0.814195
      6          8           0        1.979545    0.713819    1.009498
      7          8           0        0.048590   -1.365160    1.105712
      8          6           0        2.140017    1.862171    0.351230
      9          1           0        3.214990    2.133704    0.099301
     10          1           0        1.754772    2.771896    0.903962
     11          6           0        1.394322    1.825381   -0.994714
     12          1           0        1.940610    1.152033   -1.675857
     13          1           0        1.365749    2.832401   -1.453723
     14          6           0        1.178972   -2.109334    0.808422
     15          1           0        2.073225   -1.605788    1.196805
     16          1           0        1.099211   -3.118182    1.250099
     17          6           0        1.253169   -2.178847   -0.721866
     18          1           0        2.292979   -2.344686   -1.057607
     19          1           0        0.651553   -3.039248   -1.087732
     20          6           0       -2.879379   -0.095062   -0.336946
     21          1           0       -3.592249    0.254578   -1.107077
     22          1           0       -3.390460   -0.891118    0.241761
     23          6           0       -2.482577    1.043450    0.615039
     24          1           0       -2.396536    1.985496    0.038166
     25          1           0       -3.256876    1.198127    1.389094
 ---------------------------------------------------------------------
                    Distance matrix (angstroms):
                    1          2          3          4          5
     1  Si   0.000000
     2  O    1.767489   0.000000
     3  O    1.782010   3.547418   0.000000
     4  O    1.760676   2.528504   2.464086   0.000000
     5  O    1.712551   2.492529   2.523331   2.660299   0.000000
     6  O    2.602394   3.043145   3.270745   4.357219   2.708116
     7  O    1.730087   2.440191   2.436859   2.795775   3.351607
     8  C    3.125397   3.526241   3.720125   4.728980   2.404678
     9  H    4.132129   4.178821   4.854002   5.712369   3.339398
    10  H    3.637756   4.421814   3.705914   5.146504   2.765629
    11  C    2.712028   2.892130   3.637489   3.925165   1.387396
    12  H    3.009360   2.491305   4.333677   4.112890   2.052247
    13  H    3.640707   3.877521   4.315039   4.620628   2.033551
    14  C    2.603230   2.336048   3.735112   3.703656   4.000164
    15  H    3.031536   2.800242   4.059316   4.458817   4.110187
    16  H    3.543624   3.262291   4.479287   4.370923   5.052167
    17  C    2.646555   1.373407   4.264013   3.384415   3.746185
    18  H    3.535000   2.051563   5.187037   4.388645   4.334582
    19  H    3.237961   2.056143   4.759910   3.428368   4.464592
    20  C    2.643370   3.844878   2.327070   1.379371   3.352477
    21  H    3.523502   4.526992   3.271694   2.056996   3.864145
    22  H    3.246963   4.393875   2.782616   2.057513   4.290683
    23  C    2.596458   4.234374   1.372281   2.346172   2.964249
    24  H    2.999209   4.509650   2.062107   2.806153   2.699080
    25  H    3.577485   5.254433   2.050287   3.282099   4.013067
                    6          7          8          9         10
     6  O    0.000000
     7  O    2.839013   0.000000
     8  C    1.333334   3.919052   0.000000
     9  H    2.090659   4.825039   1.136999   0.000000
    10  H    2.073003   4.479619   1.132045   1.785219   0.000000
    11  C    2.365359   4.049980   1.539149   2.146337   2.151926
    12  H    2.721154   4.201562   2.157114   2.395602   3.051878
    13  H    3.306446   5.089708   2.190591   2.513911   2.390330
    14  C    2.941350   1.385619   4.111628   4.759369   4.916002
    15  H    2.329043   2.040918   3.570182   4.061028   4.399010
    16  H    3.939177   2.048839   5.166736   5.777817   5.936547
    17  C    3.448588   2.335196   4.274092   4.808446   5.234957
    18  H    3.704810   3.267522   4.439129   4.716410   5.506072
    19  H    4.499717   2.824417   5.320719   5.894039   6.241260
    20  C    5.106499   3.502486   5.431268   6.503771   5.588796
    21  H    5.977933   4.558036   6.129428   7.164145   6.242739
    22  H    5.657049   3.577457   6.178896   7.266486   6.350558
    23  C    4.491635   3.528310   4.701943   5.823822   4.585425
    24  H    4.659477   4.283128   4.549014   5.613816   4.312932
    25  H    5.272452   4.192475   5.535753   6.665127   5.275293
                   11         12         13         14         15
    11  C    0.000000
    12  H    1.102626   0.000000
    13  H    1.107065   1.789817   0.000000
    14  C    4.333551   4.169922   5.438100   0.000000
    15  H    4.127541   3.984389   5.217599   1.097309   0.000000
    16  H    5.437380   5.244417   6.541493   1.104181   1.799688
    17  C    4.015995   3.532341   5.065658   1.533662   2.163837
    18  H    4.266263   3.568395   5.274362   2.185970   2.382569
    19  H    4.921888   4.424297   5.926238   2.176766   3.048781
    20  C    4.731308   5.155601   5.276205   4.673261   5.400275
    21  H    5.229335   5.633956   5.598847   5.658778   6.392686
    22  H    5.639360   6.022627   6.273818   4.762864   5.592381
    23  C    4.270020   4.982427   4.721200   4.835741   5.302098
    24  H    3.932313   4.737443   4.134945   5.490463   5.849661
    25  H    5.263994   6.034062   5.667550   5.563562   6.025686
                   16         17         18         19         20
    16  H    0.000000
    17  C    2.189681   0.000000
    18  H    2.710882   1.105183   0.000000
    19  H    2.381613   1.111796   1.782583   0.000000
    20  C    5.242819   4.644165   5.686251   4.658261   0.000000
    21  H    6.240320   5.435809   6.433858   5.372106   1.106135
    22  H    5.112114   4.914277   6.008552   4.766539   1.108969
    23  C    5.527359   5.111390   6.089593   5.421312   1.536208
    24  H    6.303694   5.589253   6.476322   5.983857   2.168540
    25  H    6.133950   6.016694   7.024155   6.274220   2.189533
                   21         22         23         24         25
    21  H    0.000000
    22  H    1.781208   0.000000
    23  C    2.195307   2.169365   0.000000
    24  H    2.395285   3.050286   1.107987   0.000000
    25  H    2.689541   2.387292   1.105724   1.784696   0.000000
 Symmetry turned off by external request.
 Stoichiometry    C6H12O6Si(2-)
 Framework group  C1[X(C6H12O6Si)]
 Deg. of freedom    69
 Full point group                 C1      NOp   1
 Rotational constants (GHZ):           0.9912824           0.7670577           0.5852499
 Standard basis: def2TZVPP (5D, 7F)
   582 basis functions,   885 primitive gaussians,   660 cartesian basis functions
    56 alpha electrons       56 beta electrons
       nuclear repulsion energy      1104.9714498900 Hartrees.
 NAtoms=   25 NActive=   25 NUniq=   25 SFac= 1.00D+00 NAtFMM=   60 NAOKFM=F Big=F
 Integral buffers will be    131072 words long.
 Raffenetti 2 integral format.
 Two-electron integral symmetry is turned off.
 Nuclear repulsion after empirical dispersion term =     1104.9560120399 Hartrees.
 One-electron integrals computed using PRISM.
   1 Symmetry operations used in ECPInt.
[...]
    22  H    1.782275   0.000000
    23  C    2.189054   2.169978   0.000000
    24  H    2.377639   3.045987   1.109459   0.000000
    25  H    2.682759   2.379246   1.108152   1.785799   0.000000
 Symmetry turned off by external request.
 Stoichiometry    C6H12O6Si(2-)
 Framework group  C1[X(C6H12O6Si)]
 Deg. of freedom    69
 Full point group                 C1      NOp   1
 Rotational constants (GHZ):           0.9787680           0.8490287           0.6263270
 Standard basis: def2TZVPP (5D, 7F)
   582 basis functions,   885 primitive gaussians,   660 cartesian basis functions
    56 alpha electrons       56 beta electrons
       nuclear repulsion energy      1125.7556955604 Hartrees.
 NAtoms=   25 NActive=   25 NUniq=   25 SFac= 1.00D+00 NAtFMM=   60 NAOKFM=F Big=F
 Integral buffers will be    131072 words long.
 Raffenetti 2 integral format.
 Two-electron integral symmetry is turned off.
 Nuclear repulsion after empirical dispersion term =     1125.7400573949 Hartrees.
 One-electron integrals computed using PRISM.
   1 Symmetry operations used in ECPInt.
 ECPInt:  NShTT=   23871 NPrTT=   66401 LenC2=   22561 LenP2D=   48031.
 LDataN:  DoStor=T MaxTD1= 6 Len=  172
 NBasis=   582 RedAO= T EigKep=  2.44D-04  NBF=   582
 NBsUse=   582 1.00D-06 EigRej= -1.00D+00 NBFU=   582
 Initial guess from the checkpoint file:  "PL3HL3_IRC_forward.chk"
 B after Tr=     0.000068    0.000049   -0.000032
         Rot=    1.000000    0.000022    0.000007    0.000020 Ang=   0.00 deg.
 ExpMin= 7.01D-02 ExpMax= 4.48D+04 ExpMxC= 1.53D+03 IAcc=3 IRadAn=         5 AccDes= 0.00D+00
 Harris functional with IExCor= 4639 and IRadAn=       5 diagonalized for initial guess.
 HarFok:  IExCor= 4639 AccDes= 0.00D+00 IRadAn=         5 IDoV= 1 UseB2=F ITyADJ=14
 ICtDFT=  3500011 ScaDFX=  1.000000  1.000000  1.000000  1.000000
 FoFCou: FMM=F IPFlag=           0 FMFlag=      100000 FMFlg1=           0
         NFxFlg=           0 DoJE=T BraDBF=F KetDBF=T FulRan=T
         wScrn=  0.000000 ICntrl=       500 IOpCl=  0 I1Cent=   200000004 NGrid=           0
         NMat0=    1 NMatS0=      1 NMatT0=    0 NMatD0=    1 NMtDS0=    0 NMtDT0=    0
 Symmetry not used in FoFCou.
 Requested convergence on RMS density matrix=1.00D-08 within 128 cycles.
 Requested convergence on MAX density matrix=1.00D-06.
 Requested convergence on             energy=1.00D-06.
 No special actions if energy rises.
 Integral accuracy reduced to 1.0D-05 until final iterations.
 Initial convergence to 1.0D-05 achieved.  Increase integral accuracy.
 SCF Done:  E(RwB97XD) =  -976.871289771     A.U. after   10 cycles
            NFock= 10  Conv=0.79D-08     -V/T= 2.0037
 DoSCS=F DFT=T ScalE2(SS,OS)=  1.000000  1.000000
 Range of M.O.s used for correlation:     1   582
 NBasis=   582 NAE=    56 NBE=    56 NFC=     0 NFV=     0
 NROrb=    582 NOA=    56 NOB=    56 NVA=   526 NVB=   526

 **** Warning!!: The largest alpha MO coefficient is  0.12093339D+02

 Symmetrizing basis deriv contribution to polar:
 IMax=3 JMax=2 DiffMx= 0.00D+00
   1 Symmetry operations used in ECPInt.
 ECPInt:  NShTT=   23871 NPrTT=   66401 LenC2=   22561 LenP2D=   48031.
 LDataN:  DoStor=T MaxTD1= 7 Len=  274
 Calling FoFJK, ICntrl=      2127 FMM=F ISym2X=0 I1Cent= 0 IOpClX= 0 NMat=1 NMatS=1 NMatT=0.
 -------------------------------------------------------------------
 Center     Atomic                   Forces (Hartrees/Bohr)
 Number     Number              X              Y              Z
 -------------------------------------------------------------------
      1       14           0.000624376    0.000239845   -0.000343604
      2        8           0.001963107    0.000252856    0.000473038
      3        8           0.001128748    0.001692565   -0.000100662
      4        8           0.001153789    0.000157294    0.000638012
      5        8          -0.000037315   -0.000391642   -0.002102197
      6        8          -0.001817580    0.000807673    0.000306368
      7        8          -0.000738607   -0.000778409   -0.000459673
      8        6          -0.000864363   -0.000143619    0.000526293
      9        1          -0.000944031    0.000109327    0.000060605
     10        1          -0.000150734   -0.000232639    0.000009677
     11        6          -0.000405466    0.000482555   -0.000135257
     12        1           0.000088265    0.000128544   -0.000100332
     13        1          -0.000041533    0.000241647    0.000078214
     14        6          -0.001049301   -0.001210135   -0.000345380
     15        1          -0.000025783   -0.000181155    0.000047957
     16        1          -0.000168962   -0.000164458   -0.000076893
     17        6          -0.000309220   -0.000517332   -0.000238615
     18        1          -0.000039757   -0.000149844    0.000011160
     19        1          -0.000099152    0.000048694   -0.000086947
     20        6           0.000950002   -0.000427376    0.001076017
     21        1           0.000037885   -0.000116817    0.000116611
     22        1           0.000180589   -0.000050136    0.000154910
     23        6           0.000529792    0.000210792    0.000423767
     24        1          -0.000028365   -0.000005736    0.000009232
     25        1           0.000063616   -0.000002494    0.000057696
 -------------------------------------------------------------------
 Cartesian Forces:  Max     0.002102197 RMS     0.000624394
 IRC-IRC-IRC-IRC-IRC-IRC-IRC-IRC-IRC-IRC-IRC-IRC-IRC-IRC-IRC-IRC-IRC-IRC
 Error in corrector energy =          -0.0000047021
 Magnitude of corrector gradient =     0.0055392795
 Magnitude of analytic gradient =      0.0054074083
 Magnitude of difference =             0.0012996848
 Angle between gradients (degrees)=   13.5677
 Pt 23 Step number  99 out of a maximum of 100
 Modified Bulirsch-Stoer Extrapolation Cycles:
    EPS =    0.000010000000000
      PEZero:  N= 2 I= 1 D=  1.62D-03 Err=  5.28D-04
      PEZero:  N= 3 I= 2 D=  1.62D-03 Err=  3.52D-04
      PEZero:  N= 3 I= 1 D=  3.24D-03 Err=  8.38D-07
 Maximum DWI energy   std dev =  0.000001838 at pt    29
 Maximum DWI gradient std dev =  0.120514709 at pt    60
 CORRECTOR INTEGRATION CONVERGENCE:
   Recorrection delta-x convergence threshold:    0.010000
   Delta-x Convergence NOT Met
 IRC-IRC-IRC-IRC-IRC-IRC-IRC-IRC-IRC-IRC-IRC-IRC-IRC-IRC-IRC-IRC-IRC-IRC
                          Input orientation:                          
 ---------------------------------------------------------------------
 Center     Atomic      Atomic             Coordinates (Angstroms)
 Number     Number       Type             X           Y           Z
 ---------------------------------------------------------------------
      1         14           0       -0.078653   -0.023600    0.037611
      2          8           0        0.885311   -0.962165   -1.170932
      3          8           0       -1.170959    0.787327    1.207636
      4          8           0       -1.579251   -0.538792   -0.839968
      5          8           0        0.061061    1.431563   -1.012765
      6          8           0        1.424558    0.599901    0.884240
      7          8           0        0.024083   -1.453279    1.109095
      8          6           0        1.936415    1.748563    0.351681
      9          1           0        3.045439    1.729894    0.305328
     10          1           0        1.662747    2.641267    0.959193
     11          6           0        1.345832    1.909571   -1.058452
     12          1           0        1.966118    1.338043   -1.776879
     13          1           0        1.368253    2.972101   -1.373613
     14          6           0        1.118416   -2.222520    0.798746
     15          1           0        2.043081   -1.815360    1.250588
     16          1           0        0.995903   -3.260737    1.166635
     17          6           0        1.254895   -2.204209   -0.733041
     18          1           0        2.294228   -2.456443   -1.033383
     19          1           0        0.600920   -2.998209   -1.158914
     20          6           0       -2.745773   -0.112459   -0.268537
     21          1           0       -3.490590    0.200647   -1.030718
     22          1           0       -3.228981   -0.914664    0.334803
     23          6           0       -2.396809    1.062994    0.658063
     24          1           0       -2.377702    1.996970    0.059605
     25          1           0       -3.169404    1.190271    1.442198
 ---------------------------------------------------------------------
                    Distance matrix (angstroms):
                    1          2          3          4          5
     1  Si   0.000000
     2  O    1.808510   0.000000
     3  O    1.794350   3.598132   0.000000
     4  O    1.813108   2.522469   2.473454   0.000000
     5  O    1.800086   2.536600   2.619751   2.569588   0.000000
     6  O    1.834442   2.637152   2.622293   3.645872   2.479802
     7  O    1.789585   2.486248   2.541289   2.684364   3.581337
     8  C    2.701796   3.281954   3.363392   4.360267   2.340760
     9  H    3.592543   3.754022   4.413684   5.276969   3.276108
    10  H    3.314106   4.257530   3.395395   4.884701   2.813788
    11  C    2.639633   2.910602   3.567748   3.820776   1.371574
    12  H    3.054101   2.612714   4.364845   4.119461   2.054716
    13  H    3.613768   3.968976   4.228911   4.615077   2.052370
    14  C    2.616783   2.349992   3.803631   3.577392   4.213300
    15  H    3.030425   2.816405   4.135926   4.372796   4.426475
    16  H    3.592830   3.280226   4.591710   4.250513   5.257509
    17  C    2.669703   1.367850   4.312805   3.288987   3.836968
    18  H    3.563190   2.058357   5.248974   4.326504   4.483754
    19  H    3.277467   2.055844   4.803165   3.302061   4.464940
    20  C    2.686103   3.836807   2.338533   1.367138   3.288799
    21  H    3.582308   4.529934   3.276448   2.058245   3.758950
    22  H    3.287383   4.381426   2.809638   2.059849   4.259707
    23  C    2.634292   4.268349   1.371398   2.340559   2.994768
    24  H    3.060851   4.573615   2.058504   2.806571   2.723459
    25  H    3.605425   5.282248   2.052113   3.275138   4.064600
                    6          7          8          9         10
     6  O    0.000000
     7  O    2.495483   0.000000
     8  C    1.365665   3.805586   0.000000
     9  H    2.058951   4.461751   1.110150   0.000000
    10  H    2.056581   4.412822   1.113949   1.780443   0.000000
    11  C    2.344246   4.213555   1.537266   2.186514   2.169494
    12  H    2.814196   4.460025   2.167989   2.377828   3.045737
    13  H    3.275425   5.249250   2.190090   2.678596   2.374482
    14  C    2.840263   1.373176   4.079031   4.424754   4.896780
    15  H    2.519974   2.056083   3.677086   3.803559   4.482308
    16  H    3.894614   2.052961   5.161570   5.463409   5.943178
    17  C    3.241515   2.339286   4.155178   4.445382   5.148654
    18  H    3.711448   3.278735   4.441679   4.458910   5.509607
    19  H    4.218916   2.804178   5.157256   5.520383   6.116988
    20  C    4.384975   3.371612   5.076510   6.104238   5.340915
    21  H    5.290099   4.434772   5.810289   6.844216   6.039309
    22  H    4.924552   3.387043   5.811573   6.809031   6.079762
    23  C    3.855964   3.520764   4.397807   5.494292   4.365962
    24  H    4.133885   4.332922   4.331122   5.435271   4.189226
    25  H    4.665227   4.159048   5.250743   6.340973   5.068370
                   11         12         13         14         15
    11  C    0.000000
    12  H    1.107942   0.000000
    13  H    1.108512   1.786116   0.000000
    14  C    4.535976   4.475495   5.636103   0.000000
    15  H    4.437673   4.372120   5.501056   1.106773   0.000000
    16  H    5.639641   5.545663   6.740904   1.108263   1.786825
    17  C    4.127632   3.760716   5.217027   1.537964   2.169614
    18  H    4.467904   3.880537   5.517452   2.189509   2.385495
    19  H    4.965007   4.587889   6.023247   2.168392   3.047074
    20  C    4.631825   5.155673   5.259365   4.530276   5.304784
    21  H    5.129539   5.623708   5.604186   5.519205   6.315866
    22  H    5.553952   6.043422   6.257811   4.563507   5.426284
    23  C    4.203627   5.003971   4.684879   4.813648   5.324344
    24  H    3.888753   4.761894   4.127612   5.529310   5.957821
    25  H    5.211334   6.062828   5.629747   5.517842   6.020012
                   16         17         18         19         20
    16  H    0.000000
    17  C    2.189086   0.000000
    18  H    2.678174   1.110873   0.000000
    19  H    2.373417   1.113322   1.782290   0.000000
    20  C    5.096225   4.538339   5.610780   4.507846   0.000000
    21  H    6.077678   5.328375   6.365867   5.195149   1.110725
    22  H    4.903637   4.786268   5.895325   4.608741   1.114021
    23  C    5.519402   5.093597   6.103545   5.364807   1.536897
    24  H    6.344305   5.610165   6.546330   5.942120   2.166297
    25  H    6.102229   5.985699   7.019851   6.206810   2.191617
                   21         22         23         24         25
    21  H    0.000000
    22  H    1.782416   0.000000
    23  C    2.189059   2.169824   0.000000
    24  H    2.377835   3.045984   1.109426   0.000000
    25  H    2.682878   2.379207   1.108138   1.785810   0.000000
 Symmetry turned off by external request.
 Stoichiometry    C6H12O6Si(2-)
 Framework group  C1[X(C6H12O6Si)]
 Deg. of freedom    69
 Full point group                 C1      NOp   1
 Rotational constants (GHZ):           0.9787677           0.8490124           0.6263446
 Standard basis: def2TZVPP (5D, 7F)
   582 basis functions,   885 primitive gaussians,   660 cartesian basis functions
    56 alpha electrons       56 beta electrons
       nuclear repulsion energy      1125.7560278307 Hartrees.
 NAtoms=   25 NActive=   25 NUniq=   25 SFac= 1.00D+00 NAtFMM=   60 NAOKFM=F Big=F
 Integral buffers will be    131072 words long.
 Raffenetti 2 integral format.
 Two-electron integral symmetry is turned off.
 Nuclear repulsion after empirical dispersion term =     1125.7403879023 Hartrees.
 One-electron integrals computed using PRISM.
   1 Symmetry operations used in ECPInt.
 ECPInt:  NShTT=   23871 NPrTT=   66401 LenC2=   22561 LenP2D=   48030.
 LDataN:  DoStor=T MaxTD1= 6 Len=  172
 NBasis=   582 RedAO= T EigKep=  2.44D-04  NBF=   582
 NBsUse=   582 1.00D-06 EigRej= -1.00D+00 NBFU=   582
 Initial guess from the checkpoint file:  "PL3HL3_IRC_forward.chk"
 B after Tr=    -0.000068   -0.000049    0.000032
         Rot=    1.000000   -0.000022   -0.000007   -0.000020 Ang=  -0.00 deg.
 ExpMin= 7.01D-02 ExpMax= 4.48D+04 ExpMxC= 1.53D+03 IAcc=3 IRadAn=         5 AccDes= 0.00D+00
 Harris functional with IExCor= 4639 and IRadAn=       5 diagonalized for initial guess.
 HarFok:  IExCor= 4639 AccDes= 0.00D+00 IRadAn=         5 IDoV= 1 UseB2=F ITyADJ=14
 ICtDFT=  3500011 ScaDFX=  1.000000  1.000000  1.000000  1.000000
 FoFCou: FMM=F IPFlag=           0 FMFlag=      100000 FMFlg1=           0
         NFxFlg=           0 DoJE=T BraDBF=F KetDBF=T FulRan=T
         wScrn=  0.000000 ICntrl=       500 IOpCl=  0 I1Cent=   200000004 NGrid=           0
         NMat0=    1 NMatS0=      1 NMatT0=    0 NMatD0=    1 NMtDS0=    0 NMtDT0=    0
 Symmetry not used in FoFCou.
 Requested convergence on RMS density matrix=1.00D-08 within 128 cycles.
 Requested convergence on MAX density matrix=1.00D-06.
 Requested convergence on             energy=1.00D-06.
 No special actions if energy rises.
 Integral accuracy reduced to 1.0D-05 until final iterations.
 Initial convergence to 1.0D-05 achieved.  Increase integral accuracy.
 SCF Done:  E(RwB97XD) =  -976.871291180     A.U. after   10 cycles
            NFock= 10  Conv=0.86D-08     -V/T= 2.0037
 DoSCS=F DFT=T ScalE2(SS,OS)=  1.000000  1.000000
 Range of M.O.s used for correlation:     1   582
 NBasis=   582 NAE=    56 NBE=    56 NFC=     0 NFV=     0
 NROrb=    582 NOA=    56 NOB=    56 NVA=   526 NVB=   526

 **** Warning!!: The largest alpha MO coefficient is  0.12155327D+02

 Symmetrizing basis deriv contribution to polar:
 IMax=3 JMax=2 DiffMx= 0.00D+00
   1 Symmetry operations used in ECPInt.
 ECPInt:  NShTT=   23871 NPrTT=   66401 LenC2=   22561 LenP2D=   48030.
 LDataN:  DoStor=T MaxTD1= 7 Len=  274
 Calling FoFJK, ICntrl=      2127 FMM=F ISym2X=0 I1Cent= 0 IOpClX= 0 NMat=1 NMatS=1 NMatT=0.
 -------------------------------------------------------------------
 Center     Atomic                   Forces (Hartrees/Bohr)
 Number     Number              X              Y              Z
 -------------------------------------------------------------------
      1       14           0.000866708    0.000221864   -0.000252756
      2        8           0.001967067    0.000283598    0.000464845
      3        8           0.001247424    0.001675967   -0.000082888
      4        8           0.001156237    0.000157391    0.000627865
      5        8          -0.000033776   -0.000458634   -0.002094235
      6        8          -0.002312629   -0.000025763    0.000263840
      7        8          -0.000719219   -0.000784196   -0.000448665
      8        6          -0.002071985    0.000426372    0.000197107
      9        1           0.000703241   -0.000086623    0.000119255
     10        1          -0.000173752    0.000208433    0.000054394
     11        6          -0.000428458    0.000831643   -0.000119647
     12        1           0.000020183    0.000177898    0.000057894
     13        1          -0.000079185   -0.000066410    0.000084883
     14        6          -0.001064671   -0.001294616   -0.000314688
     15        1          -0.000104033   -0.000193392    0.000003271
     16        1          -0.000147601   -0.000063151   -0.000084725
     17        6          -0.000318969   -0.000534313   -0.000235373
     18        1          -0.000041647   -0.000127900    0.000004498
     19        1          -0.000085869    0.000039635   -0.000066704
     20        6           0.000943986   -0.000453899    0.001123491
     21        1           0.000006050   -0.000115185    0.000104507
     22        1           0.000152633   -0.000039631    0.000136510
     23        6           0.000511217    0.000217760    0.000415864
     24        1          -0.000038396    0.000006006   -0.000004125
     25        1           0.000045445   -0.000002856    0.000045583
 -------------------------------------------------------------------
 Cartesian Forces:  Max     0.002312629 RMS     0.000682496
 IRC-IRC-IRC-IRC-IRC-IRC-IRC-IRC-IRC-IRC-IRC-IRC-IRC-IRC-IRC-IRC-IRC-IRC
 Error in corrector energy =          -0.0000049264
 Magnitude of corrector gradient =     0.0055871940
 Magnitude of analytic gradient =      0.0059105863
 Magnitude of difference =             0.0013329611
 Angle between gradients (degrees)=   12.9204
 Pt 23 Step number 100 out of a maximum of 100
 Modified Bulirsch-Stoer Extrapolation Cycles:
    EPS =    0.000010000000000
      PEZero:  N= 2 I= 1 D=  1.62D-03 Err=  2.98D-04
      PEZero:  N= 3 I= 2 D=  1.62D-03 Err=  1.99D-04
      PEZero:  N= 3 I= 1 D=  3.24D-03 Err=  5.21D-07
 Maximum DWI energy   std dev =  0.000001043 at pt    34
 Maximum DWI gradient std dev =  0.116020756 at pt    59
 CORRECTOR INTEGRATION CONVERGENCE:
   Recorrection delta-x convergence threshold:    0.010000
   Delta-x Convergence NOT Met
 Maximum number of corrector steps exceded.
 Error termination via Lnk1e in /opt/software/gaussian/g16.c01/l123.exe at Tue Feb  6 21:28:05 2024.
 Job cpu time:       8 days  7 hours 55 minutes 56.8 seconds.
 Elapsed time:       2 days  2 hours 17 minutes 54.1 seconds.
 File lengths (MBytes):  RWF=    643 Int=      0 D2E=      0 Chk=     26 Scr=      1
