 Entering Gaussian System, Link 0=/opt/software/gaussian/g16.c01/g16
 Initial command:
 /opt/software/gaussian/g16.c01/l1.exe "/scratch/arhender/17064730/Gau-15215.inp" -scrdir="/scratch/arhender/17064730/"
 Entering Link 1 = /opt/software/gaussian/g16.c01/l1.exe PID=     15216.
  
 Copyright (c) 1988-2019, Gaussian, Inc.  All Rights Reserved.
  
 This is part of the Gaussian(R) 16 program.  It is based on
 the Gaussian(R) 09 system (copyright 2009, Gaussian, Inc.),
 the Gaussian(R) 03 system (copyright 2003, Gaussian, Inc.),
 the Gaussian(R) 98 system (copyright 1998, Gaussian, Inc.),
 the Gaussian(R) 94 system (copyright 1995, Gaussian, Inc.),
 the Gaussian 92(TM) system (copyright 1992, Gaussian, Inc.),
 the Gaussian 90(TM) system (copyright 1990, Gaussian, Inc.),
 the Gaussian 88(TM) system (copyright 1988, Gaussian, Inc.),
 the Gaussian 86(TM) system (copyright 1986, Carnegie Mellon
 University), and the Gaussian 82(TM) system (copyright 1983,
 Carnegie Mellon University). Gaussian is a federally registered
 trademark of Gaussian, Inc.
  
 This software contains proprietary and confidential information,
 including trade secrets, belonging to Gaussian, Inc.
  
 This software is provided under written license and may be
 used, copied, transmitted, or stored only in accord with that
 written license.
  
 The following legend is applicable only to US Government
 contracts under FAR:
  
                    RESTRICTED RIGHTS LEGEND
  
 Use, reproduction and disclosure by the US Government is
 subject to restrictions as set forth in subparagraphs (a)
 and (c) of the Commercial Computer Software - Restricted
 Rights clause in FAR 52.227-19.
  
 Gaussian, Inc.
 340 Quinnipiac St., Bldg. 40, Wallingford CT 06492
  
  
 ---------------------------------------------------------------
 Warning -- This program may not be used in any manner that
 competes with the business of Gaussian, Inc. or will provide
 assistance to any competitor of Gaussian, Inc.  The licensee
 of this program is prohibited from giving any competitor of
 Gaussian, Inc. access to this program.  By using this program,
 the user acknowledges that Gaussian, Inc. is engaged in the
 business of creating and licensing software in the field of
 computational chemistry and represents and warrants to the
 licensee that it is not a competitor of Gaussian, Inc. and that
 it will not use this program in any manner prohibited above.
 ---------------------------------------------------------------
  

 Cite this work as:
 Gaussian 16, Revision C.01,
 M. J. Frisch, G. W. Trucks, H. B. Schlegel, G. E. Scuseria, 
 M. A. Robb, J. R. Cheeseman, G. Scalmani, V. Barone, 
 G. A. Petersson, H. Nakatsuji, X. Li, M. Caricato, A. V. Marenich, 
 J. Bloino, B. G. Janesko, R. Gomperts, B. Mennucci, H. P. Hratchian, 
 J. V. Ortiz, A. F. Izmaylov, J. L. Sonnenberg, D. Williams-Young, 
 F. Ding, F. Lipparini, F. Egidi, J. Goings, B. Peng, A. Petrone, 
 T. Henderson, D. Ranasinghe, V. G. Zakrzewski, J. Gao, N. Rega, 
 G. Zheng, W. Liang, M. Hada, M. Ehara, K. Toyota, R. Fukuda, 
 J. Hasegawa, M. Ishida, T. Nakajima, Y. Honda, O. Kitao, H. Nakai, 
 T. Vreven, K. Throssell, J. A. Montgomery, Jr., J. E. Peralta, 
 F. Ogliaro, M. J. Bearpark, J. J. Heyd, E. N. Brothers, K. N. Kudin, 
 V. N. Staroverov, T. A. Keith, R. Kobayashi, J. Normand, 
 K. Raghavachari, A. P. Rendell, J. C. Burant, S. S. Iyengar, 
 J. Tomasi, M. Cossi, J. M. Millam, M. Klene, C. Adamo, R. Cammi, 
 J. W. Ochterski, R. L. Martin, K. Morokuma, O. Farkas, 
 J. B. Foresman, and D. J. Fox, Gaussian, Inc., Wallingford CT, 2019.
 
 ******************************************
 Gaussian 16:  ES64L-G16RevC.01  3-Jul-2019
                18-Feb-2024 
 ******************************************
 %chk=IRC_PbiL_collapseTo_QbiL_Reverse_EndpointOpt.chk
 %mem=1600MB
 %nprocs=4
 Will use up to    4 processors via shared memory.
 ---------------------------------------------
 # opt freq wb97xd/def2tzvpp geom=connectivity
 ---------------------------------------------
 1/18=20,19=15,26=3,38=1,57=2/1,3;
 2/9=110,12=2,17=6,18=5,40=1/2;
 3/5=44,7=202,11=2,25=1,30=1,71=1,74=-58/1,2,3;
 4//1;
 5/5=2,38=5/2;
 6/7=2,8=2,9=2,10=2,28=1/1;
 7//1,2,3,16;
 1/18=20,19=15,26=3/3(2);
 2/9=110/2;
 99//99;
 2/9=110/2;
 3/5=44,7=202,11=2,25=1,30=1,71=1,74=-58/1,2,3;
 4/5=5,16=3,69=1/1;
 5/5=2,38=5/2;
 7//1,2,3,16;
 1/18=20,19=15,26=3/3(-5);
 2/9=110/2;
 6/7=2,8=2,9=2,10=2,19=2,28=1/1;
 99/9=1/99;
 -----------------------------
 IRC for PbiL collapse to QbiL
 -----------------------------
 Symbolic Z-matrix:
 Charge = -1 Multiplicity = 1
 Si                    0.51426  -0.08952   0.00535 
 O                     0.92869  -0.99107  -1.37345 
 H                     0.2039   -1.59404  -1.52708 
 O                     1.97294   0.86209  -0.13844 
 H                     2.34759   0.71688  -1.00557 
 O                    -0.46744   1.29874  -0.1803 
 O                     0.97701  -0.60364   1.54398 
 H                     1.84299  -0.22134   1.68931 
 O                    -1.00939  -1.0624    0.13043 
 C                    -2.11458  -0.27519   0.37467 
 H                    -3.03315  -0.73653  -0.01837 
 H                    -2.26691  -0.11163   1.45734 
 C                    -1.83308   1.06432  -0.30818 
 H                    -2.11261   1.00619  -1.37303 
 H                    -2.40502   1.88641   0.14182 
 

 GradGradGradGradGradGradGradGradGradGradGradGradGradGradGradGradGradGrad
 Berny optimization.
 Initialization pass.
                           ----------------------------
                           !    Initial Parameters    !
                           ! (Angstroms and Degrees)  !
 --------------------------                            --------------------------
 ! Name  Definition              Value          Derivative Info.                !
 --------------------------------------------------------------------------------
 ! R1    R(1,2)                  1.6987         estimate D2E/DX2                !
 ! R2    R(1,4)                  1.7476         estimate D2E/DX2                !
 ! R3    R(1,6)                  1.7104         estimate D2E/DX2                !
 ! R4    R(1,7)                  1.687          estimate D2E/DX2                !
 ! R5    R(1,9)                  1.8121         estimate D2E/DX2                !
 ! R6    R(2,3)                  0.9552         estimate D2E/DX2                !
 ! R7    R(4,5)                  0.9557         estimate D2E/DX2                !
 ! R8    R(6,13)                 1.3915         estimate D2E/DX2                !
 ! R9    R(7,8)                  0.9577         estimate D2E/DX2                !
 ! R10   R(9,10)                 1.3787         estimate D2E/DX2                !
 ! R11   R(10,11)                1.1005         estimate D2E/DX2                !
 ! R12   R(10,12)                1.1055         estimate D2E/DX2                !
 ! R13   R(10,13)                1.5296         estimate D2E/DX2                !
 ! R14   R(13,14)                1.1025         estimate D2E/DX2                !
 ! R15   R(13,15)                1.0979         estimate D2E/DX2                !
 ! A1    A(2,1,4)               91.0645         estimate D2E/DX2                !
 ! A2    A(2,1,6)              118.8614         estimate D2E/DX2                !
 ! A3    A(2,1,7)              120.773          estimate D2E/DX2                !
 ! A4    A(2,1,9)               88.6377         estimate D2E/DX2                !
 ! A5    A(4,1,6)               91.6143         estimate D2E/DX2                !
 ! A6    A(4,1,7)               90.6893         estimate D2E/DX2                !
 ! A7    A(6,1,7)              120.2519         estimate D2E/DX2                !
 ! A8    A(6,1,9)               87.7455         estimate D2E/DX2                !
 ! A9    A(7,1,9)               90.233          estimate D2E/DX2                !
 ! A10   A(1,2,3)              106.286          estimate D2E/DX2                !
 ! A11   A(1,4,5)              108.6099         estimate D2E/DX2                !
 ! A12   A(1,6,13)             115.8824         estimate D2E/DX2                !
 ! A13   A(1,7,8)              105.3547         estimate D2E/DX2                !
 ! A14   A(1,9,10)             112.3152         estimate D2E/DX2                !
 ! A15   A(9,10,11)            111.4983         estimate D2E/DX2                !
 ! A16   A(9,10,12)            111.6188         estimate D2E/DX2                !
 ! A17   A(9,10,13)            105.8668         estimate D2E/DX2                !
 ! A18   A(11,10,12)           107.2644         estimate D2E/DX2                !
 ! A19   A(11,10,13)           111.1788         estimate D2E/DX2                !
 ! A20   A(12,10,13)           109.4502         estimate D2E/DX2                !
 ! A21   A(6,13,10)            106.6853         estimate D2E/DX2                !
 ! A22   A(6,13,14)            110.2728         estimate D2E/DX2                !
 ! A23   A(6,13,15)            110.3301         estimate D2E/DX2                !
 ! A24   A(10,13,14)           109.7765         estimate D2E/DX2                !
 ! A25   A(10,13,15)           112.1393         estimate D2E/DX2                !
 ! A26   A(14,13,15)           107.6543         estimate D2E/DX2                !
 ! A27   L(4,1,9,2,-1)         179.7022         estimate D2E/DX2                !
 ! A28   L(4,1,9,2,-2)         180.8963         estimate D2E/DX2                !
 ! D1    D(4,1,2,3)           -177.2456         estimate D2E/DX2                !
 ! D2    D(6,1,2,3)            -84.8148         estimate D2E/DX2                !
 ! D3    D(7,1,2,3)             91.3179         estimate D2E/DX2                !
 ! D4    D(9,1,2,3)              1.858          estimate D2E/DX2                !
 ! D5    D(2,1,4,5)             14.1852         estimate D2E/DX2                !
 ! D6    D(6,1,4,5)           -104.7285         estimate D2E/DX2                !
 ! D7    D(7,1,4,5)            134.9815         estimate D2E/DX2                !
 ! D8    D(2,1,6,13)            80.1141         estimate D2E/DX2                !
 ! D9    D(4,1,6,13)           172.2205         estimate D2E/DX2                !
 ! D10   D(7,1,6,13)           -96.0392         estimate D2E/DX2                !
 ! D11   D(9,1,6,13)            -7.0849         estimate D2E/DX2                !
 ! D12   D(2,1,7,8)             88.5441         estimate D2E/DX2                !
 ! D13   D(4,1,7,8)             -3.1055         estimate D2E/DX2                !
 ! D14   D(6,1,7,8)            -95.3769         estimate D2E/DX2                !
 ! D15   D(9,1,7,8)            177.0973         estimate D2E/DX2                !
 ! D16   D(2,1,9,10)          -134.7772         estimate D2E/DX2                !
 ! D17   D(6,1,9,10)           -15.8211         estimate D2E/DX2                !
 ! D18   D(7,1,9,10)           104.4463         estimate D2E/DX2                !
 ! D19   D(1,6,13,10)           25.3341         estimate D2E/DX2                !
 ! D20   D(1,6,13,14)          -93.8268         estimate D2E/DX2                !
 ! D21   D(1,6,13,15)          147.381          estimate D2E/DX2                !
 ! D22   D(1,9,10,11)          152.4427         estimate D2E/DX2                !
 ! D23   D(1,9,10,12)          -87.6099         estimate D2E/DX2                !
 ! D24   D(1,9,10,13)           31.4034         estimate D2E/DX2                !
 ! D25   D(9,10,13,6)          -35.2184         estimate D2E/DX2                !
 ! D26   D(9,10,13,14)          84.2645         estimate D2E/DX2                !
 ! D27   D(9,10,13,15)        -156.117          estimate D2E/DX2                !
 ! D28   D(11,10,13,6)        -156.4642         estimate D2E/DX2                !
 ! D29   D(11,10,13,14)        -36.9813         estimate D2E/DX2                !
 ! D30   D(11,10,13,15)         82.6372         estimate D2E/DX2                !
 ! D31   D(12,10,13,6)          85.2177         estimate D2E/DX2                !
 ! D32   D(12,10,13,14)       -155.2994         estimate D2E/DX2                !
 ! D33   D(12,10,13,15)        -35.6808         estimate D2E/DX2                !
 --------------------------------------------------------------------------------
 Trust Radius=3.00D-01 FncErr=1.00D-07 GrdErr=1.00D-06 EigMax=2.50D+02 EigMin=1.00D-04
 Number of steps in this run=     86 maximum allowed number of steps=    100.
 GradGradGradGradGradGradGradGradGradGradGradGradGradGradGradGradGradGrad

                          Input orientation:                          
 ---------------------------------------------------------------------
 Center     Atomic      Atomic             Coordinates (Angstroms)
 Number     Number       Type             X           Y           Z
 ---------------------------------------------------------------------
      1         14           0        0.514259   -0.089520    0.005348
      2          8           0        0.928691   -0.991069   -1.373453
      3          1           0        0.203903   -1.594035   -1.527082
      4          8           0        1.972942    0.862091   -0.138435
      5          1           0        2.347588    0.716879   -1.005568
      6          8           0       -0.467439    1.298742   -0.180304
      7          8           0        0.977007   -0.603638    1.543977
      8          1           0        1.842990   -0.221339    1.689313
      9          8           0       -1.009390   -1.062401    0.130433
     10          6           0       -2.114581   -0.275191    0.374668
     11          1           0       -3.033148   -0.736531   -0.018369
     12          1           0       -2.266912   -0.111625    1.457341
     13          6           0       -1.833078    1.064315   -0.308184
     14          1           0       -2.112612    1.006192   -1.373026
     15          1           0       -2.405017    1.886412    0.141819
 ---------------------------------------------------------------------
                    Distance matrix (angstroms):
                    1          2          3          4          5
     1  Si   0.000000
     2  O    1.698716   0.000000
     3  H    2.169845   0.955242   0.000000
     4  O    1.747568   2.459661   3.330224   0.000000
     5  H    2.243507   2.250710   3.194947   0.955702   0.000000
     6  O    1.710400   2.935305   3.260777   2.479491   2.990652
     7  O    1.686959   2.943439   3.318129   2.443513   3.181578
     8  H    2.149102   3.287699   3.862136   2.128702   2.897802
     9  O    1.812084   2.454164   2.121808   3.559531   3.965556
    10  C    2.661141   3.581887   3.275877   4.273702   4.774956
    11  H    3.606006   4.194903   3.672877   5.256515   5.660325
    12  H    3.137465   4.358749   4.148403   4.633680   5.295843
    13  C    2.634317   3.603716   3.563962   3.815167   4.252649
    14  H    3.162428   3.638485   3.485851   4.270449   4.484653
    15  H    3.527762   4.657205   4.658885   4.504920   5.027083
                    6          7          8          9         10
     6  O    0.000000
     7  O    2.945950   0.000000
     8  H    3.338292   0.957706   0.000000
     9  O    2.442389   2.480795   3.357613   0.000000
    10  C    2.344853   3.321608   4.170559   1.378694   0.000000
    11  H    3.278936   4.305802   5.192140   2.055220   1.100490
    12  H    2.812316   3.282163   4.117905   2.060588   1.105504
    13  C    1.391502   3.756214   4.376800   2.322449   1.529643
    14  H    2.052989   4.543809   5.150878   2.785061   2.167113
    15  H    2.050202   4.427695   4.988278   3.262423   2.193422
                   11         12         13         14         15
    11  H    0.000000
    12  H    1.776329   0.000000
    13  C    2.183393   2.165208   0.000000
    14  H    2.391561   3.047015   1.102455   0.000000
    15  H    2.701858   2.396210   1.097935   1.776244   0.000000
 Stoichiometry    C2H7O5Si(1-)
 Framework group  C1[X(C2H7O5Si)]
 Deg. of freedom    39
 Full point group                 C1      NOp   1
 Largest Abelian subgroup         C1      NOp   1
 Largest concise Abelian subgroup C1      NOp   1
                         Standard orientation:                         
 ---------------------------------------------------------------------
 Center     Atomic      Atomic             Coordinates (Angstroms)
 Number     Number       Type             X           Y           Z
 ---------------------------------------------------------------------
      1         14           0       -0.556673   -0.056276   -0.003163
      2          8           0       -1.070652   -0.421148    1.574281
      3          1           0       -0.399113   -0.986646    1.950760
      4          8           0       -1.938646    0.985080   -0.247542
      5          1           0       -2.342295    1.160307    0.600827
      6          8           0        0.527061    1.245988   -0.237897
      7          8           0       -1.024978   -1.017948   -1.307659
      8          1           0       -1.854800   -0.647944   -1.610469
      9          8           0        0.887968   -1.115836    0.268856
     10          6           0        2.056769   -0.529825   -0.168515
     11          1           0        2.927399   -0.895855    0.396378
     12          1           0        2.244970   -0.744113   -1.236598
     13          6           0        1.866895    0.975838    0.023146
     14          1           0        2.117807    1.254469    1.059878
     15          1           0        2.511439    1.562475   -0.644596
 ---------------------------------------------------------------------
 Rotational constants (GHZ):           2.7591131           1.5428811           1.4444283
 Standard basis: def2TZVPP (5D, 7F)
 There are   405 symmetry adapted cartesian basis functions of A   symmetry.
 There are   357 symmetry adapted basis functions of A   symmetry.
   357 basis functions,   545 primitive gaussians,   405 cartesian basis functions
    37 alpha electrons       37 beta electrons
       nuclear repulsion energy       544.3558173783 Hartrees.
 NAtoms=   15 NActive=   15 NUniq=   15 SFac= 1.00D+00 NAtFMM=   60 NAOKFM=F Big=F
 Integral buffers will be    131072 words long.
 Raffenetti 2 integral format.
 Two-electron integral symmetry is turned on.
 Nuclear repulsion after empirical dispersion term =      544.3494438670 Hartrees.
 One-electron integrals computed using PRISM.
   1 Symmetry operations used in ECPInt.
 ECPInt:  NShTT=    8911 NPrTT=   25186 LenC2=    8689 LenP2D=   19651.
 LDataN:  DoStor=T MaxTD1= 6 Len=  172
 NBasis=   357 RedAO= T EigKep=  3.37D-04  NBF=   357
 NBsUse=   357 1.00D-06 EigRej= -1.00D+00 NBFU=   357
 ExpMin= 7.01D-02 ExpMax= 4.48D+04 ExpMxC= 1.53D+03 IAcc=3 IRadAn=         5 AccDes= 0.00D+00
 Harris functional with IExCor= 4639 and IRadAn=       5 diagonalized for initial guess.
 HarFok:  IExCor= 4639 AccDes= 0.00D+00 IRadAn=         5 IDoV= 1 UseB2=F ITyADJ=14
 ICtDFT=  3500011 ScaDFX=  1.000000  1.000000  1.000000  1.000000
 FoFCou: FMM=F IPFlag=           0 FMFlag=      100000 FMFlg1=           0
         NFxFlg=           0 DoJE=T BraDBF=F KetDBF=T FulRan=T
         wScrn=  0.000000 ICntrl=       500 IOpCl=  0 I1Cent=   200000004 NGrid=           0
         NMat0=    1 NMatS0=      1 NMatT0=    0 NMatD0=    1 NMtDS0=    0 NMtDT0=    0
 Petite list used in FoFCou.
 Requested convergence on RMS density matrix=1.00D-08 within 128 cycles.
 Requested convergence on MAX density matrix=1.00D-06.
 Requested convergence on             energy=1.00D-06.
 No special actions if energy rises.
 Integral accuracy reduced to 1.0D-05 until final iterations.
 Initial convergence to 1.0D-05 achieved.  Increase integral accuracy.
 SCF Done:  E(RwB97XD) =  -746.356944493     A.U. after   14 cycles
            NFock= 14  Conv=0.34D-08     -V/T= 2.0033

 **********************************************************************

            Population analysis using the SCF Density.

 **********************************************************************

 Orbital symmetries:
       Occupied  (A) (A) (A) (A) (A) (A) (A) (A) (A) (A) (A) (A)
                 (A) (A) (A) (A) (A) (A) (A) (A) (A) (A) (A) (A)
                 (A) (A) (A) (A) (A) (A) (A) (A) (A) (A) (A) (A)
                 (A)
       Virtual   (A) (A) (A) (A) (A) (A) (A) (A) (A) (A) (A) (A)
                 (A) (A) (A) (A) (A) (A) (A) (A) (A) (A) (A) (A)
                 (A) (A) (A) (A) (A) (A) (A) (A) (A) (A) (A) (A)
                 (A) (A) (A) (A) (A) (A) (A) (A) (A) (A) (A) (A)
                 (A) (A) (A) (A) (A) (A) (A) (A) (A) (A) (A) (A)
                 (A) (A) (A) (A) (A) (A) (A) (A) (A) (A) (A) (A)
                 (A) (A) (A) (A) (A) (A) (A) (A) (A) (A) (A) (A)
                 (A) (A) (A) (A) (A) (A) (A) (A) (A) (A) (A) (A)
                 (A) (A) (A) (A) (A) (A) (A) (A) (A) (A) (A) (A)
                 (A) (A) (A) (A) (A) (A) (A) (A) (A) (A) (A) (A)
                 (A) (A) (A) (A) (A) (A) (A) (A) (A) (A) (A) (A)
                 (A) (A) (A) (A) (A) (A) (A) (A) (A) (A) (A) (A)
                 (A) (A) (A) (A) (A) (A) (A) (A) (A) (A) (A) (A)
                 (A) (A) (A) (A) (A) (A) (A) (A) (A) (A) (A) (A)
                 (A) (A) (A) (A) (A) (A) (A) (A) (A) (A) (A) (A)
                 (A) (A) (A) (A) (A) (A) (A) (A) (A) (A) (A) (A)
                 (A) (A) (A) (A) (A) (A) (A) (A) (A) (A) (A) (A)
                 (A) (A) (A) (A) (A) (A) (A) (A) (A) (A) (A) (A)
                 (A) (A) (A) (A) (A) (A) (A) (A) (A) (A) (A) (A)
                 (A) (A) (A) (A) (A) (A) (A) (A) (A) (A) (A) (A)
                 (A) (A) (A) (A) (A) (A) (A) (A) (A) (A) (A) (A)
                 (A) (A) (A) (A) (A) (A) (A) (A) (A) (A) (A) (A)
                 (A) (A) (A) (A) (A) (A) (A) (A) (A) (A) (A) (A)
                 (A) (A) (A) (A) (A) (A) (A) (A) (A) (A) (A) (A)
                 (A) (A) (A) (A) (A) (A) (A) (A) (A) (A) (A) (A)
                 (A) (A) (A) (A) (A) (A) (A) (A) (A) (A) (A) (A)
                 (A) (A) (A) (A) (A) (A) (A) (A)
 The electronic state is 1-A.
 Alpha  occ. eigenvalues --  -66.11278 -19.05367 -19.04863 -19.04224 -19.03208
 Alpha  occ. eigenvalues --  -19.02402 -10.16651 -10.16190  -5.22351  -3.56962
 Alpha  occ. eigenvalues --   -3.56887  -3.56792  -0.95854  -0.91375  -0.89711
 Alpha  occ. eigenvalues --   -0.89059  -0.86263  -0.65183  -0.53173  -0.45485
 Alpha  occ. eigenvalues --   -0.42105  -0.40250  -0.40112  -0.38652  -0.35638
 Alpha  occ. eigenvalues --   -0.33833  -0.32284  -0.26455  -0.26300  -0.24453
 Alpha  occ. eigenvalues --   -0.23499  -0.21872  -0.21465  -0.19880  -0.18917
 Alpha  occ. eigenvalues --   -0.18267  -0.15774
 Alpha virt. eigenvalues --    0.25778   0.27284   0.28862   0.30376   0.31530
 Alpha virt. eigenvalues --    0.32379   0.33668   0.35109   0.38267   0.39045
 Alpha virt. eigenvalues --    0.40230   0.41847   0.43405   0.45357   0.45800
 Alpha virt. eigenvalues --    0.49896   0.51612   0.52243   0.52889   0.53802
 Alpha virt. eigenvalues --    0.56569   0.58053   0.59322   0.60568   0.61182
 Alpha virt. eigenvalues --    0.62278   0.62771   0.63977   0.65855   0.66337
 Alpha virt. eigenvalues --    0.67743   0.68794   0.69764   0.71112   0.72011
 Alpha virt. eigenvalues --    0.72938   0.75201   0.75930   0.76750   0.78797
 Alpha virt. eigenvalues --    0.79275   0.80599   0.82581   0.83720   0.85968
 Alpha virt. eigenvalues --    0.86204   0.90716   0.90839   0.92828   0.95845
 Alpha virt. eigenvalues --    0.97152   0.98025   0.99277   1.00840   1.01907
 Alpha virt. eigenvalues --    1.02980   1.03673   1.04983   1.06389   1.07636
 Alpha virt. eigenvalues --    1.08154   1.11976   1.14169   1.16436   1.18506
 Alpha virt. eigenvalues --    1.19427   1.22284   1.24019   1.25656   1.26538
 Alpha virt. eigenvalues --    1.29049   1.31323   1.31658   1.33216   1.33966
 Alpha virt. eigenvalues --    1.35586   1.38438   1.39656   1.40750   1.43176
 Alpha virt. eigenvalues --    1.44962   1.45975   1.48562   1.49658   1.50666
 Alpha virt. eigenvalues --    1.53117   1.53961   1.54921   1.57667   1.59849
 Alpha virt. eigenvalues --    1.61923   1.64275   1.65395   1.66832   1.70240
 Alpha virt. eigenvalues --    1.73243   1.74107   1.77734   1.79384   1.80462
 Alpha virt. eigenvalues --    1.84216   1.85992   1.96241   1.97188   2.01671
 Alpha virt. eigenvalues --    2.03524   2.05284   2.06600   2.08587   2.09644
 Alpha virt. eigenvalues --    2.11151   2.15243   2.16605   2.19209   2.20322
 Alpha virt. eigenvalues --    2.21228   2.23927   2.25172   2.26038   2.29228
 Alpha virt. eigenvalues --    2.29450   2.31779   2.33740   2.34974   2.38188
 Alpha virt. eigenvalues --    2.41301   2.47211   2.50497   2.51542   2.52215
 Alpha virt. eigenvalues --    2.54737   2.58723   2.62826   2.65295   2.66789
 Alpha virt. eigenvalues --    2.68224   2.75558   2.80742   2.83056   2.85654
 Alpha virt. eigenvalues --    2.86806   2.88614   2.89162   2.98217   2.99515
 Alpha virt. eigenvalues --    3.00866   3.03775   3.04490   3.09237   3.10295
 Alpha virt. eigenvalues --    3.12236   3.14354   3.20051   3.22315   3.22977
 Alpha virt. eigenvalues --    3.24574   3.27223   3.30833   3.31583   3.33167
 Alpha virt. eigenvalues --    3.36754   3.37914   3.39013   3.40619   3.40821
 Alpha virt. eigenvalues --    3.43920   3.48436   3.49529   3.53320   3.55237
 Alpha virt. eigenvalues --    3.56305   3.58347   3.59174   3.61065   3.61720
 Alpha virt. eigenvalues --    3.62731   3.67057   3.67807   3.68745   3.70957
 Alpha virt. eigenvalues --    3.73252   3.77950   3.79004   3.81207   3.84016
 Alpha virt. eigenvalues --    3.86265   3.87038   3.88281   3.91912   3.93355
 Alpha virt. eigenvalues --    3.96590   3.97001   3.99849   4.00398   4.01746
 Alpha virt. eigenvalues --    4.06439   4.08617   4.16516   4.17687   4.18837
 Alpha virt. eigenvalues --    4.19997   4.21201   4.23626   4.27729   4.29161
 Alpha virt. eigenvalues --    4.30844   4.33031   4.35245   4.36968   4.37382
 Alpha virt. eigenvalues --    4.39647   4.42047   4.43313   4.45822   4.49434
 Alpha virt. eigenvalues --    4.50956   4.53170   4.53854   4.57321   4.59637
 Alpha virt. eigenvalues --    4.61955   4.74037   4.77613   4.80092   4.80716
 Alpha virt. eigenvalues --    4.86228   4.90348   4.93084   4.97386   4.98589
 Alpha virt. eigenvalues --    5.02371   5.05147   5.05843   5.11012   5.14939
 Alpha virt. eigenvalues --    5.16537   5.20188   5.25358   5.26215   5.27960
 Alpha virt. eigenvalues --    5.30441   5.34039   5.36696   5.38245   5.45950
 Alpha virt. eigenvalues --    5.46698   5.50088   5.53744   5.54334   5.58477
 Alpha virt. eigenvalues --    5.61367   5.64072   5.65708   5.67580   5.69768
 Alpha virt. eigenvalues --    5.71859   5.73109   5.74714   5.75317   5.78814
 Alpha virt. eigenvalues --    5.82497   5.83874   5.86177   5.87881   5.88365
 Alpha virt. eigenvalues --    5.92161   5.96975   5.99047   6.22376   6.30858
 Alpha virt. eigenvalues --    6.32868   6.36632   6.37236   6.43987   6.52966
 Alpha virt. eigenvalues --    6.69585   6.73012   6.77731   6.78308   6.81575
 Alpha virt. eigenvalues --    6.82623   6.85170   6.87584   6.88070   6.90557
 Alpha virt. eigenvalues --    6.91284   6.92057   6.93428   6.94924   6.96220
 Alpha virt. eigenvalues --    6.97216   6.98374   7.04409   7.07292   7.09589
 Alpha virt. eigenvalues --    7.12100   7.15364   7.23469   7.32729   7.34366
 Alpha virt. eigenvalues --    7.39223   7.42690   7.49049   7.53619   7.56634
 Alpha virt. eigenvalues --    7.59227   7.63968   7.69229   7.72594   7.82588
 Alpha virt. eigenvalues --    7.88908   7.95121  12.56675  23.50878  23.67448
 Alpha virt. eigenvalues --   44.01763  44.05766  44.18066  44.42476  44.52666
          Condensed to atoms (all electrons):
               1          2          3          4          5          6
     1  Si  11.432708   0.390911  -0.035224   0.429804  -0.038704   0.353532
     2  O    0.390911   7.956562   0.312906  -0.069645   0.005050  -0.018006
     3  H   -0.035224   0.312906   0.541439   0.006291  -0.000711  -0.000231
     4  O    0.429804  -0.069645   0.006291   8.019068   0.320833  -0.053831
     5  H   -0.038704   0.005050  -0.000711   0.320833   0.560396   0.001674
     6  O    0.353532  -0.018006  -0.000231  -0.053831   0.001674   8.008866
     7  O    0.421485  -0.019604  -0.000223  -0.077143   0.004927  -0.019038
     8  H   -0.041862  -0.000628  -0.000412   0.010523  -0.000800   0.000404
     9  O    0.337754  -0.070829   0.024186   0.003449  -0.000043  -0.035795
    10  C   -0.040995   0.004333   0.000533  -0.001282  -0.000268  -0.081883
    11  H    0.002976  -0.000018  -0.001363   0.000053  -0.000003   0.004947
    12  H   -0.002351  -0.000777   0.000991   0.000082   0.000013   0.006687
    13  C   -0.053518  -0.001868  -0.001233  -0.002262  -0.000653   0.347185
    14  H   -0.007554   0.001004   0.001781   0.000349   0.000135  -0.059682
    15  H    0.000862  -0.000196  -0.000058  -0.000327  -0.000033  -0.045587
               7          8          9         10         11         12
     1  Si   0.421485  -0.041862   0.337754  -0.040995   0.002976  -0.002351
     2  O   -0.019604  -0.000628  -0.070829   0.004333  -0.000018  -0.000777
     3  H   -0.000223  -0.000412   0.024186   0.000533  -0.001363   0.000991
     4  O   -0.077143   0.010523   0.003449  -0.001282   0.000053   0.000082
     5  H    0.004927  -0.000800  -0.000043  -0.000268  -0.000003   0.000013
     6  O   -0.019038   0.000404  -0.035795  -0.081883   0.004947   0.006687
     7  O    7.858464   0.323184  -0.041724   0.000398  -0.000579   0.003663
     8  H    0.323184   0.548299   0.004259   0.000239   0.000065  -0.000547
     9  O   -0.041724   0.004259   8.169548   0.349029  -0.046089  -0.052735
    10  C    0.000398   0.000239   0.349029   4.709479   0.355144   0.393307
    11  H   -0.000579   0.000065  -0.046089   0.355144   0.794425  -0.085577
    12  H    0.003663  -0.000547  -0.052735   0.393307  -0.085577   0.797646
    13  C   -0.004265  -0.000044  -0.103814   0.308943  -0.015635  -0.073700
    14  H   -0.000190  -0.000059   0.012505  -0.060343  -0.018739   0.018710
    15  H    0.000229   0.000049   0.008120  -0.018366   0.008440  -0.010308
              13         14         15
     1  Si  -0.053518  -0.007554   0.000862
     2  O   -0.001868   0.001004  -0.000196
     3  H   -0.001233   0.001781  -0.000058
     4  O   -0.002262   0.000349  -0.000327
     5  H   -0.000653   0.000135  -0.000033
     6  O    0.347185  -0.059682  -0.045587
     7  O   -0.004265  -0.000190   0.000229
     8  H   -0.000044  -0.000059   0.000049
     9  O   -0.103814   0.012505   0.008120
    10  C    0.308943  -0.060343  -0.018366
    11  H   -0.015635  -0.018739   0.008440
    12  H   -0.073700   0.018710  -0.010308
    13  C    4.759489   0.398420   0.364768
    14  H    0.398420   0.780988  -0.075262
    15  H    0.364768  -0.075262   0.757585
 Mulliken charges:
               1
     1  Si   0.850175
     2  O   -0.489195
     3  H    0.151327
     4  O   -0.585961
     5  H    0.148187
     6  O   -0.409241
     7  O   -0.449585
     8  H    0.157329
     9  O   -0.557822
    10  C    0.081733
    11  H    0.001953
    12  H    0.004896
    13  C    0.078187
    14  H    0.007934
    15  H    0.010083
 Sum of Mulliken charges =  -1.00000
 Mulliken charges with hydrogens summed into heavy atoms:
               1
     1  Si   0.850175
     2  O   -0.337868
     4  O   -0.437775
     6  O   -0.409241
     7  O   -0.292256
     9  O   -0.557822
    10  C    0.088582
    13  C    0.096204
 Electronic spatial extent (au):  <R**2>=           1000.5025
 Charge=             -1.0000 electrons
 Dipole moment (field-independent basis, Debye):
    X=              2.2049    Y=              0.3997    Z=              1.0367  Tot=              2.4691
 Quadrupole moment (field-independent basis, Debye-Ang):
   XX=            -62.1943   YY=            -66.7469   ZZ=            -59.7529
   XY=              1.5334   XZ=              0.4876   YZ=             -0.1038
 Traceless Quadrupole moment (field-independent basis, Debye-Ang):
   XX=              0.7038   YY=             -3.8489   ZZ=              3.1451
   XY=              1.5334   XZ=              0.4876   YZ=             -0.1038
 Octapole moment (field-independent basis, Debye-Ang**2):
  XXX=            -12.2264  YYY=             -1.4451  ZZZ=              0.2486  XYY=             -3.6576
  XXY=             -0.5879  XXZ=             -1.5522  XZZ=             -0.2585  YZZ=              1.0641
  YYZ=              9.0631  XYZ=             -4.2658
 Hexadecapole moment (field-independent basis, Debye-Ang**3):
 XXXX=           -746.2311 YYYY=           -335.3680 ZZZZ=           -258.4243 XXXY=              2.6452
 XXXZ=              1.0037 YYYX=             -1.3570 YYYZ=             -3.6942 ZZZX=             18.8241
 ZZZY=            -12.5888 XXYY=           -183.6783 XXZZ=           -163.9530 YYZZ=            -95.6146
 XXYZ=             14.2739 YYXZ=            -10.2258 ZZXY=             -4.3633
 N-N= 5.443494438670D+02 E-N=-2.870797495634D+03  KE= 7.438764868533D+02
   1 Symmetry operations used in ECPInt.
 ECPInt:  NShTT=    8911 NPrTT=   25186 LenC2=    8689 LenP2D=   19651.
 LDataN:  DoStor=T MaxTD1= 7 Len=  274
 Calling FoFJK, ICntrl=      2127 FMM=F ISym2X=0 I1Cent= 0 IOpClX= 0 NMat=1 NMatS=1 NMatT=0.
 ***** Axes restored to original set *****
 -------------------------------------------------------------------
 Center     Atomic                   Forces (Hartrees/Bohr)
 Number     Number              X              Y              Z
 -------------------------------------------------------------------
      1       14           0.000195332   -0.000163357   -0.000485902
      2        8           0.000819802   -0.000586462    0.000238933
      3        1          -0.000250608   -0.000201405   -0.000053122
      4        8           0.001007160   -0.001097830   -0.003138087
      5        1          -0.001564876    0.000959298    0.002276825
      6        8           0.000083537    0.000516039    0.000107724
      7        8          -0.000553195    0.001060920    0.001111103
      8        1          -0.001727745   -0.000633995   -0.000276009
      9        8           0.000848261    0.000150952   -0.001462325
     10        6           0.000987564   -0.000034433    0.000619381
     11        1           0.000029741   -0.000012578    0.000088420
     12        1           0.000137519   -0.000024787    0.000044700
     13        6           0.000024335    0.000063349    0.000803632
     14        1          -0.000033078    0.000010136    0.000051575
     15        1          -0.000003748   -0.000005848    0.000073153
 -------------------------------------------------------------------
 Cartesian Forces:  Max     0.003138087 RMS     0.000862111

 GradGradGradGradGradGradGradGradGradGradGradGradGradGradGradGradGradGrad
 Berny optimization.
 FormGI is forming the generalized inverse of G from B-inverse, IUseBI=4.
 Internal  Forces:  Max     0.002822760 RMS     0.000716180
 Search for a local minimum.
 Step number   1 out of a maximum of   86
 All quantities printed in internal units (Hartrees-Bohrs-Radians)
 Mixed Optimization -- En-DIIS/RFO-DIIS
 Second derivative matrix not updated -- first step.
 ITU=  0
     Eigenvalues ---    0.00988   0.02209   0.02387   0.03033   0.03189
     Eigenvalues ---    0.04740   0.04923   0.05967   0.06338   0.07803
     Eigenvalues ---    0.08657   0.10214   0.11051   0.11160   0.11304
     Eigenvalues ---    0.11705   0.13468   0.15754   0.16000   0.16000
     Eigenvalues ---    0.16000   0.17180   0.19221   0.21985   0.24588
     Eigenvalues ---    0.28275   0.30724   0.33081   0.33412   0.33565
     Eigenvalues ---    0.33628   0.33912   0.36045   0.37507   0.44928
     Eigenvalues ---    0.47595   0.55970   0.56408   0.56509
 RFO step:  Lambda=-3.32670572D-04 EMin= 9.87673906D-03
 Linear search not attempted -- first point.
 Iteration  1 RMS(Cart)=  0.01628591 RMS(Int)=  0.00011885
 Iteration  2 RMS(Cart)=  0.00017548 RMS(Int)=  0.00002894
 Iteration  3 RMS(Cart)=  0.00000001 RMS(Int)=  0.00002894
 Variable       Old X    -DE/DX   Delta X   Delta X   Delta X     New X
                                 (Linear)    (Quad)   (Total)
    R1        3.21011   0.00041   0.00000   0.00113   0.00113   3.21124
    R2        3.30242  -0.00047   0.00000  -0.00153  -0.00153   3.30089
    R3        3.23219   0.00005   0.00000   0.00049   0.00048   3.23267
    R4        3.18789   0.00000   0.00000   0.00001   0.00001   3.18790
    R5        3.42434  -0.00153   0.00000  -0.00663  -0.00666   3.41769
    R6        1.80515   0.00033   0.00000   0.00058   0.00058   1.80573
    R7        1.80601  -0.00282   0.00000  -0.00500  -0.00500   1.80101
    R8        2.62956  -0.00038   0.00000  -0.00053  -0.00052   2.62904
    R9        1.80980  -0.00186   0.00000  -0.00331  -0.00331   1.80649
   R10        2.60535  -0.00042   0.00000  -0.00139  -0.00139   2.60396
   R11        2.07962  -0.00005   0.00000  -0.00015  -0.00015   2.07947
   R12        2.08910   0.00002   0.00000   0.00007   0.00007   2.08917
   R13        2.89061  -0.00010   0.00000   0.00022   0.00025   2.89086
   R14        2.08334  -0.00004   0.00000  -0.00013  -0.00013   2.08321
   R15        2.07480   0.00003   0.00000   0.00008   0.00008   2.07488
    A1        1.58938  -0.00054   0.00000  -0.00357  -0.00358   1.58579
    A2        2.07452   0.00141   0.00000   0.01091   0.01091   2.08543
    A3        2.10789   0.00051   0.00000   0.00324   0.00323   2.11112
    A4        1.54702  -0.00004   0.00000  -0.00439  -0.00438   1.54264
    A5        1.59897  -0.00053   0.00000  -0.00122  -0.00112   1.59785
    A6        1.58283   0.00159   0.00000   0.01154   0.01156   1.59438
    A7        2.09879  -0.00195   0.00000  -0.01462  -0.01464   2.08415
    A8        1.53145   0.00072   0.00000   0.00256   0.00250   1.53395
    A9        1.57486  -0.00119   0.00000  -0.00487  -0.00484   1.57003
   A10        1.85504  -0.00001   0.00000  -0.00003  -0.00003   1.85501
   A11        1.89560  -0.00014   0.00000  -0.00085  -0.00085   1.89475
   A12        2.02253  -0.00055   0.00000  -0.00139  -0.00150   2.02103
   A13        1.83879  -0.00008   0.00000  -0.00049  -0.00049   1.83829
   A14        1.96027  -0.00055   0.00000  -0.00540  -0.00553   1.95474
   A15        1.94601  -0.00022   0.00000  -0.00062  -0.00061   1.94540
   A16        1.94812  -0.00025   0.00000  -0.00040  -0.00039   1.94773
   A17        1.84773   0.00062   0.00000   0.00000  -0.00004   1.84769
   A18        1.87212   0.00006   0.00000   0.00026   0.00026   1.87237
   A19        1.94044  -0.00008   0.00000  -0.00130  -0.00127   1.93916
   A20        1.91027  -0.00014   0.00000   0.00208   0.00208   1.91234
   A21        1.86201  -0.00017   0.00000  -0.00051  -0.00055   1.86146
   A22        1.92462   0.00015   0.00000   0.00040   0.00041   1.92504
   A23        1.92562  -0.00001   0.00000   0.00013   0.00015   1.92577
   A24        1.91596  -0.00013   0.00000  -0.00126  -0.00125   1.91471
   A25        1.95720   0.00016   0.00000   0.00101   0.00102   1.95822
   A26        1.87892   0.00000   0.00000   0.00022   0.00022   1.87914
   A27        3.13639  -0.00058   0.00000  -0.00797  -0.00796   3.12844
   A28        3.15724   0.00012   0.00000   0.00302   0.00307   3.16031
    D1       -3.09352   0.00063   0.00000   0.00442   0.00443  -3.08909
    D2       -1.48030  -0.00022   0.00000   0.00151   0.00157  -1.47872
    D3        1.59380  -0.00091   0.00000  -0.00699  -0.00701   1.58678
    D4        0.03243   0.00051   0.00000   0.00139   0.00135   0.03378
    D5        0.24758   0.00070   0.00000   0.02018   0.02018   0.26776
    D6       -1.82786  -0.00066   0.00000   0.00945   0.00945  -1.81841
    D7        2.35587   0.00125   0.00000   0.02366   0.02366   2.37953
    D8        1.39826   0.00045   0.00000   0.01706   0.01707   1.41533
    D9        3.00581  -0.00040   0.00000   0.01283   0.01285   3.01866
   D10       -1.67620   0.00105   0.00000   0.02482   0.02483  -1.65137
   D11       -0.12366   0.00019   0.00000   0.02139   0.02141  -0.10224
   D12        1.54539   0.00046   0.00000   0.00609   0.00608   1.55147
   D13       -0.05420   0.00013   0.00000   0.00327   0.00323  -0.05097
   D14       -1.66464  -0.00011   0.00000  -0.00154  -0.00151  -1.66615
   D15        3.09093  -0.00029   0.00000  -0.00197  -0.00196   3.08898
   D16       -2.35231  -0.00137   0.00000  -0.03394  -0.03392  -2.38622
   D17       -0.27613   0.00001   0.00000  -0.02287  -0.02286  -0.29899
   D18        1.82293  -0.00191   0.00000  -0.03735  -0.03735   1.78558
   D19        0.44216  -0.00037   0.00000  -0.01524  -0.01523   0.42694
   D20       -1.63759  -0.00020   0.00000  -0.01364  -0.01363  -1.65122
   D21        2.57228  -0.00029   0.00000  -0.01425  -0.01425   2.55804
   D22        2.66063   0.00016   0.00000   0.01704   0.01703   2.67765
   D23       -1.52908  -0.00008   0.00000   0.01668   0.01667  -1.51241
   D24        0.54809  -0.00000   0.00000   0.01897   0.01895   0.56704
   D25       -0.61468  -0.00003   0.00000  -0.00427  -0.00426  -0.61894
   D26        1.47069  -0.00002   0.00000  -0.00478  -0.00477   1.46592
   D27       -2.72476   0.00000   0.00000  -0.00470  -0.00469  -2.72944
   D28       -2.73082  -0.00010   0.00000  -0.00278  -0.00278  -2.73359
   D29       -0.64545  -0.00008   0.00000  -0.00329  -0.00329  -0.64873
   D30        1.44229  -0.00006   0.00000  -0.00321  -0.00320   1.43909
   D31        1.48733  -0.00004   0.00000  -0.00362  -0.00363   1.48370
   D32       -2.71049  -0.00003   0.00000  -0.00413  -0.00414  -2.71462
   D33       -0.62275  -0.00001   0.00000  -0.00405  -0.00405  -0.62680
         Item               Value     Threshold  Converged?
 Maximum Force            0.002823     0.000450     NO 
 RMS     Force            0.000716     0.000300     NO 
 Maximum Displacement     0.063236     0.001800     NO 
 RMS     Displacement     0.016324     0.001200     NO 
 Predicted change in Energy=-1.674892D-04
 GradGradGradGradGradGradGradGradGradGradGradGradGradGradGradGradGradGrad

                          Input orientation:                          
 ---------------------------------------------------------------------
 Center     Atomic      Atomic             Coordinates (Angstroms)
 Number     Number       Type             X           Y           Z
 ---------------------------------------------------------------------
      1         14           0        0.513891   -0.090336   -0.003157
      2          8           0        0.942107   -1.002806   -1.371257
      3          1           0        0.217658   -1.605674   -1.528721
      4          8           0        1.973227    0.858791   -0.146880
      5          1           0        2.342042    0.718675   -1.014438
      6          8           0       -0.464455    1.300305   -0.191020
      7          8           0        0.947266   -0.595150    1.547068
      8          1           0        1.809527   -0.213882    1.705135
      9          8           0       -1.006690   -1.063313    0.106605
     10          6           0       -2.105236   -0.275717    0.374285
     11          1           0       -3.030541   -0.731644   -0.008911
     12          1           0       -2.240511   -0.121692    1.460654
     13          6           0       -1.831537    1.068077   -0.303591
     14          1           0       -2.124327    1.015389   -1.365077
     15          1           0       -2.397217    1.888260    0.157782
 ---------------------------------------------------------------------
                    Distance matrix (angstroms):
                    1          2          3          4          5
     1  Si   0.000000
     2  O    1.699313   0.000000
     3  H    2.170565   0.955549   0.000000
     4  O    1.746757   2.455168   3.326425   0.000000
     5  H    2.240385   2.247362   3.190627   0.953055   0.000000
     6  O    1.710653   2.945453   3.271000   2.477736   2.982069
     7  O    1.686965   2.946664   3.318730   2.456828   3.198883
     8  H    2.147603   3.292264   3.863802   2.146482   2.923921
     9  O    1.808562   2.446537   2.113640   3.555087   3.955531
    10  C    2.652669   3.586345   3.284213   4.265277   4.763996
    11  H    3.601987   4.208497   3.691144   5.252258   5.655012
    12  H    3.119368   4.350303   4.145016   4.615312   5.275613
    13  C    2.633100   3.622370   3.584563   3.813737   4.248076
    14  H    3.168225   3.670990   3.518756   4.277673   4.489927
    15  H    3.523534   4.674110   4.678615   4.500379   5.020219
                    6          7          8          9         10
     6  O    0.000000
     7  O    2.933711   0.000000
     8  H    3.325532   0.955952   0.000000
     9  O    2.443213   2.472257   3.347821   0.000000
    10  C    2.344266   3.285609   4.135258   1.377956   0.000000
    11  H    3.278228   4.273482   5.160648   2.054099   1.100408
    12  H    2.811491   3.223903   4.058458   2.059712   1.105541
    13  C    1.391229   3.730015   4.351523   2.321951   1.529775
    14  H    2.052989   4.528699   5.139311   2.781360   2.166264
    15  H    2.050103   4.391242   4.950757   3.263122   2.194293
                   11         12         13         14         15
    11  H    0.000000
    12  H    1.776460   0.000000
    13  C    2.182531   2.166880   0.000000
    14  H    2.390090   3.048148   1.102386   0.000000
    15  H    2.700515   2.400404   1.097979   1.776364   0.000000
 Stoichiometry    C2H7O5Si(1-)
 Framework group  C1[X(C2H7O5Si)]
 Deg. of freedom    39
 Full point group                 C1      NOp   1
 Largest Abelian subgroup         C1      NOp   1
 Largest concise Abelian subgroup C1      NOp   1
                         Standard orientation:                         
 ---------------------------------------------------------------------
 Center     Atomic      Atomic             Coordinates (Angstroms)
 Number     Number       Type             X           Y           Z
 ---------------------------------------------------------------------
      1         14           0       -0.556693   -0.055477   -0.004728
      2          8           0       -1.095687   -0.470116    1.552586
      3          1           0       -0.426991   -1.042870    1.923894
      4          8           0       -1.938173    0.988732   -0.233424
      5          1           0       -2.341498    1.148481    0.615177
      6          8           0        0.524956    1.255317   -0.200152
      7          8           0       -0.985333   -0.983089   -1.346985
      8          1           0       -1.809199   -0.611396   -1.658325
      9          8           0        0.882921   -1.116010    0.266711
     10          6           0        2.048568   -0.526078   -0.171479
     11          1           0        2.922851   -0.903462    0.379980
     12          1           0        2.226525   -0.724220   -1.244462
     13          6           0        1.865108    0.976635    0.048535
     14          1           0        2.122530    1.234112    1.089061
     15          1           0        2.507952    1.574019   -0.611345
 ---------------------------------------------------------------------
 Rotational constants (GHZ):           2.7533585           1.5477269           1.4498166
 Standard basis: def2TZVPP (5D, 7F)
 There are   405 symmetry adapted cartesian basis functions of A   symmetry.
 There are   357 symmetry adapted basis functions of A   symmetry.
   357 basis functions,   545 primitive gaussians,   405 cartesian basis functions
    37 alpha electrons       37 beta electrons
       nuclear repulsion energy       544.7259673553 Hartrees.
 NAtoms=   15 NActive=   15 NUniq=   15 SFac= 1.00D+00 NAtFMM=   60 NAOKFM=F Big=F
 Integral buffers will be    131072 words long.
 Raffenetti 2 integral format.
 Two-electron integral symmetry is turned on.
 Nuclear repulsion after empirical dispersion term =      544.7195902092 Hartrees.
 One-electron integrals computed using PRISM.
   1 Symmetry operations used in ECPInt.
 ECPInt:  NShTT=    8911 NPrTT=   25186 LenC2=    8689 LenP2D=   19658.
 LDataN:  DoStor=T MaxTD1= 6 Len=  172
 NBasis=   357 RedAO= T EigKep=  3.36D-04  NBF=   357
 NBsUse=   357 1.00D-06 EigRej= -1.00D+00 NBFU=   357
 Initial guess from the checkpoint file:  "IRC_PbiL_collapseTo_QbiL_Reverse_EndpointOpt.chk"
 B after Tr=     0.000000   -0.000000   -0.000000
         Rot=    0.999913   -0.012340    0.004503   -0.000852 Ang=  -1.51 deg.
 ExpMin= 7.01D-02 ExpMax= 4.48D+04 ExpMxC= 1.53D+03 IAcc=3 IRadAn=         5 AccDes= 0.00D+00
 Harris functional with IExCor= 4639 and IRadAn=       5 diagonalized for initial guess.
 HarFok:  IExCor= 4639 AccDes= 0.00D+00 IRadAn=         5 IDoV= 1 UseB2=F ITyADJ=14
 ICtDFT=  3500011 ScaDFX=  1.000000  1.000000  1.000000  1.000000
 FoFCou: FMM=F IPFlag=           0 FMFlag=      100000 FMFlg1=           0
         NFxFlg=           0 DoJE=T BraDBF=F KetDBF=T FulRan=T
         wScrn=  0.000000 ICntrl=       500 IOpCl=  0 I1Cent=   200000004 NGrid=           0
         NMat0=    1 NMatS0=      1 NMatT0=    0 NMatD0=    1 NMtDS0=    0 NMtDT0=    0
 Petite list used in FoFCou.
 Requested convergence on RMS density matrix=1.00D-08 within 128 cycles.
 Requested convergence on MAX density matrix=1.00D-06.
 Requested convergence on             energy=1.00D-06.
 No special actions if energy rises.
 Integral accuracy reduced to 1.0D-05 until final iterations.
 Initial convergence to 1.0D-05 achieved.  Increase integral accuracy.
 SCF Done:  E(RwB97XD) =  -746.357207954     A.U. after   11 cycles
            NFock= 11  Conv=0.61D-08     -V/T= 2.0033
   1 Symmetry operations used in ECPInt.
 ECPInt:  NShTT=    8911 NPrTT=   25186 LenC2=    8689 LenP2D=   19658.
 LDataN:  DoStor=T MaxTD1= 7 Len=  274
 Calling FoFJK, ICntrl=      2127 FMM=F ISym2X=0 I1Cent= 0 IOpClX= 0 NMat=1 NMatS=1 NMatT=0.
 ***** Axes restored to original set *****
 -------------------------------------------------------------------
 Center     Atomic                   Forces (Hartrees/Bohr)
 Number     Number              X              Y              Z
 -------------------------------------------------------------------
      1       14           0.000273666   -0.000353036   -0.000938738
      2        8           0.000689764   -0.000679278    0.000028854
      3        1          -0.000018959    0.000040911   -0.000014654
      4        8          -0.000408584   -0.001184079    0.000547145
      5        1          -0.000318621    0.000331188   -0.000097787
      6        8           0.000117124    0.000329443   -0.000121182
      7        8          -0.000309271    0.001324724    0.000110194
      8        1           0.000181095    0.000044538    0.000497960
      9        8           0.000089160    0.000114439   -0.001746599
     10        6          -0.000094318   -0.000022984    0.000602498
     11        1          -0.000074123   -0.000061921    0.000149777
     12        1           0.000138436    0.000170462   -0.000040150
     13        6          -0.000153555   -0.000060773    0.000905490
     14        1          -0.000050157    0.000072284   -0.000003144
     15        1          -0.000061658   -0.000065918    0.000120336
 -------------------------------------------------------------------
 Cartesian Forces:  Max     0.001746599 RMS     0.000489802

 GradGradGradGradGradGradGradGradGradGradGradGradGradGradGradGradGradGrad
 Berny optimization.
 Using GEDIIS/GDIIS optimizer.
 FormGI is forming the generalized inverse of G from B-inverse, IUseBI=4.
 Internal  Forces:  Max     0.001640416 RMS     0.000415392
 Search for a local minimum.
 Step number   2 out of a maximum of   86
 All quantities printed in internal units (Hartrees-Bohrs-Radians)
 Mixed Optimization -- En-DIIS/RFO-DIIS
 Swapping is turned off.
 Update second derivatives using D2CorX and points    1    2
 DE= -2.63D-04 DEPred=-1.67D-04 R= 1.57D+00
 TightC=F SS=  1.41D+00  RLast= 9.06D-02 DXNew= 5.0454D-01 2.7185D-01
 Trust test= 1.57D+00 RLast= 9.06D-02 DXMaxT set to 3.00D-01
 ITU=  1  0
     Eigenvalues ---    0.00707   0.01031   0.02387   0.03034   0.03187
     Eigenvalues ---    0.04747   0.04905   0.05967   0.06324   0.07627
     Eigenvalues ---    0.08895   0.10172   0.10418   0.11107   0.11269
     Eigenvalues ---    0.11417   0.12938   0.15584   0.15993   0.16000
     Eigenvalues ---    0.16034   0.18253   0.21206   0.22390   0.26286
     Eigenvalues ---    0.28257   0.31368   0.33084   0.33414   0.33592
     Eigenvalues ---    0.33644   0.33911   0.36018   0.37517   0.44958
     Eigenvalues ---    0.47890   0.56116   0.56508   0.63287
 En-DIIS/RFO-DIIS/Sim-DIIS IScMMF=       -3 using points:     2    1
 RFO step:  Lambda=-6.55951985D-04.
 DidBck=F Rises=F RFO-DIIS coefs:    3.00000   -2.00000
 Iteration  1 RMS(Cart)=  0.04998040 RMS(Int)=  0.00122208
 Iteration  2 RMS(Cart)=  0.00173988 RMS(Int)=  0.00035161
 Iteration  3 RMS(Cart)=  0.00000076 RMS(Int)=  0.00035161
 Variable       Old X    -DE/DX   Delta X   Delta X   Delta X     New X
                                 (Linear)    (Quad)   (Total)
    R1        3.21124   0.00050   0.00226   0.00244   0.00470   3.21594
    R2        3.30089  -0.00111  -0.00306  -0.00730  -0.01037   3.29053
    R3        3.23267   0.00032   0.00096   0.00215   0.00292   3.23559
    R4        3.18790   0.00011   0.00002   0.00069   0.00071   3.18861
    R5        3.41769  -0.00010  -0.01331   0.00198  -0.01164   3.40605
    R6        1.80573  -0.00001   0.00116  -0.00044   0.00072   1.80645
    R7        1.80101  -0.00008  -0.01000   0.00318  -0.00683   1.79419
    R8        2.62904   0.00016  -0.00104   0.00192   0.00108   2.63012
    R9        1.80649   0.00027  -0.00663   0.00343  -0.00320   1.80328
   R10        2.60396   0.00026  -0.00279   0.00123  -0.00154   2.60242
   R11        2.07947   0.00003  -0.00031   0.00035   0.00004   2.07951
   R12        2.08917  -0.00003   0.00014  -0.00026  -0.00012   2.08904
   R13        2.89086  -0.00028   0.00050  -0.00073   0.00014   2.89100
   R14        2.08321   0.00001  -0.00026   0.00017  -0.00009   2.08312
   R15        2.07488   0.00003   0.00017   0.00017   0.00034   2.07522
    A1        1.58579  -0.00004  -0.00717   0.00048  -0.00678   1.57901
    A2        2.08543   0.00110   0.02182   0.01365   0.03550   2.12093
    A3        2.11112   0.00044   0.00646   0.00409   0.01055   2.12167
    A4        1.54264   0.00003  -0.00875   0.00065  -0.00781   1.53483
    A5        1.59785   0.00022  -0.00224   0.00456   0.00310   1.60096
    A6        1.59438  -0.00041   0.02311  -0.01438   0.00882   1.60320
    A7        2.08415  -0.00151  -0.02927  -0.01702  -0.04641   2.03774
    A8        1.53395  -0.00000   0.00501  -0.00282   0.00151   1.53546
    A9        1.57003   0.00023  -0.00967   0.01183   0.00262   1.57264
   A10        1.85501  -0.00002  -0.00007  -0.00032  -0.00039   1.85462
   A11        1.89475  -0.00010  -0.00169  -0.00088  -0.00257   1.89218
   A12        2.02103  -0.00003  -0.00300   0.00248  -0.00204   2.01899
   A13        1.83829   0.00078  -0.00099   0.01170   0.01071   1.84900
   A14        1.95474  -0.00005  -0.01106  -0.00248  -0.01521   1.93953
   A15        1.94540   0.00003  -0.00122   0.00233   0.00130   1.94670
   A16        1.94773  -0.00008  -0.00077   0.00071   0.00009   1.94782
   A17        1.84769   0.00013  -0.00008  -0.00382  -0.00444   1.84324
   A18        1.87237   0.00003   0.00051   0.00074   0.00120   1.87357
   A19        1.93916   0.00008  -0.00255   0.00186  -0.00042   1.93874
   A20        1.91234  -0.00020   0.00416  -0.00185   0.00229   1.91463
   A21        1.86146   0.00004  -0.00111   0.00164   0.00002   1.86147
   A22        1.92504  -0.00002   0.00083   0.00026   0.00122   1.92625
   A23        1.92577   0.00006   0.00030   0.00066   0.00116   1.92693
   A24        1.91471  -0.00010  -0.00249  -0.00092  -0.00326   1.91145
   A25        1.95822  -0.00001   0.00203  -0.00129   0.00084   1.95905
   A26        1.87914   0.00002   0.00043  -0.00035   0.00003   1.87917
   A27        3.12844  -0.00001  -0.01592   0.00113  -0.01459   3.11385
   A28        3.16031  -0.00022   0.00615  -0.00231   0.00444   3.16475
    D1       -3.08909  -0.00022   0.00885  -0.00472   0.00415  -3.08494
    D2       -1.47872   0.00005   0.00314   0.00129   0.00501  -1.47372
    D3        1.58678   0.00026  -0.01403   0.01162  -0.00243   1.58436
    D4        0.03378  -0.00001   0.00270  -0.00241  -0.00028   0.03350
    D5        0.26776   0.00049   0.04037   0.01587   0.05627   0.32403
    D6       -1.81841  -0.00061   0.01890   0.00203   0.02091  -1.79750
    D7        2.37953   0.00091   0.04731   0.01952   0.06683   2.44635
    D8        1.41533   0.00026   0.03414   0.02900   0.06306   1.47839
    D9        3.01866   0.00039   0.02570   0.03275   0.05867   3.07733
   D10       -1.65137  -0.00003   0.04966   0.01794   0.06785  -1.58352
   D11       -0.10224   0.00030   0.04283   0.03077   0.07377  -0.02848
   D12        1.55147  -0.00012   0.01217  -0.00324   0.00887   1.56034
   D13       -0.05097   0.00015   0.00646   0.00468   0.01095  -0.04003
   D14       -1.66615   0.00020  -0.00302   0.00840   0.00517  -1.66098
   D15        3.08898   0.00003  -0.00391   0.00454   0.00108   3.09006
   D16       -2.38622  -0.00121  -0.06783  -0.04475  -0.11245  -2.49867
   D17       -0.29899  -0.00012  -0.04572  -0.03096  -0.07647  -0.37546
   D18        1.78558  -0.00164  -0.07470  -0.04844  -0.12305   1.66253
   D19        0.42694  -0.00033  -0.03045  -0.02285  -0.05323   0.37371
   D20       -1.65122  -0.00022  -0.02726  -0.02286  -0.04999  -1.70121
   D21        2.55804  -0.00027  -0.02849  -0.02300  -0.05152   2.50652
   D22        2.67765   0.00024   0.03406   0.02440   0.05823   2.73588
   D23       -1.51241   0.00024   0.03335   0.02741   0.06070  -1.45170
   D24        0.56704   0.00004   0.03789   0.02322   0.06080   0.62784
   D25       -0.61894   0.00017  -0.00852  -0.00082  -0.00926  -0.62820
   D26        1.46592   0.00012  -0.00955  -0.00006  -0.00958   1.45634
   D27       -2.72944   0.00008  -0.00937  -0.00195  -0.01120  -2.74064
   D28       -2.73359   0.00001  -0.00556  -0.00232  -0.00784  -2.74143
   D29       -0.64873  -0.00004  -0.00658  -0.00156  -0.00815  -0.65689
   D30        1.43909  -0.00009  -0.00640  -0.00345  -0.00977   1.42932
   D31        1.48370   0.00004  -0.00725  -0.00319  -0.01050   1.47320
   D32       -2.71462  -0.00001  -0.00827  -0.00243  -0.01082  -2.72544
   D33       -0.62680  -0.00005  -0.00810  -0.00432  -0.01244  -0.63923
         Item               Value     Threshold  Converged?
 Maximum Force            0.001640     0.000450     NO 
 RMS     Force            0.000415     0.000300     NO 
 Maximum Displacement     0.167230     0.001800     NO 
 RMS     Displacement     0.050255     0.001200     NO 
 Predicted change in Energy=-3.521677D-04
 GradGradGradGradGradGradGradGradGradGradGradGradGradGradGradGradGradGrad

                          Input orientation:                          
 ---------------------------------------------------------------------
 Center     Atomic      Atomic             Coordinates (Angstroms)
 Number     Number       Type             X           Y           Z
 ---------------------------------------------------------------------
      1         14           0        0.510483   -0.096379   -0.035270
      2          8           0        0.987564   -1.041556   -1.367619
      3          1           0        0.266301   -1.644815   -1.539844
      4          8           0        1.974494    0.838564   -0.156022
      5          1           0        2.340339    0.712288   -1.023002
      6          8           0       -0.459444    1.301023   -0.230541
      7          8           0        0.869830   -0.556423    1.547876
      8          1           0        1.721032   -0.172965    1.745411
      9          8           0       -1.008707   -1.064428    0.024707
     10          6           0       -2.084956   -0.278151    0.371089
     11          1           0       -3.033238   -0.715961    0.024642
     12          1           0       -2.160961   -0.152026    1.466712
     13          6           0       -1.832243    1.079129   -0.287978
     14          1           0       -2.172410    1.048655   -1.336075
     15          1           0       -2.372880    1.892326    0.214393
 ---------------------------------------------------------------------
                    Distance matrix (angstroms):
                    1          2          3          4          5
     1  Si   0.000000
     2  O    1.701800   0.000000
     3  H    2.172792   0.955931   0.000000
     4  O    1.741272   2.444760   3.316634   0.000000
     5  H    2.231128   2.241592   3.181933   0.949443   0.000000
     6  O    1.712198   2.979003   3.304382   2.478604   2.968735
     7  O    1.687341   2.957926   3.329093   2.463643   3.222024
     8  H    2.154557   3.314119   3.882717   2.168612   2.971754
     9  O    1.802402   2.433967   2.100075   3.543096   3.933259
    10  C    2.633338   3.611962   3.323830   4.243116   4.744228
    11  H    3.597975   4.267464   3.767936   5.246576   5.657984
    12  H    3.065234   4.328730   4.142390   4.551541   5.216073
    13  C    2.633257   3.689748   3.659361   3.816612   4.252678
    14  H    3.193918   3.788854   3.639178   4.316651   4.536084
    15  H    3.511561   4.733182   4.749104   4.488573   5.013788
                    6          7          8          9         10
     6  O    0.000000
     7  O    2.894796   0.000000
     8  H    3.291125   0.954257   0.000000
     9  O    2.441761   2.471238   3.347687   0.000000
    10  C    2.344790   3.192652   4.047885   1.377143   0.000000
    11  H    3.279902   4.192807   5.085172   2.054301   1.100428
    12  H    2.808412   3.058728   3.892041   2.059015   1.105475
    13  C    1.391802   3.653298   4.281141   2.317502   1.529851
    14  H    2.054299   4.488727   5.113394   2.769666   2.163901
    15  H    2.051547   4.276648   4.834207   3.261800   2.195091
                   11         12         13         14         15
    11  H    0.000000
    12  H    1.777204   0.000000
    13  C    2.182308   2.168579   0.000000
    14  H    2.388817   3.049160   1.102338   0.000000
    15  H    2.697265   2.406780   1.098160   1.776491   0.000000
 Stoichiometry    C2H7O5Si(1-)
 Framework group  C1[X(C2H7O5Si)]
 Deg. of freedom    39
 Full point group                 C1      NOp   1
 Largest Abelian subgroup         C1      NOp   1
 Largest concise Abelian subgroup C1      NOp   1
                         Standard orientation:                         
 ---------------------------------------------------------------------
 Center     Atomic      Atomic             Coordinates (Angstroms)
 Number     Number       Type             X           Y           Z
 ---------------------------------------------------------------------
      1         14           0       -0.556171   -0.052562   -0.006121
      2          8           0       -1.175285   -0.687892    1.446179
      3          1           0       -0.518991   -1.302484    1.770768
      4          8           0       -1.935371    1.000576   -0.150128
      5          1           0       -2.349973    1.069900    0.701190
      6          8           0        0.524107    1.275809   -0.013412
      7          8           0       -0.882676   -0.774270   -1.495971
      8          1           0       -1.686624   -0.369377   -1.812726
      9          8           0        0.872234   -1.130937    0.206996
     10          6           0        2.028649   -0.511620   -0.212137
     11          1           0        2.917606   -0.949157    0.266671
     12          1           0        2.165225   -0.601571   -1.305448
     13          6           0        1.867757    0.961485    0.168019
     14          1           0        2.155929    1.103312    1.222529
     15          1           0        2.500704    1.619764   -0.441901
 ---------------------------------------------------------------------
 Rotational constants (GHZ):           2.7504668           1.5532081           1.4612314
 Standard basis: def2TZVPP (5D, 7F)
 There are   405 symmetry adapted cartesian basis functions of A   symmetry.
 There are   357 symmetry adapted basis functions of A   symmetry.
   357 basis functions,   545 primitive gaussians,   405 cartesian basis functions
    37 alpha electrons       37 beta electrons
       nuclear repulsion energy       545.4550422496 Hartrees.
 NAtoms=   15 NActive=   15 NUniq=   15 SFac= 1.00D+00 NAtFMM=   60 NAOKFM=F Big=F
 Integral buffers will be    131072 words long.
 Raffenetti 2 integral format.
 Two-electron integral symmetry is turned on.
 Nuclear repulsion after empirical dispersion term =      545.4486715104 Hartrees.
 One-electron integrals computed using PRISM.
   1 Symmetry operations used in ECPInt.
 ECPInt:  NShTT=    8911 NPrTT=   25186 LenC2=    8697 LenP2D=   19666.
 LDataN:  DoStor=T MaxTD1= 6 Len=  172
 NBasis=   357 RedAO= T EigKep=  3.29D-04  NBF=   357
 NBsUse=   357 1.00D-06 EigRej= -1.00D+00 NBFU=   357
 Initial guess from the checkpoint file:  "IRC_PbiL_collapseTo_QbiL_Reverse_EndpointOpt.chk"
 B after Tr=     0.000000    0.000000   -0.000000
         Rot=    0.997909   -0.063321    0.012993   -0.000287 Ang=  -7.41 deg.
 ExpMin= 7.01D-02 ExpMax= 4.48D+04 ExpMxC= 1.53D+03 IAcc=3 IRadAn=         5 AccDes= 0.00D+00
 Harris functional with IExCor= 4639 and IRadAn=       5 diagonalized for initial guess.
 HarFok:  IExCor= 4639 AccDes= 0.00D+00 IRadAn=         5 IDoV= 1 UseB2=F ITyADJ=14
 ICtDFT=  3500011 ScaDFX=  1.000000  1.000000  1.000000  1.000000
 FoFCou: FMM=F IPFlag=           0 FMFlag=      100000 FMFlg1=           0
         NFxFlg=           0 DoJE=T BraDBF=F KetDBF=T FulRan=T
         wScrn=  0.000000 ICntrl=       500 IOpCl=  0 I1Cent=   200000004 NGrid=           0
         NMat0=    1 NMatS0=      1 NMatT0=    0 NMatD0=    1 NMtDS0=    0 NMtDT0=    0
 Petite list used in FoFCou.
 Requested convergence on RMS density matrix=1.00D-08 within 128 cycles.
 Requested convergence on MAX density matrix=1.00D-06.
 Requested convergence on             energy=1.00D-06.
 No special actions if energy rises.
 Integral accuracy reduced to 1.0D-05 until final iterations.
 Initial convergence to 1.0D-05 achieved.  Increase integral accuracy.
 SCF Done:  E(RwB97XD) =  -746.357646840     A.U. after   12 cycles
            NFock= 12  Conv=0.56D-08     -V/T= 2.0033
   1 Symmetry operations used in ECPInt.
 ECPInt:  NShTT=    8911 NPrTT=   25186 LenC2=    8697 LenP2D=   19666.
 LDataN:  DoStor=T MaxTD1= 7 Len=  274
 Calling FoFJK, ICntrl=      2127 FMM=F ISym2X=0 I1Cent= 0 IOpClX= 0 NMat=1 NMatS=1 NMatT=0.
 ***** Axes restored to original set *****
 -------------------------------------------------------------------
 Center     Atomic                   Forces (Hartrees/Bohr)
 Number     Number              X              Y              Z
 -------------------------------------------------------------------
      1       14           0.000390463   -0.000473212    0.000067323
      2        8          -0.000334282   -0.000304888    0.000416803
      3        1           0.000198855    0.000313524   -0.000199822
      4        8          -0.001656972    0.000082181    0.003877539
      5        1           0.001858656   -0.000316591   -0.003426287
      6        8          -0.000204947   -0.000102349   -0.001019046
      7        8          -0.000220376   -0.000046144   -0.000244330
      8        1           0.001480161    0.000793734    0.000711387
      9        8          -0.000027601   -0.000663919   -0.001430743
     10        6          -0.001627386    0.000499967    0.000672970
     11        1           0.000150823   -0.000199736    0.000112778
     12        1           0.000185702    0.000234013   -0.000269780
     13        6          -0.000253676    0.000007011    0.000600354
     14        1           0.000034574    0.000269846   -0.000066953
     15        1           0.000026005   -0.000093438    0.000197808
 -------------------------------------------------------------------
 Cartesian Forces:  Max     0.003877539 RMS     0.001001958

 GradGradGradGradGradGradGradGradGradGradGradGradGradGradGradGradGradGrad
 Berny optimization.
 Using GEDIIS/GDIIS optimizer.
 FormGI is forming the generalized inverse of G from B-inverse, IUseBI=4.
 Internal  Forces:  Max     0.003879989 RMS     0.000621284
 Search for a local minimum.
 Step number   3 out of a maximum of   86
 All quantities printed in internal units (Hartrees-Bohrs-Radians)
 Mixed Optimization -- En-DIIS/RFO-DIIS
 Swapping is turned off.
 Update second derivatives using D2CorX and points    1    2    3
 DE= -4.39D-04 DEPred=-3.52D-04 R= 1.25D+00
 TightC=F SS=  1.41D+00  RLast= 2.89D-01 DXNew= 5.0454D-01 8.6847D-01
 Trust test= 1.25D+00 RLast= 2.89D-01 DXMaxT set to 5.05D-01
 ITU=  1  1  0
     Eigenvalues ---    0.00524   0.01008   0.02405   0.03039   0.03188
     Eigenvalues ---    0.04756   0.04953   0.05972   0.06350   0.07610
     Eigenvalues ---    0.08890   0.10147   0.10691   0.11076   0.11251
     Eigenvalues ---    0.11371   0.12886   0.15578   0.15999   0.16021
     Eigenvalues ---    0.16147   0.18673   0.21294   0.22263   0.27063
     Eigenvalues ---    0.28247   0.31345   0.33096   0.33415   0.33611
     Eigenvalues ---    0.33646   0.33911   0.36059   0.37551   0.44903
     Eigenvalues ---    0.47960   0.56252   0.56512   0.71627
 En-DIIS/RFO-DIIS/Sim-DIIS IScMMF=       -3 using points:     3    2    1
 RFO step:  Lambda=-1.45572940D-04.
 DidBck=F Rises=F RFO-DIIS coefs:    1.34694   -0.03733   -0.30961
 Iteration  1 RMS(Cart)=  0.02193605 RMS(Int)=  0.00032945
 Iteration  2 RMS(Cart)=  0.00033506 RMS(Int)=  0.00023778
 Iteration  3 RMS(Cart)=  0.00000003 RMS(Int)=  0.00023778
 Variable       Old X    -DE/DX   Delta X   Delta X   Delta X     New X
                                 (Linear)    (Quad)   (Total)
    R1        3.21594  -0.00021   0.00198  -0.00129   0.00069   3.21662
    R2        3.29053   0.00001  -0.00407   0.00190  -0.00217   3.28835
    R3        3.23559   0.00048   0.00116   0.00098   0.00200   3.23759
    R4        3.18861   0.00051   0.00025   0.00130   0.00155   3.19016
    R5        3.40605   0.00106  -0.00610   0.00386  -0.00245   3.40360
    R6        1.80645  -0.00032   0.00043  -0.00054  -0.00011   1.80634
    R7        1.79419   0.00388  -0.00392   0.00699   0.00307   1.79726
    R8        2.63012   0.00028   0.00022   0.00050   0.00085   2.63097
    R9        1.80328   0.00178  -0.00214   0.00282   0.00068   1.80397
   R10        2.60242   0.00132  -0.00096   0.00252   0.00158   2.60400
   R11        2.07951  -0.00008  -0.00003  -0.00034  -0.00038   2.07913
   R12        2.08904  -0.00026  -0.00002  -0.00079  -0.00081   2.08824
   R13        2.89100  -0.00009   0.00013   0.00024   0.00063   2.89163
   R14        2.08312   0.00005  -0.00007   0.00011   0.00004   2.08316
   R15        2.07522   0.00001   0.00014  -0.00002   0.00013   2.07535
    A1        1.57901   0.00035  -0.00346   0.00154  -0.00199   1.57703
    A2        2.12093  -0.00003   0.01569  -0.00326   0.01245   2.13338
    A3        2.12167   0.00013   0.00466  -0.00035   0.00432   2.12599
    A4        1.53483  -0.00020  -0.00407  -0.00095  -0.00480   1.53003
    A5        1.60096   0.00038   0.00073   0.00048   0.00172   1.60268
    A6        1.60320  -0.00116   0.00664  -0.00505   0.00164   1.60484
    A7        2.03774  -0.00007  -0.02063   0.00384  -0.01686   2.02089
    A8        1.53546  -0.00045   0.00130  -0.00230  -0.00146   1.53399
    A9        1.57264   0.00107  -0.00059   0.00614   0.00584   1.57848
   A10        1.85462   0.00024  -0.00014   0.00171   0.00156   1.85618
   A11        1.89218   0.00077  -0.00115   0.00547   0.00432   1.89650
   A12        2.01899   0.00052  -0.00117   0.00308   0.00084   2.01982
   A13        1.84900   0.00053   0.00356   0.00080   0.00436   1.85336
   A14        1.93953   0.00006  -0.00699   0.00145  -0.00665   1.93288
   A15        1.94670   0.00005   0.00026  -0.00075  -0.00037   1.94633
   A16        1.94782   0.00002  -0.00009  -0.00061  -0.00060   1.94721
   A17        1.84324  -0.00022  -0.00155  -0.00021  -0.00212   1.84113
   A18        1.87357   0.00005   0.00049   0.00106   0.00152   1.87509
   A19        1.93874   0.00025  -0.00054   0.00262   0.00226   1.94100
   A20        1.91463  -0.00015   0.00144  -0.00214  -0.00072   1.91391
   A21        1.86147   0.00010  -0.00017   0.00082   0.00029   1.86176
   A22        1.92625  -0.00023   0.00055  -0.00104  -0.00039   1.92586
   A23        1.92693   0.00008   0.00045  -0.00082  -0.00024   1.92669
   A24        1.91145   0.00013  -0.00152   0.00210   0.00069   1.91214
   A25        1.95905  -0.00008   0.00060  -0.00110  -0.00043   1.95862
   A26        1.87917  -0.00000   0.00008   0.00004   0.00008   1.87925
   A27        3.11385   0.00015  -0.00753   0.00058  -0.00679   3.10706
   A28        3.16475  -0.00002   0.00249   0.00165   0.00453   3.16928
    D1       -3.08494  -0.00035   0.00281   0.00241   0.00523  -3.07971
    D2       -1.47372   0.00032   0.00222   0.00381   0.00642  -1.46729
    D3        1.58436   0.00080  -0.00301   0.00741   0.00438   1.58874
    D4        0.03350  -0.00033   0.00032   0.00076   0.00070   0.03419
    D5        0.32403  -0.00008   0.02577  -0.00694   0.01884   0.34287
    D6       -1.79750  -0.00008   0.01018  -0.00375   0.00641  -1.79108
    D7        2.44635   0.00003   0.03051  -0.00738   0.02313   2.46948
    D8        1.47839  -0.00008   0.02716   0.00292   0.03000   1.50839
    D9        3.07733   0.00056   0.02433   0.00486   0.02933   3.10666
   D10       -1.58352  -0.00055   0.03123  -0.00033   0.03105  -1.55247
   D11       -0.02848   0.00043   0.03222   0.00522   0.03756   0.00908
   D12        1.56034  -0.00020   0.00496   0.00062   0.00552   1.56586
   D13       -0.04003   0.00010   0.00480   0.00194   0.00663  -0.03340
   D14       -1.66098   0.00027   0.00133   0.00373   0.00488  -1.65610
   D15        3.09006   0.00022  -0.00023   0.00328   0.00340   3.09346
   D16       -2.49867  -0.00026  -0.04951   0.00128  -0.04816  -2.54683
   D17       -0.37546  -0.00025  -0.03361  -0.00179  -0.03525  -0.41071
   D18        1.66253  -0.00035  -0.05426   0.00186  -0.05232   1.61020
   D19        0.37371  -0.00029  -0.02318  -0.00677  -0.02991   0.34380
   D20       -1.70121  -0.00037  -0.02156  -0.00920  -0.03069  -1.73190
   D21        2.50652  -0.00028  -0.02229  -0.00808  -0.03039   2.47613
   D22        2.73588   0.00031   0.02547   0.00097   0.02629   2.76217
   D23       -1.45170   0.00042   0.02622   0.00139   0.02756  -1.42414
   D24        0.62784   0.00011   0.02696  -0.00165   0.02508   0.65292
   D25       -0.62820   0.00026  -0.00453   0.00593   0.00145  -0.62675
   D26        1.45634   0.00011  -0.00480   0.00631   0.00153   1.45787
   D27       -2.74064   0.00014  -0.00533   0.00707   0.00182  -2.73882
   D28       -2.74143   0.00019  -0.00358   0.00552   0.00195  -2.73948
   D29       -0.65689   0.00005  -0.00385   0.00589   0.00203  -0.65486
   D30        1.42932   0.00008  -0.00438   0.00665   0.00232   1.43163
   D31        1.47320   0.00008  -0.00477   0.00394  -0.00087   1.47233
   D32       -2.72544  -0.00007  -0.00503   0.00432  -0.00079  -2.72623
   D33       -0.63923  -0.00004  -0.00557   0.00507  -0.00050  -0.63974
         Item               Value     Threshold  Converged?
 Maximum Force            0.003880     0.000450     NO 
 RMS     Force            0.000621     0.000300     NO 
 Maximum Displacement     0.068703     0.001800     NO 
 RMS     Displacement     0.021976     0.001200     NO 
 Predicted change in Energy=-7.313133D-05
 GradGradGradGradGradGradGradGradGradGradGradGradGradGradGradGradGradGrad

                          Input orientation:                          
 ---------------------------------------------------------------------
 Center     Atomic      Atomic             Coordinates (Angstroms)
 Number     Number       Type             X           Y           Z
 ---------------------------------------------------------------------
      1         14           0        0.508953   -0.099972   -0.047607
      2          8           0        1.004944   -1.059871   -1.362882
      3          1           0        0.284693   -1.661808   -1.543455
      4          8           0        1.975461    0.830031   -0.159283
      5          1           0        2.347602    0.708540   -1.026048
      6          8           0       -0.458632    1.299193   -0.250995
      7          8           0        0.840205   -0.538149    1.548691
      8          1           0        1.686154   -0.150157    1.761130
      9          8           0       -1.011392   -1.064982   -0.011649
     10          6           0       -2.078747   -0.280279    0.367584
     11          1           0       -3.034946   -0.712383    0.036716
     12          1           0       -2.129232   -0.166270    1.465573
     13          6           0       -1.833807    1.083882   -0.280897
     14          1           0       -2.196719    1.068211   -1.321688
     15          1           0       -2.359335    1.893296    0.243289
 ---------------------------------------------------------------------
                    Distance matrix (angstroms):
                    1          2          3          4          5
     1  Si   0.000000
     2  O    1.702164   0.000000
     3  H    2.174209   0.955874   0.000000
     4  O    1.740121   2.441779   3.314195   0.000000
     5  H    2.234204   2.245766   3.184627   0.951068   0.000000
     6  O    1.713257   2.990574   3.315194   2.480592   2.970611
     7  O    1.688163   2.962531   3.336550   2.465339   3.233536
     8  H    2.158668   3.324316   3.894799   2.175420   2.990524
     9  O    1.801107   2.427235   2.093434   3.540362   3.931568
    10  C    2.626992   3.620971   3.338643   4.236388   4.744738
    11  H    3.597413   4.289561   3.797149   5.246106   5.667478
    12  H    3.042060   4.315291   4.137380   4.525625   5.197644
    13  C    2.635234   3.718182   3.690651   3.819653   4.263837
    14  H    3.210700   3.844617   3.695888   4.337626   4.568109
    15  H    3.504970   4.755981   4.777248   4.481412   5.016983
                    6          7          8          9         10
     6  O    0.000000
     7  O    2.881262   0.000000
     8  H    3.278623   0.954619   0.000000
     9  O    2.439703   2.478028   3.355056   0.000000
    10  C    2.345665   3.159398   4.016638   1.377978   0.000000
    11  H    3.281251   4.163318   5.057517   2.054613   1.100228
    12  H    2.808041   2.993786   3.826850   2.058989   1.105047
[...]
 ! D33   D(12,10,13,15)        -35.3834         -DE/DX =    0.0                 !
 --------------------------------------------------------------------------------
 GradGradGradGradGradGradGradGradGradGradGradGradGradGradGradGradGradGrad


 ----------------------------------------------------------------------

 Electric dipole moment (input orientation):
 (Debye = 10**-18 statcoulomb cm , SI units = C m)
                  (au)            (Debye)         (10**-30 SI)
   Tot        0.881822D+00      0.224137D+01      0.747640D+01
   x         -0.831989D+00     -0.211471D+01     -0.705390D+01
   y          0.486741D-01      0.123717D+00      0.412676D+00
   z         -0.288157D+00     -0.732422D+00     -0.244310D+01

 Dipole polarizability, Alpha (input orientation).
 (esu units = cm**3 , SI units = C**2 m**2 J**-1)
 Alpha(0;0):
               (au)            (10**-24 esu)      (10**-40 SI)
   iso        0.678548D+02      0.100550D+02      0.111877D+02
   aniso      0.142619D+02      0.211340D+01      0.235147D+01
   xx         0.769785D+02      0.114070D+02      0.126920D+02
   yx        -0.161226D+01     -0.238912D+00     -0.265826D+00
   yy         0.624923D+02      0.926040D+01      0.103036D+02
   zx        -0.123272D+01     -0.182671D+00     -0.203249D+00
   zy         0.780824D+00      0.115706D+00      0.128740D+00
   zz         0.640937D+02      0.949771D+01      0.105676D+02

 ----------------------------------------------------------------------

 Dipole orientation:
    14          0.41976536          0.14740840         -0.86994541
     8          2.97774123          2.08129549         -1.09860857
     1          2.82586320          3.29538388          0.22932608
     8          1.59464241         -1.72765112         -3.30553380
     1          3.31351883         -1.27688227         -3.59739948
     8          0.30507029         -2.38448130          1.14271999
     8         -2.26583368          0.75900533         -2.48338779
     1         -2.10272328         -0.10281827         -4.06211923
     8         -0.64383717          2.08522275          1.71983036
     6         -1.96142981          0.65356553          3.45498590
     1         -2.00565942          1.57167960          5.31880440
     1         -3.93762849          0.35328977          2.85500775
     6         -0.58431567         -1.88980806          3.56838255
     1          1.00612620         -1.77291106          4.90807250
     1         -1.83317817         -3.41970018          4.20733116

 Electric dipole moment (dipole orientation):
 (Debye = 10**-18 statcoulomb cm , SI units = C m)
                  (au)            (Debye)         (10**-30 SI)
   Tot        0.881822D+00      0.224137D+01      0.747640D+01
   x          0.000000D+00      0.000000D+00      0.000000D+00
   y          0.000000D+00      0.000000D+00      0.000000D+00
   z          0.881822D+00      0.224137D+01      0.747640D+01

 Dipole polarizability, Alpha (dipole orientation).
 (esu units = cm**3 , SI units = C**2 m**2 J**-1)
 Alpha(0;0):
               (au)            (10**-24 esu)      (10**-40 SI)
   iso        0.678548D+02      0.100550D+02      0.111877D+02
   aniso      0.142619D+02      0.211340D+01      0.235147D+01
   xx         0.661525D+02      0.980279D+01      0.109071D+02
   yx         0.113816D+01      0.168658D+00      0.187657D+00
   yy         0.624739D+02      0.925767D+01      0.103005D+02
   zx        -0.498889D+01     -0.739278D+00     -0.822558D+00
   zy        -0.776626D+00     -0.115084D+00     -0.128048D+00
   zz         0.749381D+02      0.111047D+02      0.123556D+02

 ----------------------------------------------------------------------
 Unable to Open any file for archive entry.
 1\1\GINC-GRA98\Freq\RwB97XD\def2TZVPP\C2H7O5Si1(1-)\ARHENDER\18-Feb-20
 24\0\\#N Geom=AllCheck Guess=TCheck SCRF=Check GenChk RwB97XD/def2TZVP
 P Freq\\IRC for PbiL collapse to QbiL\\-1,1\Si,0.5043749791,-0.0945174
 011,-0.0634506768\O,1.0238094692,-1.0690836542,-1.3575249659\H,0.30914
 22692,-1.6744431327,-1.5467875504\O,1.9639345884,0.8487049034,-0.17410
 00192\H,2.3996120847,0.6378937423,-0.9949850669\O,-0.4678770256,1.2986
 300463,-0.2802658969\O,0.829557672,-0.5203271815,1.5385311814\H,1.6640
 799826,-0.1080423798,1.7552646242\O,-1.0140926937,-1.0640569192,-0.036
 8530422\C,-2.0801133404,-0.2848816765,0.3627565845\H,-3.0374395777,-0.
 7160892943,0.0357272429\H,-2.1184525752,-0.1849199471,1.4619390655\C,-
 1.8440943812,1.0898393055,-0.2701182938\H,-2.2384387268,1.1002883551,-
 1.299258762\H,-2.3487997247,1.8902872338,0.2876035755\\Version=ES64L-G
 16RevC.01\State=1-A\HF=-746.3578206\RMSD=4.598e-09\RMSF=1.253e-05\Zero
 Point=0.1106173\Thermal=0.1194527\ETot=-746.2383679\HTot=-746.2374237\
 GTot=-746.2804222\Dipole=-0.8319892,0.0486741,-0.288157\DipoleDeriv=2.
 9740954,0.0284941,-0.1361685,0.0618457,1.9417688,-0.031097,0.1068466,0
 .0874263,2.0402681,-0.8473752,0.1733437,0.1987453,0.1293833,-0.8704228
 ,-0.2550627,0.1816361,-0.3087234,-1.007198,0.2492926,-0.1187456,-0.083
 9111,-0.1149826,0.2298476,0.0183857,-0.0956823,0.0278577,0.3098654,-1.
 2167133,-0.2571716,0.0381033,-0.3093433,-0.8360664,0.1143042,-0.032135
 7,0.0713213,-0.6349453,0.2811254,0.0347091,0.0468243,0.0667853,0.28781
 41,-0.0359734,0.0714631,-0.0220198,0.1177971,-1.4519135,0.1768634,-0.0
 657875,0.1901612,-0.8911053,0.092351,-0.0363711,0.0827483,-0.5299108,-
 0.7589603,0.0826391,-0.0851826,0.1073173,-0.6578752,0.161464,-0.220733
 9,0.1614093,-1.1836538,0.1433526,-0.0510631,-0.0344673,-0.0599486,0.24
 15649,-0.0456048,-0.0358104,-0.0402591,0.3362563,-1.409745,0.1273213,0
 .2033586,0.0872478,-0.8926409,-0.0870242,0.1903035,-0.0756174,-0.64797
 62,0.7801157,-0.0611274,-0.098978,-0.2865235,0.3857088,0.1346625,-0.11
 32198,0.079267,0.4403451,-0.3311307,-0.0958274,-0.0356715,-0.1225977,-
 0.0337575,-0.0092182,-0.1131829,-0.0468414,-0.000579,-0.0257392,0.0113
 74,0.0241137,0.0388675,-0.0274079,-0.0404367,0.1303062,-0.0237819,-0.3
 202719,0.8662513,-0.1975367,0.072406,0.0633868,0.2906353,0.0664767,0.0
 361277,0.0856597,0.409953,-0.1216368,0.023529,-0.1009497,-0.0152486,-0
 .001237,-0.0050631,-0.1849524,0.0631028,-0.2768923,-0.1310189,0.123198
 ,0.057565,0.1636494,-0.1668265,-0.0781641,0.1154054,-0.1415495,-0.0530
 575\Polar=76.9784769,-1.612261,62.4922704,-1.2327227,0.780824,64.09372
 89\Quadrupole=0.2029319,-2.1433645,1.9404326,-1.0634059,0.888541,1.587
 3996\PG=C01 [X(C2H7O5Si1)]\NImag=0\\0.41706779,-0.03786775,0.38285482,
 0.00498015,0.02563334,0.46814221,-0.06190985,0.01306163,0.02382966,0.4
 0370611,0.02711057,-0.09299173,-0.06767632,0.23836920,0.33687342,0.038
 14934,-0.05755375,-0.12452453,0.01852352,0.16672444,0.18935261,0.00865
 083,0.00295493,0.00127817,-0.31146479,-0.25810777,-0.08327025,0.310363
 64,-0.01453215,-0.01301319,-0.00888382,-0.23561324,-0.22735868,-0.0790
 7650,0.25411590,0.24284341,-0.01662168,-0.01880329,-0.00548069,-0.0603
 8833,-0.06596829,-0.04343116,0.07883774,0.08540481,0.05084398,-0.09884
 804,-0.04611696,-0.00439273,-0.00474796,-0.01681823,-0.00740406,0.0021
 8501,-0.00224187,-0.00100136,0.28337887,-0.02964464,-0.06919422,-0.004
 75912,-0.02408817,-0.02455542,-0.01640494,0.00083321,-0.00236314,-0.00
 496639,0.02449882,0.12907255,0.01710095,0.00899290,-0.05492022,-0.0135
 3867,-0.02087892,-0.00258900,0.00134578,-0.00350686,-0.00112095,-0.232
 58569,0.11020164,0.47540773,-0.01113799,0.00372214,0.02310706,0.002060
 93,0.00315601,0.00006035,-0.00004905,0.00125295,-0.00017812,-0.1334997
 5,0.03683525,0.20427526,0.14592881,-0.01000232,0.00521782,0.01245704,0
 .00108417,-0.00154255,-0.00072861,0.00051827,-0.00010808,-0.00007562,0
 .05264658,-0.03520880,-0.11879090,-0.04250583,0.03686255,0.00152900,-0
 .00192033,-0.00326248,-0.00290424,-0.00356007,-0.00256951,-0.00049023,
 -0.00063827,-0.00078899,0.22725349,-0.10045342,-0.41269381,-0.22514454
 ,0.10454325,0.41972499,-0.07773493,0.05104649,-0.00954878,0.00219038,0
 .00787326,0.00161987,-0.00156307,0.00064423,0.00073259,-0.03932898,0.0
 1004502,-0.00065211,-0.00284618,0.00019001,-0.00189483,0.46246788,0.04
 560214,-0.11873186,0.01477908,0.00399208,-0.00304006,-0.00170318,-0.00
 021654,0.00049799,0.00119362,0.00079390,0.00435341,-0.00039298,-0.0001
 8467,-0.00056465,0.00039456,-0.02219923,0.25042837,-0.00727021,0.01452
 926,-0.04065717,0.00363553,-0.00609861,0.00329127,0.00058428,0.0006256
 6,-0.00044378,0.00058849,-0.00048240,0.00662773,-0.00132887,0.00006787
 ,-0.00039091,0.01297420,-0.03057517,0.07676415,-0.05305896,0.01059066,
 -0.04076263,0.00589478,0.00029332,0.00100998,-0.00125721,0.00069023,0.
 00132163,-0.00245258,-0.01364946,0.01962918,-0.00009961,-0.00250121,0.
 00077148,0.00037026,0.00534550,-0.00823173,0.48616322,0.00139557,-0.05
 249833,0.02925300,-0.00034186,0.00508758,-0.00615532,0.00054145,0.0002
 7790,0.00057569,-0.01350865,-0.00003730,0.02199078,-0.00165444,-0.0042
 5859,0.00219455,0.00908950,-0.00169107,0.00965104,0.21115145,0.1632552
 9,-0.01536376,0.04508253,-0.18370556,-0.00148131,-0.00154423,-0.010506
 79,0.00063193,0.00086144,-0.00051917,0.01597206,0.01679506,-0.02147156
 ,0.00070384,0.00437148,-0.00075608,-0.00683495,0.00453464,-0.00192323,
 0.14173811,-0.01222123,0.28297990,-0.00673167,-0.00439993,-0.00579549,
 -0.00007977,-0.00005807,0.00127698,-0.00019157,-0.00000865,-0.00002612
 ,-0.00495525,-0.00180169,0.00415216,-0.00038394,-0.00087204,0.00125297
 ,0.00066715,0.00008712,0.00085545,-0.41539371,-0.19301657,-0.12054569,
 0.42721848,0.00472128,0.00552305,0.00334846,-0.00001097,-0.00096779,0.
 00003142,-0.00011046,-0.00013386,-0.00001248,-0.00036025,-0.00408093,0
 .00139076,-0.00062972,0.00000455,-0.00064679,-0.00031807,-0.00126622,0
 .00089838,-0.20384453,-0.11142075,-0.05505668,0.20089065,0.11022968,-0
 .03023358,-0.01106985,-0.01177794,0.00173717,0.00140470,-0.00041479,-0
 .00018166,0.00020245,0.00042157,0.00076327,-0.00112572,0.00373827,0.00
 026488,-0.00093956,0.00078894,0.00211958,0.00040988,-0.00053514,-0.090
 98371,-0.03767411,-0.05502877,0.12129897,0.04968038,0.06636500,-0.0513
 3798,-0.00807209,-0.00027035,-0.03546021,0.00001922,0.02734269,-0.0046
 6101,-0.00436003,-0.00322322,-0.00155541,-0.00478376,0.00003005,0.0009
 5615,0.00123256,0.00020774,0.01137268,-0.02751301,0.00147191,-0.023464
 64,-0.01261174,-0.01724180,-0.00099508,0.00015850,-0.00463195,0.370050
 35,-0.00772823,-0.05946114,-0.00363868,0.00839465,0.00854780,-0.008131
 15,-0.00135135,0.00052186,0.00274051,-0.00244700,0.00240759,0.00056633
 ,-0.00041225,-0.00071572,-0.00009531,0.00414817,-0.03262942,0.00140544
 ,-0.00496322,0.00410986,-0.00104505,-0.00007784,0.00195292,-0.00029017
 ,-0.09735061,0.26135141,0.00160295,-0.00514823,-0.04212923,0.02682794,
 -0.00197724,-0.00741746,0.00118416,0.00400704,-0.00054017,0.00060313,0
 .00126508,0.00383257,-0.00093895,-0.00106971,0.00004149,0.00013321,0.0
 0900457,0.00974938,-0.02196198,-0.00743284,-0.00640280,-0.00244723,0.0
 0069886,-0.00311883,-0.07640110,0.05434165,0.12255854,-0.04149905,-0.0
 1395796,0.00822664,0.00332925,0.00064249,-0.00011113,-0.00320753,0.000
 58897,0.00219679,0.00059612,0.00223786,-0.00050768,-0.00021514,-0.0003
 7384,0.00001405,-0.03748310,-0.02280177,0.01770886,0.00338106,0.002269
 21,0.00345771,0.00116783,-0.00035823,0.00064220,-0.19421841,0.06830238
 ,0.03932980,0.58539116,0.01092741,0.02026791,0.00151886,-0.00675166,0.
 00032029,0.00450897,0.00114860,-0.00136412,-0.00097476,0.00033031,-0.0
 0178655,0.00005959,0.00029605,0.00034034,0.00005062,-0.01675099,-0.026
 35017,0.00348567,-0.00353847,-0.00290244,-0.00353036,-0.00082837,0.000
 10595,-0.00084027,0.09096934,-0.13984662,-0.03639234,0.04475174,0.4517
 8160,0.01265030,0.00723482,0.00357906,0.00153676,-0.00008434,0.0002378
 4,0.00048975,0.00061923,0.00023129,-0.00103016,-0.00019285,-0.00045517
 ,0.00013069,0.00005111,-0.00005559,0.00389423,-0.00181632,0.00511652,-
 0.00282450,-0.00247557,-0.00519404,-0.00056378,-0.00046767,-0.00078595
 ,0.03811311,-0.03455242,-0.08685677,0.01181835,0.02367901,0.54857762,0
 .00476251,0.00573307,-0.00085356,-0.00188882,0.00029301,0.00188693,0.0
 0027181,-0.00036963,-0.00064184,-0.00054985,-0.00048967,0.00007006,0.0
 0011444,0.00009879,0.00000213,0.00111040,-0.00164832,0.00080253,-0.001
 54086,-0.00045873,-0.00141747,-0.00002802,-0.00005663,-0.00034800,-0.0
 3934644,-0.00068989,0.00153419,-0.20797020,-0.08602823,-0.06398700,0.2
 4777386,0.00036522,-0.00524655,0.00042552,0.00053249,0.00031429,-0.000
 63857,0.00003903,0.00008493,0.00008765,-0.00050699,0.00041097,-0.00012
 038,0.00000116,-0.00004872,-0.00001973,-0.00397959,-0.00417824,0.00358
 367,0.00033419,0.00064988,0.00022427,0.00004959,0.00002900,0.00024044,
 0.02711972,0.01042278,0.00507975,-0.08794593,-0.09418124,-0.03244876,0
 .08915769,0.09626041,0.00073015,0.00007636,-0.00108077,0.00019436,-0.0
 0014441,-0.00030484,0.00018736,0.00000361,-0.00000778,0.00004015,-0.00
 014835,0.00014043,0.00001108,-0.00000442,0.00001472,0.00208487,0.00257
 838,0.00009698,-0.00004337,0.00024608,0.00074358,0.00009842,0.00004001
 ,0.00014178,0.01182563,0.00563708,0.00701702,-0.06828943,-0.03514802,-
 0.07810475,0.06773885,0.03541797,0.07793486,0.00216068,0.00307999,0.00
 381203,-0.00208965,-0.00003478,0.00043369,0.00054363,-0.00056167,-0.00
 064605,-0.00004700,-0.00019536,-0.00042735,0.00010522,0.00014113,-0.00
 000601,0.00143056,-0.00035188,-0.00076291,0.00038098,0.00003876,-0.000
 75549,0.00014675,-0.00009697,-0.00016324,-0.01097951,0.01192576,0.0343
 3777,-0.05100398,-0.00668325,-0.00893549,0.00019878,-0.00218555,-0.026
 55045,0.05740259,-0.00277803,-0.00304904,-0.00133560,0.00159113,0.0001
 3584,-0.00053314,-0.00046667,0.00041093,0.00055186,0.00002217,0.000289
 07,0.00016974,-0.00008130,-0.00011238,-0.00000165,-0.00021959,0.001959
 32,-0.00203562,0.00008119,0.00022521,0.00057816,0.00009710,-0.00005673
 ,0.00015930,0.01328224,-0.00346240,-0.02486324,-0.00578455,-0.05108736
 ,-0.01347323,-0.00259471,0.00033017,-0.01478752,-0.00533960,0.05778016
 ,-0.00496039,-0.00419968,-0.00293273,0.00192584,-0.00003227,-0.0005502
 6,-0.00060442,0.00057152,0.00063050,0.00044827,0.00029800,0.00038836,-
 0.00015056,-0.00014139,0.00000513,0.00104136,0.00073540,0.00171563,0.0
 0042186,0.00072989,0.00221257,0.00031371,0.00014881,0.00011802,0.01987
 375,-0.01197206,-0.00880879,-0.00720471,-0.00974928,-0.26916789,-0.002
 61327,-0.00006966,-0.01062613,-0.00502697,0.02063693,0.30141967,-0.032
 81526,0.03485316,-0.00495084,0.00074038,-0.00469441,-0.00057276,0.0006
 7138,0.00027787,-0.00030256,0.00350270,-0.00021523,0.00097044,-0.00073
 010,0.00031037,-0.00039712,-0.24574854,-0.00900447,-0.00346277,0.00164
 699,-0.00489415,0.00278127,-0.00059311,0.00007116,-0.00064052,-0.02391
 443,0.02253959,-0.00409358,-0.06412622,-0.02557238,0.00539679,-0.00321
 463,-0.02426879,0.01191262,0.00062708,0.00337989,-0.00368326,0.5108064
 1,0.01496240,0.00288206,-0.00117922,-0.00100869,-0.00090909,0.00029789
 ,0.00028111,-0.00037302,-0.00015446,0.00356874,0.00043887,0.00033994,0
 .00027316,0.00018357,0.00016717,-0.03354775,-0.08391711,0.00347879,-0.
 00050934,-0.00114396,0.00050534,-0.00015133,0.00014863,-0.00018181,0.0
 2010719,-0.04823736,0.00187994,-0.00723924,-0.14139971,0.04264110,-0.0
 0186874,-0.00534291,0.00622426,0.00009499,0.00000349,-0.00108195,-0.06
 895840,0.51531299,-0.00354160,-0.00116686,0.00000820,0.00039543,-0.000
 55354,-0.00147295,0.00012000,-0.00036477,0.00061564,0.00117723,-0.0001
 0158,0.00293990,-0.00078746,0.00027880,-0.00001345,0.00157488,-0.00174
 338,-0.07491395,0.00020018,0.00103551,-0.00041486,0.00005608,-0.000044
 71,0.00007747,0.00459356,-0.00929580,0.00908010,0.00147781,0.04519923,
 -0.10689629,-0.00399013,-0.01239149,0.00298960,0.00429598,0.03166525,-
 0.01559480,0.00948850,0.04053026,0.55973349,0.00177047,-0.00841948,-0.
 00237127,0.00013975,0.00062436,0.00076323,-0.00013730,0.00013945,-0.00
 010241,-0.00141083,0.00036542,0.00079865,-0.00028458,0.00005672,-0.000
 09844,-0.03770209,0.00129756,-0.03304846,-0.00053600,0.00148335,-0.000
 79821,0.00012099,-0.00004997,0.00013682,0.00147460,0.00071303,-0.00024
 922,0.00143907,-0.00099489,0.00634334,0.00083733,0.00029618,0.00035818
 ,0.00066969,-0.00148084,0.00075168,-0.06372859,0.00455369,-0.06273463,
 0.09098214,0.00075642,-0.00144764,0.00055701,-0.00009381,0.00025141,-0
 .00012740,0.00002838,-0.00005502,0.00007075,-0.00016191,0.00001890,0.0
 0002133,-0.00000676,0.00003774,-0.00001377,-0.00501210,0.00566161,-0.0
 0366321,0.00006702,0.00018969,-0.00021114,0.00003763,-0.00006132,0.000
 00965,-0.00063049,0.00155454,-0.00234971,0.00636800,0.00016062,0.03042
 013,0.00007046,0.00150801,-0.00049554,-0.00015579,-0.00478259,0.003066
 72,0.00308801,-0.05448164,-0.00110931,0.00158192,0.05103897,0.00260671
 ,-0.00402707,-0.00041769,-0.00035298,0.00062329,0.00073640,-0.00007215
 ,0.00003711,-0.00027951,-0.00087191,0.00007145,0.00010129,0.00002502,0
 .00000602,-0.00004784,-0.01257492,0.00022480,0.00951175,-0.00041657,0.
 00052239,-0.00021269,0.00009414,-0.00002997,0.00006718,-0.00074162,0.0
 0100799,0.00228653,-0.00178251,-0.00206560,-0.01633773,0.00117674,0.00
 064298,0.00094257,0.00075576,0.00362197,0.00001049,-0.06347230,0.00167
 254,-0.25731997,0.07932478,-0.00222157,0.27801349,0.00066146,-0.006207
 89,0.00371193,-0.00042053,0.00133182,0.00029163,-0.00015474,-0.0000223
 5,0.00004293,-0.00226705,0.00005238,-0.00066103,0.00008080,-0.00002335
 ,-0.00009545,-0.03720242,0.02680160,0.01548371,-0.00003371,0.00051686,
 -0.00084625,0.00003092,-0.00000578,0.00021976,0.00207933,-0.00100317,0
 .00053892,0.00441913,-0.00127519,-0.00303240,-0.00053032,0.00099161,-0
 .00029840,0.00045418,0.00029158,-0.00053288,-0.08312406,0.06944222,0.0
 4767416,0.00636535,-0.00593695,-0.00369819,0.10964166,-0.00328788,-0.0
 0111196,-0.00049956,0.00088306,-0.00016529,-0.00051017,-0.00020809,0.0
 0013211,0.00033039,0.00030135,0.00023501,-0.00004296,-0.00006173,-0.00
 008707,-0.00000078,-0.00100934,0.00946812,0.00512923,0.00045268,0.0001
 5704,0.00065577,0.00005242,-0.00000617,0.00001470,0.00243295,-0.006516
 09,0.00295641,0.01330089,-0.01405850,-0.01913426,-0.00114846,-0.001012
 77,0.00050451,0.00032424,0.00141631,0.00105903,0.07308778,-0.18316480,
 -0.09193758,-0.00016646,0.00040672,-0.00008634,-0.08495341,0.19430735,
 -0.00135834,0.00233985,-0.00084047,0.00005932,-0.00023419,0.00016317,-
 0.00004048,0.00013736,-0.00013077,0.00043984,0.00000354,0.00007442,-0.
 00004969,-0.00002535,0.00000339,0.00533080,0.00237608,0.00599077,0.000
 13208,-0.00023986,0.00019951,-0.00002057,0.00002122,-0.00005681,-0.000
 94838,0.00332163,0.00070844,-0.00697676,0.01019869,0.00611186,0.000639
 83,-0.00001364,0.00010273,-0.00036127,-0.00035321,0.00118025,0.0510260
 9,-0.09513980,-0.11881812,0.01092596,-0.02395394,-0.01705427,-0.058798
 44,0.10156161,0.12236590\\0.00002824,-0.00002580,-0.00000554,-0.000006
 88,0.00001251,-0.00001714,0.00000206,0.00000496,0.00000085,-0.00001668
 ,-0.00000030,0.00003250,0.00002086,-0.00000720,-0.00001712,-0.00000176
 ,0.00000251,0.00001521,-0.00001662,0.00001592,0.00000611,0.00000962,0.
 00000359,0.00000858,0.00000085,-0.00002176,-0.00001033,-0.00002890,0.0
 0001688,0.00000677,0.00000326,-0.00000059,-0.00000614,0.00000073,0.000
 00002,-0.00000771,0.00000177,-0.00000507,-0.00000529,0.00000337,0.0000
 0390,-0.00000157,0.00000008,0.00000043,0.00000082\\\@
 The archive entry for this job was punched.


 CONTRAIWISE...CONTINUED TWEEDLEDEE, IF IT WAS SO, IT MIGHT BE,
 AND IF IT WERE SO, IT WOULD BE.....
 BUT AS IT ISN'T, IT AIN'T....
 THAT'S LOGIC.....
 ALICE THROUGH THE LOOKING GLASS
 Job cpu time:       0 days  1 hours 50 minutes 37.3 seconds.
 Elapsed time:       0 days  0 hours 27 minutes 39.7 seconds.
 File lengths (MBytes):  RWF=    176 Int=      0 D2E=      0 Chk=     11 Scr=      1
 Normal termination of Gaussian 16 at Sun Feb 18 17:53:54 2024.
