 Entering Gaussian System, Link 0=/opt/software/gaussian/g16.c01/g16
 Initial command:
 /opt/software/gaussian/g16.c01/l1.exe "/scratch/arhender/17680927/Gau-254556.inp" -scrdir="/scratch/arhender/17680927/"
 Entering Link 1 = /opt/software/gaussian/g16.c01/l1.exe PID=    254557.
  
 Copyright (c) 1988-2019, Gaussian, Inc.  All Rights Reserved.
  
 This is part of the Gaussian(R) 16 program.  It is based on
 the Gaussian(R) 09 system (copyright 2009, Gaussian, Inc.),
 the Gaussian(R) 03 system (copyright 2003, Gaussian, Inc.),
 the Gaussian(R) 98 system (copyright 1998, Gaussian, Inc.),
 the Gaussian(R) 94 system (copyright 1995, Gaussian, Inc.),
 the Gaussian 92(TM) system (copyright 1992, Gaussian, Inc.),
 the Gaussian 90(TM) system (copyright 1990, Gaussian, Inc.),
 the Gaussian 88(TM) system (copyright 1988, Gaussian, Inc.),
 the Gaussian 86(TM) system (copyright 1986, Carnegie Mellon
 University), and the Gaussian 82(TM) system (copyright 1983,
 Carnegie Mellon University). Gaussian is a federally registered
 trademark of Gaussian, Inc.
  
 This software contains proprietary and confidential information,
 including trade secrets, belonging to Gaussian, Inc.
  
 This software is provided under written license and may be
 used, copied, transmitted, or stored only in accord with that
 written license.
  
 The following legend is applicable only to US Government
 contracts under FAR:
  
                    RESTRICTED RIGHTS LEGEND
  
 Use, reproduction and disclosure by the US Government is
 subject to restrictions as set forth in subparagraphs (a)
 and (c) of the Commercial Computer Software - Restricted
 Rights clause in FAR 52.227-19.
  
 Gaussian, Inc.
 340 Quinnipiac St., Bldg. 40, Wallingford CT 06492
  
  
 ---------------------------------------------------------------
 Warning -- This program may not be used in any manner that
 competes with the business of Gaussian, Inc. or will provide
 assistance to any competitor of Gaussian, Inc.  The licensee
 of this program is prohibited from giving any competitor of
 Gaussian, Inc. access to this program.  By using this program,
 the user acknowledges that Gaussian, Inc. is engaged in the
 business of creating and licensing software in the field of
 computational chemistry and represents and warrants to the
 licensee that it is not a competitor of Gaussian, Inc. and that
 it will not use this program in any manner prohibited above.
 ---------------------------------------------------------------
  

 Cite this work as:
 Gaussian 16, Revision C.01,
 M. J. Frisch, G. W. Trucks, H. B. Schlegel, G. E. Scuseria, 
 M. A. Robb, J. R. Cheeseman, G. Scalmani, V. Barone, 
 G. A. Petersson, H. Nakatsuji, X. Li, M. Caricato, A. V. Marenich, 
 J. Bloino, B. G. Janesko, R. Gomperts, B. Mennucci, H. P. Hratchian, 
 J. V. Ortiz, A. F. Izmaylov, J. L. Sonnenberg, D. Williams-Young, 
 F. Ding, F. Lipparini, F. Egidi, J. Goings, B. Peng, A. Petrone, 
 T. Henderson, D. Ranasinghe, V. G. Zakrzewski, J. Gao, N. Rega, 
 G. Zheng, W. Liang, M. Hada, M. Ehara, K. Toyota, R. Fukuda, 
 J. Hasegawa, M. Ishida, T. Nakajima, Y. Honda, O. Kitao, H. Nakai, 
 T. Vreven, K. Throssell, J. A. Montgomery, Jr., J. E. Peralta, 
 F. Ogliaro, M. J. Bearpark, J. J. Heyd, E. N. Brothers, K. N. Kudin, 
 V. N. Staroverov, T. A. Keith, R. Kobayashi, J. Normand, 
 K. Raghavachari, A. P. Rendell, J. C. Burant, S. S. Iyengar, 
 J. Tomasi, M. Cossi, J. M. Millam, M. Klene, C. Adamo, R. Cammi, 
 J. W. Ochterski, R. L. Martin, K. Morokuma, O. Farkas, 
 J. B. Foresman, and D. J. Fox, Gaussian, Inc., Wallingford CT, 2019.
 
 ******************************************
 Gaussian 16:  ES64L-G16RevC.01  3-Jul-2019
                10-Mar-2024 
 ******************************************
 %chk=QbiLmL_to_PbiL2_IRCreverse_ProductOpt.chk
 %mem=1600MB
 %nprocs=4
 Will use up to    4 processors via shared memory.
 ---------------------------------------------
 # opt freq wb97xd/def2tzvpp geom=connectivity
 ---------------------------------------------
 1/18=20,19=15,26=3,38=1,57=2/1,3;
 2/9=110,12=2,17=6,18=5,40=1/2;
 3/5=44,7=202,11=2,25=1,30=1,71=1,74=-58/1,2,3;
 4//1;
 5/5=2,38=5/2;
 6/7=2,8=2,9=2,10=2,28=1/1;
 7//1,2,3,16;
 1/18=20,19=15,26=3/3(2);
 2/9=110/2;
 99//99;
 2/9=110/2;
 3/5=44,7=202,11=2,25=1,30=1,71=1,74=-58/1,2,3;
 4/5=5,16=3,69=1/1;
 5/5=2,38=5/2;
 7//1,2,3,16;
 1/18=20,19=15,26=3/3(-5);
 2/9=110/2;
 6/7=2,8=2,9=2,10=2,19=2,28=1/1;
 99/9=1/99;
 ----------------------------------------------------------------------
 convert QmonoL to QbiL attacking OH deprotonated TS to QbiLmonoL to Qb
  iL2
 ----------------------------------------------------------------------
 Symbolic Z-matrix:
 Charge = -1 Multiplicity = 1
 Si                   -0.00113   0.30047  -0.08768 
 O                     0.84926  -0.15003   1.31452 
 O                    -0.12202   1.93154  -0.50358 
 H                    -0.90035   2.25722  -0.05255 
 O                     1.45705   0.12703  -1.04268 
 O                    -0.72963  -0.975    -0.95373 
 C                    -1.96208  -1.396    -0.45818 
 H                    -1.82325  -2.19542   0.28458 
 H                    -2.58308  -1.79129  -1.27047 
 C                    -2.58605  -0.18017   0.21596 
 H                    -3.06366   0.45653  -0.55539 
 H                    -3.37084  -0.4698    0.93227 
 O                    -1.54202   0.46812   0.84905 
 C                     2.58616  -0.0235   -0.26519 
 H                     3.33363  -0.65489  -0.76745 
 H                     3.06672   0.94926  -0.05351 
 C                     2.12209  -0.66038   1.04771 
 H                     2.07436  -1.75435   0.93586 
 H                     2.80135  -0.43571   1.87928 
 

 GradGradGradGradGradGradGradGradGradGradGradGradGradGradGradGradGradGrad
 Berny optimization.
 Initialization pass.
                           ----------------------------
                           !    Initial Parameters    !
                           ! (Angstroms and Degrees)  !
 --------------------------                            --------------------------
 ! Name  Definition              Value          Derivative Info.                !
 --------------------------------------------------------------------------------
 ! R1    R(1,2)                  1.7007         estimate D2E/DX2                !
 ! R2    R(1,3)                  1.6876         estimate D2E/DX2                !
 ! R3    R(1,5)                  1.7517         estimate D2E/DX2                !
 ! R4    R(1,6)                  1.7052         estimate D2E/DX2                !
 ! R5    R(1,13)                 1.811          estimate D2E/DX2                !
 ! R6    R(2,17)                 1.3971         estimate D2E/DX2                !
 ! R7    R(3,4)                  0.9567         estimate D2E/DX2                !
 ! R8    R(5,14)                 1.3791         estimate D2E/DX2                !
 ! R9    R(6,7)                  1.3935         estimate D2E/DX2                !
 ! R10   R(7,8)                  1.1            estimate D2E/DX2                !
 ! R11   R(7,9)                  1.0962         estimate D2E/DX2                !
 ! R12   R(7,10)                 1.5238         estimate D2E/DX2                !
 ! R13   R(10,11)                1.1084         estimate D2E/DX2                !
 ! R14   R(10,12)                1.1013         estimate D2E/DX2                !
 ! R15   R(10,13)                1.3824         estimate D2E/DX2                !
 ! R16   R(14,15)                1.0998         estimate D2E/DX2                !
 ! R17   R(14,16)                1.1054         estimate D2E/DX2                !
 ! R18   R(14,17)                1.5312         estimate D2E/DX2                !
 ! R19   R(17,18)                1.1007         estimate D2E/DX2                !
 ! R20   R(17,19)                1.097          estimate D2E/DX2                !
 ! A1    A(2,1,3)              119.6721         estimate D2E/DX2                !
 ! A2    A(2,1,5)               90.4026         estimate D2E/DX2                !
 ! A3    A(2,1,6)              115.7376         estimate D2E/DX2                !
 ! A4    A(2,1,13)              91.3472         estimate D2E/DX2                !
 ! A5    A(3,1,5)               91.2014         estimate D2E/DX2                !
 ! A6    A(3,1,6)              124.5536         estimate D2E/DX2                !
 ! A7    A(3,1,13)              88.6849         estimate D2E/DX2                !
 ! A8    A(5,1,6)               90.2683         estimate D2E/DX2                !
 ! A9    A(6,1,13)              88.1919         estimate D2E/DX2                !
 ! A10   A(1,2,17)             113.2586         estimate D2E/DX2                !
 ! A11   A(1,3,4)              105.7301         estimate D2E/DX2                !
 ! A12   A(1,5,14)             112.6426         estimate D2E/DX2                !
 ! A13   A(1,6,7)              115.0385         estimate D2E/DX2                !
 ! A14   A(6,7,8)              110.3691         estimate D2E/DX2                !
 ! A15   A(6,7,9)              110.2707         estimate D2E/DX2                !
 ! A16   A(6,7,10)             106.1672         estimate D2E/DX2                !
 ! A17   A(8,7,9)              108.0448         estimate D2E/DX2                !
 ! A18   A(8,7,10)             109.4395         estimate D2E/DX2                !
 ! A19   A(9,7,10)             112.5544         estimate D2E/DX2                !
 ! A20   A(7,10,11)            109.0815         estimate D2E/DX2                !
 ! A21   A(7,10,12)            111.6978         estimate D2E/DX2                !
 ! A22   A(7,10,13)            105.5166         estimate D2E/DX2                !
 ! A23   A(11,10,12)           107.2569         estimate D2E/DX2                !
 ! A24   A(11,10,13)           112.0084         estimate D2E/DX2                !
 ! A25   A(12,10,13)           111.3234         estimate D2E/DX2                !
 ! A26   A(1,13,10)            111.2403         estimate D2E/DX2                !
 ! A27   A(5,14,15)            111.1998         estimate D2E/DX2                !
 ! A28   A(5,14,16)            111.5805         estimate D2E/DX2                !
 ! A29   A(5,14,17)            106.2984         estimate D2E/DX2                !
 ! A30   A(15,14,16)           107.2879         estimate D2E/DX2                !
 ! A31   A(15,14,17)           111.0236         estimate D2E/DX2                !
 ! A32   A(16,14,17)           109.4857         estimate D2E/DX2                !
 ! A33   A(2,17,14)            106.7342         estimate D2E/DX2                !
 ! A34   A(2,17,18)            110.0571         estimate D2E/DX2                !
 ! A35   A(2,17,19)            110.1548         estimate D2E/DX2                !
 ! A36   A(14,17,18)           109.8402         estimate D2E/DX2                !
 ! A37   A(14,17,19)           112.1554         estimate D2E/DX2                !
 ! A38   A(18,17,19)           107.9047         estimate D2E/DX2                !
 ! A39   L(5,1,13,2,-1)        181.7498         estimate D2E/DX2                !
 ! A40   L(5,1,13,2,-2)        180.8661         estimate D2E/DX2                !
 ! D1    D(3,1,2,17)          -102.7215         estimate D2E/DX2                !
 ! D2    D(5,1,2,17)           -11.1092         estimate D2E/DX2                !
 ! D3    D(6,1,2,17)            79.3827         estimate D2E/DX2                !
 ! D4    D(13,1,2,17)          168.0247         estimate D2E/DX2                !
 ! D5    D(2,1,3,4)            -88.2236         estimate D2E/DX2                !
 ! D6    D(5,1,3,4)           -179.3717         estimate D2E/DX2                !
 ! D7    D(6,1,3,4)             89.475          estimate D2E/DX2                !
 ! D8    D(13,1,3,4)             2.5778         estimate D2E/DX2                !
 ! D9    D(2,1,5,14)           -11.0445         estimate D2E/DX2                !
 ! D10   D(3,1,5,14)           108.6453         estimate D2E/DX2                !
 ! D11   D(6,1,5,14)          -126.7851         estimate D2E/DX2                !
 ! D12   D(2,1,6,7)             81.9159         estimate D2E/DX2                !
 ! D13   D(3,1,6,7)            -95.8643         estimate D2E/DX2                !
 ! D14   D(5,1,6,7)            172.4921         estimate D2E/DX2                !
 ! D15   D(13,1,6,7)            -8.7084         estimate D2E/DX2                !
 ! D16   D(2,1,13,10)         -131.9154         estimate D2E/DX2                !
 ! D17   D(3,1,13,10)          108.4305         estimate D2E/DX2                !
 ! D18   D(6,1,13,10)          -16.2037         estimate D2E/DX2                !
 ! D19   D(1,2,17,14)           27.6618         estimate D2E/DX2                !
 ! D20   D(1,2,17,18)          -91.4859         estimate D2E/DX2                !
 ! D21   D(1,2,17,19)          149.6563         estimate D2E/DX2                !
 ! D22   D(1,5,14,15)          148.3315         estimate D2E/DX2                !
 ! D23   D(1,5,14,16)          -91.9204         estimate D2E/DX2                !
 ! D24   D(1,5,14,17)           27.3798         estimate D2E/DX2                !
 ! D25   D(1,6,7,8)            -89.9617         estimate D2E/DX2                !
 ! D26   D(1,6,7,9)            150.7395         estimate D2E/DX2                !
 ! D27   D(1,6,7,10)            28.5453         estimate D2E/DX2                !
 ! D28   D(6,7,10,11)           81.7046         estimate D2E/DX2                !
 ! D29   D(6,7,10,12)         -159.9045         estimate D2E/DX2                !
 ! D30   D(6,7,10,13)          -38.7975         estimate D2E/DX2                !
 ! D31   D(8,7,10,11)         -159.1765         estimate D2E/DX2                !
 ! D32   D(8,7,10,12)          -40.7857         estimate D2E/DX2                !
 ! D33   D(8,7,10,13)           80.3214         estimate D2E/DX2                !
 ! D34   D(9,7,10,11)          -39.026          estimate D2E/DX2                !
 ! D35   D(9,7,10,12)           79.3649         estimate D2E/DX2                !
 ! D36   D(9,7,10,13)         -159.5281         estimate D2E/DX2                !
 ! D37   D(7,10,13,1)           33.6056         estimate D2E/DX2                !
 ! D38   D(11,10,13,1)         -84.9601         estimate D2E/DX2                !
 ! D39   D(12,10,13,1)         154.956          estimate D2E/DX2                !
 ! D40   D(5,14,17,2)          -34.3441         estimate D2E/DX2                !
 ! D41   D(5,14,17,18)          84.9444         estimate D2E/DX2                !
 ! D42   D(5,14,17,19)        -155.0682         estimate D2E/DX2                !
 ! D43   D(15,14,17,2)        -155.4089         estimate D2E/DX2                !
 ! D44   D(15,14,17,18)        -36.1204         estimate D2E/DX2                !
 ! D45   D(15,14,17,19)         83.867          estimate D2E/DX2                !
 ! D46   D(16,14,17,2)          86.3163         estimate D2E/DX2                !
 ! D47   D(16,14,17,18)       -154.3952         estimate D2E/DX2                !
 ! D48   D(16,14,17,19)        -34.4078         estimate D2E/DX2                !
 --------------------------------------------------------------------------------
 Trust Radius=3.00D-01 FncErr=1.00D-07 GrdErr=1.00D-06 EigMax=2.50D+02 EigMin=1.00D-04
 Number of steps in this run=    114 maximum allowed number of steps=    114.
 GradGradGradGradGradGradGradGradGradGradGradGradGradGradGradGradGradGrad

                          Input orientation:                          
 ---------------------------------------------------------------------
 Center     Atomic      Atomic             Coordinates (Angstroms)
 Number     Number       Type             X           Y           Z
 ---------------------------------------------------------------------
      1         14           0       -0.001134    0.300466   -0.087677
      2          8           0        0.849260   -0.150032    1.314515
      3          8           0       -0.122024    1.931543   -0.503578
      4          1           0       -0.900350    2.257217   -0.052554
      5          8           0        1.457054    0.127030   -1.042681
      6          8           0       -0.729628   -0.975003   -0.953730
      7          6           0       -1.962078   -1.395995   -0.458177
      8          1           0       -1.823251   -2.195422    0.284575
      9          1           0       -2.583077   -1.791294   -1.270472
     10          6           0       -2.586054   -0.180174    0.215960
     11          1           0       -3.063656    0.456534   -0.555389
     12          1           0       -3.370842   -0.469799    0.932268
     13          8           0       -1.542019    0.468118    0.849051
     14          6           0        2.586163   -0.023503   -0.265189
     15          1           0        3.333633   -0.654894   -0.767449
     16          1           0        3.066724    0.949259   -0.053513
     17          6           0        2.122095   -0.660379    1.047707
     18          1           0        2.074355   -1.754346    0.935861
     19          1           0        2.801353   -0.435710    1.879283
 ---------------------------------------------------------------------
                    Distance matrix (angstroms):
                    1          2          3          4          5
     1  Si   0.000000
     2  O    1.700665   0.000000
     3  O    1.687602   2.929473   0.000000
     4  H    2.153764   3.274883   0.956701   0.000000
     5  O    1.751692   2.450010   2.457720   3.327973   0.000000
     6  O    1.705161   2.884164   3.003303   3.359838   2.450299
     7  C    2.619265   3.549434   3.802679   3.825932   3.788366
     8  H    3.112578   3.519476   4.532902   4.559758   4.232705
     9  H    3.527165   4.599656   4.528181   4.550312   4.478227
    10  C    2.646700   3.606815   3.323933   2.975663   4.245618
    11  H    3.101959   4.378970   3.291130   2.859230   4.558821
    12  H    3.603960   4.249426   4.287530   3.809176   5.250258
    13  O    1.811048   2.513361   2.446958   2.103689   3.562223
    14  C    2.613536   2.351235   3.348628   4.171651   1.379145
    15  H    3.534894   3.280483   4.324448   5.188263   2.051513
    16  H    3.135897   2.827912   3.366831   4.177132   2.060474
    17  C    2.592378   1.397050   3.763059   4.342593   2.330668
    18  H    3.094760   2.053792   4.525687   5.091019   2.799154
    19  H    3.502117   2.052131   4.452869   4.968547   3.265224
                    6          7          8          9         10
     6  O    0.000000
     7  C    1.393463   0.000000
     8  H    2.053980   1.100017   0.000000
     9  H    2.049861   1.096232   1.777309   0.000000
    10  C    2.333719   1.523820   2.155876   2.192076   0.000000
    11  H    2.766886   2.157496   3.045819   2.407287   1.108368
    12  H    3.284544   2.185359   2.406724   2.686817   1.101305
    13  O    2.447978   2.315213   2.737183   3.268199   1.382424
    14  C    3.517657   4.754732   4.945948   5.554883   5.196911
    15  H    4.080105   5.356252   5.483925   6.045816   6.019564
    16  H    4.350341   5.563526   5.823674   6.396239   5.770800
    17  C    3.498151   4.414667   4.301684   5.365777   4.805108
    18  H    3.469906   4.285388   3.976186   5.153731   4.971487
    19  H    4.559016   5.392230   5.198715   6.383624   5.644121
                   11         12         13         14         15
    11  H    0.000000
    12  H    1.779208   0.000000
    13  O    2.070740   2.056990   0.000000
    14  C    5.677597   6.092536   4.304080   0.000000
    15  H    6.496580   6.919052   5.257966   1.099832   0.000000
    16  H    6.170593   6.665414   4.720872   1.105446   1.776021
    17  C    5.541609   5.497454   3.839102   1.531230   2.182349
    18  H    5.788866   5.594662   4.245591   2.168014   2.386596
    19  H    6.412648   6.244517   4.554466   2.194307   2.708607
                   16         17         18         19
    16  H    0.000000
    17  C    2.167013   0.000000
    18  H    3.045183   1.100705   0.000000
    19  H    2.392543   1.096990   1.776900   0.000000
 Stoichiometry    C4H9O5Si(1-)
 Framework group  C1[X(C4H9O5Si)]
 Deg. of freedom    51
 Full point group                 C1      NOp   1
 Largest Abelian subgroup         C1      NOp   1
 Largest concise Abelian subgroup C1      NOp   1
                         Standard orientation:                         
 ---------------------------------------------------------------------
 Center     Atomic      Atomic             Coordinates (Angstroms)
 Number     Number       Type             X           Y           Z
 ---------------------------------------------------------------------
      1         14           0        0.018461    0.329738   -0.054637
      2          8           0        0.904827   -0.346876    1.229422
      3          8           0       -0.011802    2.004822   -0.257559
      4          1           0       -0.742848    2.317383    0.274565
      5          8           0        1.412286    0.190502   -1.106442
      6          8           0       -0.837114   -0.778048   -1.028482
      7          6           0       -2.069203   -1.182556   -0.518510
      8          1           0       -1.948326   -2.077069    0.110197
      9          1           0       -2.755183   -1.432427   -1.336263
     10          6           0       -2.574880   -0.026643    0.335999
     11          1           0       -3.045808    0.731149   -0.321616
     12          1           0       -3.341009   -0.356606    1.055055
     13          8           0       -1.459067    0.470634    0.983125
     14          6           0        2.565753   -0.126628   -0.420160
     15          1           0        3.242733   -0.733423   -1.039134
     16          1           0        3.121222    0.780013   -0.117723
     17          6           0        2.125222   -0.895972    0.828322
     18          1           0        1.997757   -1.961793    0.584745
     19          1           0        2.858616   -0.821037    1.640667
 ---------------------------------------------------------------------
 Rotational constants (GHZ):           2.2237447           0.9733943           0.9229941
 Standard basis: def2TZVPP (5D, 7F)
 There are   507 symmetry adapted cartesian basis functions of A   symmetry.
 There are   447 symmetry adapted basis functions of A   symmetry.
   447 basis functions,   681 primitive gaussians,   507 cartesian basis functions
    44 alpha electrons       44 beta electrons
       nuclear repulsion energy       742.1528044447 Hartrees.
 NAtoms=   19 NActive=   19 NUniq=   19 SFac= 1.00D+00 NAtFMM=   60 NAOKFM=F Big=F
 Integral buffers will be    131072 words long.
 Raffenetti 2 integral format.
 Two-electron integral symmetry is turned on.
 Nuclear repulsion after empirical dispersion term =      742.1431486468 Hartrees.
 One-electron integrals computed using PRISM.
   1 Symmetry operations used in ECPInt.
 ECPInt:  NShTT=   14028 NPrTT=   39320 LenC2=   13411 LenP2D=   29460.
 LDataN:  DoStor=T MaxTD1= 6 Len=  172
 NBasis=   447 RedAO= T EigKep=  3.04D-04  NBF=   447
 NBsUse=   447 1.00D-06 EigRej= -1.00D+00 NBFU=   447
 ExpMin= 7.01D-02 ExpMax= 4.48D+04 ExpMxC= 1.53D+03 IAcc=3 IRadAn=         5 AccDes= 0.00D+00
 Harris functional with IExCor= 4639 and IRadAn=       5 diagonalized for initial guess.
 HarFok:  IExCor= 4639 AccDes= 0.00D+00 IRadAn=         5 IDoV= 1 UseB2=F ITyADJ=14
 ICtDFT=  3500011 ScaDFX=  1.000000  1.000000  1.000000  1.000000
 FoFCou: FMM=F IPFlag=           0 FMFlag=      100000 FMFlg1=           0
         NFxFlg=           0 DoJE=T BraDBF=F KetDBF=T FulRan=T
         wScrn=  0.000000 ICntrl=       500 IOpCl=  0 I1Cent=   200000004 NGrid=           0
         NMat0=    1 NMatS0=      1 NMatT0=    0 NMatD0=    1 NMtDS0=    0 NMtDT0=    0
 Petite list used in FoFCou.
 Requested convergence on RMS density matrix=1.00D-08 within 128 cycles.
 Requested convergence on MAX density matrix=1.00D-06.
 Requested convergence on             energy=1.00D-06.
 No special actions if energy rises.
 Integral accuracy reduced to 1.0D-05 until final iterations.
 Initial convergence to 1.0D-05 achieved.  Increase integral accuracy.
 SCF Done:  E(RwB97XD) =  -823.749341993     A.U. after   14 cycles
            NFock= 14  Conv=0.78D-08     -V/T= 2.0035

 **********************************************************************

            Population analysis using the SCF Density.

 **********************************************************************

 Orbital symmetries:
       Occupied  (A) (A) (A) (A) (A) (A) (A) (A) (A) (A) (A) (A)
                 (A) (A) (A) (A) (A) (A) (A) (A) (A) (A) (A) (A)
                 (A) (A) (A) (A) (A) (A) (A) (A) (A) (A) (A) (A)
                 (A) (A) (A) (A) (A) (A) (A) (A)
       Virtual   (A) (A) (A) (A) (A) (A) (A) (A) (A) (A) (A) (A)
                 (A) (A) (A) (A) (A) (A) (A) (A) (A) (A) (A) (A)
                 (A) (A) (A) (A) (A) (A) (A) (A) (A) (A) (A) (A)
                 (A) (A) (A) (A) (A) (A) (A) (A) (A) (A) (A) (A)
                 (A) (A) (A) (A) (A) (A) (A) (A) (A) (A) (A) (A)
                 (A) (A) (A) (A) (A) (A) (A) (A) (A) (A) (A) (A)
                 (A) (A) (A) (A) (A) (A) (A) (A) (A) (A) (A) (A)
                 (A) (A) (A) (A) (A) (A) (A) (A) (A) (A) (A) (A)
                 (A) (A) (A) (A) (A) (A) (A) (A) (A) (A) (A) (A)
                 (A) (A) (A) (A) (A) (A) (A) (A) (A) (A) (A) (A)
                 (A) (A) (A) (A) (A) (A) (A) (A) (A) (A) (A) (A)
                 (A) (A) (A) (A) (A) (A) (A) (A) (A) (A) (A) (A)
                 (A) (A) (A) (A) (A) (A) (A) (A) (A) (A) (A) (A)
                 (A) (A) (A) (A) (A) (A) (A) (A) (A) (A) (A) (A)
                 (A) (A) (A) (A) (A) (A) (A) (A) (A) (A) (A) (A)
                 (A) (A) (A) (A) (A) (A) (A) (A) (A) (A) (A) (A)
                 (A) (A) (A) (A) (A) (A) (A) (A) (A) (A) (A) (A)
                 (A) (A) (A) (A) (A) (A) (A) (A) (A) (A) (A) (A)
                 (A) (A) (A) (A) (A) (A) (A) (A) (A) (A) (A) (A)
                 (A) (A) (A) (A) (A) (A) (A) (A) (A) (A) (A) (A)
                 (A) (A) (A) (A) (A) (A) (A) (A) (A) (A) (A) (A)
                 (A) (A) (A) (A) (A) (A) (A) (A) (A) (A) (A) (A)
                 (A) (A) (A) (A) (A) (A) (A) (A) (A) (A) (A) (A)
                 (A) (A) (A) (A) (A) (A) (A) (A) (A) (A) (A) (A)
                 (A) (A) (A) (A) (A) (A) (A) (A) (A) (A) (A) (A)
                 (A) (A) (A) (A) (A) (A) (A) (A) (A) (A) (A) (A)
                 (A) (A) (A) (A) (A) (A) (A) (A) (A) (A) (A) (A)
                 (A) (A) (A) (A) (A) (A) (A) (A) (A) (A) (A) (A)
                 (A) (A) (A) (A) (A) (A) (A) (A) (A) (A) (A) (A)
                 (A) (A) (A) (A) (A) (A) (A) (A) (A) (A) (A) (A)
                 (A) (A) (A) (A) (A) (A) (A) (A) (A) (A) (A) (A)
                 (A) (A) (A) (A) (A) (A) (A) (A) (A) (A) (A) (A)
                 (A) (A) (A) (A) (A) (A) (A) (A) (A) (A) (A) (A)
                 (A) (A) (A) (A) (A) (A) (A)
 The electronic state is 1-A.
 Alpha  occ. eigenvalues --  -66.12116 -19.06185 -19.06163 -19.05022 -19.04070
 Alpha  occ. eigenvalues --  -19.03505 -10.17204 -10.17153 -10.17039 -10.16610
 Alpha  occ. eigenvalues --   -5.23229  -3.57886  -3.57721  -3.57658  -0.97355
 Alpha  occ. eigenvalues --   -0.94913  -0.91061  -0.90230  -0.88518  -0.66836
 Alpha  occ. eigenvalues --   -0.64883  -0.54851  -0.52717  -0.46362  -0.42768
 Alpha  occ. eigenvalues --   -0.42244  -0.41104  -0.40444  -0.38758  -0.36539
 Alpha  occ. eigenvalues --   -0.34526  -0.33554  -0.32668  -0.30621  -0.27489
 Alpha  occ. eigenvalues --   -0.24281  -0.23987  -0.22549  -0.22167  -0.20659
 Alpha  occ. eigenvalues --   -0.19773  -0.18644  -0.16705  -0.16108
 Alpha virt. eigenvalues --    0.25281   0.26046   0.27019   0.28599   0.29835
 Alpha virt. eigenvalues --    0.30101   0.30369   0.33142   0.33810   0.34473
 Alpha virt. eigenvalues --    0.35070   0.35866   0.38434   0.40017   0.41163
 Alpha virt. eigenvalues --    0.41231   0.41499   0.42108   0.43376   0.45902
 Alpha virt. eigenvalues --    0.46371   0.49433   0.50776   0.51708   0.52159
 Alpha virt. eigenvalues --    0.53199   0.54200   0.54506   0.57003   0.57159
 Alpha virt. eigenvalues --    0.57707   0.59813   0.60590   0.61392   0.61773
 Alpha virt. eigenvalues --    0.62323   0.62783   0.63945   0.64078   0.64528
 Alpha virt. eigenvalues --    0.65850   0.66361   0.67648   0.68210   0.69435
 Alpha virt. eigenvalues --    0.70565   0.72517   0.73116   0.74184   0.74973
 Alpha virt. eigenvalues --    0.76251   0.77097   0.79138   0.80395   0.80623
 Alpha virt. eigenvalues --    0.84989   0.86639   0.87050   0.89281   0.92037
 Alpha virt. eigenvalues --    0.92474   0.93346   0.94848   0.96400   0.97980
 Alpha virt. eigenvalues --    0.99105   1.00516   1.00937   1.01687   1.02671
 Alpha virt. eigenvalues --    1.03140   1.04060   1.04652   1.05874   1.07102
 Alpha virt. eigenvalues --    1.08338   1.08669   1.10070   1.12513   1.15575
 Alpha virt. eigenvalues --    1.18296   1.19073   1.20209   1.21521   1.22630
 Alpha virt. eigenvalues --    1.22936   1.23722   1.24582   1.25016   1.27543
 Alpha virt. eigenvalues --    1.27844   1.29912   1.31621   1.32922   1.34346
 Alpha virt. eigenvalues --    1.34705   1.36484   1.38510   1.39317   1.39802
 Alpha virt. eigenvalues --    1.40331   1.41633   1.42448   1.44799   1.45422
 Alpha virt. eigenvalues --    1.46549   1.48143   1.49763   1.50954   1.52977
 Alpha virt. eigenvalues --    1.54600   1.55038   1.56728   1.56923   1.59762
 Alpha virt. eigenvalues --    1.59992   1.60749   1.64729   1.65153   1.65909
 Alpha virt. eigenvalues --    1.67008   1.67648   1.68295   1.72730   1.74530
 Alpha virt. eigenvalues --    1.76069   1.78103   1.78288   1.79490   1.81639
 Alpha virt. eigenvalues --    1.82318   1.84210   1.84884   1.90920   1.91442
 Alpha virt. eigenvalues --    1.97796   1.99428   2.01302   2.03209   2.06693
 Alpha virt. eigenvalues --    2.09332   2.09747   2.10334   2.10619   2.17485
 Alpha virt. eigenvalues --    2.18880   2.20075   2.22281   2.24537   2.25535
 Alpha virt. eigenvalues --    2.27123   2.28172   2.28850   2.30597   2.31967
 Alpha virt. eigenvalues --    2.32488   2.33748   2.36097   2.37557   2.43471
 Alpha virt. eigenvalues --    2.46560   2.48754   2.50836   2.52268   2.54109
 Alpha virt. eigenvalues --    2.55458   2.57981   2.58660   2.63741   2.66046
 Alpha virt. eigenvalues --    2.68287   2.69960   2.70665   2.71863   2.79869
 Alpha virt. eigenvalues --    2.82136   2.83797   2.84904   2.85892   2.86658
 Alpha virt. eigenvalues --    2.88073   2.88431   2.89914   2.98289   2.99565
 Alpha virt. eigenvalues --    3.01037   3.02028   3.02388   3.04172   3.05522
 Alpha virt. eigenvalues --    3.06774   3.09213   3.09668   3.11672   3.12310
 Alpha virt. eigenvalues --    3.17577   3.19402   3.19799   3.21076   3.22377
 Alpha virt. eigenvalues --    3.22988   3.24620   3.24815   3.26403   3.30494
 Alpha virt. eigenvalues --    3.31183   3.32648   3.34259   3.36234   3.36974
 Alpha virt. eigenvalues --    3.38064   3.38929   3.39344   3.40863   3.42510
 Alpha virt. eigenvalues --    3.43086   3.44844   3.46023   3.47022   3.48544
 Alpha virt. eigenvalues --    3.53390   3.54374   3.56782   3.58176   3.58439
 Alpha virt. eigenvalues --    3.60744   3.61452   3.64407   3.66347   3.67165
 Alpha virt. eigenvalues --    3.68258   3.72325   3.73508   3.76816   3.77846
 Alpha virt. eigenvalues --    3.79662   3.80637   3.82607   3.84051   3.86997
 Alpha virt. eigenvalues --    3.87881   3.88991   3.89379   3.90491   3.92932
 Alpha virt. eigenvalues --    3.93486   3.95587   3.96863   3.98370   3.98604
 Alpha virt. eigenvalues --    3.99300   4.00551   4.01963   4.06001   4.06488
 Alpha virt. eigenvalues --    4.09524   4.10230   4.15760   4.17211   4.18295
 Alpha virt. eigenvalues --    4.20441   4.22300   4.22557   4.26713   4.27596
 Alpha virt. eigenvalues --    4.28380   4.31243   4.33877   4.35583   4.36068
 Alpha virt. eigenvalues --    4.37197   4.38691   4.39680   4.42774   4.42837
 Alpha virt. eigenvalues --    4.43963   4.47702   4.48741   4.49707   4.50570
 Alpha virt. eigenvalues --    4.55553   4.57358   4.58849   4.59313   4.60994
 Alpha virt. eigenvalues --    4.72026   4.72730   4.77128   4.78701   4.80353
 Alpha virt. eigenvalues --    4.81582   4.82266   4.84169   4.89039   4.90398
 Alpha virt. eigenvalues --    4.91857   4.96214   4.96884   5.00623   5.01098
 Alpha virt. eigenvalues --    5.02935   5.03965   5.04451   5.05390   5.09613
 Alpha virt. eigenvalues --    5.11702   5.13306   5.15445   5.17389   5.20250
 Alpha virt. eigenvalues --    5.21771   5.26853   5.28910   5.30985   5.31829
 Alpha virt. eigenvalues --    5.35593   5.36984   5.37675   5.37918   5.42642
 Alpha virt. eigenvalues --    5.47570   5.49369   5.50068   5.52498   5.54197
 Alpha virt. eigenvalues --    5.56971   5.59158   5.61577   5.65109   5.66953
 Alpha virt. eigenvalues --    5.69191   5.70319   5.72339   5.72852   5.73196
 Alpha virt. eigenvalues --    5.74736   5.75576   5.78242   5.81318   5.83078
 Alpha virt. eigenvalues --    5.85243   5.86442   5.87269   5.88388   5.90676
 Alpha virt. eigenvalues --    5.93076   5.95948   5.97285   6.01208   6.20566
 Alpha virt. eigenvalues --    6.20896   6.26840   6.30137   6.30835   6.34205
 Alpha virt. eigenvalues --    6.36561   6.38633   6.39905   6.40354   6.46251
 Alpha virt. eigenvalues --    6.51362   6.57970   6.73047   6.82552   6.86369
 Alpha virt. eigenvalues --    6.87234   6.88940   6.90913   6.92497   6.94469
 Alpha virt. eigenvalues --    6.95174   6.96119   7.00850   7.07381   7.08308
 Alpha virt. eigenvalues --    7.13596   7.14265   7.20277   7.23337   7.27301
 Alpha virt. eigenvalues --    7.28752   7.33431   7.35229   7.38730   7.42205
 Alpha virt. eigenvalues --    7.48942   7.59056   7.61003   7.66271   7.68701
 Alpha virt. eigenvalues --    7.77580   7.87281   7.92371  12.68695  23.50435
 Alpha virt. eigenvalues --   23.53449  23.65985  23.67479  44.07383  44.33120
 Alpha virt. eigenvalues --   44.37676  44.47494  44.59515
          Condensed to atoms (all electrons):
               1          2          3          4          5          6
     1  Si  11.487955   0.385367   0.452359  -0.042919   0.409610   0.389789
     2  O    0.385367   7.973502  -0.021048   0.000387  -0.031058  -0.016830
     3  O    0.452359  -0.021048   7.834124   0.313634  -0.046026  -0.020004
     4  H   -0.042919   0.000387   0.313634   0.558303   0.004109  -0.000349
     5  O    0.409610  -0.031058  -0.046026   0.004109   8.027650  -0.046841
     6  O    0.389789  -0.016830  -0.020004  -0.000349  -0.046841   7.969030
     7  C   -0.068912  -0.000723  -0.008506   0.002344   0.001459   0.343997
     8  H    0.004936   0.001732  -0.000273  -0.000311   0.000196  -0.057500
     9  H    0.000568  -0.000143   0.000117  -0.000084  -0.000212  -0.043199
    10  C   -0.043974   0.001860   0.006274  -0.000844  -0.000798  -0.091313
    11  H    0.025337  -0.000479   0.003514  -0.004350  -0.000074   0.007174
    12  H   -0.006213   0.000237  -0.000666   0.000058   0.000080   0.004073
    13  O    0.339928  -0.034517  -0.070615   0.020732   0.003913  -0.030061
    14  C   -0.053901  -0.086940  -0.002435   0.000253   0.357594   0.000194
    15  H   -0.009017   0.004092  -0.000641   0.000053  -0.047887   0.000425
    16  H    0.018020   0.007532   0.003125  -0.000369  -0.059523  -0.000552
    17  C   -0.063563   0.337137  -0.005351  -0.000330  -0.091284  -0.000297
    18  H    0.001536  -0.057370  -0.000186  -0.000059   0.009910   0.001818
    19  H    0.001503  -0.043339   0.000090   0.000058   0.007532  -0.000215
               7          8          9         10         11         12
     1  Si  -0.068912   0.004936   0.000568  -0.043974   0.025337  -0.006213
     2  O   -0.000723   0.001732  -0.000143   0.001860  -0.000479   0.000237
     3  O   -0.008506  -0.000273   0.000117   0.006274   0.003514  -0.000666
     4  H    0.002344  -0.000311  -0.000084  -0.000844  -0.004350   0.000058
     5  O    0.001459   0.000196  -0.000212  -0.000798  -0.000074   0.000080
     6  O    0.343997  -0.057500  -0.043199  -0.091313   0.007174   0.004073
     7  C    4.779289   0.408397   0.355234   0.291808  -0.078743  -0.016629
     8  H    0.408397   0.754523  -0.074961  -0.068373   0.018629  -0.017412
     9  H    0.355234  -0.074961   0.757202  -0.011959  -0.012719   0.009595
    10  C    0.291808  -0.068373  -0.011959   4.747189   0.382803   0.373134
    11  H   -0.078743   0.018629  -0.012719   0.382803   0.811227  -0.085809
    12  H   -0.016629  -0.017412   0.009595   0.373134  -0.085809   0.771348
    13  O   -0.088121   0.010110   0.007420   0.346375  -0.067685  -0.043941
    14  C   -0.001496   0.000579  -0.000082  -0.000962   0.000164  -0.000051
    15  H    0.000272  -0.000008   0.000001  -0.000037   0.000000   0.000000
    16  H   -0.000156   0.000006  -0.000006   0.000089   0.000002   0.000001
    17  C    0.002210   0.000210   0.000077  -0.001194  -0.000150   0.000236
    18  H   -0.000087  -0.000353  -0.000025   0.000403   0.000010  -0.000002
    19  H    0.000009   0.000001  -0.000003  -0.000017  -0.000004  -0.000001
              13         14         15         16         17         18
     1  Si   0.339928  -0.053901  -0.009017   0.018020  -0.063563   0.001536
     2  O   -0.034517  -0.086940   0.004092   0.007532   0.337137  -0.057370
     3  O   -0.070615  -0.002435  -0.000641   0.003125  -0.005351  -0.000186
     4  H    0.020732   0.000253   0.000053  -0.000369  -0.000330  -0.000059
     5  O    0.003913   0.357594  -0.047887  -0.059523  -0.091284   0.009910
     6  O   -0.030061   0.000194   0.000425  -0.000552  -0.000297   0.001818
     7  C   -0.088121  -0.001496   0.000272  -0.000156   0.002210  -0.000087
     8  H    0.010110   0.000579  -0.000008   0.000006   0.000210  -0.000353
     9  H    0.007420  -0.000082   0.000001  -0.000006   0.000077  -0.000025
    10  C    0.346375  -0.000962  -0.000037   0.000089  -0.001194   0.000403
    11  H   -0.067685   0.000164   0.000000   0.000002  -0.000150   0.000010
    12  H   -0.043941  -0.000051   0.000000   0.000001   0.000236  -0.000002
    13  O    8.154031  -0.001515   0.000076  -0.000051   0.002854   0.000147
    14  C   -0.001515   4.742507   0.367737   0.376953   0.287810  -0.064283
    15  H    0.000076   0.367737   0.795738  -0.096237  -0.010637  -0.020798
    16  H   -0.000051   0.376953  -0.096237   0.815465  -0.068200   0.018915
    17  C    0.002854   0.287810  -0.010637  -0.068200   4.769711   0.412020
    18  H    0.000147  -0.064283  -0.020798   0.018915   0.412020   0.756524
    19  H   -0.000076  -0.011675   0.011228  -0.016982   0.361708  -0.076997
              19
     1  Si   0.001503
     2  O   -0.043339
     3  O    0.000090
     4  H    0.000058
     5  O    0.007532
     6  O   -0.000215
     7  C    0.000009
     8  H    0.000001
     9  H   -0.000003
    10  C   -0.000017
    11  H   -0.000004
    12  H   -0.000001
    13  O   -0.000076
    14  C   -0.011675
    15  H    0.011228
    16  H   -0.016982
    17  C    0.361708
    18  H   -0.076997
    19  H    0.751999
 Mulliken charges:
               1
     1  Si   0.771591
     2  O   -0.419397
     3  O   -0.437487
     4  H    0.149683
     5  O   -0.498349
     6  O   -0.409339
     7  C    0.078353
     8  H    0.019871
     9  H    0.013179
    10  C    0.069536
    11  H    0.001154
    12  H    0.011962
    13  O   -0.549004
    14  C    0.089550
    15  H    0.005639
    16  H    0.001966
    17  C    0.067033
    18  H    0.018876
    19  H    0.015183
 Sum of Mulliken charges =  -1.00000
 Mulliken charges with hydrogens summed into heavy atoms:
               1
     1  Si   0.771591
     2  O   -0.419397
     3  O   -0.287804
     5  O   -0.498349
     6  O   -0.409339
     7  C    0.111403
    10  C    0.082652
    13  O   -0.549004
    14  C    0.097156
    17  C    0.101092
 Electronic spatial extent (au):  <R**2>=           1484.0600
 Charge=             -1.0000 electrons
 Dipole moment (field-independent basis, Debye):
    X=             -0.7645    Y=             -1.6565    Z=              0.7960  Tot=              1.9905
 Quadrupole moment (field-independent basis, Debye-Ang):
   XX=            -73.5906   YY=            -73.7751   ZZ=            -79.8693
   XY=             -2.0311   XZ=              3.2588   YZ=              1.0508
 Traceless Quadrupole moment (field-independent basis, Debye-Ang):
   XX=              2.1544   YY=              1.9699   ZZ=             -4.1243
   XY=             -2.0311   XZ=              3.2588   YZ=              1.0508
 Octapole moment (field-independent basis, Debye-Ang**2):
  XXX=              1.0712  YYY=             -0.3482  ZZZ=             -1.6459  XYY=             -5.4612
  XXY=              0.5751  XXZ=             -0.1695  XZZ=             -1.5838  YZZ=              2.8939
  YYZ=              6.8994  XYZ=              3.9898
 Hexadecapole moment (field-independent basis, Debye-Ang**3):
 XXXX=          -1333.7223 YYYY=           -425.1487 ZZZZ=           -337.5130 XXXY=              0.8717
 XXXZ=              8.2001 YYYX=            -19.7270 YYYZ=             14.8409 ZZZX=              3.5969
 ZZZY=              0.5899 XXYY=           -284.5142 XXZZ=           -277.9223 YYZZ=           -126.0821
 XXYZ=              0.4629 YYXZ=             -4.0615 ZZXY=              0.8265
 N-N= 7.421431486468D+02 E-N=-3.447097726693D+03  KE= 8.208368987708D+02
   1 Symmetry operations used in ECPInt.
 ECPInt:  NShTT=   14028 NPrTT=   39320 LenC2=   13411 LenP2D=   29460.
 LDataN:  DoStor=T MaxTD1= 7 Len=  274
 Calling FoFJK, ICntrl=      2127 FMM=F ISym2X=0 I1Cent= 0 IOpClX= 0 NMat=1 NMatS=1 NMatT=0.
 ***** Axes restored to original set *****
 -------------------------------------------------------------------
 Center     Atomic                   Forces (Hartrees/Bohr)
 Number     Number              X              Y              Z
 -------------------------------------------------------------------
      1       14          -0.000576411   -0.000236457   -0.000329443
      2        8          -0.000607789    0.000231502    0.000502621
      3        8           0.000518594    0.000225015   -0.000966838
      4        1           0.000620615   -0.000214934   -0.000348752
      5        8          -0.000660980   -0.001480227    0.000185532
      6        8          -0.000654965    0.000709835   -0.001443498
      7        6          -0.000239296    0.000794964   -0.001045085
      8        1           0.000066109   -0.000553863    0.000095520
      9        1          -0.000439915    0.000065875   -0.000612050
     10        6          -0.000098490   -0.000197214    0.002203709
     11        1           0.000286195   -0.000225526    0.000680998
     12        1           0.000833188    0.000112315   -0.000709446
     13        8           0.001782470   -0.001217640    0.000383871
     14        6          -0.000546184    0.000701452    0.000483200
     15        1           0.000008613    0.000095125    0.000071130
     16        1          -0.000121581    0.000096482    0.000011454
     17        6          -0.000173804    0.000905920    0.000721191
     18        1           0.000029435    0.000064592    0.000076525
     19        1          -0.000025804    0.000122783    0.000039362
 -------------------------------------------------------------------
 Cartesian Forces:  Max     0.002203709 RMS     0.000666399

 GradGradGradGradGradGradGradGradGradGradGradGradGradGradGradGradGradGrad
 Berny optimization.
 FormGI is forming the generalized inverse of G from B-inverse, IUseBI=4.
 Internal  Forces:  Max     0.002667101 RMS     0.000814924
 Search for a local minimum.
 Step number   1 out of a maximum of  114
 All quantities printed in internal units (Hartrees-Bohrs-Radians)
 Mixed Optimization -- En-DIIS/RFO-DIIS
 Second derivative matrix not updated -- first step.
 ITU=  0
     Eigenvalues ---    0.00967   0.01062   0.02238   0.02466   0.03180
     Eigenvalues ---    0.04765   0.04858   0.04918   0.04982   0.05945
     Eigenvalues ---    0.06022   0.06319   0.06416   0.08001   0.08377
     Eigenvalues ---    0.09868   0.10401   0.11069   0.11103   0.11186
     Eigenvalues ---    0.11249   0.11292   0.11348   0.12191   0.13727
     Eigenvalues ---    0.14557   0.16000   0.17849   0.19292   0.21849
     Eigenvalues ---    0.22034   0.24623   0.27643   0.28687   0.29755
     Eigenvalues ---    0.32773   0.33087   0.33538   0.33604   0.33680
     Eigenvalues ---    0.33701   0.34017   0.34062   0.34102   0.34503
     Eigenvalues ---    0.37425   0.44186   0.44571   0.46871   0.47515
     Eigenvalues ---    0.56189
 RFO step:  Lambda=-8.30879090D-04 EMin= 9.67305607D-03
 Linear search not attempted -- first point.
 Iteration  1 RMS(Cart)=  0.03163969 RMS(Int)=  0.00045445
 Iteration  2 RMS(Cart)=  0.00062001 RMS(Int)=  0.00007743
 Iteration  3 RMS(Cart)=  0.00000017 RMS(Int)=  0.00007743
 Variable       Old X    -DE/DX   Delta X   Delta X   Delta X     New X
                                 (Linear)    (Quad)   (Total)
    R1        3.21379  -0.00018   0.00000   0.00042   0.00041   3.21420
    R2        3.18911   0.00025   0.00000   0.00068   0.00068   3.18978
    R3        3.31022  -0.00102   0.00000  -0.00294  -0.00295   3.30727
    R4        3.22229   0.00076   0.00000   0.00129   0.00123   3.22352
    R5        3.42238  -0.00134   0.00000  -0.00716  -0.00721   3.41518
    R6        2.64004  -0.00127   0.00000  -0.00282  -0.00282   2.63722
    R7        1.80790  -0.00075   0.00000  -0.00133  -0.00133   1.80658
    R8        2.60621   0.00040   0.00000   0.00021   0.00021   2.60641
    R9        2.63326   0.00002   0.00000   0.00045   0.00046   2.63373
   R10        2.07873   0.00048   0.00000   0.00141   0.00141   2.08014
   R11        2.07158   0.00068   0.00000   0.00198   0.00198   2.07356
   R12        2.87960  -0.00012   0.00000   0.00238   0.00245   2.88205
   R13        2.09451  -0.00072   0.00000  -0.00221  -0.00221   2.09231
   R14        2.08116  -0.00109   0.00000  -0.00323  -0.00323   2.07793
   R15        2.61240  -0.00077   0.00000  -0.00180  -0.00178   2.61063
   R16        2.07838  -0.00008   0.00000  -0.00024  -0.00024   2.07815
   R17        2.08899   0.00003   0.00000   0.00010   0.00010   2.08909
   R18        2.89361  -0.00002   0.00000  -0.00081  -0.00079   2.89281
   R19        2.08003  -0.00007   0.00000  -0.00022  -0.00022   2.07981
   R20        2.07301   0.00004   0.00000   0.00012   0.00012   2.07313
    A1        2.08867  -0.00077   0.00000  -0.00607  -0.00603   2.08264
    A2        1.57782   0.00053   0.00000  -0.00076  -0.00082   1.57700
    A3        2.02000   0.00226   0.00000   0.01982   0.01986   2.03986
    A4        1.59431  -0.00267   0.00000  -0.02812  -0.02803   1.56628
    A5        1.59176  -0.00061   0.00000   0.00115   0.00115   1.59291
    A6        2.17387  -0.00149   0.00000  -0.01384  -0.01392   2.15995
    A7        1.54784   0.00183   0.00000   0.01927   0.01939   1.56723
    A8        1.57548   0.00027   0.00000   0.00206   0.00224   1.57772
    A9        1.53924   0.00047   0.00000   0.00390   0.00405   1.54329
   A10        1.97674   0.00027   0.00000   0.00491   0.00484   1.98158
   A11        1.84534   0.00007   0.00000   0.00045   0.00045   1.84578
   A12        1.96598  -0.00101   0.00000  -0.00325  -0.00332   1.96267
   A13        2.00780  -0.00049   0.00000   0.00255   0.00221   2.01001
   A14        1.92630  -0.00048   0.00000  -0.00418  -0.00411   1.92219
   A15        1.92459   0.00028   0.00000   0.00091   0.00094   1.92553
   A16        1.85297   0.00020   0.00000   0.00594   0.00577   1.85874
   A17        1.88574   0.00004   0.00000  -0.00072  -0.00074   1.88500
   A18        1.91008  -0.00045   0.00000  -0.00214  -0.00211   1.90797
   A19        1.96444   0.00039   0.00000   0.00008   0.00011   1.96456
   A20        1.90383  -0.00028   0.00000  -0.00277  -0.00276   1.90107
   A21        1.94949  -0.00001   0.00000  -0.00002   0.00002   1.94951
   A22        1.84161   0.00075   0.00000   0.00846   0.00833   1.84995
   A23        1.87199   0.00007   0.00000  -0.00128  -0.00129   1.87069
   A24        1.95492  -0.00080   0.00000  -0.00658  -0.00652   1.94839
   A25        1.94296   0.00023   0.00000   0.00204   0.00204   1.94500
   A26        1.94151   0.00007   0.00000   0.00378   0.00352   1.94503
   A27        1.94080  -0.00019   0.00000   0.00021   0.00021   1.94102
   A28        1.94745  -0.00035   0.00000  -0.00133  -0.00132   1.94613
   A29        1.85526   0.00083   0.00000   0.00192   0.00188   1.85713
   A30        1.87253   0.00010   0.00000  -0.00003  -0.00004   1.87249
   A31        1.93773  -0.00019   0.00000  -0.00150  -0.00149   1.93624
   A32        1.91089  -0.00021   0.00000   0.00071   0.00072   1.91161
   A33        1.86286  -0.00050   0.00000  -0.00252  -0.00256   1.86031
   A34        1.92086   0.00020   0.00000   0.00050   0.00052   1.92138
   A35        1.92256   0.00007   0.00000  -0.00011  -0.00010   1.92247
   A36        1.91707  -0.00000   0.00000  -0.00007  -0.00006   1.91701
   A37        1.95748   0.00028   0.00000   0.00152   0.00153   1.95901
   A38        1.88329  -0.00004   0.00000   0.00066   0.00065   1.88395
   A39        3.17213  -0.00214   0.00000  -0.02888  -0.02886   3.14327
   A40        3.15671   0.00016   0.00000   0.00683   0.00711   3.16381
    D1       -1.79283   0.00060   0.00000   0.01804   0.01812  -1.77471
    D2       -0.19389   0.00018   0.00000   0.01880   0.01884  -0.17506
    D3        1.38549   0.00075   0.00000   0.02094   0.02115   1.40664
    D4        2.93258   0.00002   0.00000   0.01197   0.01173   2.94431
    D5       -1.53979   0.00059   0.00000   0.00603   0.00600  -1.53379
    D6       -3.13063   0.00036   0.00000   0.00645   0.00650  -3.12413
    D7        1.56163   0.00050   0.00000   0.00363   0.00352   1.56515
    D8        0.04499  -0.00142   0.00000  -0.01527  -0.01517   0.02982
    D9       -0.19276  -0.00003   0.00000  -0.01888  -0.01884  -0.21161
   D10        1.89622  -0.00080   0.00000  -0.02495  -0.02488   1.87134
   D11       -2.21282  -0.00230   0.00000  -0.03872  -0.03872  -2.25153
   D12        1.42970  -0.00203   0.00000  -0.01292  -0.01293   1.41677
   D13       -1.67315  -0.00188   0.00000  -0.01010  -0.00998  -1.68313
   D14        3.01056  -0.00129   0.00000  -0.01258  -0.01252   2.99803
   D15       -0.15199   0.00077   0.00000   0.01694   0.01698  -0.13501
   D16       -2.30236  -0.00213   0.00000  -0.01553  -0.01560  -2.31796
   D17        1.89247  -0.00142   0.00000  -0.01009  -0.00991   1.88256
   D18       -0.28281   0.00020   0.00000   0.00501   0.00504  -0.27776
   D19        0.48279  -0.00041   0.00000  -0.01500  -0.01501   0.46778
   D20       -1.59673  -0.00022   0.00000  -0.01373  -0.01372  -1.61046
   D21        2.61199  -0.00034   0.00000  -0.01478  -0.01479   2.59720
   D22        2.58887   0.00017   0.00000   0.01370   0.01369   2.60256
   D23       -1.60431  -0.00007   0.00000   0.01290   0.01290  -1.59141
   D24        0.47787  -0.00001   0.00000   0.01420   0.01420   0.49207
   D25       -1.57013  -0.00087   0.00000  -0.03173  -0.03171  -1.60184
   D26        2.63090  -0.00079   0.00000  -0.02877  -0.02880   2.60211
   D27        0.49821  -0.00155   0.00000  -0.03306  -0.03307   0.46513
   D28        1.42601   0.00060   0.00000   0.02955   0.02952   1.45553
   D29       -2.79086   0.00051   0.00000   0.02618   0.02617  -2.76469
   D30       -0.67714   0.00126   0.00000   0.03399   0.03399  -0.64316
   D31       -2.77815  -0.00010   0.00000   0.02682   0.02679  -2.75137
   D32       -0.71184  -0.00019   0.00000   0.02346   0.02344  -0.68840
   D33        1.40187   0.00056   0.00000   0.03127   0.03126   1.43313
   D34       -0.68113  -0.00010   0.00000   0.02449   0.02449  -0.65665
   D35        1.38518  -0.00019   0.00000   0.02112   0.02114   1.40632
   D36       -2.78429   0.00056   0.00000   0.02894   0.02895  -2.75534
   D37        0.58653  -0.00081   0.00000  -0.02233  -0.02241   0.56411
   D38       -1.48283  -0.00051   0.00000  -0.02064  -0.02065  -1.50348
   D39        2.70449  -0.00022   0.00000  -0.01591  -0.01595   2.68854
   D40       -0.59942   0.00006   0.00000   0.00053   0.00052  -0.59890
   D41        1.48256   0.00000   0.00000  -0.00037  -0.00038   1.48218
   D42       -2.70645   0.00013   0.00000   0.00141   0.00141  -2.70504
   D43       -2.71240  -0.00011   0.00000  -0.00006  -0.00006  -2.71245
   D44       -0.63042  -0.00017   0.00000  -0.00096  -0.00095  -0.63138
   D45        1.46376  -0.00004   0.00000   0.00082   0.00083   1.46458
   D46        1.50650   0.00001   0.00000   0.00045   0.00044   1.50695
   D47       -2.69471  -0.00004   0.00000  -0.00045  -0.00045  -2.69516
   D48       -0.60053   0.00008   0.00000   0.00133   0.00133  -0.59920
         Item               Value     Threshold  Converged?
 Maximum Force            0.002667     0.000450     NO 
 RMS     Force            0.000815     0.000300     NO 
 Maximum Displacement     0.118341     0.001800     NO 
 RMS     Displacement     0.031670     0.001200     NO 
 Predicted change in Energy=-4.241133D-04
 GradGradGradGradGradGradGradGradGradGradGradGradGradGradGradGradGradGrad

                          Input orientation:                          
 ---------------------------------------------------------------------
 Center     Atomic      Atomic             Coordinates (Angstroms)
 Number     Number       Type             X           Y           Z
 ---------------------------------------------------------------------
      1         14           0        0.000655    0.287802   -0.104343
      2          8           0        0.842221   -0.148236    1.307976
      3          8           0       -0.106441    1.916849   -0.533233
      4          1           0       -0.881231    2.252847   -0.085194
      5          8           0        1.462174    0.095421   -1.047696
      6          8           0       -0.743905   -0.973483   -0.978751
      7          6           0       -1.979647   -1.387773   -0.485063
      8          1           0       -1.844858   -2.217332    0.225813
      9          1           0       -2.617520   -1.743261   -1.304070
     10          6           0       -2.578047   -0.189894    0.244996
     11          1           0       -3.077836    0.467231   -0.492766
     12          1           0       -3.340716   -0.498014    0.974727
     13          8           0       -1.518907    0.448637    0.860623
     14          6           0        2.586602   -0.025780   -0.258192
     15          1           0        3.346782   -0.655838   -0.742455
     16          1           0        3.051714    0.957668   -0.061658
     17          6           0        2.122845   -0.645552    1.062488
     18          1           0        2.091298   -1.741784    0.969869
     19          1           0        2.791341   -0.395892    1.895738
 ---------------------------------------------------------------------
                    Distance matrix (angstroms):
                    1          2          3          4          5
     1  Si   0.000000
     2  O    1.700884   0.000000
     3  O    1.687960   2.924822   0.000000
     4  H    2.153948   3.267478   0.955999   0.000000
     5  O    1.750133   2.448040   2.458216   3.327529   0.000000
     6  O    1.705814   2.902748   2.993137   3.350598   2.452366
     7  C    2.621850   3.565723   3.798915   3.823680   3.789797
     8  H    3.128996   3.559863   4.548593   4.583427   4.231680
     9  H    3.524118   4.619166   4.505121   4.524294   4.482230
    10  C    2.645739   3.581884   3.339588   2.992523   4.251570
    11  H    3.108083   4.357559   3.306391   2.860002   4.588888
    12  H    3.598147   4.210744   4.308833   3.839236   5.245009
    13  O    1.807234   2.476148   2.468510   2.134567   3.557146
    14  C    2.609430   2.347497   3.331957   4.153064   1.379255
    15  H    3.534715   3.276393   4.311292   5.173832   2.051660
    16  H    3.124020   2.825027   3.334120   4.140785   2.059703
    17  C    2.595445   1.395558   3.752591   4.329245   2.332039
    18  H    3.105469   2.052779   4.524927   5.089810   2.800301
    19  H    3.500812   2.050821   4.432359   4.942438   3.266784
                    6          7          8          9         10
     6  O    0.000000
     7  C    1.393708   0.000000
     8  H    2.051885   1.100763   0.000000
     9  H    2.051541   1.097281   1.778283   0.000000
    10  C    2.340009   1.525117   2.156024   2.194109   0.000000
    11  H    2.785511   2.155718   3.040307   2.399246   1.107201
    12  H    3.284139   2.185215   2.398857   2.695658   1.099595
    13  O    2.450785   2.322833   2.759822   3.270667   1.381483
    14  C    3.536895   4.770444   4.967394   5.579112   5.191698
    15  H    4.109800   5.382641   5.507171   6.088579   6.024596
    16  H    4.356275   5.567312   5.842917   6.401470   5.753707
    17  C    3.534466   4.447049   4.348928   5.410787   4.793151
    18  H    3.525022   4.337597   4.033991   5.229126   4.973588
    19  H    4.592849   5.423502   5.253630   6.427281   5.621184
                   11         12         13         14         15
    11  H    0.000000
    12  H    1.776046   0.000000
    13  O    2.064526   2.056248   0.000000
    14  C    5.690690   6.072577   4.281591   0.000000
    15  H    6.526818   6.906247   5.240672   1.099708   0.000000
    16  H    6.164233   6.637489   4.690446   1.105497   1.775937
    17  C    5.541136   5.466257   3.807933   1.530812   2.180814
    18  H    5.808528   5.572590   4.224151   2.167516   2.384863
    19  H    6.395090   6.201678   4.512530   2.195066   2.708532
                   16         17         18         19
    16  H    0.000000
    17  C    2.167214   0.000000
    18  H    3.045239   1.100589   0.000000
    19  H    2.394016   1.097052   1.777279   0.000000
 Stoichiometry    C4H9O5Si(1-)
 Framework group  C1[X(C4H9O5Si)]
 Deg. of freedom    51
 Full point group                 C1      NOp   1
 Largest Abelian subgroup         C1      NOp   1
 Largest concise Abelian subgroup C1      NOp   1
                         Standard orientation:                         
 ---------------------------------------------------------------------
 Center     Atomic      Atomic             Coordinates (Angstroms)
 Number     Number       Type             X           Y           Z
 ---------------------------------------------------------------------
      1         14           0        0.018939    0.325725   -0.061577
      2          8           0        0.898745   -0.360958    1.221939
      3          8           0        0.008561    2.002787   -0.252805
      4          1           0       -0.715404    2.320843    0.284454
      5          8           0        1.411612    0.175749   -1.110831
      6          8           0       -0.859847   -0.746991   -1.054963
      7          6           0       -2.095154   -1.146631   -0.548279
      8          1           0       -1.984362   -2.076118    0.030910
      9          1           0       -2.798877   -1.339554   -1.367778
     10          6           0       -2.566060   -0.029008    0.376463
     11          1           0       -3.054336    0.757639   -0.230718
     12          1           0       -3.310203   -0.388098    1.102009
     13          8           0       -1.432718    0.445218    1.008240
     14          6           0        2.563717   -0.129412   -0.416657
     15          1           0        3.249846   -0.731780   -1.029630
     16          1           0        3.108748    0.783731   -0.114605
     17          6           0        2.125295   -0.899989    0.831294
     18          1           0        2.009281   -1.967416    0.589558
     19          1           0        2.852558   -0.815601    1.648295
 ---------------------------------------------------------------------
 Rotational constants (GHZ):           2.2228701           0.9688827           0.9269502
 Standard basis: def2TZVPP (5D, 7F)
 There are   507 symmetry adapted cartesian basis functions of A   symmetry.
 There are   447 symmetry adapted basis functions of A   symmetry.
   447 basis functions,   681 primitive gaussians,   507 cartesian basis functions
    44 alpha electrons       44 beta electrons
       nuclear repulsion energy       742.1400504659 Hartrees.
 NAtoms=   19 NActive=   19 NUniq=   19 SFac= 1.00D+00 NAtFMM=   60 NAOKFM=F Big=F
 Integral buffers will be    131072 words long.
 Raffenetti 2 integral format.
 Two-electron integral symmetry is turned on.
 Nuclear repulsion after empirical dispersion term =      742.1304004015 Hartrees.
 One-electron integrals computed using PRISM.
   1 Symmetry operations used in ECPInt.
 ECPInt:  NShTT=   14028 NPrTT=   39320 LenC2=   13410 LenP2D=   29469.
 LDataN:  DoStor=T MaxTD1= 6 Len=  172
 NBasis=   447 RedAO= T EigKep=  3.06D-04  NBF=   447
 NBsUse=   447 1.00D-06 EigRej= -1.00D+00 NBFU=   447
 Initial guess from the checkpoint file:  "QbiLmL_to_PbiL2_IRCreverse_ProductOpt.chk"
 B after Tr=     0.000000    0.000000   -0.000000
         Rot=    0.999976   -0.005992   -0.001695    0.002894 Ang=  -0.79 deg.
 ExpMin= 7.01D-02 ExpMax= 4.48D+04 ExpMxC= 1.53D+03 IAcc=3 IRadAn=         5 AccDes= 0.00D+00
 Harris functional with IExCor= 4639 and IRadAn=       5 diagonalized for initial guess.
 HarFok:  IExCor= 4639 AccDes= 0.00D+00 IRadAn=         5 IDoV= 1 UseB2=F ITyADJ=14
 ICtDFT=  3500011 ScaDFX=  1.000000  1.000000  1.000000  1.000000
 FoFCou: FMM=F IPFlag=           0 FMFlag=      100000 FMFlg1=           0
         NFxFlg=           0 DoJE=T BraDBF=F KetDBF=T FulRan=T
         wScrn=  0.000000 ICntrl=       500 IOpCl=  0 I1Cent=   200000004 NGrid=           0
         NMat0=    1 NMatS0=      1 NMatT0=    0 NMatD0=    1 NMtDS0=    0 NMtDT0=    0
 Petite list used in FoFCou.
 Requested convergence on RMS density matrix=1.00D-08 within 128 cycles.
 Requested convergence on MAX density matrix=1.00D-06.
 Requested convergence on             energy=1.00D-06.
 No special actions if energy rises.
 Integral accuracy reduced to 1.0D-05 until final iterations.
 Initial convergence to 1.0D-05 achieved.  Increase integral accuracy.
 SCF Done:  E(RwB97XD) =  -823.749948847     A.U. after   11 cycles
            NFock= 11  Conv=0.69D-08     -V/T= 2.0035
   1 Symmetry operations used in ECPInt.
 ECPInt:  NShTT=   14028 NPrTT=   39320 LenC2=   13410 LenP2D=   29469.
 LDataN:  DoStor=T MaxTD1= 7 Len=  274
 Calling FoFJK, ICntrl=      2127 FMM=F ISym2X=0 I1Cent= 0 IOpClX= 0 NMat=1 NMatS=1 NMatT=0.
 ***** Axes restored to original set *****
 -------------------------------------------------------------------
 Center     Atomic                   Forces (Hartrees/Bohr)
 Number     Number              X              Y              Z
 -------------------------------------------------------------------
      1       14          -0.000122590   -0.001094397    0.001605203
      2        8           0.000731647   -0.000453054    0.000700051
      3        8          -0.000850083   -0.000918090   -0.000623135
      4        1           0.000019363    0.000429948    0.000159540
      5        8          -0.000720825   -0.002131435    0.000161126
      6        8          -0.001041220    0.001835540   -0.001211368
      7        6           0.000763926   -0.000421854    0.000235041
      8        1          -0.000027858   -0.000525594   -0.000381957
      9        1          -0.000152597    0.000450487    0.000027196
     10        6          -0.000027528    0.001624330   -0.000059768
     11        1          -0.000601779    0.000030140    0.000088255
     12        1           0.000320167   -0.000294743   -0.000019051
     13        8           0.001187147   -0.000694774   -0.001247028
     14        6           0.000564634    0.000827477    0.000224865
     15        1           0.000018085    0.000175472   -0.000200004
     16        1          -0.000108076   -0.000004672    0.000117166
     17        6          -0.000328400    0.001259680    0.000402142
     18        1           0.000133957   -0.000150844    0.000145969
     19        1           0.000242033    0.000056382   -0.000124242
 -------------------------------------------------------------------
 Cartesian Forces:  Max     0.002131435 RMS     0.000718883

 GradGradGradGradGradGradGradGradGradGradGradGradGradGradGradGradGradGrad
 Berny optimization.
 Using GEDIIS/GDIIS optimizer.
 FormGI is forming the generalized inverse of G from B-inverse, IUseBI=4.
 Internal  Forces:  Max     0.002566306 RMS     0.000551633
 Search for a local minimum.
 Step number   2 out of a maximum of  114
 All quantities printed in internal units (Hartrees-Bohrs-Radians)
 Mixed Optimization -- En-DIIS/RFO-DIIS
 Swapping is turned off.
 Update second derivatives using D2CorX and points    1    2
 DE= -6.07D-04 DEPred=-4.24D-04 R= 1.43D+00
 TightC=F SS=  1.41D+00  RLast= 1.43D-01 DXNew= 5.0454D-01 4.2780D-01
 Trust test= 1.43D+00 RLast= 1.43D-01 DXMaxT set to 4.28D-01
 ITU=  1  0
     Eigenvalues ---    0.00766   0.00968   0.01728   0.02251   0.03181
     Eigenvalues ---    0.04745   0.04861   0.04867   0.05021   0.05947
     Eigenvalues ---    0.06027   0.06272   0.06340   0.06816   0.08418
     Eigenvalues ---    0.09679   0.10405   0.10725   0.11137   0.11175
     Eigenvalues ---    0.11275   0.11280   0.11743   0.12267   0.14126
     Eigenvalues ---    0.14973   0.16056   0.18475   0.21058   0.21896
     Eigenvalues ---    0.22412   0.25005   0.27770   0.28878   0.29772
     Eigenvalues ---    0.32891   0.33088   0.33557   0.33620   0.33676
     Eigenvalues ---    0.33701   0.34017   0.34098   0.34181   0.35551
     Eigenvalues ---    0.37567   0.44141   0.44640   0.46890   0.47542
     Eigenvalues ---    0.56363
 En-DIIS/RFO-DIIS/Sim-DIIS IScMMF=       -3 using points:     2    1
 RFO step:  Lambda=-9.74858895D-04.
 DidBck=F Rises=F RFO-DIIS coefs:    2.95068   -1.95068
 Iteration  1 RMS(Cart)=  0.06232860 RMS(Int)=  0.00171179
 Iteration  2 RMS(Cart)=  0.00224995 RMS(Int)=  0.00036078
 Iteration  3 RMS(Cart)=  0.00000215 RMS(Int)=  0.00036078
 Iteration  4 RMS(Cart)=  0.00000000 RMS(Int)=  0.00036078
 Variable       Old X    -DE/DX   Delta X   Delta X   Delta X     New X
                                 (Linear)    (Quad)   (Total)
    R1        3.21420   0.00112   0.00081   0.00592   0.00661   3.22081
    R2        3.18978  -0.00030   0.00132  -0.00219  -0.00087   3.18892
    R3        3.30727  -0.00026  -0.00575   0.00088  -0.00498   3.30230
    R4        3.22352  -0.00022   0.00241  -0.00331  -0.00116   3.22236
    R5        3.41518  -0.00151  -0.01406  -0.00425  -0.01854   3.39664
    R6        2.63722  -0.00039  -0.00550   0.00191  -0.00355   2.63367
    R7        1.80658   0.00020  -0.00259   0.00209  -0.00050   1.80608
    R8        2.60641   0.00044   0.00041   0.00063   0.00108   2.60749
    R9        2.63373  -0.00034   0.00090  -0.00180  -0.00080   2.63293
   R10        2.08014   0.00015   0.00275  -0.00072   0.00203   2.08218
   R11        2.07356  -0.00008   0.00387  -0.00256   0.00131   2.07487
   R12        2.88205   0.00032   0.00478   0.00158   0.00671   2.88877
   R13        2.09231   0.00023  -0.00430   0.00367  -0.00063   2.09168
   R14        2.07793  -0.00015  -0.00630   0.00264  -0.00366   2.07427
   R15        2.61063  -0.00047  -0.00347   0.00009  -0.00325   2.60737
   R16        2.07815   0.00000  -0.00046   0.00027  -0.00019   2.07796
   R17        2.08909  -0.00003   0.00019  -0.00028  -0.00010   2.08899
   R18        2.89281  -0.00006  -0.00154   0.00100  -0.00035   2.89247
   R19        2.07981   0.00013  -0.00043   0.00097   0.00054   2.08035
   R20        2.07313   0.00007   0.00023   0.00023   0.00046   2.07359
    A1        2.08264  -0.00025  -0.01177   0.00080  -0.01090   2.07174
    A2        1.57700  -0.00024  -0.00161  -0.00193  -0.00403   1.57297
    A3        2.03986   0.00232   0.03873   0.01420   0.05310   2.09296
    A4        1.56628   0.00026  -0.05469   0.02739  -0.02674   1.53954
    A5        1.59291   0.00036   0.00224   0.00598   0.00832   1.60123
    A6        2.15995  -0.00208  -0.02716  -0.01495  -0.04237   2.11758
    A7        1.56723  -0.00046   0.03782  -0.02077   0.01754   1.58477
    A8        1.57772  -0.00004   0.00437  -0.00532   0.00010   1.57782
    A9        1.54329   0.00014   0.00791  -0.00371   0.00494   1.54824
   A10        1.98158   0.00018   0.00944   0.00024   0.00888   1.99046
   A11        1.84578   0.00060   0.00087   0.00636   0.00723   1.85302
   A12        1.96267   0.00008  -0.00647   0.00228  -0.00492   1.95775
   A13        2.01001  -0.00011   0.00431   0.00057   0.00347   2.01348
   A14        1.92219  -0.00026  -0.00802   0.00489  -0.00291   1.91928
   A15        1.92553   0.00037   0.00184  -0.00219  -0.00022   1.92531
   A16        1.85874  -0.00018   0.01126  -0.00422   0.00642   1.86516
   A17        1.88500  -0.00010  -0.00145  -0.00089  -0.00239   1.88261
   A18        1.90797   0.00066  -0.00411   0.01170   0.00773   1.91570
   A19        1.96456  -0.00049   0.00022  -0.00888  -0.00851   1.95604
   A20        1.90107   0.00005  -0.00539   0.00824   0.00281   1.90388
   A21        1.94951  -0.00010   0.00003  -0.00738  -0.00714   1.94238
   A22        1.84995  -0.00011   0.01625  -0.00864   0.00717   1.85711
   A23        1.87069  -0.00006  -0.00252  -0.00034  -0.00291   1.86778
   A24        1.94839   0.00003  -0.01272   0.01364   0.00111   1.94950
   A25        1.94500   0.00020   0.00399  -0.00504  -0.00102   1.94398
   A26        1.94503   0.00043   0.00686   0.00295   0.00871   1.95373
   A27        1.94102  -0.00008   0.00042  -0.00163  -0.00111   1.93990
   A28        1.94613  -0.00010  -0.00257   0.00154  -0.00090   1.94523
   A29        1.85713   0.00013   0.00366  -0.00384  -0.00053   1.85661
   A30        1.87249  -0.00001  -0.00008   0.00039   0.00028   1.87277
   A31        1.93624   0.00017  -0.00290   0.00394   0.00113   1.93737
   A32        1.91161  -0.00011   0.00141  -0.00031   0.00118   1.91279
   A33        1.86031  -0.00003  -0.00499   0.00365  -0.00167   1.85864
   A34        1.92138  -0.00002   0.00101   0.00041   0.00154   1.92292
   A35        1.92247   0.00022  -0.00019   0.00319   0.00310   1.92556
   A36        1.91701  -0.00007  -0.00012  -0.00096  -0.00103   1.91598
   A37        1.95901  -0.00007   0.00298  -0.00373  -0.00065   1.95836
   A38        1.88395  -0.00003   0.00128  -0.00245  -0.00121   1.88273
   A39        3.14327   0.00002  -0.05629   0.02546  -0.03077   3.11250
   A40        3.16381  -0.00010   0.01386  -0.00265   0.01248   3.17629
    D1       -1.77471   0.00010   0.03535   0.01241   0.04814  -1.72657
    D2       -0.17506   0.00038   0.03674   0.01821   0.05517  -0.11988
    D3        1.40664   0.00024   0.04127   0.01143   0.05362   1.46026
    D4        2.94431   0.00048   0.02288   0.02086   0.04270   2.98701
    D5       -1.53379   0.00008   0.01171   0.00049   0.01190  -1.52189
    D6       -3.12413   0.00016   0.01268  -0.00069   0.01230  -3.11183
    D7        1.56515   0.00004   0.00686   0.00228   0.00865   1.57380
    D8        0.02982   0.00012  -0.02960   0.02023  -0.00890   0.02091
    D9       -0.21161  -0.00025  -0.03676  -0.01760  -0.05410  -0.26570
   D10        1.87134  -0.00050  -0.04853  -0.01674  -0.06497   1.80637
   D11       -2.25153  -0.00257  -0.07552  -0.03172  -0.10716  -2.35870
   D12        1.41677  -0.00021  -0.02522   0.01835  -0.00676   1.41002
   D13       -1.68313  -0.00011  -0.01947   0.01688  -0.00200  -1.68512
   D14        2.99803  -0.00047  -0.02443   0.01366  -0.01068   2.98736
   D15       -0.13501  -0.00048   0.03312  -0.00996   0.02330  -0.11171
   D16       -2.31796  -0.00185  -0.03043  -0.01729  -0.04789  -2.36585
   D17        1.88256  -0.00161  -0.01933  -0.01806  -0.03679   1.84577
   D18       -0.27776   0.00046   0.00984  -0.00392   0.00612  -0.27165
   D19        0.46778  -0.00040  -0.02927  -0.01376  -0.04310   0.42468
   D20       -1.61046  -0.00029  -0.02677  -0.01497  -0.04173  -1.65219
   D21        2.59720  -0.00038  -0.02886  -0.01418  -0.04312   2.55408
   D22        2.60256   0.00035   0.02671   0.01316   0.03980   2.64237
   D23       -1.59141   0.00022   0.02517   0.01359   0.03880  -1.55261
   D24        0.49207   0.00012   0.02770   0.01171   0.03940   0.53147
   D25       -1.60184  -0.00035  -0.06186   0.00484  -0.05696  -1.65880
   D26        2.60211  -0.00030  -0.05617   0.00424  -0.05205   2.55005
   D27        0.46513   0.00019  -0.06452   0.01898  -0.04558   0.41956
   D28        1.45553   0.00028   0.05758  -0.00192   0.05550   1.51104
   D29       -2.76469   0.00017   0.05105  -0.00156   0.04941  -2.71528
   D30       -0.64316   0.00028   0.06630  -0.01756   0.04859  -0.59457
   D31       -2.75137   0.00021   0.05225   0.00773   0.05989  -2.69148
   D32       -0.68840   0.00011   0.04573   0.00809   0.05380  -0.63461
   D33        1.43313   0.00022   0.06097  -0.00791   0.05298   1.48611
   D34       -0.65665   0.00023   0.04776   0.00887   0.05663  -0.60002
   D35        1.40632   0.00013   0.04124   0.00923   0.05053   1.45685
   D36       -2.75534   0.00023   0.05648  -0.00678   0.04971  -2.70562
   D37        0.56411  -0.00045  -0.04372   0.01298  -0.03110   0.53301
   D38       -1.50348  -0.00046  -0.04028   0.00092  -0.03948  -1.54297
   D39        2.68854  -0.00054  -0.03112  -0.00448  -0.03584   2.65270
   D40       -0.59890   0.00020   0.00102   0.00149   0.00248  -0.59642
   D41        1.48218   0.00013  -0.00073   0.00358   0.00279   1.48498
   D42       -2.70504  -0.00000   0.00274  -0.00261   0.00014  -2.70490
   D43       -2.71245   0.00013  -0.00011   0.00360   0.00352  -2.70894
   D44       -0.63138   0.00005  -0.00186   0.00569   0.00383  -0.62755
   D45        1.46458  -0.00008   0.00161  -0.00050   0.00118   1.46576
   D46        1.50695   0.00010   0.00087   0.00091   0.00174   1.50869
   D47       -2.69516   0.00003  -0.00088   0.00300   0.00205  -2.69310
   D48       -0.59920  -0.00010   0.00259  -0.00319  -0.00060  -0.59980
         Item               Value     Threshold  Converged?
 Maximum Force            0.002566     0.000450     NO 
 RMS     Force            0.000552     0.000300     NO 
 Maximum Displacement     0.212558     0.001800     NO 
 RMS     Displacement     0.062232     0.001200     NO 
 Predicted change in Energy=-5.259983D-04
 GradGradGradGradGradGradGradGradGradGradGradGradGradGradGradGradGradGrad

                          Input orientation:                          
 ---------------------------------------------------------------------
 Center     Atomic      Atomic             Coordinates (Angstroms)
 Number     Number       Type             X           Y           Z
 ---------------------------------------------------------------------
      1         14           0        0.005258    0.240456   -0.114637
      2          8           0        0.847307   -0.162954    1.311240
      3          8           0       -0.089217    1.863027   -0.568507
      4          1           0       -0.854490    2.220402   -0.121212
      5          8           0        1.465256    0.009437   -1.046726
      6          8           0       -0.776518   -0.978862   -1.014526
      7          6           0       -2.025254   -1.367494   -0.534042
      8          1           0       -1.920404   -2.252912    0.113333
      9          1           0       -2.687604   -1.636141   -1.367509
     10          6           0       -2.572241   -0.194409    0.279290
     11          1           0       -3.100676    0.501707   -0.399927
     12          1           0       -3.303404   -0.532836    1.024756
     13          8           0       -1.483747    0.405457    0.878528
     14          6           0        2.591142   -0.028638   -0.249953
     15          1           0        3.379506   -0.644520   -0.706362
     16          1           0        3.011530    0.982022   -0.095520
     17          6           0        2.148880   -0.611564    1.094451
     18          1           0        2.168696   -1.711289    1.048239
     19          1           0        2.802502   -0.297273    1.917894
 ---------------------------------------------------------------------
                    Distance matrix (angstroms):
                    1          2          3          4          5
     1  Si   0.000000
     2  O    1.704379   0.000000
     3  O    1.687502   2.918069   0.000000
     4  H    2.158564   3.260125   0.955736   0.000000
     5  O    1.747499   2.443683   2.465943   3.335590   0.000000
     6  O    1.705200   2.951559   2.957642   3.322556   2.450167
     7  C    2.623811   3.620440   3.766390   3.796593   3.787142
     8  H    3.158643   3.669214   4.556216   4.604533   4.233987
     9  H    3.513234   4.673497   4.431049   4.448201   4.478512
    10  C    2.643443   3.572005   3.334248   2.990382   4.254557
    11  H    3.129932   4.353899   3.309154   2.841997   4.637716
    12  H    3.583775   4.176995   4.313890   3.858852   5.227352
    13  O    1.797425   2.438061   2.482567   2.165519   3.544016
    14  C    2.603367   2.344424   3.296089   4.116690   1.379826
    15  H    3.538201   3.273325   4.282387   5.145571   2.051307
    16  H    3.096442   2.823793   3.257993   4.059600   2.059534
    17  C    2.604409   1.393679   3.728017   4.303266   2.331872
    18  H    3.137204   2.052457   4.526342   5.095632   2.800822
    19  H    3.499272   2.051550   4.383050   4.885717   3.266691
                    6          7          8          9         10
     6  O    0.000000
     7  C    1.393285   0.000000
     8  H    2.050303   1.101840   0.000000
     9  H    2.051551   1.097974   1.778171   0.000000
    10  C    2.348180   1.528670   2.165611   2.191768   0.000000
    11  H    2.823389   2.160655   3.040461   2.382696   1.106868
    12  H    3.277615   2.181781   2.387895   2.705443   1.097657
    13  O    2.449523   2.330652   2.800556   3.265283   1.379762
    14  C    3.581708   4.815014   5.043156   5.630112   5.193083
    15  H    4.180823   5.455623   5.598917   6.183061   6.049579
    16  H    4.363363   5.575098   5.901897   6.399442   5.718651
    17  C    3.625003   4.543877   4.496186   5.522915   4.809105
    18  H    3.669568   4.495667   4.229438   5.424494   5.036734
    19  H    4.676861   5.519474   5.420960   6.536643   5.619917
                   11         12         13         14         15
    11  H    0.000000
    12  H    1.772314   0.000000
    13  O    2.063534   2.052542   0.000000
    14  C    5.718440   6.051841   4.250486   0.000000
    15  H    6.587905   6.904385   5.221643   1.099608   0.000000
[...]
 0.08059531,0.01476351,0.03269478,0.01102990,0.00002363,0.02748905,-0.0
 1401346,0.01885270,0.01161734,-0.00037985,0.00389529,-0.00069418,0.417
 25026,0.01057485,-0.04299106,-0.00989279,-0.00050203,0.01074684,0.0028
 7355,0.02219009,-0.01529060,-0.01107618,0.00251704,-0.00409748,0.00147
 755,0.01871925,0.10535690,0.02976477,-0.00939856,-0.07316290,-0.004462
 03,-0.00088435,-0.03379627,0.00352674,-0.00150289,0.00418991,0.0000053
 4,0.00018608,0.00185735,0.07819256,0.04478575,0.26751853,-0.07008625,-
 0.04011873,-0.03260382,-0.00037126,-0.00326769,-0.00490407,0.00483179,
 -0.00528379,-0.00249551,-0.00121510,-0.00163550,-0.00014659,-0.0413484
 2,-0.01680688,-0.00787422,0.42447526,-0.03508287,-0.09452194,-0.049271
 05,-0.00039237,0.00360959,-0.00081107,-0.00514765,-0.01057419,-0.00625
 360,-0.00139542,-0.00007029,0.00020565,-0.01275682,0.00063530,-0.00357
 182,0.12065325,0.18833010,-0.02782054,-0.04737785,-0.07840118,-0.00591
 202,-0.00304947,-0.00119289,-0.00016849,0.00004254,0.00439020,0.000405
 23,0.00113703,-0.00075735,0.00591599,0.00105138,0.00530558,-0.05451568
 ,0.07625179,0.18882512,-0.02713153,-0.02954132,-0.02141124,0.00132726,
 0.00160640,0.00249707,-0.00002204,0.00405294,0.00295721,0.00053827,0.0
 0061183,-0.00032664,0.00376285,0.00139092,-0.00017394,-0.22961709,-0.0
 4629516,0.03676606,0.51327675,-0.01857154,-0.00961726,-0.00277067,0.00
 146075,-0.00015557,0.00112435,0.00092485,0.00031977,-0.00020698,-0.000
 07414,-0.00051856,-0.00019005,0.00056792,0.00111658,-0.00083494,-0.030
 14341,-0.08534439,0.00660049,0.03540348,0.53794236,-0.00642546,0.00306
 429,0.00629778,0.00006982,-0.00034026,-0.00139032,0.00050131,-0.000813
 02,-0.00065176,-0.00047754,-0.00022419,-0.00018486,-0.00449682,-0.0020
 0323,0.00044919,0.05596083,0.00971134,-0.09171475,0.07203077,-0.027463
 29,0.54483464,0.00150084,0.00169969,0.00651324,0.00004504,0.00017283,-
 0.00046555,-0.00012860,-0.00110430,-0.00063814,-0.00017491,-0.00010960
 ,-0.00000819,-0.00127720,-0.00003980,-0.00057516,-0.01860335,-0.037219
 87,0.02129475,-0.04567820,0.00831356,-0.00943534,0.06227342,0.00250984
 ,0.00180210,0.00424710,-0.00041789,0.00025064,-0.00062081,-0.00042111,
 -0.00060078,-0.00048604,0.00009715,0.00007553,0.00011761,-0.00127122,-
 0.00020857,-0.00030916,-0.01687920,-0.00356457,0.00482587,0.00753864,-
 0.21897692,0.09771570,0.00164888,0.24070688,-0.00219734,-0.00279694,-0
 .00356406,0.00041163,0.00010140,0.00047680,0.00004703,0.00059013,0.000
 22547,0.00012909,-0.00000646,0.00004712,0.00097918,0.00020073,0.000194
 35,0.01435201,0.01056048,-0.00014861,-0.00841611,0.10084067,-0.1148390
 1,-0.00356260,-0.11459925,0.12052018,-0.00022655,0.00649571,0.00371846
 ,-0.00060630,-0.00044481,-0.00071760,0.00020682,-0.00084342,-0.0001575
 4,-0.00007542,-0.00007469,0.00001091,-0.00233716,-0.00087832,-0.000007
 40,-0.03855780,-0.01306660,-0.02141064,-0.11739115,-0.00986120,-0.1079
 4502,0.00157876,0.00110477,-0.00338802,0.14696606,0.00057959,0.0001155
 6,-0.00091001,-0.00058627,0.00004441,-0.00027782,-0.00006105,-0.000348
 07,0.00034224,-0.00001312,0.00013603,-0.00015421,-0.00045804,-0.000095
 35,0.00006276,-0.00749477,0.00119227,-0.00622911,-0.00843222,-0.053650
 05,-0.01306080,0.01485342,0.00251600,0.02344148,0.01709144,0.05440690,
 0.00315697,0.00047122,-0.00100766,-0.00078317,0.00006625,-0.00004246,-
 0.00036464,-0.00049713,0.00044524,0.00002622,0.00032824,-0.00016262,-0
 .00010510,0.00013301,0.00006373,0.00755092,0.00052093,0.01593116,-0.11
 209825,-0.01752188,-0.21650944,-0.00895833,-0.00112063,-0.01401212,0.1
 2333013,0.01902950,0.22716313,-0.04425010,0.00290689,0.01488591,0.0025
 2224,-0.00075343,0.00036243,0.00470823,0.00542426,-0.00565011,-0.00000
 636,-0.00420897,0.00206454,0.00100344,-0.00094124,-0.00118195,-0.04035
 232,0.01267841,0.01700107,-0.07161877,0.02270805,0.00992605,-0.0018843
 5,0.00482678,0.00175381,0.00793749,-0.01528522,-0.01263019,0.57360780,
 -0.00888945,0.00637068,0.00700553,0.00450072,-0.00118193,0.00005866,0.
 00193133,-0.00098667,0.00168451,-0.00226961,-0.00132332,-0.00062349,-0
 .00079414,-0.00099539,-0.00072753,-0.00090455,0.00294201,-0.00923813,0
 .03653302,-0.14421856,-0.03764051,0.00986009,-0.02188062,-0.01707613,0
 .00035709,-0.00025012,0.00468932,0.00174891,0.49572051,-0.00656906,0.0
 0482027,0.01643383,0.00457087,-0.00142835,0.00037945,0.00296556,0.0054
 7637,-0.00709313,0.00112534,-0.00237126,0.00135856,0.00005901,-0.00049
 741,-0.00099830,0.02117198,-0.01593923,-0.02212391,0.02352281,-0.03394
 776,-0.09877123,-0.00580172,0.01554934,0.00936686,0.00546818,-0.018257
 94,-0.01159124,-0.04400462,-0.05880516,0.51276722,0.00314960,0.0019006
 1,-0.00647039,-0.00228986,0.00005826,0.00014061,0.00063935,-0.00129107
 ,0.00152286,-0.00059687,0.00015647,-0.00095176,-0.00002359,-0.00017323
 ,0.00034243,0.00144616,-0.00036098,0.00108219,-0.00153122,0.00782831,-
 0.00550787,0.00007079,0.00126802,0.00067936,0.00088424,-0.00042086,0.0
 0030374,-0.07143976,0.05322194,-0.03045939,0.08939173,-0.00173498,-0.0
 0047219,0.00090490,0.00028167,0.00003369,0.00004316,0.00029230,0.00126
 624,-0.00121092,0.00042090,-0.00064196,0.00028922,0.00034017,0.0001334
 9,-0.00004776,0.00077270,0.00246649,-0.00091694,0.00516127,-0.02371931
 ,0.01579956,0.00219840,-0.00356361,-0.00379308,-0.00075952,0.00059042,
 -0.00060965,0.05177776,-0.17672872,0.08899010,-0.06106602,0.18961142,0
 .00440112,0.00041887,-0.00510187,-0.00181678,0.00021764,0.00005682,-0.
 00030138,-0.00162806,0.00151642,-0.00061485,0.00066693,-0.00044037,-0.
 00015964,-0.00005705,0.00031247,-0.00103076,0.00162256,0.00131764,0.00
 579376,-0.01625524,0.00926364,0.00173748,-0.00351080,-0.00063039,0.000
 07933,0.00066240,0.00170216,-0.03219926,0.09358138,-0.11601716,0.05352
 066,-0.09986913,0.13116946,0.00447012,-0.00264664,-0.00422547,-0.00198
 712,0.00054989,-0.00046630,-0.00114322,-0.00210897,0.00193374,-0.00018
 518,0.00070412,-0.00026345,-0.00062324,0.00010752,0.00017227,0.0000253
 8,0.00193246,0.00164865,-0.00492351,-0.00368721,0.00683055,0.00036811,
 0.00067070,-0.00064847,-0.00061886,0.00099365,0.00083218,-0.15203410,-
 0.04048480,0.10791504,0.00839750,0.00253097,-0.00458572,0.18627955,0.0
 0208328,-0.00306896,-0.00318743,-0.00068735,0.00029056,0.00001549,-0.0
 0071637,-0.00008940,0.00045913,0.00029674,0.00035998,0.00012192,0.0001
 3612,0.00031286,0.00022015,0.00451189,-0.00207286,-0.00317397,0.017375
 90,0.00878563,-0.01376923,0.00011702,0.00129391,0.00052942,-0.00094938
 ,-0.00042933,-0.00054528,-0.04300800,-0.06912073,0.04650489,-0.0153830
 8,-0.00711277,0.01944019,0.05263208,0.07170216,-0.00161479,-0.00202220
 ,-0.00255402,-0.00017036,0.00018084,0.00017329,0.00009129,-0.00029505,
 0.00090564,-0.00025990,0.00000115,-0.00017835,0.00061484,0.00019402,0.
 00019607,0.00305879,-0.00319405,-0.00088483,0.01091115,0.01096070,-0.0
 0890642,-0.00013505,-0.00052624,0.00156420,-0.00048242,-0.00072204,-0.
 00048775,0.11256498,0.04471483,-0.16112616,0.01203062,0.00553399,-0.01
 213103,-0.11792078,-0.04828314,0.16645855,-0.05448859,-0.00072359,0.01
 826431,-0.04169380,0.00891623,-0.00092090,-0.01048828,-0.01869814,0.02
 135239,-0.00483097,0.00319168,0.00049718,-0.00139691,0.00135000,0.0032
 5417,0.01028759,0.01688195,0.02378780,-0.01948566,-0.01403274,-0.01114
 226,0.00193103,-0.00085338,0.00008597,0.00200096,-0.00080107,-0.000512
 47,-0.20715093,-0.05555165,-0.07945592,-0.02799848,0.00002701,-0.02490
 134,-0.03834327,-0.01654811,-0.01849220,0.39112073,-0.00082010,-0.0460
 8009,-0.00392035,0.00585529,0.00509026,-0.00029608,-0.02077018,-0.0128
 2951,0.01917815,-0.00155011,0.00678564,0.00041452,0.00039501,0.0032770
 9,0.00010547,-0.00131219,-0.00286662,-0.01959793,-0.02494269,-0.012478
 29,-0.03075370,-0.00047070,0.00213970,0.00201196,0.00202592,-0.0041916
 4,-0.00495383,-0.03814661,-0.08854563,-0.03002032,0.01436051,0.0181223
 8,0.00479595,-0.01126694,-0.00092218,-0.00663101,0.07687847,0.13051082
 ,0.01469989,-0.00620299,-0.06082799,-0.01375348,0.00260652,0.00304670,
 0.01731846,0.01459150,-0.00366239,0.00148273,-0.00150503,-0.00401977,0
 .00347069,-0.00022092,0.00196991,-0.00286562,-0.02133533,-0.01935579,-
 0.01204763,-0.02046894,-0.02891010,-0.00011168,-0.00146470,0.00090156,
 0.00116939,-0.00396636,-0.00140422,-0.06260178,-0.02805812,-0.12340586
 ,-0.02605614,-0.00508646,-0.01090778,0.00892690,0.00174992,0.01717323,
 0.07174039,0.06890448,0.23043265,-0.04892714,0.00170563,0.01589728,-0.
 03944374,-0.00778941,0.02257543,0.00292416,-0.00550648,-0.00280523,0.0
 0135902,-0.00102476,0.00024383,-0.20915987,-0.02177511,-0.06972986,0.0
 0265325,0.00081228,-0.00001290,-0.00158043,-0.00095809,0.00044977,0.00
 023908,0.00039493,-0.00028854,0.00041950,0.00004836,0.00013932,-0.0001
 9237,0.00016516,-0.00022619,-0.00005479,-0.00010033,0.00001128,0.00026
 734,0.00000158,-0.00021322,0.00082337,0.00025345,-0.00145085,0.5831472
 2,-0.00238728,0.00625450,0.00442790,0.00550134,0.00712992,-0.00784320,
 0.00099692,-0.00502341,-0.00214335,0.00035472,-0.00070506,-0.00036340,
 -0.02164326,-0.07699603,-0.02080575,-0.00010609,0.00026842,0.00011835,
 -0.00110981,0.00035841,0.00003091,0.00016666,0.00009395,-0.00009735,0.
 00003493,0.00000639,0.00006996,-0.00026723,-0.00010748,-0.00007867,0.0
 0010541,-0.00004400,0.00008408,0.00007534,0.00002265,-0.00002258,0.000
 70315,-0.00055190,0.00014790,-0.02154994,0.55835254,-0.00788062,0.0035
 4957,0.01778570,0.01683834,-0.00152168,-0.02648093,0.00249275,-0.00385
 912,-0.00282400,0.00081885,-0.00092705,0.00021748,-0.09332358,-0.01944
 593,-0.13139259,0.00626043,0.00222745,-0.00094157,-0.00060421,-0.00014
 317,0.00119694,0.00026768,0.00032539,-0.00022098,0.00053664,0.00008759
 ,-0.00002748,-0.00010415,0.00029544,0.00014572,-0.00010962,-0.00006428
 ,-0.00005934,0.00011532,-0.00004307,-0.00017534,-0.00052876,0.00006774
 ,-0.00137902,-0.04323488,0.02656633,0.44885889,0.00402733,-0.00018538,
 -0.00529756,0.00058417,-0.00068197,0.00201533,-0.00106772,0.00170311,0
 .00054213,-0.00000466,0.00037040,0.00003202,-0.04030578,0.00812760,0.0
 0211855,-0.00214513,-0.00096616,0.00003360,0.00055136,0.00003999,-0.00
 033565,-0.00013677,-0.00014236,0.00011612,-0.00021696,-0.00004912,-0.0
 0005397,0.00028391,0.00002750,0.00013531,-0.00003485,0.00004614,-0.000
 05691,-0.00011176,-0.00001480,0.00006603,-0.00058824,-0.00005410,0.000
 23384,-0.17592509,0.08848394,0.07569819,0.21332844,-0.00202828,-0.0008
 8272,0.00102046,-0.00204013,0.00086300,0.00200775,0.00050404,0.0004712
 9,0.00017515,-0.00010373,0.00007302,0.00001909,-0.00416274,0.00858838,
 0.00524600,0.00015522,0.00007778,-0.00000996,-0.00017082,-0.00008845,0
 .00001274,0.00001758,0.00003534,-0.00002465,0.00002845,0.00000512,0.00
 002558,-0.00010711,-0.00002139,-0.00005842,-0.00000256,-0.00001095,0.0
 0001062,0.00003699,0.00001284,-0.00002171,0.00016679,0.00015653,-0.000
 14200,0.09323996,-0.11527177,-0.05295712,-0.09956764,0.11748347,-0.000
 74973,0.00042398,-0.00486818,0.00461397,0.00230663,-0.00451254,-0.0002
 1393,0.00023480,0.00063929,-0.00001193,0.00023023,0.00000523,-0.024665
 47,0.00991997,0.00961925,-0.00054126,-0.00024462,0.00034829,0.00002601
 ,-0.00011430,-0.00009799,-0.00004535,-0.00002018,0.00000768,-0.0000203
 8,0.00000618,0.00003651,-0.00017757,-0.00012070,-0.00012900,0.00007935
 ,-0.00000976,0.00006704,0.00004389,0.00002368,-0.00000018,0.00057928,-
 0.00007456,0.00038933,0.07850240,-0.05074506,-0.09264585,-0.07865884,0
 .05412031,0.09482688,0.00283625,-0.00522935,-0.00391886,0.00133707,0.0
 0086906,0.00052521,0.00058050,0.00112846,0.00004436,0.00010523,0.00015
 251,0.00010743,-0.02202236,-0.03234152,-0.01057048,-0.00202654,-0.0000
 7960,0.00018012,0.00024042,0.00020263,-0.00027092,-0.00006321,-0.00007
 512,0.00006622,-0.00018147,-0.00002756,-0.00000158,-0.00010057,-0.0001
 5512,-0.00005483,-0.00002794,0.00002849,-0.00001706,-0.00001565,0.0000
 4542,0.00005910,0.00006800,0.00043554,0.00009952,-0.05664995,-0.033383
 44,0.00635789,0.00553882,0.02304938,0.00065020,0.06933906,0.00458820,-
 0.00315378,-0.00367962,-0.00102807,0.00151269,0.00076721,0.00005106,0.
 00216845,0.00073740,-0.00041221,0.00015355,0.00009428,-0.01846959,0.00
 010822,-0.00865803,-0.00156062,-0.00023402,0.00012095,0.00047590,0.000
 17354,-0.00020760,-0.00006735,-0.00007885,0.00006502,-0.00016162,-0.00
 002300,-0.00003757,0.00006802,-0.00007012,0.00004456,-0.00004943,0.000
 05013,-0.00004533,-0.00006409,0.00001694,0.00005737,-0.00031302,0.0002
 9009,0.00010310,-0.03533781,-0.26529482,0.00202861,-0.00070346,-0.0167
 2461,0.00053618,0.05225532,0.29206458,0.00266430,-0.00172018,-0.002851
 08,-0.00003087,-0.00194620,0.00199084,0.00000091,0.00041081,0.00017310
 ,-0.00005791,0.00017232,-0.00006309,-0.01660145,-0.02075707,-0.0005105
 3,-0.00120738,-0.00023583,0.00018159,0.00015773,0.00016271,-0.00017717
 ,-0.00005053,-0.00006709,0.00004581,-0.00010400,-0.00001878,-0.0000018
 0,-0.00003896,-0.00008466,-0.00003126,0.00000233,0.00001236,0.00000071
 ,-0.00002105,0.00002194,0.00004155,0.00006737,0.00010767,0.00017831,0.
 00508738,-0.00133795,-0.05074140,-0.00048667,-0.01460884,0.00127208,0.
 00611750,0.00461375,0.05625600,-0.03043587,0.00933006,-0.03584030,-0.2
 3800869,0.03410058,0.00800192,0.00116790,-0.00275917,0.00508120,-0.000
 52129,0.00085206,-0.00022379,-0.02345434,0.00894125,-0.02363003,0.0013
 2264,0.00034182,0.00304258,-0.00115312,-0.00045412,0.00040747,-0.00001
 995,0.00012756,-0.00023282,0.00037450,0.00017905,0.00030642,-0.0017558
 1,0.00022899,-0.00109994,0.00033067,-0.00028096,0.00041099,0.00053147,
 0.00023106,-0.00011392,0.00404309,-0.00109749,0.00062138,-0.06600440,-
 0.01016366,0.03262806,-0.00372463,-0.00909175,0.02166768,-0.00002883,0
 .00075040,0.00279685,0.50957552,0.00913699,-0.00199569,0.00506868,0.03
 117411,-0.08068743,-0.00365058,-0.00052452,0.00002478,0.00015297,0.000
 05079,-0.00000382,-0.00000181,0.00038886,0.00787188,-0.00751560,-0.001
 07184,-0.00087398,-0.00109636,0.00050823,0.00026856,-0.00014771,-0.000
 09983,-0.00014825,0.00014215,-0.00016181,-0.00008432,-0.00009385,0.000
 91692,0.00059650,0.00032143,-0.00024706,0.00001734,-0.00022573,-0.0001
 0472,-0.00002994,0.00007959,-0.00187145,0.00205358,0.00004775,-0.00732
 301,-0.09970509,0.03638529,0.00504920,0.00383412,-0.01730105,-0.006663
 53,-0.01275568,0.03262643,0.00396913,0.56916316,-0.01626450,0.00171205
 ,0.00233733,0.03374579,-0.00294523,-0.08338566,0.00058248,0.00046232,-
 0.00124484,0.00015129,-0.00022616,0.00015006,-0.01911562,0.00269808,-0
 .04677226,0.00075558,0.00014240,-0.00085032,0.00016095,0.00013768,0.00
 022749,0.00003976,0.00000995,0.00000566,0.00000867,-0.00001691,-0.0000
 6389,-0.00008483,0.00035689,0.00080391,-0.00013826,0.00001139,-0.00009
 140,-0.00023619,-0.00007801,-0.00010954,-0.00348315,0.00072373,-0.0003
 6418,0.01284601,0.03748610,-0.14622641,0.00273974,0.00535439,-0.005330
 36,0.00006231,-0.00027400,-0.00199688,0.07731947,0.02384822,0.50968661
 ,0.00149087,0.00222221,0.00723443,-0.02810449,0.03974556,-0.00339003,-
 0.00034733,0.00079470,-0.00139167,0.00011851,-0.00016439,0.00007155,0.
 00173935,0.00023160,-0.00055796,-0.00002695,-0.00045159,-0.00039452,0.
 00003128,0.00014472,-0.00004116,-0.00003241,-0.00007015,0.00004674,-0.
 00001993,-0.00005455,-0.00005233,0.00029133,0.00014727,0.00033566,-0.0
 0010795,0.00001567,-0.00010342,-0.00016018,-0.00006757,-0.00001194,-0.
 00154544,-0.00043579,-0.00053900,0.00002914,-0.00874596,0.00115013,0.0
 0057636,-0.00030622,-0.00011093,0.00039299,-0.00065849,0.00205538,-0.0
 4801576,0.02448907,-0.00586555,0.06927184,-0.00301193,-0.00043802,-0.0
 0512665,0.01891119,-0.00010960,0.00061801,0.00046378,-0.00035795,0.000
 73565,-0.00011392,0.00010377,-0.00006199,0.00086105,0.00165543,0.00103
 159,0.00055789,0.00052364,0.00048898,-0.00023783,-0.00019527,0.0001171
 1,0.00005257,0.00010687,-0.00008841,0.00008157,0.00005741,0.00006557,-
 0.00044520,-0.00018359,-0.00031654,0.00010649,-0.00002068,0.00010794,0
 .00015342,0.00005830,-0.00002325,0.00133996,0.00009716,0.00031297,-0.0
 0130803,-0.01261350,-0.00128673,-0.00102754,0.00122382,0.00066970,-0.0
 0067683,0.00069874,0.00289208,0.02594356,-0.27602449,0.01628182,-0.041
 63599,0.30174994,-0.00037799,0.00062789,-0.00124332,0.00333640,-0.0046
 2676,0.00598346,-0.00013882,-0.00016271,0.00015289,-0.00002863,0.00001
 211,-0.00005302,0.00000059,-0.00236871,0.00145773,0.00007922,-0.000131
 18,0.00015332,-0.00009486,-0.00002438,0.00002126,-0.00000503,0.0000066
 8,-0.00000535,0.00001498,0.00000881,0.00000662,-0.00001324,0.00001011,
 -0.00000900,0.00001373,-0.00000592,0.00000505,0.00001404,-0.00000004,-
 0.00000373,0.00008882,-0.00003048,0.00003560,-0.00066340,0.03190385,-0
 .00155951,-0.00005800,-0.00043316,0.00150501,0.00071349,0.00264525,-0.
 00518690,-0.00493688,0.01332157,-0.05561933,0.00051320,-0.01738940,0.0
 5242627,0.00009668,-0.00363089,0.00662830,-0.03943317,-0.00877712,-0.0
 2480980,0.00008543,0.00081493,-0.00057356,-0.00000916,-0.00021864,0.00
 000919,0.00215170,-0.00069199,0.00138620,-0.00069187,-0.00008507,-0.00
 092325,0.00040454,0.00018819,-0.00009851,-0.00000813,-0.00005684,0.000
 06673,-0.00013672,-0.00006164,-0.00008589,0.00043099,0.00032731,0.0004
 0190,-0.00020475,0.00004835,-0.00016749,-0.00019338,-0.00005642,0.0000
 1778,-0.00226419,0.00066271,-0.00033701,0.00607570,0.00293426,0.002621
 54,-0.00062880,0.00038255,-0.00096740,0.00067818,0.00063684,-0.0003509
 4,-0.10422309,-0.05761554,-0.08322396,0.00441877,-0.00001421,0.0015423
 7,0.13345127,0.00134936,-0.00033883,0.00124632,0.00323248,0.00904954,0
 .00710670,-0.00014229,0.00007611,-0.00015069,0.00001461,-0.00001960,0.
 00002405,0.00061230,0.00087150,0.00261857,-0.00006569,0.00007726,0.000
 05235,0.00007132,-0.00000221,-0.00002812,0.00001074,0.00000124,-0.0000
 0119,-0.00001852,0.00000136,-0.00001976,0.00010701,-0.00001545,0.00001
 410,-0.00001175,0.00002258,-0.00001720,-0.00002378,-0.00000966,0.00001
 877,-0.00006206,-0.00005739,-0.00001332,0.00605164,0.00382627,0.008714
 73,-0.00045535,0.00017517,0.00015856,0.00046526,0.00109794,-0.00024346
 ,-0.06114836,-0.11152124,-0.08568472,-0.01520013,-0.01633197,-0.023363
 55,0.06521321,0.11309739,0.00319670,-0.00100053,-0.00126802,0.00246043
 ,0.00502583,0.00901459,-0.00029652,0.00070107,0.00015811,-0.00007493,0
 .00002682,-0.00000743,-0.00187216,0.00298524,-0.00650123,-0.00100486,-
 0.00025482,-0.00008171,0.00034932,0.00011500,-0.00013789,-0.00006025,-
 0.00007276,0.00006482,-0.00010368,-0.00002698,-0.00003788,0.00012788,-
 0.00002226,0.00004069,-0.00002445,0.00002920,-0.00003207,-0.00006514,-
 0.00000658,0.00004480,-0.00028069,-0.00003141,0.00010980,-0.01712763,-
 0.01739809,-0.01353031,0.00121674,0.00026377,-0.00113250,-0.00014963,0
 .00108846,0.00142012,-0.08620634,-0.08196138,-0.17115600,0.00105141,0.
 00097154,0.00193295,0.09886380,0.08956786,0.18109917\\0.00002419,0.000
 00563,0.00000562,-0.00001920,-0.00004483,-0.00000968,-0.00002782,-0.00
 001777,-0.00001894,0.00000519,0.00000468,0.00000760,0.00000529,0.00000
 342,0.00001688,-0.00001404,0.00001823,-0.00000452,0.00003819,-0.000022
 44,-0.00000344,-0.00000232,-0.00000038,0.00000214,-0.00000228,-0.00000
 209,0.00000334,0.00001593,0.00003212,-0.00000321,-0.00000588,0.0000008
 1,-0.00000048,-0.00000779,-0.00000965,0.,-0.00001036,0.00001423,-0.000
 00132,-0.00000399,-0.00000196,-0.00001180,-0.00000190,0.00000092,0.000
 00135,-0.00000007,-0.00000043,0.00000248,0.00000477,0.00001037,0.00000
 577,0.00000077,0.00000548,0.00000535,0.00000133,0.00000366,0.00000284\
 \\@
 The archive entry for this job was punched.


 Everything starts as somebody's daydream.
                           -- Larry Niven
 Job cpu time:       0 days  3 hours 19 minutes 35.1 seconds.
 Elapsed time:       0 days  0 hours 50 minutes  1.5 seconds.
 File lengths (MBytes):  RWF=    318 Int=      0 D2E=      0 Chk=     17 Scr=      1
 Normal termination of Gaussian 16 at Sun Mar 10 20:45:53 2024.
