 Entering Gaussian System, Link 0=/opt/software/gaussian/g16.c01/g16
 Initial command:
 /opt/software/gaussian/g16.c01/l1.exe "/scratch/arhender/18149556/Gau-26399.inp" -scrdir="/scratch/arhender/18149556/"
 Entering Link 1 = /opt/software/gaussian/g16.c01/l1.exe PID=     26405.
  
 Copyright (c) 1988-2019, Gaussian, Inc.  All Rights Reserved.
  
 This is part of the Gaussian(R) 16 program.  It is based on
 the Gaussian(R) 09 system (copyright 2009, Gaussian, Inc.),
 the Gaussian(R) 03 system (copyright 2003, Gaussian, Inc.),
 the Gaussian(R) 98 system (copyright 1998, Gaussian, Inc.),
 the Gaussian(R) 94 system (copyright 1995, Gaussian, Inc.),
 the Gaussian 92(TM) system (copyright 1992, Gaussian, Inc.),
 the Gaussian 90(TM) system (copyright 1990, Gaussian, Inc.),
 the Gaussian 88(TM) system (copyright 1988, Gaussian, Inc.),
 the Gaussian 86(TM) system (copyright 1986, Carnegie Mellon
 University), and the Gaussian 82(TM) system (copyright 1983,
 Carnegie Mellon University). Gaussian is a federally registered
 trademark of Gaussian, Inc.
  
 This software contains proprietary and confidential information,
 including trade secrets, belonging to Gaussian, Inc.
  
 This software is provided under written license and may be
 used, copied, transmitted, or stored only in accord with that
 written license.
  
 The following legend is applicable only to US Government
 contracts under FAR:
  
                    RESTRICTED RIGHTS LEGEND
  
 Use, reproduction and disclosure by the US Government is
 subject to restrictions as set forth in subparagraphs (a)
 and (c) of the Commercial Computer Software - Restricted
 Rights clause in FAR 52.227-19.
  
 Gaussian, Inc.
 340 Quinnipiac St., Bldg. 40, Wallingford CT 06492
  
  
 ---------------------------------------------------------------
 Warning -- This program may not be used in any manner that
 competes with the business of Gaussian, Inc. or will provide
 assistance to any competitor of Gaussian, Inc.  The licensee
 of this program is prohibited from giving any competitor of
 Gaussian, Inc. access to this program.  By using this program,
 the user acknowledges that Gaussian, Inc. is engaged in the
 business of creating and licensing software in the field of
 computational chemistry and represents and warrants to the
 licensee that it is not a competitor of Gaussian, Inc. and that
 it will not use this program in any manner prohibited above.
 ---------------------------------------------------------------
  

 Cite this work as:
 Gaussian 16, Revision C.01,
 M. J. Frisch, G. W. Trucks, H. B. Schlegel, G. E. Scuseria, 
 M. A. Robb, J. R. Cheeseman, G. Scalmani, V. Barone, 
 G. A. Petersson, H. Nakatsuji, X. Li, M. Caricato, A. V. Marenich, 
 J. Bloino, B. G. Janesko, R. Gomperts, B. Mennucci, H. P. Hratchian, 
 J. V. Ortiz, A. F. Izmaylov, J. L. Sonnenberg, D. Williams-Young, 
 F. Ding, F. Lipparini, F. Egidi, J. Goings, B. Peng, A. Petrone, 
 T. Henderson, D. Ranasinghe, V. G. Zakrzewski, J. Gao, N. Rega, 
 G. Zheng, W. Liang, M. Hada, M. Ehara, K. Toyota, R. Fukuda, 
 J. Hasegawa, M. Ishida, T. Nakajima, Y. Honda, O. Kitao, H. Nakai, 
 T. Vreven, K. Throssell, J. A. Montgomery, Jr., J. E. Peralta, 
 F. Ogliaro, M. J. Bearpark, J. J. Heyd, E. N. Brothers, K. N. Kudin, 
 V. N. Staroverov, T. A. Keith, R. Kobayashi, J. Normand, 
 K. Raghavachari, A. P. Rendell, J. C. Burant, S. S. Iyengar, 
 J. Tomasi, M. Cossi, J. M. Millam, M. Klene, C. Adamo, R. Cammi, 
 J. W. Ochterski, R. L. Martin, K. Morokuma, O. Farkas, 
 J. B. Foresman, and D. J. Fox, Gaussian, Inc., Wallingford CT, 2019.
 
 ******************************************
 Gaussian 16:  ES64L-G16RevC.01  3-Jul-2019
                27-Mar-2024 
 ******************************************
 %chk=PbiLmL_to_QbiLmL_collapseIRC_Reverse_ReactantOpt.chk
 %mem=1600MB
 %nprocs=4
 Will use up to    4 processors via shared memory.
 ----------------------------------------------------
 # opt=calcfc freq wb97xd/def2tzvpp geom=connectivity
 ----------------------------------------------------
 1/10=4,18=20,19=15,26=3,38=1,57=2/1,3;
 2/9=110,12=2,17=6,18=5,40=1/2;
 3/5=44,7=202,11=2,25=1,30=1,71=2,74=-58,140=1/1,2,3;
 4//1;
 5/5=2,38=5/2;
 8/6=4,10=90,11=11/1;
 11/6=1,8=1,9=11,15=111,16=1/1,2,10;
 10/6=1,13=1/2;
 6/7=2,8=2,9=2,10=2,28=1/1;
 7/10=1,25=1/1,2,3,16;
 1/10=4,18=20,19=15,26=3/3(2);
 2/9=110/2;
 99//99;
 2/9=110/2;
 3/5=44,7=202,11=2,25=1,30=1,71=1,74=-58/1,2,3;
 4/5=5,16=3,69=1/1;
 5/5=2,38=5/2;
 7//1,2,3,16;
 1/18=20,19=15,26=3/3(-5);
 2/9=110/2;
 6/7=2,8=2,9=2,10=2,19=2,28=1/1;
 99/9=1/99;
 --------------------------------------------------------
 Convert TS for PbiL to QbiL collapse to PbiLmL to QbiLmL
 --------------------------------------------------------
 Symbolic Z-matrix:
 Charge = -1 Multiplicity = 1
 Si                   -0.92365   0.25677   0.15168 
 O                     0.31842   1.4173    0.24786 
 O                    -2.03237   1.37541  -0.62515 
 H                    -1.57771   2.19788  -0.77134 
 O                    -0.96468  -0.73813  -1.23135 
 O                    -1.94853   0.13111   1.47702 
 H                    -2.66971   0.73151   1.29221 
 O                     0.16021  -0.99633   0.90461 
 C                     0.00975  -2.22931   0.28666 
 H                     0.89757  -2.85606   0.43789 
 H                    -0.86151  -2.77321   0.68747 
 C                    -0.207    -1.91016  -1.18971 
 H                     0.76496  -1.75161  -1.67897 
 H                    -0.72987  -2.71508  -1.71987 
 C                     1.38475   1.45197  -0.65146 
 H                     1.20567   0.80157  -1.51869 
 H                     1.49985   2.47729  -1.03548 
 C                     2.69478   1.04537   0.00126 
 H                     3.51616   1.2444   -0.69796 
 H                     2.84642   1.68448   0.88455 
 O                     2.74547  -0.31206   0.34601 
 H                     1.85233  -0.55944   0.67313 
 

 GradGradGradGradGradGradGradGradGradGradGradGradGradGradGradGradGradGrad
 Berny optimization.
 Initialization pass.
                           ----------------------------
                           !    Initial Parameters    !
                           ! (Angstroms and Degrees)  !
 --------------------------                            --------------------------
 ! Name  Definition              Value          Derivative Info.                !
 --------------------------------------------------------------------------------
 ! R1    R(1,2)                  1.7026         calculate D2E/DX2 analytically  !
 ! R2    R(1,3)                  1.7562         calculate D2E/DX2 analytically  !
 ! R3    R(1,5)                  1.7042         calculate D2E/DX2 analytically  !
 ! R4    R(1,6)                  1.6801         calculate D2E/DX2 analytically  !
 ! R5    R(1,8)                  1.8199         calculate D2E/DX2 analytically  !
 ! R6    R(2,15)                 1.3954         calculate D2E/DX2 analytically  !
 ! R7    R(3,4)                  0.9511         calculate D2E/DX2 analytically  !
 ! R8    R(5,12)                 1.3962         calculate D2E/DX2 analytically  !
 ! R9    R(6,7)                  0.9564         calculate D2E/DX2 analytically  !
 ! R10   R(8,9)                  1.3874         calculate D2E/DX2 analytically  !
 ! R11   R(9,10)                 1.0972         calculate D2E/DX2 analytically  !
 ! R12   R(9,11)                 1.1025         calculate D2E/DX2 analytically  !
 ! R13   R(9,12)                 1.5259         calculate D2E/DX2 analytically  !
 ! R14   R(12,13)                1.0996         calculate D2E/DX2 analytically  !
 ! R15   R(12,14)                1.0965         calculate D2E/DX2 analytically  !
 ! R16   R(15,16)                1.0987         calculate D2E/DX2 analytically  !
 ! R17   R(15,17)                1.1009         calculate D2E/DX2 analytically  !
 ! R18   R(15,18)                1.5191         calculate D2E/DX2 analytically  !
 ! R19   R(18,19)                1.0969         calculate D2E/DX2 analytically  !
 ! R20   R(18,20)                1.1007         calculate D2E/DX2 analytically  !
 ! R21   R(18,21)                1.4014         calculate D2E/DX2 analytically  !
 ! R22   R(21,22)                0.9828         calculate D2E/DX2 analytically  !
 ! A1    A(2,1,3)               92.9445         calculate D2E/DX2 analytically  !
 ! A2    A(2,1,5)              117.4735         calculate D2E/DX2 analytically  !
 ! A3    A(2,1,6)              116.8358         calculate D2E/DX2 analytically  !
 ! A4    A(2,1,8)               90.659          calculate D2E/DX2 analytically  !
 ! A5    A(3,1,5)               89.867          calculate D2E/DX2 analytically  !
 ! A6    A(3,1,6)               90.6567         calculate D2E/DX2 analytically  !
 ! A7    A(5,1,6)              125.5799         calculate D2E/DX2 analytically  !
 ! A8    A(5,1,8)               87.0261         calculate D2E/DX2 analytically  !
 ! A9    A(6,1,8)               89.1658         calculate D2E/DX2 analytically  !
 ! A10   A(1,2,15)             122.5487         calculate D2E/DX2 analytically  !
 ! A11   A(1,3,4)              108.4838         calculate D2E/DX2 analytically  !
 ! A12   A(1,5,12)             116.9219         calculate D2E/DX2 analytically  !
 ! A13   A(1,6,7)              105.1055         calculate D2E/DX2 analytically  !
 ! A14   A(1,8,9)              111.2894         calculate D2E/DX2 analytically  !
 ! A15   A(8,9,10)             111.0085         calculate D2E/DX2 analytically  !
 ! A16   A(8,9,11)             111.2354         calculate D2E/DX2 analytically  !
 ! A17   A(8,9,12)             105.0982         calculate D2E/DX2 analytically  !
 ! A18   A(10,9,11)            107.9101         calculate D2E/DX2 analytically  !
 ! A19   A(10,9,12)            111.5771         calculate D2E/DX2 analytically  !
 ! A20   A(11,9,12)            110.0392         calculate D2E/DX2 analytically  !
 ! A21   A(5,12,9)             106.35           calculate D2E/DX2 analytically  !
 ! A22   A(5,12,13)            110.2031         calculate D2E/DX2 analytically  !
 ! A23   A(5,12,14)            110.0602         calculate D2E/DX2 analytically  !
 ! A24   A(9,12,13)            109.5773         calculate D2E/DX2 analytically  !
 ! A25   A(9,12,14)            112.4565         calculate D2E/DX2 analytically  !
 ! A26   A(13,12,14)           108.1918         calculate D2E/DX2 analytically  !
 ! A27   A(2,15,16)            111.6817         calculate D2E/DX2 analytically  !
 ! A28   A(2,15,17)            109.1383         calculate D2E/DX2 analytically  !
 ! A29   A(2,15,18)            112.0523         calculate D2E/DX2 analytically  !
 ! A30   A(16,15,17)           107.0395         calculate D2E/DX2 analytically  !
 ! A31   A(16,15,18)           108.7403         calculate D2E/DX2 analytically  !
 ! A32   A(17,15,18)           107.9992         calculate D2E/DX2 analytically  !
 ! A33   A(15,18,19)           108.8635         calculate D2E/DX2 analytically  !
 ! A34   A(15,18,20)           107.9507         calculate D2E/DX2 analytically  !
 ! A35   A(15,18,21)           113.3375         calculate D2E/DX2 analytically  !
 ! A36   A(19,18,20)           107.6386         calculate D2E/DX2 analytically  !
 ! A37   A(19,18,21)           107.7865         calculate D2E/DX2 analytically  !
 ! A38   A(20,18,21)           111.0998         calculate D2E/DX2 analytically  !
 ! A39   A(18,21,22)           107.0265         calculate D2E/DX2 analytically  !
 ! A40   L(3,1,8,2,-1)         183.6035         calculate D2E/DX2 analytically  !
 ! A41   L(3,1,8,2,-2)         181.6269         calculate D2E/DX2 analytically  !
 ! D1    D(3,1,2,15)          -100.5343         calculate D2E/DX2 analytically  !
 ! D2    D(5,1,2,15)            -9.1518         calculate D2E/DX2 analytically  !
 ! D3    D(6,1,2,15)           167.2373         calculate D2E/DX2 analytically  !
 ! D4    D(8,1,2,15)            77.8388         calculate D2E/DX2 analytically  !
 ! D5    D(2,1,3,4)              3.0681         calculate D2E/DX2 analytically  !
 ! D6    D(5,1,3,4)           -114.4371         calculate D2E/DX2 analytically  !
 ! D7    D(6,1,3,4)            119.9821         calculate D2E/DX2 analytically  !
 ! D8    D(2,1,5,12)            87.5171         calculate D2E/DX2 analytically  !
 ! D9    D(3,1,5,12)          -179.233          calculate D2E/DX2 analytically  !
 ! D10   D(6,1,5,12)           -88.5208         calculate D2E/DX2 analytically  !
 ! D11   D(8,1,5,12)            -1.6789         calculate D2E/DX2 analytically  !
 ! D12   D(2,1,6,7)             91.028          calculate D2E/DX2 analytically  !
 ! D13   D(3,1,6,7)             -2.6053         calculate D2E/DX2 analytically  !
 ! D14   D(5,1,6,7)            -92.9116         calculate D2E/DX2 analytically  !
 ! D15   D(8,1,6,7)           -178.6555         calculate D2E/DX2 analytically  !
 ! D16   D(2,1,8,9)           -139.2562         calculate D2E/DX2 analytically  !
 ! D17   D(5,1,8,9)            -21.7791         calculate D2E/DX2 analytically  !
 ! D18   D(6,1,8,9)            103.9137         calculate D2E/DX2 analytically  !
 ! D19   D(1,2,15,16)           12.1455         calculate D2E/DX2 analytically  !
 ! D20   D(1,2,15,17)          130.2942         calculate D2E/DX2 analytically  !
 ! D21   D(1,2,15,18)         -110.1365         calculate D2E/DX2 analytically  !
 ! D22   D(1,5,12,9)            21.8762         calculate D2E/DX2 analytically  !
 ! D23   D(1,5,12,13)          -96.8125         calculate D2E/DX2 analytically  !
 ! D24   D(1,5,12,14)          143.9436         calculate D2E/DX2 analytically  !
 ! D25   D(1,8,9,10)           157.2379         calculate D2E/DX2 analytically  !
 ! D26   D(1,8,9,11)           -82.5867         calculate D2E/DX2 analytically  !
 ! D27   D(1,8,9,12)            36.4653         calculate D2E/DX2 analytically  !
 ! D28   D(8,9,12,5)           -36.2409         calculate D2E/DX2 analytically  !
 ! D29   D(8,9,12,13)           82.858          calculate D2E/DX2 analytically  !
 ! D30   D(8,9,12,14)         -156.775          calculate D2E/DX2 analytically  !
 ! D31   D(10,9,12,5)         -156.6386         calculate D2E/DX2 analytically  !
 ! D32   D(10,9,12,13)         -37.5396         calculate D2E/DX2 analytically  !
 ! D33   D(10,9,12,14)          82.8273         calculate D2E/DX2 analytically  !
 ! D34   D(11,9,12,5)           83.609          calculate D2E/DX2 analytically  !
 ! D35   D(11,9,12,13)        -157.292          calculate D2E/DX2 analytically  !
 ! D36   D(11,9,12,14)         -36.9251         calculate D2E/DX2 analytically  !
 ! D37   D(2,15,18,19)        -170.9757         calculate D2E/DX2 analytically  !
 ! D38   D(2,15,18,20)         -54.4062         calculate D2E/DX2 analytically  !
 ! D39   D(2,15,18,21)          69.0917         calculate D2E/DX2 analytically  !
 ! D40   D(16,15,18,19)         65.0817         calculate D2E/DX2 analytically  !
 ! D41   D(16,15,18,20)       -178.3487         calculate D2E/DX2 analytically  !
 ! D42   D(16,15,18,21)        -54.8509         calculate D2E/DX2 analytically  !
 ! D43   D(17,15,18,19)        -50.741          calculate D2E/DX2 analytically  !
 ! D44   D(17,15,18,20)         65.8285         calculate D2E/DX2 analytically  !
 ! D45   D(17,15,18,21)       -170.6736         calculate D2E/DX2 analytically  !
 ! D46   D(15,18,21,22)        -38.2651         calculate D2E/DX2 analytically  !
 ! D47   D(19,18,21,22)       -158.8097         calculate D2E/DX2 analytically  !
 ! D48   D(20,18,21,22)         83.488          calculate D2E/DX2 analytically  !
 --------------------------------------------------------------------------------
 Trust Radius=3.00D-01 FncErr=1.00D-07 GrdErr=1.00D-06 EigMax=2.50D+02 EigMin=1.00D-04
 Number of steps in this run=    121 maximum allowed number of steps=    132.
 GradGradGradGradGradGradGradGradGradGradGradGradGradGradGradGradGradGrad

                          Input orientation:                          
 ---------------------------------------------------------------------
 Center     Atomic      Atomic             Coordinates (Angstroms)
 Number     Number       Type             X           Y           Z
 ---------------------------------------------------------------------
      1         14           0       -0.923645    0.256769    0.151683
      2          8           0        0.318418    1.417304    0.247862
      3          8           0       -2.032369    1.375414   -0.625151
      4          1           0       -1.577711    2.197884   -0.771343
      5          8           0       -0.964678   -0.738127   -1.231353
      6          8           0       -1.948534    0.131112    1.477022
      7          1           0       -2.669708    0.731511    1.292212
      8          8           0        0.160208   -0.996330    0.904609
      9          6           0        0.009748   -2.229310    0.286656
     10          1           0        0.897574   -2.856062    0.437887
     11          1           0       -0.861509   -2.773207    0.687469
     12          6           0       -0.206998   -1.910157   -1.189708
     13          1           0        0.764960   -1.751609   -1.678967
     14          1           0       -0.729871   -2.715082   -1.719867
     15          6           0        1.384753    1.451968   -0.651463
     16          1           0        1.205667    0.801573   -1.518691
     17          1           0        1.499853    2.477290   -1.035481
     18          6           0        2.694781    1.045375    0.001256
     19          1           0        3.516164    1.244397   -0.697959
     20          1           0        2.846422    1.684478    0.884546
     21          8           0        2.745465   -0.312061    0.346006
     22          1           0        1.852333   -0.559435    0.673130
 ---------------------------------------------------------------------
                    Distance matrix (angstroms):
                    1          2          3          4          5
     1  Si   0.000000
     2  O    1.702590   0.000000
     3  O    1.756162   2.508008   0.000000
     4  H    2.246710   2.289845   0.951075   0.000000
     5  O    1.704198   2.912095   2.444279   3.034399   0.000000
     6  O    1.680092   2.881700   2.444268   3.076394   3.009791
     7  H    2.138907   3.238808   2.120635   2.756985   3.381618
     8  O    1.819860   2.506387   3.573896   4.004021   2.427833
     9  C    2.658953   3.659860   4.242130   4.820730   2.340403
    10  H    3.617799   4.316618   5.255474   5.756009   3.277193
    11  H    3.077610   4.375599   4.506100   5.229993   2.798941
    12  C    2.647354   3.662604   3.800747   4.350849   1.396233
    13  H    3.199414   3.735516   4.325951   4.680853   2.054057
    14  H    3.517406   4.695475   4.430244   5.075014   2.049910
    15  C    2.720707   1.395370   3.418081   3.057279   3.263834
    16  H    2.760603   2.070518   3.407724   3.202406   2.676497
    17  H    3.494770   2.041159   3.722780   3.101489   4.056006
    18  C    3.706418   2.417901   4.779881   4.492146   4.253451
    19  H    4.627008   3.339170   5.550557   5.182865   4.928778
    20  H    4.097419   2.620602   5.116376   4.751685   4.987036
    21  O    3.718023   2.981760   5.159304   5.122318   4.053980
    22  H    2.940094   2.537961   4.529910   4.631902   3.405075
                    6          7          8          9         10
     6  O    0.000000
     7  H    0.956413   0.000000
     8  O    2.458775   3.338277   0.000000
     9  C    3.289898   4.117899   1.387351   0.000000
    10  H    4.254802   5.130892   2.054298   1.097235   0.000000
    11  H    3.200013   3.989780   2.061152   1.102526   1.778631
    12  C    3.783011   4.382154   2.314321   1.525938   2.182632
    13  H    4.568146   5.175977   2.758811   2.159217   2.391333
    14  H    4.450400   4.971377   3.261016   2.192976   2.706355
    15  C    4.169642   4.553634   3.148815   4.040113   4.470252
    16  H    4.401454   4.787966   3.193403   3.725017   4.159497
    17  H    4.869147   5.084401   4.198170   5.110826   5.565806
    18  C    4.957231   5.526556   3.377672   4.244339   4.317616
    19  H    5.986056   6.518347   4.341834   5.032997   4.996091
    20  H    5.074995   5.612667   3.795113   4.870516   4.961251
    21  O    4.848631   5.595395   2.731998   3.341184   3.145645
    22  H    3.945844   4.743275   1.762880   2.516538   2.498279
                   11         12         13         14         15
    11  H    0.000000
    12  C    2.167264   0.000000
    13  H    3.047800   1.099643   0.000000
    14  H    2.411633   1.096526   1.778896   0.000000
    15  C    4.968957   3.758625   3.420938   4.793478   0.000000
    16  H    4.681817   3.075278   2.595891   4.019159   1.098713
    17  H    6.009352   4.710288   4.340245   5.692168   1.100910
    18  C    5.263046   4.309743   3.790841   5.369501   1.519057
    19  H    6.101194   4.904586   4.184203   5.894963   2.141999
    20  H    5.801599   5.152408   4.765583   6.239308   2.133040
    21  O    4.379966   3.691797   3.177297   4.703222   2.440959
    22  H    3.502275   3.087954   2.852371   4.128078   2.453349
                   16         17         18         19         20
    16  H    0.000000
    17  H    1.768634   0.000000
    18  C    2.141761   2.133789   0.000000
    19  H    2.491604   2.387353   1.096896   0.000000
    20  H    3.040912   2.475541   1.100749   1.773851   0.000000
    21  O    2.662377   3.352691   1.401447   2.026426   2.070359
    22  H    2.659812   3.502184   1.933015   2.811055   2.463342
                   21         22
    21  O    0.000000
    22  H    0.982796   0.000000
 Stoichiometry    C4H11O6Si(1-)
 Framework group  C1[X(C4H11O6Si)]
 Deg. of freedom    60
 Full point group                 C1      NOp   1
 Largest Abelian subgroup         C1      NOp   1
 Largest concise Abelian subgroup C1      NOp   1
                         Standard orientation:                         
 ---------------------------------------------------------------------
 Center     Atomic      Atomic             Coordinates (Angstroms)
 Number     Number       Type             X           Y           Z
 ---------------------------------------------------------------------
      1         14           0       -0.910706   -0.409651   -0.138628
      2          8           0        0.489852   -1.371959   -0.244512
      3          8           0       -1.819576   -1.663889    0.688989
      4          1           0       -1.242664   -2.404902    0.839373
      5          8           0       -1.069708    0.599905    1.225119
      6          8           0       -1.973035   -0.470807   -1.438792
      7          1           0       -2.590804   -1.168406   -1.223286
      8          8           0       -0.046173    0.974290   -0.944347
      9          6           0       -0.366882    2.184733   -0.347090
     10          1           0        0.412374    2.934248   -0.533935
     11          1           0       -1.319284    2.581749   -0.735514
     12          6           0       -0.498909    1.871318    1.140468
     13          1           0        0.496842    1.872385    1.607043
     14          1           0       -1.125024    2.600591    1.668209
     15          6           0        1.569596   -1.224629    0.626984
     16          1           0        1.314328   -0.588432    1.485624
     17          1           0        1.847048   -2.211653    1.027990
     18          6           0        2.787812   -0.640924   -0.067833
     19          1           0        3.645700   -0.697595    0.613341
     20          1           0        3.013882   -1.270468   -0.942027
     21          8           0        2.624938    0.700212   -0.440500
     22          1           0        1.697401    0.802601   -0.748851
 ---------------------------------------------------------------------
 Rotational constants (GHZ):           1.2855779           0.9028660           0.7067391
 Standard basis: def2TZVPP (5D, 7F)
 There are   573 symmetry adapted cartesian basis functions of A   symmetry.
 There are   506 symmetry adapted basis functions of A   symmetry.
   506 basis functions,   766 primitive gaussians,   573 cartesian basis functions
    49 alpha electrons       49 beta electrons
       nuclear repulsion energy       875.2536776446 Hartrees.
 NAtoms=   22 NActive=   22 NUniq=   22 SFac= 1.00D+00 NAtFMM=   60 NAOKFM=F Big=F
 Integral buffers will be    131072 words long.
 Raffenetti 2 integral format.
 Two-electron integral symmetry is turned on.
 Nuclear repulsion after empirical dispersion term =      875.2395460017 Hartrees.
 One-electron integrals computed using PRISM.
   1 Symmetry operations used in ECPInt.
 ECPInt:  NShTT=   18145 NPrTT=   50058 LenC2=   17322 LenP2D=   37126.
 LDataN:  DoStor=T MaxTD1= 6 Len=  172
 NBasis=   506 RedAO= T EigKep=  2.35D-04  NBF=   506
 NBsUse=   506 1.00D-06 EigRej= -1.00D+00 NBFU=   506
 ExpMin= 7.01D-02 ExpMax= 4.48D+04 ExpMxC= 1.53D+03 IAcc=3 IRadAn=         5 AccDes= 0.00D+00
 Harris functional with IExCor= 4639 and IRadAn=       5 diagonalized for initial guess.
 HarFok:  IExCor= 4639 AccDes= 0.00D+00 IRadAn=         5 IDoV= 1 UseB2=F ITyADJ=14
 ICtDFT=  3500011 ScaDFX=  1.000000  1.000000  1.000000  1.000000
 FoFCou: FMM=F IPFlag=           0 FMFlag=      100000 FMFlg1=           0
         NFxFlg=           0 DoJE=T BraDBF=F KetDBF=T FulRan=T
         wScrn=  0.000000 ICntrl=       500 IOpCl=  0 I1Cent=   200000004 NGrid=           0
         NMat0=    1 NMatS0=      1 NMatT0=    0 NMatD0=    1 NMtDS0=    0 NMtDT0=    0
 Petite list used in FoFCou.
 Requested convergence on RMS density matrix=1.00D-08 within 128 cycles.
 Requested convergence on MAX density matrix=1.00D-06.
 Requested convergence on             energy=1.00D-06.
 No special actions if energy rises.
 Integral accuracy reduced to 1.0D-05 until final iterations.
 Initial convergence to 1.0D-05 achieved.  Increase integral accuracy.
 SCF Done:  E(RwB97XD) =  -900.209059298     A.U. after   14 cycles
            NFock= 14  Conv=0.30D-08     -V/T= 2.0036
 DoSCS=F DFT=T ScalE2(SS,OS)=  1.000000  1.000000
 Range of M.O.s used for correlation:     1   506
 NBasis=   506 NAE=    49 NBE=    49 NFC=     0 NFV=     0
 NROrb=    506 NOA=    49 NOB=    49 NVA=   457 NVB=   457

 **** Warning!!: The largest alpha MO coefficient is  0.13670752D+02

   1 Symmetry operations used in ECPInt.
 ECPInt:  NShTT=   18145 NPrTT=   50058 LenC2=   17322 LenP2D=   37126.
 LDataN:  DoStor=T MaxTD1= 7 Len=  274
 Symmetrizing basis deriv contribution to polar:
 IMax=3 JMax=2 DiffMx= 0.00D+00
 G2DrvN: will do    23 centers at a time, making    1 passes.
 Calling FoFCou, ICntrl=  3107 FMM=F I1Cent=   0 AccDes= 0.00D+00.
 End of G2Drv F.D. properties file   721 does not exist.
 End of G2Drv F.D. properties file   722 does not exist.
 End of G2Drv F.D. properties file   788 does not exist.
          IDoAtm=1111111111111111111111
          Differentiating once with respect to nuclear coordinates.
 CalDSu exits because no D1Ps are significant.
          There are    69 degrees of freedom in the 1st order CPHF.  IDoFFX=6 NUNeed=     0.
     63 vectors produced by pass  0 Test12= 3.25D-14 1.45D-09 XBig12= 8.63D-02 3.48D-02.
 AX will form    63 AO Fock derivatives at one time.
     63 vectors produced by pass  1 Test12= 3.25D-14 1.45D-09 XBig12= 2.90D-02 1.85D-02.
     63 vectors produced by pass  2 Test12= 3.25D-14 1.45D-09 XBig12= 6.13D-04 4.28D-03.
     63 vectors produced by pass  3 Test12= 3.25D-14 1.45D-09 XBig12= 6.50D-06 5.71D-04.
     63 vectors produced by pass  4 Test12= 3.25D-14 1.45D-09 XBig12= 7.82D-08 4.04D-05.
     63 vectors produced by pass  5 Test12= 3.25D-14 1.45D-09 XBig12= 7.69D-10 2.89D-06.
     63 vectors produced by pass  6 Test12= 3.25D-14 1.45D-09 XBig12= 5.74D-12 2.69D-07.
     31 vectors produced by pass  7 Test12= 3.25D-14 1.45D-09 XBig12= 3.84D-14 1.59D-08.
      3 vectors produced by pass  8 Test12= 3.25D-14 1.45D-09 XBig12= 2.78D-15 4.23D-09.
 InvSVY:  IOpt=1 It=  1 EMax= 4.44D-16
 Solved reduced A of dimension   475 with    69 vectors.
 End of Minotr F.D. properties file   721 does not exist.
 End of Minotr F.D. properties file   722 does not exist.
 End of Minotr F.D. properties file   788 does not exist.

 **********************************************************************

            Population analysis using the SCF Density.

 **********************************************************************

 Orbital symmetries:
       Occupied  (A) (A) (A) (A) (A) (A) (A) (A) (A) (A) (A) (A)
                 (A) (A) (A) (A) (A) (A) (A) (A) (A) (A) (A) (A)
                 (A) (A) (A) (A) (A) (A) (A) (A) (A) (A) (A) (A)
                 (A) (A) (A) (A) (A) (A) (A) (A) (A) (A) (A) (A)
                 (A)
       Virtual   (A) (A) (A) (A) (A) (A) (A) (A) (A) (A) (A) (A)
                 (A) (A) (A) (A) (A) (A) (A) (A) (A) (A) (A) (A)
                 (A) (A) (A) (A) (A) (A) (A) (A) (A) (A) (A) (A)
                 (A) (A) (A) (A) (A) (A) (A) (A) (A) (A) (A) (A)
                 (A) (A) (A) (A) (A) (A) (A) (A) (A) (A) (A) (A)
                 (A) (A) (A) (A) (A) (A) (A) (A) (A) (A) (A) (A)
                 (A) (A) (A) (A) (A) (A) (A) (A) (A) (A) (A) (A)
                 (A) (A) (A) (A) (A) (A) (A) (A) (A) (A) (A) (A)
                 (A) (A) (A) (A) (A) (A) (A) (A) (A) (A) (A) (A)
                 (A) (A) (A) (A) (A) (A) (A) (A) (A) (A) (A) (A)
                 (A) (A) (A) (A) (A) (A) (A) (A) (A) (A) (A) (A)
                 (A) (A) (A) (A) (A) (A) (A) (A) (A) (A) (A) (A)
                 (A) (A) (A) (A) (A) (A) (A) (A) (A) (A) (A) (A)
                 (A) (A) (A) (A) (A) (A) (A) (A) (A) (A) (A) (A)
                 (A) (A) (A) (A) (A) (A) (A) (A) (A) (A) (A) (A)
                 (A) (A) (A) (A) (A) (A) (A) (A) (A) (A) (A) (A)
                 (A) (A) (A) (A) (A) (A) (A) (A) (A) (A) (A) (A)
                 (A) (A) (A) (A) (A) (A) (A) (A) (A) (A) (A) (A)
                 (A) (A) (A) (A) (A) (A) (A) (A) (A) (A) (A) (A)
                 (A) (A) (A) (A) (A) (A) (A) (A) (A) (A) (A) (A)
                 (A) (A) (A) (A) (A) (A) (A) (A) (A) (A) (A) (A)
                 (A) (A) (A) (A) (A) (A) (A) (A) (A) (A) (A) (A)
                 (A) (A) (A) (A) (A) (A) (A) (A) (A) (A) (A) (A)
                 (A) (A) (A) (A) (A) (A) (A) (A) (A) (A) (A) (A)
                 (A) (A) (A) (A) (A) (A) (A) (A) (A) (A) (A) (A)
                 (A) (A) (A) (A) (A) (A) (A) (A) (A) (A) (A) (A)
                 (A) (A) (A) (A) (A) (A) (A) (A) (A) (A) (A) (A)
                 (A) (A) (A) (A) (A) (A) (A) (A) (A) (A) (A) (A)
                 (A) (A) (A) (A) (A) (A) (A) (A) (A) (A) (A) (A)
                 (A) (A) (A) (A) (A) (A) (A) (A) (A) (A) (A) (A)
                 (A) (A) (A) (A) (A) (A) (A) (A) (A) (A) (A) (A)
                 (A) (A) (A) (A) (A) (A) (A) (A) (A) (A) (A) (A)
                 (A) (A) (A) (A) (A) (A) (A) (A) (A) (A) (A) (A)
                 (A) (A) (A) (A) (A) (A) (A) (A) (A) (A) (A) (A)
                 (A) (A) (A) (A) (A) (A) (A) (A) (A) (A) (A) (A)
                 (A) (A) (A) (A) (A) (A) (A) (A) (A) (A) (A) (A)
                 (A) (A) (A) (A) (A) (A) (A) (A) (A) (A) (A) (A)
                 (A) (A) (A) (A) (A) (A) (A) (A) (A) (A) (A) (A)
                 (A)
 The electronic state is 1-A.
 Alpha  occ. eigenvalues --  -66.13523 -19.08632 -19.07136 -19.07047 -19.06000
 Alpha  occ. eigenvalues --  -19.05391 -19.03764 -10.18891 -10.18643 -10.17723
 Alpha  occ. eigenvalues --  -10.17377  -5.24576  -3.59237  -3.59089  -3.58991
 Alpha  occ. eigenvalues --   -0.98294  -0.96651  -0.94346  -0.92080  -0.90901
 Alpha  occ. eigenvalues --   -0.88003  -0.68748  -0.66570  -0.56795  -0.54681
 Alpha  occ. eigenvalues --   -0.47836  -0.45019  -0.44132  -0.42222  -0.41657
 Alpha  occ. eigenvalues --   -0.41197  -0.39951  -0.37228  -0.36349  -0.34728
 Alpha  occ. eigenvalues --   -0.33827  -0.33495  -0.29181  -0.28775  -0.26489
 Alpha  occ. eigenvalues --   -0.24948  -0.24115  -0.23175  -0.21943  -0.21246
 Alpha  occ. eigenvalues --   -0.21023  -0.19660  -0.19372  -0.17054
 Alpha virt. eigenvalues --    0.24265   0.25772   0.26277   0.27810   0.28935
 Alpha virt. eigenvalues --    0.29293   0.30648   0.31382   0.31874   0.33336
 Alpha virt. eigenvalues --    0.34310   0.34652   0.35538   0.37690   0.38345
 Alpha virt. eigenvalues --    0.39651   0.40191   0.41334   0.42542   0.43608
 Alpha virt. eigenvalues --    0.43868   0.45661   0.46785   0.47049   0.49084
 Alpha virt. eigenvalues --    0.50933   0.51646   0.52443   0.54075   0.55259
 Alpha virt. eigenvalues --    0.56317   0.57250   0.57696   0.58106   0.59257
 Alpha virt. eigenvalues --    0.60321   0.60916   0.61354   0.62072   0.62673
 Alpha virt. eigenvalues --    0.63057   0.64237   0.65034   0.65885   0.66319
 Alpha virt. eigenvalues --    0.66408   0.67426   0.68689   0.69255   0.69783
 Alpha virt. eigenvalues --    0.70791   0.71276   0.72456   0.73332   0.74693
 Alpha virt. eigenvalues --    0.76101   0.77426   0.78836   0.79815   0.80396
 Alpha virt. eigenvalues --    0.82157   0.83814   0.84388   0.85173   0.86537
 Alpha virt. eigenvalues --    0.88426   0.90124   0.90735   0.91414   0.92506
 Alpha virt. eigenvalues --    0.94555   0.95282   0.97141   0.97419   0.98875
 Alpha virt. eigenvalues --    1.00016   1.00999   1.02217   1.03588   1.04115
 Alpha virt. eigenvalues --    1.05444   1.06076   1.07677   1.07840   1.09774
 Alpha virt. eigenvalues --    1.10742   1.11747   1.12238   1.13723   1.15591
 Alpha virt. eigenvalues --    1.17497   1.19282   1.20314   1.20875   1.22158
 Alpha virt. eigenvalues --    1.23473   1.24533   1.24717   1.26892   1.27526
 Alpha virt. eigenvalues --    1.28233   1.29684   1.30725   1.31490   1.32410
 Alpha virt. eigenvalues --    1.33379   1.34531   1.36502   1.38403   1.39414
 Alpha virt. eigenvalues --    1.39534   1.40138   1.41424   1.43335   1.43471
 Alpha virt. eigenvalues --    1.44946   1.46051   1.48149   1.49236   1.50476
 Alpha virt. eigenvalues --    1.52765   1.53344   1.53933   1.54602   1.56195
 Alpha virt. eigenvalues --    1.57663   1.59321   1.59470   1.60959   1.62047
 Alpha virt. eigenvalues --    1.64185   1.64623   1.65808   1.67220   1.67973
 Alpha virt. eigenvalues --    1.69541   1.70947   1.73234   1.73971   1.75916
 Alpha virt. eigenvalues --    1.76770   1.79048   1.81264   1.82309   1.83376
 Alpha virt. eigenvalues --    1.85970   1.88340   1.90220   1.90842   1.96236
 Alpha virt. eigenvalues --    1.98916   2.02796   2.05576   2.06900   2.07820
 Alpha virt. eigenvalues --    2.08303   2.09231   2.11110   2.13666   2.15636
 Alpha virt. eigenvalues --    2.17187   2.17596   2.19401   2.19648   2.20411
 Alpha virt. eigenvalues --    2.22330   2.24195   2.25091   2.27097   2.28809
 Alpha virt. eigenvalues --    2.29510   2.30144   2.31966   2.33763   2.34592
 Alpha virt. eigenvalues --    2.38207   2.38860   2.41122   2.41660   2.46415
 Alpha virt. eigenvalues --    2.48313   2.49743   2.50735   2.52457   2.54077
 Alpha virt. eigenvalues --    2.57159   2.59043   2.60458   2.61670   2.64458
 Alpha virt. eigenvalues --    2.65242   2.69469   2.71204   2.73197   2.76722
 Alpha virt. eigenvalues --    2.78219   2.81342   2.84271   2.86094   2.86641
 Alpha virt. eigenvalues --    2.87895   2.88025   2.89850   2.93288   2.95141
 Alpha virt. eigenvalues --    2.97563   2.98640   2.99493   3.02018   3.02725
 Alpha virt. eigenvalues --    3.03816   3.04655   3.08184   3.09142   3.10245
 Alpha virt. eigenvalues --    3.12393   3.13276   3.14471   3.17017   3.18870
 Alpha virt. eigenvalues --    3.22027   3.22421   3.24098   3.25488   3.26584
 Alpha virt. eigenvalues --    3.27969   3.28163   3.29468   3.32505   3.32633
 Alpha virt. eigenvalues --    3.33433   3.34686   3.34956   3.36045   3.36947
 Alpha virt. eigenvalues --    3.37934   3.39685   3.41413   3.42155   3.44905
 Alpha virt. eigenvalues --    3.45540   3.46295   3.48172   3.49658   3.50645
 Alpha virt. eigenvalues --    3.52630   3.53177   3.55496   3.56742   3.59543
 Alpha virt. eigenvalues --    3.61024   3.61574   3.63374   3.64146   3.64652
 Alpha virt. eigenvalues --    3.67370   3.68880   3.71712   3.73456   3.74077
 Alpha virt. eigenvalues --    3.76946   3.77177   3.78955   3.80840   3.82521
 Alpha virt. eigenvalues --    3.83778   3.85377   3.85851   3.86417   3.87600
 Alpha virt. eigenvalues --    3.88518   3.89575   3.91174   3.92770   3.93937
 Alpha virt. eigenvalues --    3.94006   3.97124   3.97803   3.98303   4.00070
 Alpha virt. eigenvalues --    4.01507   4.02787   4.04576   4.06542   4.08749
 Alpha virt. eigenvalues --    4.10152   4.11301   4.15374   4.16800   4.18082
 Alpha virt. eigenvalues --    4.18411   4.19711   4.21221   4.22187   4.24145
 Alpha virt. eigenvalues --    4.25500   4.26313   4.27713   4.29567   4.30387
 Alpha virt. eigenvalues --    4.33116   4.33986   4.35282   4.36674   4.37530
 Alpha virt. eigenvalues --    4.38712   4.39412   4.42030   4.42507   4.44871
 Alpha virt. eigenvalues --    4.46017   4.48208   4.48799   4.50541   4.51672
 Alpha virt. eigenvalues --    4.53802   4.55522   4.57648   4.58300   4.60324
 Alpha virt. eigenvalues --    4.61060   4.64666   4.70247   4.71974   4.73313
 Alpha virt. eigenvalues --    4.75316   4.78446   4.79690   4.81240   4.84725
 Alpha virt. eigenvalues --    4.86607   4.88369   4.89140   4.89723   4.92503
 Alpha virt. eigenvalues --    4.96906   4.98079   5.00117   5.02804   5.03298
 Alpha virt. eigenvalues --    5.06404   5.07686   5.08945   5.10625   5.13422
 Alpha virt. eigenvalues --    5.13819   5.14993   5.16361   5.17909   5.21453
 Alpha virt. eigenvalues --    5.23344   5.24983   5.28410   5.30898   5.31824
 Alpha virt. eigenvalues --    5.33945   5.36633   5.38967   5.44216   5.45341
 Alpha virt. eigenvalues --    5.46222   5.49361   5.50194   5.52901   5.56386
 Alpha virt. eigenvalues --    5.57335   5.57560   5.61194   5.62890   5.64351
 Alpha virt. eigenvalues --    5.65163   5.65975   5.68407   5.70606   5.71640
 Alpha virt. eigenvalues --    5.71903   5.72835   5.75824   5.76703   5.81206
 Alpha virt. eigenvalues --    5.81875   5.82445   5.83773   5.85601   5.86231
 Alpha virt. eigenvalues --    5.87840   5.88929   5.91418   5.93389   5.97363
 Alpha virt. eigenvalues --    5.99513   6.05289   6.18002   6.19329   6.21141
 Alpha virt. eigenvalues --    6.28011   6.29826   6.33982   6.35372   6.36383
 Alpha virt. eigenvalues --    6.39239   6.43492   6.50032   6.57573   6.70769
 Alpha virt. eigenvalues --    6.72991   6.76183   6.79675   6.83219   6.84460
 Alpha virt. eigenvalues --    6.86722   6.88456   6.89368   6.91164   6.92940
 Alpha virt. eigenvalues --    6.93237   6.94402   6.95135   6.97233   6.99035
 Alpha virt. eigenvalues --    7.02062   7.03396   7.05357   7.08036   7.13040
 Alpha virt. eigenvalues --    7.16292   7.18582   7.23295   7.24982   7.28831
 Alpha virt. eigenvalues --    7.30421   7.34892   7.36678   7.41368   7.49150
 Alpha virt. eigenvalues --    7.54384   7.54713   7.56962   7.57226   7.65114
 Alpha virt. eigenvalues --    7.66547   7.73398   7.79851   7.84683   7.86723
 Alpha virt. eigenvalues --    7.93775  12.59227  23.53145  23.55430  23.69143
 Alpha virt. eigenvalues --   23.69627  44.08732  44.15470  44.30467  44.41237
 Alpha virt. eigenvalues --   44.47850  44.56268
          Condensed to atoms (all electrons):
               1          2          3          4          5          6
     1  Si  11.545209   0.365879   0.429540  -0.044645   0.361408   0.454737
     2  O    0.365879   8.073532  -0.059189   0.008113  -0.010244  -0.020287
     3  O    0.429540  -0.059189   8.005832   0.324270  -0.056433  -0.082968
     4  H   -0.044645   0.008113   0.324270   0.562138   0.002081   0.004164
     5  O    0.361408  -0.010244  -0.056433   0.002081   7.982864  -0.017540
     6  O    0.454737  -0.020287  -0.082968   0.004164  -0.017540   7.819697
     7  H   -0.041527   0.001149   0.006113  -0.000433   0.000005   0.320976
     8  O    0.299849  -0.045921   0.003461  -0.000003  -0.030781  -0.042827
     9  C   -0.012479   0.002612  -0.000206  -0.000309  -0.077081  -0.001816
    10  H    0.004054  -0.000390   0.000031   0.000000   0.004719  -0.000519
    11  H   -0.006518  -0.000294   0.000041   0.000015   0.003699   0.003938
    12  C   -0.068510  -0.000526  -0.001667  -0.000382   0.328419  -0.004494
    13  H   -0.012447  -0.000058   0.000331   0.000087  -0.061686  -0.000123
    14  H   -0.000751  -0.000197  -0.000084  -0.000016  -0.039739   0.000096
    15  C   -0.077107   0.264853   0.005671   0.002401  -0.016238  -0.000657
    16  H   -0.026310  -0.052525   0.000703  -0.000502   0.018037  -0.000164
    17  H    0.005834  -0.041924   0.000666  -0.000987   0.000035  -0.000045
    18  C    0.015302  -0.055036   0.000823   0.000286  -0.001604  -0.000375
    19  H    0.000804   0.007279   0.000016  -0.000022   0.000030  -0.000003
    20  H   -0.003993   0.004032   0.000011  -0.000009   0.000004  -0.000001
    21  O   -0.000225   0.002622  -0.000005  -0.000006  -0.000177  -0.000012
    22  H   -0.002812   0.004449  -0.000086   0.000010   0.001974   0.000418
               7          8          9         10         11         12
     1  Si  -0.041527   0.299849  -0.012479   0.004054  -0.006518  -0.068510
     2  O    0.001149  -0.045921   0.002612  -0.000390  -0.000294  -0.000526
     3  O    0.006113   0.003461  -0.000206   0.000031   0.000041  -0.001667
     4  H   -0.000433  -0.000003  -0.000309   0.000000   0.000015  -0.000382
     5  O    0.000005  -0.030781  -0.077081   0.004719   0.003699   0.328419
     6  O    0.320976  -0.042827  -0.001816  -0.000519   0.003938  -0.004494
     7  H    0.551801   0.004125   0.000509   0.000053  -0.000707  -0.000303
     8  O    0.004125   8.131762   0.279669  -0.048061  -0.035841  -0.074123
     9  C    0.000509   0.279669   4.753697   0.410754   0.397640   0.274614
    10  H    0.000053  -0.048061   0.410754   0.716321  -0.060840  -0.043852
    11  H   -0.000707  -0.035841   0.397640  -0.060840   0.708417  -0.048331
    12  C   -0.000303  -0.074123   0.274614  -0.043852  -0.048331   4.809908
    13  H   -0.000056   0.009048  -0.064074  -0.011409   0.013602   0.415594
    14  H    0.000022   0.007327  -0.013778   0.007270  -0.009628   0.373257
    15  C   -0.000545   0.031032  -0.007206   0.000440   0.001029   0.002441
    16  H   -0.000082  -0.002636   0.003535   0.000082  -0.000199  -0.002394
    17  H    0.000024  -0.000218   0.000241  -0.000033   0.000003  -0.000243
    18  C    0.000045  -0.007779   0.001857   0.000606  -0.000246  -0.001059
    19  H    0.000000  -0.000541  -0.000222   0.000021  -0.000008   0.000106
    20  H   -0.000012   0.000512   0.000745  -0.000019   0.000015  -0.000226
    21  O    0.000008  -0.036752   0.012479   0.003371  -0.000293  -0.008206
    22  H   -0.000055   0.069993  -0.015578  -0.010617   0.001958   0.007929
              13         14         15         16         17         18
     1  Si  -0.012447  -0.000751  -0.077107  -0.026310   0.005834   0.015302
     2  O   -0.000058  -0.000197   0.264853  -0.052525  -0.041924  -0.055036
     3  O    0.000331  -0.000084   0.005671   0.000703   0.000666   0.000823
     4  H    0.000087  -0.000016   0.002401  -0.000502  -0.000987   0.000286
     5  O   -0.061686  -0.039739  -0.016238   0.018037   0.000035  -0.001604
     6  O   -0.000123   0.000096  -0.000657  -0.000164  -0.000045  -0.000375
     7  H   -0.000056   0.000022  -0.000545  -0.000082   0.000024   0.000045
     8  O    0.009048   0.007327   0.031032  -0.002636  -0.000218  -0.007779
     9  C   -0.064074  -0.013778  -0.007206   0.003535   0.000241   0.001857
    10  H   -0.011409   0.007270   0.000440   0.000082  -0.000033   0.000606
    11  H    0.013602  -0.009628   0.001029  -0.000199   0.000003  -0.000246
    12  C    0.415594   0.373257   0.002441  -0.002394  -0.000243  -0.001059
    13  H    0.737908  -0.061039   0.010251  -0.007669   0.000161  -0.001216
    14  H   -0.061039   0.709382   0.000226   0.000697   0.000015  -0.000142
    15  C    0.010251   0.000226   4.846746   0.417680   0.353061   0.303435
    16  H   -0.007669   0.000697   0.417680   0.690565  -0.038614  -0.068952
    17  H    0.000161   0.000015   0.353061  -0.038614   0.704965  -0.023884
    18  C   -0.001216  -0.000142   0.303435  -0.068952  -0.023884   4.682049
    19  H   -0.000378  -0.000013  -0.023095  -0.001509   0.001932   0.360862
    20  H    0.000321   0.000008  -0.058288   0.013917  -0.000268   0.405879
    21  O    0.006894   0.000306  -0.077043   0.002780   0.007430   0.333853
    22  H   -0.000748  -0.000272   0.002757  -0.000289  -0.000489  -0.048550
              19         20         21         22
     1  Si   0.000804  -0.003993  -0.000225  -0.002812
     2  O    0.007279   0.004032   0.002622   0.004449
     3  O    0.000016   0.000011  -0.000005  -0.000086
     4  H   -0.000022  -0.000009  -0.000006   0.000010
     5  O    0.000030   0.000004  -0.000177   0.001974
     6  O   -0.000003  -0.000001  -0.000012   0.000418
     7  H    0.000000  -0.000012   0.000008  -0.000055
     8  O   -0.000541   0.000512  -0.036752   0.069993
     9  C   -0.000222   0.000745   0.012479  -0.015578
    10  H    0.000021  -0.000019   0.003371  -0.010617
    11  H   -0.000008   0.000015  -0.000293   0.001958
    12  C    0.000106  -0.000226  -0.008206   0.007929
    13  H   -0.000378   0.000321   0.006894  -0.000748
    14  H   -0.000013   0.000008   0.000306  -0.000272
    15  C   -0.023095  -0.058288  -0.077043   0.002757
    16  H   -0.001509   0.013917   0.002780  -0.000289
    17  H    0.001932  -0.000268   0.007430  -0.000489
    18  C    0.360862   0.405879   0.333853  -0.048550
    19  H    0.731422  -0.059457  -0.045381   0.011490
    20  H   -0.059457   0.730890  -0.050516  -0.008906
    21  O   -0.045381  -0.050516   7.970649   0.333575
    22  H    0.011490  -0.008906   0.333575   0.416792
 Mulliken charges:
               1
     1  Si   0.814709
     2  O   -0.447928
     3  O   -0.576871
     4  H    0.143750
     5  O   -0.391754
     6  O   -0.432193
     7  H    0.158891
     8  O   -0.511294
     9  C    0.054400
    10  H    0.028015
    11  H    0.032548
    12  C    0.042049
    13  H    0.026703
    14  H    0.027053
    15  C    0.018154
    16  H    0.053850
    17  H    0.032339
    18  C    0.103847
    19  H    0.016664
    20  H    0.025361
    21  O   -0.455350
    22  H    0.237056
 Sum of Mulliken charges =  -1.00000
 Mulliken charges with hydrogens summed into heavy atoms:
               1
     1  Si   0.814709
     2  O   -0.447928
     3  O   -0.433121
     5  O   -0.391754
     6  O   -0.273302
     8  O   -0.511294
     9  C    0.114963
    12  C    0.095805
    15  C    0.104344
    18  C    0.145872
    21  O   -0.218294
 APT charges:
               1
     1  Si   0.291498
     2  O   -0.403902
     3  O   -0.606675
     4  H    0.375563
     5  O   -0.345240
     6  O   -0.673448
     7  H    0.564934
     8  O   -0.459163
     9  C   -0.678408
    10  H    0.371250
    11  H    0.401670
    12  C   -0.580165
    13  H    0.219339
    14  H    0.500961
    15  C   -0.468477
    16  H    0.130974
    17  H    0.434797
    18  C   -0.793648
    19  H    0.521816
    20  H    0.357782
    21  O   -0.184842
    22  H    0.023384
 Sum of APT charges =  -1.00000
 APT charges with hydrogens summed into heavy atoms:
               1
     1  Si   0.291498
     2  O   -0.403902
     3  O   -0.231111
     5  O   -0.345240
     6  O   -0.108514
     8  O   -0.459163
     9  C    0.094512
    12  C    0.140135
    15  C    0.097294
    18  C    0.085950
    21  O   -0.161459
 Electronic spatial extent (au):  <R**2>=           1851.0767
 Charge=             -1.0000 electrons
 Dipole moment (field-independent basis, Debye):
    X=              1.7634    Y=             -0.0435    Z=              1.7100  Tot=              2.4567
 Quadrupole moment (field-independent basis, Debye-Ang):
   XX=            -93.7008   YY=            -77.5981   ZZ=            -85.2171
   XY=             -6.0761   XZ=              4.3378   YZ=              1.3619
 Traceless Quadrupole moment (field-independent basis, Debye-Ang):
   XX=             -8.1954   YY=              7.9072   ZZ=              0.2883
   XY=             -6.0761   XZ=              4.3378   YZ=              1.3619
 Octapole moment (field-independent basis, Debye-Ang**2):
  XXX=            -24.2099  YYY=             -8.8573  ZZZ=              0.2478  XYY=             -5.0183
  XXY=             -9.5119  XXZ=             -1.0140  XZZ=             10.6964  YZZ=             -4.3467
  YYZ=              0.6079  XYZ=             -4.8941
 Hexadecapole moment (field-independent basis, Debye-Ang**3):
 XXXX=          -1303.8535 YYYY=           -815.9151 ZZZZ=           -410.6806 XXXY=            -27.2153
 XXXZ=             37.7520 YYYX=             18.3987 YYYZ=             -9.7758 ZZZX=             -8.5252
 ZZZY=             -0.7485 XXYY=           -359.2633 XXZZ=           -288.2100 YYZZ=           -202.4541
 XXYZ=             23.0790 YYXZ=              8.3675 ZZXY=              5.0676
 N-N= 8.752395460017D+02 E-N=-3.894905381084D+03  KE= 8.970036726049D+02
  Exact polarizability:       0.000       0.000       0.000       0.000       0.000       0.000
 Approx polarizability:     100.851      -1.153     103.384       2.823       0.398      94.887
   1 Symmetry operations used in ECPInt.
 ECPInt:  NShTT=   18145 NPrTT=   50058 LenC2=   17322 LenP2D=   37126.
 LDataN:  DoStor=T MaxTD1= 8 Len=  415
 Calling FoFJK, ICntrl=    100127 FMM=F ISym2X=0 I1Cent= 0 IOpClX= 0 NMat=1 NMatS=1 NMatT=0.
 ***** Axes restored to original set *****
 -------------------------------------------------------------------
 Center     Atomic                   Forces (Hartrees/Bohr)
 Number     Number              X              Y              Z
 -------------------------------------------------------------------
      1       14           0.000458101    0.000054507   -0.000565577
      2        8          -0.000212474    0.001029489   -0.000470816
      3        8          -0.000393215   -0.001024899    0.000536018
      4        1           0.000755361    0.001151194   -0.000424734
      5        8          -0.000871957   -0.000411790   -0.000175657
      6        8           0.001073554   -0.002030899   -0.000158322
      7        1          -0.000010611   -0.000146036    0.000121915
      8        8           0.001204359    0.001403693   -0.001142625
      9        6          -0.000369430    0.000625320    0.000344441
     10        1          -0.000066861    0.000013627    0.000029656
     11        1          -0.000044549    0.000131381    0.000080761
     12        6          -0.000701104   -0.000340242    0.000237305
     13        1          -0.000059290   -0.000054080   -0.000009093
     14        1          -0.000067561   -0.000038312    0.000062121
     15        6           0.000230863    0.000264545    0.000120983
     16        1           0.000025627    0.000033011   -0.000003064
     17        1           0.000063303    0.000010585    0.000023616
     18        6          -0.000043034   -0.000339470    0.000370989
     19        1           0.000003172   -0.000059575    0.000037367
     20        1           0.000018979   -0.000015457    0.000012000
     21        8          -0.000915066   -0.000263504    0.000984526
     22        1          -0.000078167    0.000006913   -0.000011808
 -------------------------------------------------------------------
 Cartesian Forces:  Max     0.002030899 RMS     0.000551831
 FormGI is forming the generalized inverse of G from B-inverse, IUseBI=4.

 GradGradGradGradGradGradGradGradGradGradGradGradGradGradGradGradGradGrad
 Berny optimization.
 Internal  Forces:  Max     0.004974130 RMS     0.000908562
 Search for a local minimum.
 Step number   1 out of a maximum of  121
 All quantities printed in internal units (Hartrees-Bohrs-Radians)
 Mixed Optimization -- En-DIIS/RFO-DIIS
 Second derivative matrix not updated -- analytic derivatives used.
 ITU=  0
     Eigenvalues ---   -0.00035   0.00243   0.00412   0.00447   0.00599
     Eigenvalues ---    0.00956   0.00965   0.02370   0.03856   0.04423
     Eigenvalues ---    0.04698   0.04882   0.04936   0.05210   0.05399
     Eigenvalues ---    0.05616   0.06335   0.06556   0.07337   0.07973
     Eigenvalues ---    0.09213   0.09670   0.09910   0.10243   0.10442
     Eigenvalues ---    0.10629   0.10800   0.11687   0.12327   0.12617
     Eigenvalues ---    0.13626   0.14864   0.18107   0.19149   0.20135
     Eigenvalues ---    0.22648   0.24009   0.25274   0.25812   0.26304
     Eigenvalues ---    0.27045   0.27504   0.28844   0.30006   0.30676
     Eigenvalues ---    0.31023   0.31325   0.31705   0.31916   0.32007
     Eigenvalues ---    0.32097   0.32852   0.35724   0.37276   0.40533
     Eigenvalues ---    0.41750   0.47021   0.55921   0.57834   0.73680
 RFO step:  Lambda=-2.09486980D-03 EMin=-3.47368904D-04
 Linear search not attempted -- first point.
 Iteration  1 RMS(Cart)=  0.09209748 RMS(Int)=  0.04944253
 Iteration  2 RMS(Cart)=  0.10867344 RMS(Int)=  0.00819289
 Iteration  3 RMS(Cart)=  0.00898433 RMS(Int)=  0.00027834
 Iteration  4 RMS(Cart)=  0.00018101 RMS(Int)=  0.00020026
 Iteration  5 RMS(Cart)=  0.00000010 RMS(Int)=  0.00020026
 Variable       Old X    -DE/DX   Delta X   Delta X   Delta X     New X
                                 (Linear)    (Quad)   (Total)
    R1        3.21743  -0.00015   0.00000  -0.00035  -0.00035   3.21708
    R2        3.31867  -0.00020   0.00000  -0.02607  -0.02607   3.29260
    R3        3.22047   0.00019   0.00000   0.00451   0.00455   3.22502
    R4        3.17491  -0.00051   0.00000  -0.00003  -0.00003   3.17489
    R5        3.43904  -0.00118   0.00000  -0.00130  -0.00123   3.43780
    R6        2.63687  -0.00153   0.00000  -0.00043  -0.00043   2.63643
    R7        1.79727   0.00142   0.00000   0.00146   0.00146   1.79873
    R8        2.63850  -0.00031   0.00000  -0.00098  -0.00103   2.63747
    R9        1.80736  -0.00011   0.00000  -0.00034  -0.00034   1.80702
   R10        2.62171  -0.00032   0.00000  -0.00222  -0.00222   2.61949
   R11        2.07347  -0.00006   0.00000  -0.00069  -0.00069   2.07279
   R12        2.08347  -0.00000   0.00000  -0.00117  -0.00117   2.08230
   R13        2.88361  -0.00017   0.00000   0.00036   0.00028   2.88388
   R14        2.07802  -0.00006   0.00000   0.00234   0.00234   2.08036
   R15        2.07213   0.00003   0.00000   0.00010   0.00010   2.07223
   R16        2.07627  -0.00002   0.00000   0.00055   0.00055   2.07682
   R17        2.08042   0.00001   0.00000  -0.00071  -0.00071   2.07971
   R18        2.87060  -0.00010   0.00000   0.00488   0.00488   2.87548
   R19        2.07283  -0.00003   0.00000   0.00221   0.00221   2.07504
   R20        2.08011   0.00000   0.00000   0.00109   0.00109   2.08121
   R21        2.64835   0.00045   0.00000  -0.00439  -0.00439   2.64396
   R22        1.85722   0.00006   0.00000   0.00688   0.00688   1.86410
    A1        1.62219   0.00047   0.00000  -0.01015  -0.00977   1.61242
    A2        2.05030   0.00204   0.00000  -0.01877  -0.01883   2.03147
    A3        2.03917  -0.00042   0.00000   0.06320   0.06308   2.10225
    A4        1.58230  -0.00129   0.00000   0.00222   0.00258   1.58488
    A5        1.56847  -0.00037   0.00000   0.04094   0.04117   1.60964
    A6        1.58226   0.00116   0.00000  -0.01657  -0.01560   1.56666
    A7        2.19178  -0.00170   0.00000  -0.04558  -0.04555   2.14623
    A8        1.51889   0.00065   0.00000   0.00139   0.00123   1.52012
    A9        1.55624  -0.00075   0.00000  -0.02230  -0.02206   1.53418
   A10        2.13888  -0.00053   0.00000   0.04022   0.04022   2.17910
   A11        1.89340  -0.00001   0.00000   0.01727   0.01727   1.91067
   A12        2.04067  -0.00049   0.00000  -0.00256  -0.00251   2.03816
   A13        1.83444   0.00028   0.00000   0.01433   0.01433   1.84877
   A14        1.94237  -0.00054   0.00000  -0.00117  -0.00112   1.94125
   A15        1.93746  -0.00016   0.00000   0.00055   0.00060   1.93806
   A16        1.94142  -0.00038   0.00000  -0.00432  -0.00433   1.93709
   A17        1.83431   0.00070   0.00000   0.00156   0.00150   1.83581
   A18        1.88339   0.00007   0.00000   0.00220   0.00220   1.88558
   A19        1.94739  -0.00005   0.00000  -0.00018  -0.00020   1.94719
   A20        1.92055  -0.00019   0.00000   0.00004   0.00009   1.92063
   A21        1.85616  -0.00008   0.00000   0.00401   0.00396   1.86012
   A22        1.92341   0.00002   0.00000   0.00255   0.00254   1.92595
   A23        1.92091   0.00004   0.00000   0.00138   0.00142   1.92234
   A24        1.91248  -0.00023   0.00000  -0.00182  -0.00184   1.91064
   A25        1.96274   0.00023   0.00000  -0.00126  -0.00124   1.96150
   A26        1.88830   0.00001   0.00000  -0.00462  -0.00464   1.88367
   A27        1.94921   0.00123   0.00000   0.00258   0.00240   1.95162
   A28        1.90482   0.00193   0.00000  -0.01656  -0.01646   1.88836
   A29        1.95568  -0.00497   0.00000   0.03116   0.03110   1.98679
   A30        1.86819  -0.00043   0.00000  -0.00439  -0.00446   1.86373
   A31        1.89788   0.00095   0.00000  -0.00487  -0.00508   1.89280
   A32        1.88494   0.00152   0.00000  -0.00993  -0.00984   1.87510
   A33        1.90003   0.00045   0.00000  -0.01270  -0.01273   1.88729
   A34        1.88410   0.00022   0.00000  -0.00685  -0.00696   1.87714
   A35        1.97811  -0.00120   0.00000   0.01759   0.01759   1.99571
   A36        1.87865  -0.00011   0.00000  -0.00418  -0.00428   1.87437
   A37        1.88123   0.00073   0.00000   0.00022   0.00029   1.88152
   A38        1.93906  -0.00003   0.00000   0.00455   0.00454   1.94360
   A39        1.86796  -0.00006   0.00000  -0.00482  -0.00482   1.86314
   A40        3.20449  -0.00082   0.00000  -0.00793  -0.00719   3.19730
   A41        3.16999   0.00001   0.00000  -0.04275  -0.04292   3.12707
    D1       -1.75465  -0.00150   0.00000  -0.38410  -0.38419  -2.13884
    D2       -0.15973  -0.00154   0.00000  -0.34437  -0.34421  -0.50394
    D3        2.91884  -0.00301   0.00000  -0.36483  -0.36497   2.55387
    D4        1.35854  -0.00151   0.00000  -0.34135  -0.34127   1.01727
    D5        0.05355   0.00092   0.00000   0.40462   0.40456   0.45811
    D6       -1.99730  -0.00112   0.00000   0.42134   0.42133  -1.57598
    D7        2.09408   0.00059   0.00000   0.46651   0.46659   2.56067
    D8        1.52746  -0.00087   0.00000   0.01939   0.01972   1.54718
    D9       -3.12821  -0.00048   0.00000   0.02875   0.02882  -3.09939
   D10       -1.54498   0.00067   0.00000   0.03737   0.03666  -1.50832
   D11       -0.02930   0.00037   0.00000   0.01504   0.01511  -0.01419
   D12        1.58874   0.00111   0.00000  -0.05207  -0.05192   1.53682
   D13       -0.04547   0.00002   0.00000  -0.03503  -0.03435  -0.07982
   D14       -1.62161  -0.00033   0.00000  -0.07282  -0.07263  -1.69424
   D15       -3.11813  -0.00071   0.00000  -0.06161  -0.06263   3.10243
   D16       -2.43048  -0.00205   0.00000   0.01030   0.01027  -2.42021
   D17       -0.38012   0.00005   0.00000  -0.00864  -0.00873  -0.38884
   D18        1.81364  -0.00164   0.00000  -0.05277  -0.05276   1.76088
   D19        0.21198  -0.00051   0.00000   0.05384   0.05392   0.26589
   D20        2.27406   0.00092   0.00000   0.03945   0.03951   2.31358
   D21       -1.92224   0.00097   0.00000   0.03567   0.03553  -1.88672
   D22        0.38181  -0.00063   0.00000  -0.01694  -0.01699   0.36482
   D23       -1.68970  -0.00032   0.00000  -0.01846  -0.01847  -1.70817
   D24        2.51229  -0.00038   0.00000  -0.01521  -0.01522   2.49707
   D25        2.74432   0.00010   0.00000   0.00210   0.00214   2.74646
   D26       -1.44141  -0.00017   0.00000   0.00236   0.00242  -1.43899
   D27        0.63644  -0.00017   0.00000   0.00107   0.00114   0.63758
   D28       -0.63252   0.00024   0.00000   0.00797   0.00803  -0.62449
   D29        1.44615   0.00010   0.00000   0.01231   0.01233   1.45847
   D30       -2.73624   0.00010   0.00000   0.00439   0.00441  -2.73183
   D31       -2.73386   0.00003   0.00000   0.00644   0.00649  -2.72737
   D32       -0.65519  -0.00011   0.00000   0.01079   0.01079  -0.64440
   D33        1.44561  -0.00011   0.00000   0.00286   0.00287   1.44848
   D34        1.45925   0.00009   0.00000   0.00376   0.00380   1.46306
   D35       -2.74526  -0.00004   0.00000   0.00811   0.00810  -2.73716
   D36       -0.64446  -0.00004   0.00000   0.00019   0.00019  -0.64428
   D37       -2.98409  -0.00075   0.00000   0.10137   0.10136  -2.88273
   D38       -0.94957  -0.00052   0.00000   0.08593   0.08601  -0.86356
   D39        1.20588  -0.00121   0.00000   0.09861   0.09867   1.30454
   D40        1.13589   0.00040   0.00000   0.08033   0.08027   1.21616
   D41       -3.11277   0.00062   0.00000   0.06489   0.06492  -3.04785
   D42       -0.95733  -0.00006   0.00000   0.07757   0.07757  -0.87975
   D43       -0.88560  -0.00040   0.00000   0.09337   0.09328  -0.79232
   D44        1.14892  -0.00018   0.00000   0.07792   0.07793   1.22685
   D45       -2.97882  -0.00086   0.00000   0.09060   0.09058  -2.88823
   D46       -0.66785   0.00032   0.00000   0.10588   0.10586  -0.56200
   D47       -2.77175   0.00001   0.00000   0.11066   0.11062  -2.66113
   D48        1.45714  -0.00027   0.00000   0.11301   0.11307   1.57021
         Item               Value     Threshold  Converged?
 Maximum Force            0.004974     0.000450     NO 
 RMS     Force            0.000909     0.000300     NO 
 Maximum Displacement     0.637841     0.001800     NO 
 RMS     Displacement     0.189395     0.001200     NO 
 Predicted change in Energy=-1.971684D-03
 GradGradGradGradGradGradGradGradGradGradGradGradGradGradGradGradGradGrad

                          Input orientation:                          
 ---------------------------------------------------------------------
 Center     Atomic      Atomic             Coordinates (Angstroms)
 Number     Number       Type             X           Y           Z
 ---------------------------------------------------------------------
      1         14           0       -0.934091    0.284915    0.129211
      2          8           0        0.297125    1.457729    0.046793
      3          8           0       -2.139639    1.405025   -0.443369
      4          1           0       -1.722214    2.077819   -0.971681
      5          8           0       -1.119762   -0.717607   -1.239358
      6          8           0       -1.814005    0.072199    1.544544
      7          1           0       -2.546987    0.684072    1.492288
      8          8           0        0.246988   -0.948029    0.757238
      9          6           0        0.037118   -2.187285    0.172706
     10          1           0        0.942390   -2.804640    0.222537
     11          1           0       -0.775114   -2.731102    0.681370
     12          6           0       -0.358184   -1.886790   -1.270337
     13          1           0        0.548995   -1.736808   -1.875704
     14          1           0       -0.935469   -2.701564   -1.723511
     15          6           0        1.470338    1.331099   -0.697488
     16          1           0        1.401246    0.518122   -1.433768
     17          1           0        1.619380    2.262104   -1.265104
     18          6           0        2.714883    1.109277    0.149439
     19          1           0        3.594765    1.288430   -0.482586
     20          1           0        2.717776    1.873810    0.942157
     21          8           0        2.826990   -0.179022    0.683537
     22          1           0        1.908794   -0.498060    0.851440
 ---------------------------------------------------------------------
                    Distance matrix (angstroms):
                    1          2          3          4          5
     1  Si   0.000000
     2  O    1.702404   0.000000
     3  O    1.742367   2.486133   0.000000
     4  H    2.246688   2.345108   0.951845   0.000000
     5  O    1.706607   2.897213   2.485823   2.872108   0.000000
     6  O    1.680079   2.935954   2.415422   3.219057   2.975883
     7  H    2.149126   3.282831   2.105344   2.948547   3.385789
     8  O    1.819207   2.508967   3.560100   4.002833   2.430533
     9  C    2.656484   3.656444   4.245293   4.753523   2.343554
    10  H    3.615970   4.314516   5.259622   5.688996   3.278005
    11  H    3.070263   4.370205   4.498279   5.172552   2.803951
    12  C    2.647019   3.653775   3.833211   4.203320   1.395689
    13  H    3.210389   3.736911   4.376238   4.530677   2.056322
    14  H    3.514490   4.685401   4.466863   4.901705   2.050477
    15  C    2.749401   1.395140   3.619665   3.290161   3.346556
    16  H    2.819767   2.072198   3.782242   3.521673   2.814303
    17  H    3.517613   2.028904   3.942088   3.359510   4.047498
    18  C    3.740988   2.444895   4.899518   4.677908   4.468866
    19  H    4.678875   3.344149   5.735724   5.397464   5.179156
    20  H    4.064677   2.614259   5.072862   4.839206   5.118705
    21  O    3.829914   3.079710   5.333528   5.341192   4.423171
    22  H    3.035894   2.658955   4.657045   4.810732   3.686704
                    6          7          8          9         10
     6  O    0.000000
     7  H    0.956234   0.000000
     8  O    2.430722   3.318185   0.000000
     9  C    3.227052   4.082106   1.386174   0.000000
    10  H    4.197811   5.095010   2.053411   1.096872   0.000000
    11  H    3.111729   3.931989   2.056647   1.101906   1.779256
    12  C    3.725669   4.362601   2.314858   1.526085   2.182342
    13  H    4.533694   5.175823   2.765098   2.158919   2.386974
    14  H    4.375588   4.939725   3.259939   2.192269   2.706304
    15  C    4.171144   4.620894   2.967698   3.897484   4.269604
    16  H    4.405341   4.917102   2.877918   3.429406   3.740942
    17  H    4.947519   5.239467   4.034635   4.936387   5.323842
    18  C    4.851049   5.447139   3.269928   4.247150   4.297188
    19  H    5.902819   6.479699   4.212662   5.016658   4.928034
    20  H    4.913829   5.425482   3.755231   4.926507   5.055467
    21  O    4.726867   5.502603   2.693178   3.475263   3.264676
    22  H    3.829467   4.654257   1.724222   2.611002   2.578715
                   11         12         13         14         15
    11  H    0.000000
    12  C    2.166992   0.000000
    13  H    3.046394   1.100881   0.000000
    14  H    2.410402   1.096577   1.776950   0.000000
    15  C    4.841981   3.745191   3.413081   4.806558   0.000000
    16  H    4.446100   2.984276   2.450785   3.988805   1.099006
    17  H    5.869793   4.596097   4.184478   5.601374   1.100533
    18  C    5.216468   4.520611   4.110045   5.599599   1.521638
    19  H    6.050394   5.131119   4.513265   6.163032   2.135696
    20  H    5.785629   5.338425   5.067595   6.433198   2.130510
    21  O    4.414551   4.108458   3.763731   5.129638   2.455239
    22  H    3.495534   3.401426   3.289509   4.424436   2.436646
                   16         17         18         19         20
    16  H    0.000000
    17  H    1.765646   0.000000
    18  C    2.140479   2.128397   0.000000
    19  H    2.511902   2.337205   1.098063   0.000000
    20  H    3.035814   2.495847   1.101328   1.772476   0.000000
    21  O    2.646079   3.348824   1.399122   2.025521   2.071939
    22  H    2.551942   3.490276   1.930315   2.795295   2.507678
                   21         22
    21  O    0.000000
    22  H    0.986438   0.000000
 Stoichiometry    C4H11O6Si(1-)
 Framework group  C1[X(C4H11O6Si)]
 Deg. of freedom    60
 Full point group                 C1      NOp   1
 Largest Abelian subgroup         C1      NOp   1
 Largest concise Abelian subgroup C1      NOp   1
                         Standard orientation:                         
 ---------------------------------------------------------------------
 Center     Atomic      Atomic             Coordinates (Angstroms)
 Number     Number       Type             X           Y           Z
 ---------------------------------------------------------------------
      1         14           0       -0.896067   -0.451519   -0.151296
      2          8           0        0.519413   -1.375080    0.052739
      3          8           0       -1.907464   -1.733885    0.455710
      4          1           0       -1.401284   -2.286421    1.042646
      5          8           0       -1.319482    0.582927    1.138334
      6          8           0       -1.734510   -0.488625   -1.606735
      7          1           0       -2.348317   -1.218570   -1.537422
      8          8           0        0.073690    0.933779   -0.822142
      9          6           0       -0.380043    2.148141   -0.331295
     10          1           0        0.402025    2.914769   -0.392757
     11          1           0       -1.252202    2.503891   -0.903114
     12          6           0       -0.780677    1.870205    1.114797
     13          1           0        0.110223    1.924143    1.759255
     14          1           0       -1.513931    2.593403    1.491364
     15          6           0        1.616191   -0.992995    0.825723
     16          1           0        1.369904   -0.162309    1.501827
     17          1           0        1.902798   -1.845110    1.460491
     18          6           0        2.838489   -0.602167    0.008029
     19          1           0        3.706544   -0.580165    0.680145
     20          1           0        3.013640   -1.400733   -0.729900
     21          8           0        2.743374    0.649943   -0.608993
     22          1           0        1.791621    0.786790   -0.829219
 ---------------------------------------------------------------------
 Rotational constants (GHZ):           1.3002949           0.8637936           0.6944188
 Standard basis: def2TZVPP (5D, 7F)
 There are   573 symmetry adapted cartesian basis functions of A   symmetry.
 There are   506 symmetry adapted basis functions of A   symmetry.
   506 basis functions,   766 primitive gaussians,   573 cartesian basis functions
    49 alpha electrons       49 beta electrons
       nuclear repulsion energy       872.0468991498 Hartrees.
 NAtoms=   22 NActive=   22 NUniq=   22 SFac= 1.00D+00 NAtFMM=   60 NAOKFM=F Big=F
 Integral buffers will be    131072 words long.
 Raffenetti 2 integral format.
 Two-electron integral symmetry is turned on.
 Nuclear repulsion after empirical dispersion term =      872.0330937100 Hartrees.
 One-electron integrals computed using PRISM.
   1 Symmetry operations used in ECPInt.
 ECPInt:  NShTT=   18145 NPrTT=   50058 LenC2=   17292 LenP2D=   37002.
 LDataN:  DoStor=T MaxTD1= 6 Len=  172
 NBasis=   506 RedAO= T EigKep=  2.54D-04  NBF=   506
 NBsUse=   506 1.00D-06 EigRej= -1.00D+00 NBFU=   506
 Initial guess from the checkpoint file:  "PbiLmL_to_QbiLmL_collapseIRC_Reverse_ReactantOpt.chk"
 B after Tr=     0.000000   -0.000000   -0.000000
         Rot=    0.999266    0.013585    0.033355   -0.013035 Ang=   4.39 deg.
 ExpMin= 7.01D-02 ExpMax= 4.48D+04 ExpMxC= 1.53D+03 IAcc=3 IRadAn=         5 AccDes= 0.00D+00
 Harris functional with IExCor= 4639 and IRadAn=       5 diagonalized for initial guess.
 HarFok:  IExCor= 4639 AccDes= 0.00D+00 IRadAn=         5 IDoV= 1 UseB2=F ITyADJ=14
 ICtDFT=  3500011 ScaDFX=  1.000000  1.000000  1.000000  1.000000
 FoFCou: FMM=F IPFlag=           0 FMFlag=      100000 FMFlg1=           0
         NFxFlg=           0 DoJE=T BraDBF=F KetDBF=T FulRan=T
         wScrn=  0.000000 ICntrl=       500 IOpCl=  0 I1Cent=   200000004 NGrid=           0
         NMat0=    1 NMatS0=      1 NMatT0=    0 NMatD0=    1 NMtDS0=    0 NMtDT0=    0
 Petite list used in FoFCou.
 Requested convergence on RMS density matrix=1.00D-08 within 128 cycles.
 Requested convergence on MAX density matrix=1.00D-06.
 Requested convergence on             energy=1.00D-06.
 No special actions if energy rises.
 Integral accuracy reduced to 1.0D-05 until final iterations.
 Initial convergence to 1.0D-05 achieved.  Increase integral accuracy.
 SCF Done:  E(RwB97XD) =  -900.211191504     A.U. after   13 cycles
            NFock= 13  Conv=0.56D-08     -V/T= 2.0036
   1 Symmetry operations used in ECPInt.
 ECPInt:  NShTT=   18145 NPrTT=   50058 LenC2=   17292 LenP2D=   37002.
 LDataN:  DoStor=T MaxTD1= 7 Len=  274
 Calling FoFJK, ICntrl=      2127 FMM=F ISym2X=0 I1Cent= 0 IOpClX= 0 NMat=1 NMatS=1 NMatT=0.
 ***** Axes restored to original set *****
 -------------------------------------------------------------------
 Center     Atomic                   Forces (Hartrees/Bohr)
 Number     Number              X              Y              Z
 -------------------------------------------------------------------
      1       14           0.001287757   -0.001216749    0.001604691
      2        8          -0.000247128   -0.000038034   -0.001166617
      3        8           0.000742143   -0.000692103    0.000174812
      4        1           0.000034266    0.000552724   -0.000585964
      5        8          -0.000429531    0.000671692   -0.000401150
      6        8          -0.000149337    0.000483479    0.000620098
      7        1          -0.000436358   -0.000435591    0.000150777
      8        8           0.001662932    0.000721317   -0.001636246
      9        6           0.000224201    0.001106526    0.000646576
     10        1           0.000112623   -0.000171048    0.000035625
     11        1          -0.000156747   -0.000293009    0.000024503
     12        6           0.000016088    0.000039413   -0.000232177
     13        1          -0.000416633   -0.000093354   -0.000216886
     14        1          -0.000138819   -0.000048487    0.000083897
     15        6          -0.000252508   -0.000353063   -0.000427887
     16        1          -0.000039329    0.000001793    0.000384972
     17        1           0.000143810   -0.000027301    0.000072939
     18        6          -0.000489826    0.001654825   -0.000281190
     19        1          -0.000082415   -0.000090291    0.000200114
     20        1           0.000112909   -0.000410477    0.000171229
     21        8          -0.004012968   -0.002193906    0.002010779
     22        1           0.002514870    0.000831646   -0.001232896
 -------------------------------------------------------------------
 Cartesian Forces:  Max     0.004012968 RMS     0.000922603

 GradGradGradGradGradGradGradGradGradGradGradGradGradGradGradGradGradGrad
 Berny optimization.
 Using GEDIIS/GDIIS optimizer.
 FormGI is forming the generalized inverse of G from B-inverse, IUseBI=4.
 Internal  Forces:  Max     0.006043405 RMS     0.001110255
 Search for a local minimum.
 Step number   2 out of a maximum of  121
 All quantities printed in internal units (Hartrees-Bohrs-Radians)
 Mixed Optimization -- RFO/linear search
 Update second derivatives using D2CorX and points    1    2
 DE= -2.13D-03 DEPred=-1.97D-03 R= 1.08D+00
 TightC=F SS=  1.41D+00  RLast= 1.10D+00 DXNew= 5.0454D-01 3.3131D+00
 Trust test= 1.08D+00 RLast= 1.10D+00 DXMaxT set to 5.05D-01
 ITU=  1  0
 Use linear search instead of GDIIS.
     Eigenvalues ---   -0.00140   0.00105   0.00392   0.00446   0.00500
     Eigenvalues ---    0.00955   0.00989   0.01878   0.03845   0.04433
     Eigenvalues ---    0.04701   0.04866   0.04939   0.05144   0.05282
     Eigenvalues ---    0.05612   0.06171   0.06442   0.06969   0.07981
     Eigenvalues ---    0.09206   0.09663   0.09975   0.10251   0.10436
     Eigenvalues ---    0.10693   0.10805   0.11690   0.12416   0.12559
     Eigenvalues ---    0.13628   0.14821   0.18085   0.19055   0.20095
     Eigenvalues ---    0.22774   0.23545   0.25219   0.25451   0.26295
     Eigenvalues ---    0.26958   0.27511   0.28959   0.30045   0.30677
     Eigenvalues ---    0.31104   0.31312   0.31703   0.31893   0.32027
     Eigenvalues ---    0.32085   0.32860   0.35708   0.37205   0.40523
     Eigenvalues ---    0.42182   0.46973   0.55920   0.57634   0.73926
 RFO step:  Lambda=-2.22889367D-03 EMin=-1.39508430D-03
 Quartic linear search produced a step of  0.54364.
 Iteration  1 RMS(Cart)=  0.17572344 RMS(Int)=  0.03424382
 Iteration  2 RMS(Cart)=  0.10888499 RMS(Int)=  0.00399470
 Iteration  3 RMS(Cart)=  0.00637070 RMS(Int)=  0.00105309
 Iteration  4 RMS(Cart)=  0.00001907 RMS(Int)=  0.00105306
 Iteration  5 RMS(Cart)=  0.00000001 RMS(Int)=  0.00105306
 Variable       Old X    -DE/DX   Delta X   Delta X   Delta X     New X
                                 (Linear)    (Quad)   (Total)
    R1        3.21708  -0.00212  -0.00019   0.00281   0.00262   3.21970
    R2        3.29260  -0.00049  -0.01417  -0.02157  -0.03574   3.25686
    R3        3.22502  -0.00015   0.00247  -0.00607  -0.00466   3.22036
    R4        3.17489   0.00094  -0.00001   0.00787   0.00786   3.18275
    R5        3.43780  -0.00021  -0.00067  -0.03051  -0.03207   3.40573
    R6        2.63643  -0.00220  -0.00024   0.00136   0.00112   2.63756
    R7        1.79873   0.00074   0.00079   0.00702   0.00781   1.80654
    R8        2.63747  -0.00026  -0.00056  -0.00417  -0.00436   2.63311
    R9        1.80702   0.00005  -0.00018  -0.00198  -0.00216   1.80486
   R10        2.61949  -0.00034  -0.00121  -0.00678  -0.00747   2.61202
   R11        2.07279   0.00019  -0.00037  -0.00013  -0.00050   2.07229
   R12        2.08230   0.00027  -0.00064  -0.00013  -0.00077   2.08153
   R13        2.88388   0.00033   0.00015   0.00794   0.00952   2.89341
   R14        2.08036  -0.00024   0.00127  -0.00066   0.00061   2.08097
   R15        2.07223   0.00007   0.00005   0.00084   0.00089   2.07312
   R16        2.07682  -0.00026   0.00030  -0.00086  -0.00056   2.07627
   R17        2.07971  -0.00004  -0.00039  -0.00267  -0.00306   2.07665
   R18        2.87548  -0.00108   0.00265   0.00764   0.01029   2.88577
   R19        2.07504  -0.00020   0.00120   0.00108   0.00228   2.07731
   R20        2.08121  -0.00016   0.00059  -0.00006   0.00053   2.08174
   R21        2.64396   0.00143  -0.00239   0.00166  -0.00073   2.64323
   R22        1.86410  -0.00282   0.00374  -0.00405  -0.00031   1.86379
    A1        1.61242   0.00066  -0.00531  -0.03115  -0.03644   1.57598
    A2        2.03147   0.00040  -0.01023   0.14604   0.13563   2.16710
    A3        2.10225  -0.00045   0.03429  -0.01690   0.01751   2.11975
    A4        1.58488  -0.00185   0.00140  -0.04721  -0.04404   1.54083
    A5        1.60964  -0.00082   0.02238  -0.02285   0.00586   1.61550
    A6        1.56666   0.00039  -0.00848   0.06305   0.05626   1.62291
    A7        2.14623   0.00003  -0.02476  -0.13049  -0.15564   1.99059
[...]
 000537,0.00010187,-0.01793987,-0.01851216,-0.01609854,-0.03171763,0.01
 145013,-0.15917277,0.00831602,0.00009328,0.00702515,-0.01369783,0.0024
 9798,-0.02340433,-0.03708987,0.03805098,0.52690252,-0.00435816,-0.0040
 3005,-0.00381517,0.00121746,0.00067213,-0.00002963,-0.00006125,0.00122
 358,0.00007265,-0.00003568,0.00004741,0.00010343,-0.01144983,0.0189751
 8,0.01585738,0.00033176,0.00031497,0.00096387,0.00002735,-0.00007915,-
 0.00012764,0.00116150,0.00049545,0.00189682,0.00972401,0.00231711,-0.0
 1473194,0.00165297,-0.00038936,0.00059955,-0.00023812,0.00009674,-0.00
 352737,-0.13782670,-0.01994659,0.10996841,0.15370894,0.00527221,0.0024
 7336,0.00187715,-0.00067357,-0.00003272,0.00020423,-0.00017801,-0.0012
 5238,0.00015625,0.00010372,-0.00019434,-0.00013371,0.02818616,-0.01232
 802,-0.03006549,-0.00038944,-0.00030160,-0.00105417,-0.00005605,0.0000
 2386,0.00008529,-0.00022842,0.00176002,-0.00011123,-0.00359479,-0.0017
 4402,0.00493343,0.00006414,0.00032053,0.00028728,0.00121153,0.00064180
 ,0.00124795,-0.02091977,-0.05015902,0.01815575,0.00541667,0.06152173,0
 .00278586,0.00288952,0.00163027,-0.00120727,-0.00052599,0.00033479,0.0
 0004299,-0.00081602,-0.00007937,0.00005715,0.00001639,-0.00001857,0.00
 565000,-0.01234427,0.00177660,-0.00018397,-0.00045671,-0.00047194,-0.0
 0005770,0.00003916,0.00005362,-0.00151117,-0.00112241,0.00229988,0.019
 09449,0.00758713,-0.02281617,-0.00056400,0.00045992,0.00124991,-0.0034
 8212,0.00026421,-0.00448139,0.10704543,0.01706467,-0.19172913,-0.12544
 930,-0.01322955,0.20836979,-0.00219969,0.00236806,-0.00115845,0.000433
 50,-0.00026193,0.00019836,-0.00017954,0.00033376,0.00039163,-0.0000779
 9,-0.00002638,-0.00001761,0.01620571,0.02031980,0.00439935,0.00040533,
 -0.00021750,-0.00012950,0.00004355,-0.00001361,-0.00005324,-0.00073781
 ,-0.00153642,-0.00459429,-0.00769885,-0.01291676,0.00395490,-0.0003826
 8,0.00063800,-0.00036923,0.00144736,0.00040022,-0.00028894,-0.16417555
 ,-0.12200794,-0.02581972,-0.01325506,-0.01422103,-0.00291782,0.1698847
 4,0.00230671,0.00140835,0.00678064,-0.00135244,-0.00102646,-0.00050595
 ,0.00111395,-0.00167885,-0.00089046,-0.00003632,0.00018266,-0.00004425
 ,-0.00804028,-0.03989828,-0.01199527,0.00007996,0.00007601,-0.00097433
 ,-0.00009940,-0.00003911,0.00016659,0.00025709,0.00197134,0.00086851,0
 .00101316,0.00483401,0.00100640,-0.00034772,-0.00054091,-0.00105645,0.
 00026614,0.00082562,-0.00078704,-0.11752050,-0.16769376,-0.02522498,-0
 .00505040,-0.00061951,0.00025650,0.12691013,0.20219013,-0.00142539,0.0
 0067276,-0.00035163,-0.00040334,-0.00064688,0.00017727,0.00018875,-0.0
 0019331,-0.00002127,-0.00000971,0.00000921,-0.00001474,-0.00211767,-0.
 00403638,0.00211550,0.00038897,-0.00001304,-0.00023219,0.00001202,-0.0
 0003611,-0.00002822,-0.00380550,-0.00258509,-0.00538136,-0.01595045,-0
 .02063737,-0.00076281,-0.00087143,0.00084884,-0.00058126,0.00089327,-0
 .00023685,0.00075742,-0.02191902,-0.02339576,-0.05758783,0.01809883,0.
 01772241,0.00405234,0.02634426,0.03249247,0.05793492,-0.02898236,-0.02
 023353,0.00884286,-0.23434243,0.00864388,0.05491271,0.00495641,-0.0007
 4670,0.00005444,-0.00252888,0.00076421,-0.00043228,0.00187659,0.006710
 52,0.00096209,0.00303200,0.00320049,-0.00341398,-0.00049203,0.00004140
 ,0.00060535,-0.00640247,0.00940392,-0.00003902,-0.00062802,-0.00027621
 ,-0.00123599,-0.00021306,0.00105778,0.00006025,0.00033527,0.00052993,0
 .00001704,0.00228698,-0.00294454,-0.00151337,-0.00081274,0.00028254,0.
 00094226,-0.00013970,0.00071105,0.00043176,0.47696796,-0.01188901,0.00
 337560,0.00326842,0.02098093,-0.08224181,-0.00639909,-0.00131800,0.001
 42638,0.00053506,-0.00023396,0.00020059,-0.00072103,0.00049309,-0.0018
 0005,-0.00059128,-0.00070459,-0.00115997,0.00073831,0.00009669,-0.0001
 3527,-0.00009662,0.00009510,-0.00278717,0.00097144,-0.00009972,-0.0007
 3027,0.00021410,-0.00002503,-0.00018328,0.00013569,0.00025394,0.000216
 11,-0.00013796,-0.00101674,0.00050284,0.00056365,0.00015259,-0.0002521
 5,-0.00052393,0.00032168,-0.00003100,-0.00017994,0.01018683,0.60435663
 ,0.00888466,0.00794777,-0.00851794,0.04896268,-0.00134832,-0.08103566,
 -0.00525781,0.00069470,0.00268866,0.00131357,-0.00139417,0.00074049,-0
 .00045528,-0.00268890,-0.00059457,0.00048523,-0.00011287,0.00005755,0.
 00007222,0.00010082,-0.00030354,0.00439471,-0.00174535,-0.00253767,-0.
 00022037,-0.00039368,0.00020273,-0.00002774,-0.00036487,0.00008314,-0.
 00006221,-0.00009823,-0.00006017,-0.00108787,0.00075647,0.00064947,0.0
 0031390,-0.00014990,-0.00048151,0.00012014,-0.00022760,-0.00023459,-0.
 02856237,-0.00338564,0.51783950,0.00189852,0.00766663,0.00079529,-0.02
 410208,0.02855882,0.02273855,-0.00138431,-0.00073798,-0.00040488,0.000
 53460,-0.00012038,0.00043294,0.00045202,-0.00067553,-0.00055483,-0.000
 22017,-0.00078231,0.00026338,0.00010508,0.00004283,-0.00016200,0.00036
 912,-0.00112385,-0.00059136,-0.00007597,-0.00065944,0.00016045,-0.0000
 2636,-0.00003066,0.00001987,0.00004484,0.00010914,-0.00006980,-0.00043
 927,-0.00001408,0.00033753,0.00011859,-0.00015861,-0.00022562,0.000105
 84,-0.00001659,-0.00008131,-0.05023564,0.01960454,0.01113798,0.0677112
 9,-0.00233272,-0.00289752,0.00108428,0.01127759,0.00256875,-0.00228141
 ,0.00080259,0.00015549,0.00005610,-0.00028606,0.00004068,-0.00020269,0
 .00024664,0.00092595,0.00027298,0.00021125,0.00031614,-0.00020548,-0.0
 0007553,-0.00002011,0.00006748,-0.00281136,-0.00063267,0.00181844,-0.0
 0031960,-0.00008460,0.00014040,0.00013663,0.00011618,-0.00006009,0.000
 05500,-0.00004413,0.00001085,0.00029353,-0.00034803,-0.00028152,-0.000
 14313,0.00007152,0.00017436,-0.00005228,0.00005866,0.00009622,0.023912
 51,-0.23219705,-0.10641072,-0.03074786,0.25265471,-0.00021277,-0.00452
 061,0.00086324,0.01082414,-0.00670920,-0.00364112,0.00071846,0.0003314
 7,0.00005954,-0.00024338,0.00010185,-0.00017390,-0.00007881,0.00090923
 ,-0.00019123,-0.00007130,0.00057045,-0.00001988,-0.00009551,-0.0000217
 5,0.00010714,-0.00091822,0.00086128,0.00041298,0.00042576,0.00087526,0
 .00014512,0.00002382,0.00005654,-0.00009436,-0.00015152,-0.00022746,0.
 00003409,0.00033792,-0.00030939,-0.00001162,-0.00005472,0.00001207,0.0
 0010147,-0.00010509,0.00003482,0.00001793,0.01164885,-0.09962960,-0.10
 843060,-0.01837645,0.11634346,0.11692086,0.00265105,0.00416182,0.00129
 122,-0.03434479,-0.02608695,0.02735353,-0.00147399,0.00040536,-0.00039
 609,0.00019088,-0.00017950,0.00017272,-0.00009994,-0.00067484,-0.00033
 592,-0.00083084,-0.00068190,0.00074367,0.00008384,-0.00006466,-0.00007
 144,0.00076447,-0.00117545,0.00023604,0.00030318,0.00008551,0.00002439
 ,0.00003328,-0.00016780,-0.00004869,-0.00003295,-0.00001048,0.00002124
 ,-0.00019320,0.00026011,0.00011440,0.00007838,-0.00003682,-0.00005822,
 -0.00000244,-0.00009696,-0.00002571,-0.04786731,-0.03310986,0.02289995
 ,0.00204018,0.00059010,-0.00211139,0.07718965,0.00304530,0.00070110,-0
 .00017183,-0.00465161,0.00880743,-0.00283036,-0.00071741,0.00015829,-0
 .00006678,0.00023096,-0.00012885,0.00018153,-0.00033795,-0.00015478,-0
 .00035425,-0.00032423,0.00006056,0.00023717,0.00001775,0.00001544,-0.0
 0001673,-0.00141761,-0.00097767,0.00081876,0.00027657,0.00099410,0.000
 24009,0.00009646,-0.00008290,-0.00007662,-0.00015216,-0.00022902,0.000
 03425,0.00001898,0.00009162,0.00007603,0.00005056,0.00000884,0.0000126
 5,-0.00009277,-0.00006364,-0.00002984,-0.03373582,-0.19394384,0.110406
 71,-0.00376428,-0.02006525,0.01731089,0.04096240,0.20351819,-0.0022093
 7,-0.00273767,-0.00016489,0.01634152,0.00573878,-0.00348051,0.00086534
 ,-0.00015541,0.00009371,-0.00022443,0.00018527,-0.00007398,0.00010081,
 0.00042974,0.00022157,0.00039773,0.00028587,-0.00032519,-0.00003413,0.
 00003969,0.00004745,-0.00058833,0.00042163,0.00067797,-0.00005548,-0.0
 0003755,-0.00002961,0.00000090,0.00007570,-0.00001203,0.00001764,0.000
 00579,-0.00000035,0.00017303,-0.00015320,-0.00011851,-0.00005577,0.000
 02710,0.00008347,0.00000350,0.00005446,0.00004154,0.02326031,0.1078036
 3,-0.13901183,-0.00344938,-0.01119637,0.01089744,-0.03502290,-0.124268
 84,0.14967348,-0.00082714,0.00348565,-0.00363900,-0.04381979,-0.003228
 48,-0.02170063,-0.00184627,0.00017403,0.00080359,0.00029758,-0.0004841
 7,0.00019757,-0.00004837,-0.00072298,-0.00015315,0.00038551,-0.0000420
 3,0.00026725,-0.00002326,0.00002916,-0.00012388,-0.00117644,0.00047489
 ,-0.00137549,0.00008360,-0.00021541,0.00000257,-0.00001427,-0.00000053
 ,0.00005030,0.00008033,0.00015886,-0.00004155,-0.00033532,0.00017557,0
 .00013498,0.00006621,-0.00008216,-0.00011636,0.00010424,-0.00002795,-0
 .00002371,-0.11122290,-0.01134821,-0.04512700,0.00409078,0.00066800,0.
 00048825,0.00384731,-0.00167637,0.00594072,0.56424719,-0.00304091,0.00
 794309,-0.00293276,-0.00204319,0.00005390,0.00117591,-0.00048738,-0.00
 102829,0.00015921,0.00024506,0.00003702,0.00027957,0.00104311,-0.00097
 107,0.00118564,0.00079657,-0.00141332,-0.00013031,0.00026317,0.0001880
 8,-0.00015635,0.00758103,0.00261794,0.00429952,0.00017194,-0.00265926,
 -0.00037371,-0.00015556,0.00000959,-0.00004118,0.00032976,0.00049347,-
 0.00004754,0.00007648,0.00059412,-0.00053474,-0.00010147,0.00002816,0.
 00026770,0.00018095,-0.00006702,0.00031233,-0.00551719,-0.08419547,-0.
 00924547,-0.01832810,-0.00337239,-0.02716826,0.01562227,-0.00098397,0.
 02536622,0.01251583,0.53799384,-0.00093690,-0.00679749,0.00448019,0.01
 332283,0.00331807,0.01180223,0.00205446,0.00033374,-0.00074236,-0.0005
 3328,0.00038725,-0.00021289,-0.00037876,0.00093140,-0.00069412,-0.0004
 8541,0.00047842,-0.00091842,-0.00001020,-0.00004807,0.00027099,-0.0047
 5065,-0.00047230,-0.00309969,-0.00018509,0.00123489,-0.00001571,0.0001
 1922,0.00007398,0.00008426,-0.00006204,-0.00008582,0.00000290,0.000033
 11,-0.00041943,0.00019564,0.00003277,0.00001947,-0.00011543,-0.0000937
 1,0.00009888,-0.00011999,-0.05764718,-0.01651148,-0.15045444,-0.011632
 80,0.00025898,-0.01536220,-0.00964405,-0.00250092,-0.01445217,-0.04993
 549,0.02767687,0.50611560,0.00207953,0.00226039,-0.00085664,-0.0054835
 6,-0.00176670,-0.00497680,-0.00105874,0.00011065,0.00013159,0.00027276
 ,-0.00021586,0.00012906,-0.00019278,-0.00057533,-0.00024265,-0.0002952
 1,-0.00019578,0.00026355,0.00004417,0.00001384,-0.00007395,-0.00025128
 ,-0.00077914,-0.00021287,0.00009137,0.00044960,0.00011033,0.00006590,-
 0.00009267,-0.00001303,-0.00006406,-0.00010027,0.00002287,-0.00017864,
 0.00021615,0.00012266,0.00007063,-0.00001311,-0.00006684,-0.00004245,-
 0.00008832,-0.00004894,-0.01709711,-0.00123691,0.01329288,0.00054264,-
 0.00075086,-0.00045315,0.00020061,0.00130279,-0.00073484,-0.25532059,-
 0.03651295,0.07390249,0.27592969,0.00041033,-0.00095636,0.00027033,0.0
 0040959,0.00159094,-0.00005976,0.00000538,0.00010023,-0.00001006,-0.00
 001181,-0.00001540,-0.00001691,-0.00012496,0.00010809,-0.00016673,-0.0
 0008434,0.00018901,0.00004585,-0.00003651,-0.00001488,0.00001309,-0.00
 128453,-0.00025913,-0.00082686,-0.00001106,0.00049644,0.00002890,0.000
 04169,-0.00002902,0.00000302,-0.00003348,-0.00006836,0.00001434,-0.000
 02206,-0.00007185,0.00003027,0.00001396,0.00000297,-0.00002692,-0.0000
 3958,0.00000094,-0.00004152,-0.00309225,-0.00089778,0.00141330,0.00002
 284,-0.00026290,0.00028003,0.00099932,0.00042103,0.00002080,-0.0318122
 3,-0.05201197,0.00680879,0.04330563,0.06915169,-0.00007488,0.00175769,
 -0.00108783,-0.00542141,-0.00145205,-0.00271488,-0.00062772,-0.0000613
 0,0.00020650,0.00010761,-0.00012658,0.00006108,0.00010811,-0.00020910,
 0.00013796,0.00016024,-0.00009104,0.00018279,-0.00000981,0.00000436,-0
 .00006658,0.00114955,0.00022903,0.00063228,0.00001921,-0.00040168,-0.0
 0000281,-0.00002536,0.00000361,-0.00000026,0.00003185,0.00004408,-0.00
 001567,-0.00003716,0.00009222,-0.00000674,0.00000235,-0.00001302,0.000
 00787,0.00004049,-0.00001172,0.00002993,-0.02172528,-0.00243321,0.0099
 1753,0.00110606,-0.00050563,0.00015106,-0.00007135,0.00033277,0.001393
 33,0.07516374,0.00763132,-0.07852751,-0.08487199,-0.02409910,0.0862403
 7,-0.00061922,-0.00073669,-0.00013472,0.00317223,0.00031489,0.00139898
 ,0.00026521,-0.00002007,0.00002973,-0.00006488,0.00004025,-0.00004541,
 0.00004257,0.00015183,0.00013830,0.00012619,0.00008672,-0.00000762,-0.
 00002729,-0.00000219,0.00001649,0.00019439,0.00027530,0.00025752,-0.00
 004458,-0.00010852,-0.00003488,-0.00000792,0.00002241,-0.00000185,0.00
 001922,0.00001146,-0.00000099,0.00008109,-0.00001894,-0.00007630,-0.00
 002612,0.00002642,0.00004569,-0.00000388,0.00001440,0.00002884,0.00376
 636,-0.01613752,-0.01650766,-0.00235929,-0.00076132,-0.00351469,0.0002
 9583,0.00035481,0.00068741,-0.07083129,0.04909503,0.04388366,-0.008459
 29,0.02066905,0.02093623,0.06955871,0.00078920,-0.00153522,-0.00024005
 ,-0.00036526,0.00097661,0.00203510,-0.00010384,0.00025733,0.00009301,-
 0.00000669,-0.00006441,-0.00005918,-0.00027815,0.00027275,-0.00014491,
 -0.00010137,0.00040326,0.00034150,-0.00009660,-0.00004850,-0.00000617,
 -0.00175318,-0.00005645,-0.00064423,0.00010422,0.00049765,0.00003758,0
 .00003667,0.00005734,0.00002584,-0.00007374,-0.00009078,0.00002647,0.0
 0008720,-0.00011249,0.00003492,-0.00001198,0.00002012,0.00001438,-0.00
 006168,-0.00000028,-0.00003337,0.00303498,-0.00170533,-0.00498233,0.00
 033511,0.00080911,-0.00057517,-0.00097311,0.00021706,-0.00112841,0.044
 46558,-0.17054489,-0.10872468,-0.00044890,0.00541282,0.00156941,-0.055
 28180,0.20671790,0.00031904,-0.00042534,-0.00019690,0.00096987,0.00213
 826,0.00384108,-0.00011770,0.00013707,0.00001845,0.00000206,-0.0000589
 7,-0.00005129,-0.00004801,0.00017691,0.00014713,-0.00007089,0.00010079
 ,0.00011097,-0.00002523,-0.00002910,-0.00000439,0.00000570,0.00002002,
 0.00042086,0.00006351,0.00009613,-0.00003109,-0.00000906,0.00000587,-0
 .00002645,-0.00002278,-0.00003407,0.00003004,0.00015303,-0.00002362,-0
 .00013104,-0.00004726,0.00003917,0.00008969,-0.00003994,-0.00001112,0.
 00003478,0.00863374,-0.02244596,-0.01882218,-0.00377348,0.00050061,-0.
 00374081,0.00037919,0.00049744,0.00008878,0.04096678,-0.10869838,-0.14
 063719,0.00256145,-0.00739071,-0.00601356,-0.04291835,0.11266010,0.150
 83880,0.00468362,-0.00807914,0.00253954,0.00482992,0.00178790,-0.00009
 345,-0.00021546,0.00090226,-0.00030527,0.00000573,-0.00004263,-0.00006
 178,-0.00147692,-0.00027452,-0.00187778,-0.00136988,0.00102800,0.00071
 063,-0.00011412,-0.00003063,0.00014738,-0.01965061,-0.01473184,-0.0101
 9238,-0.00276751,0.00715201,-0.00018499,0.00067164,-0.00079102,-0.0002
 3462,-0.00060819,-0.00114931,0.00013284,-0.00089521,-0.00083676,0.0000
 9482,0.00021027,0.00001406,-0.00031346,-0.00045782,-0.00006008,-0.0005
 6669,0.00113221,0.02096932,-0.01125485,0.00048834,0.00013804,0.0018703
 0,-0.00165325,0.00049842,-0.00442433,-0.09260253,-0.01705578,-0.003036
 48,0.00768830,-0.03081933,0.01572143,0.00583015,0.00609906,-0.00605057
 ,0.41986459,0.00164440,-0.01394640,0.00243384,0.00710256,0.00646317,-0
 .00204765,0.00089968,0.00136515,-0.00022012,-0.00045070,0.00002554,-0.
 00026402,-0.00182554,0.00140513,-0.00193536,-0.00082322,0.00210191,0.0
 0047393,-0.00029539,-0.00009881,0.00031535,-0.01949656,-0.00123319,-0.
 00881009,-0.00011475,0.00507673,0.00053287,0.00039775,0.00003966,0.000
 13498,-0.00044611,-0.00063127,0.00010105,-0.00011634,-0.00075385,0.000
 44163,0.00008555,0.00002522,-0.00022865,-0.00032888,0.00006006,-0.0003
 6476,-0.00363891,-0.01056270,0.00926532,0.00041957,0.00224146,0.001343
 39,0.00098142,0.00142399,0.00056914,0.01724803,-0.20085679,0.09141254,
 -0.00676203,-0.02162510,0.01833826,0.00254824,-0.04019814,0.02180394,0
 .18510419,0.40205677,0.00245056,0.00238465,-0.00331152,-0.00507467,-0.
 00263310,0.00400941,-0.00103361,-0.00019275,0.00050368,0.00038432,-0.0
 0016678,0.00009541,-0.00020035,-0.00049680,0.00024436,-0.00013982,-0.0
 0011179,0.00169425,-0.00002607,0.00010238,-0.00014153,-0.00605537,-0.0
 0461778,0.00231089,-0.00063998,0.00094283,0.00044315,0.00024932,-0.000
 08530,-0.00019079,-0.00031095,-0.00050348,0.00003357,0.00005867,0.0002
 1790,-0.00016170,-0.00002754,0.00003041,0.00015638,-0.00006674,-0.0000
 9878,-0.00000405,0.00338172,0.03522318,-0.02240661,0.00234321,0.000458
 09,0.00382526,-0.00549924,0.00122625,-0.00580620,-0.02475674,0.0655067
 1,-0.11811157,0.00071357,0.01741581,-0.00630544,-0.00418349,-0.0000071
 8,0.01409351,0.09837669,-0.10639093,0.16613795,-0.00851100,0.01492802,
 -0.00446750,-0.00570841,-0.00502670,0.00286190,0.00005440,-0.00154827,
 0.00037155,0.00015228,0.00005525,0.00013738,0.00244282,0.00002290,0.00
 282632,0.00194640,-0.00206848,-0.00138979,0.00035762,0.00009846,-0.000
 19866,0.00062804,0.00564919,0.00492379,0.00244854,-0.01090743,0.000243
 91,-0.00064573,0.00155297,0.00049378,0.00100029,0.00169957,-0.00035810
 ,0.00126540,0.00156537,-0.00004808,-0.00030439,-0.00002569,0.00048999,
 0.00072321,0.00006439,0.00086216,0.00661086,0.00396487,-0.00331476,0.0
 0034124,-0.00005118,0.00004950,-0.00117994,0.00001520,-0.00098994,0.00
 486541,-0.00467869,0.00598350,0.00145811,0.00149436,-0.00168189,-0.000
 90819,0.00460430,-0.00093109,-0.32359327,-0.18213295,-0.05994347,0.316
 55632,-0.00077428,0.01274400,0.00019112,-0.00354413,-0.00309761,-0.000
 54713,-0.00052445,-0.00100698,0.00001574,0.00029503,-0.00004405,0.0001
 5099,0.00214689,-0.00071287,0.00215860,0.00062580,-0.00188464,-0.00118
 698,0.00023718,-0.00005395,-0.00026592,0.00949350,-0.00907968,0.004516
 61,-0.00246607,-0.00570933,-0.00152897,-0.00018663,0.00024951,-0.00007
 457,0.00038995,0.00045339,-0.00023491,0.00033418,0.00005347,-0.0003606
 9,-0.00010977,-0.00001438,0.00022787,0.00030417,0.00005104,0.00027597,
 0.00170511,0.00274497,0.00196296,0.00040020,-0.00003401,0.00013070,-0.
 00080998,0.00021226,-0.00134636,-0.02975508,-0.03185477,0.00252691,0.0
 0187978,-0.00126139,-0.00059832,-0.00054373,-0.00128547,0.00094097,-0.
 14982221,-0.13237854,-0.00820355,0.17072455,0.17190905,-0.00431691,0.0
 0488698,0.00141296,-0.00066277,-0.00171673,-0.00065991,0.00043961,-0.0
 0040935,-0.00027822,-0.00010729,0.00010918,-0.00001406,0.00095173,-0.0
 0021448,0.00079131,0.00056949,-0.00085298,-0.00176988,0.00010782,-0.00
 012753,-0.00016291,0.00359492,0.00211815,-0.00284280,0.00076284,-0.003
 69152,-0.00160351,-0.00044101,0.00036663,0.00029646,0.00080676,0.00128
 098,-0.00005184,-0.00007877,0.00000395,-0.00021129,-0.00004362,-0.0000
 4088,-0.00001256,0.00020166,0.00006868,0.00015833,0.00081608,0.0036022
 6,0.00071224,-0.00001335,-0.00013833,-0.00187040,0.00004867,-0.0010583
 7,0.00025653,0.02297726,0.01546770,0.00051187,0.00130125,0.00629403,-0
 .00421942,0.00000311,-0.00029263,-0.00005918,-0.08099698,-0.02690467,-
 0.03710842,0.05407949,0.00124895,0.04672470\\-0.00000071,0.00000206,-0
 .00000140,0.00000218,-0.00000176,-0.00000247,-0.00000080,-0.00000177,-
 0.00000689,0.00000157,-0.00000045,-0.00000762,0.00000096,-0.00000106,-
 0.00000144,-0.00000080,0.00000535,-0.00000057,-0.00000290,0.00000310,-
 0.00000474,-0.00000221,0.00000023,0.00000288,0.00000067,0.00000113,0.0
 0000256,-0.00000038,-0.00000019,0.00000584,-0.00000163,0.00000181,0.00
 000378,0.00000119,-0.00000198,0.00000202,0.00000201,-0.00000361,0.0000
 0308,0.00000111,-0.00000219,0.00000295,0.00000045,-0.00000196,-0.00000
 189,0.00000132,-0.00000237,0.00000111,0.00000181,-0.00000292,-0.000002
 32,-0.00000032,0.00000243,0.00000075,0.00000008,-0.00000027,0.00000156
 ,-0.00000093,0.00000191,-0.00000162,-0.00000272,0.00000091,0.00000211,
 0.00000005,0.00000161,0.00000233\\\@
 The archive entry for this job was punched.


 ERROR IS A HARDY PLANT... IT FLOURISHETH IN EVERY SOIL.
            MARTIN FARQUHAR TUPPER
 Job cpu time:       0 days  5 hours 35 minutes  0.9 seconds.
 Elapsed time:       0 days  1 hours 24 minutes  7.8 seconds.
 File lengths (MBytes):  RWF=    456 Int=      0 D2E=      0 Chk=     21 Scr=      1
 Normal termination of Gaussian 16 at Wed Mar 27 17:45:56 2024.
