 Entering Gaussian System, Link 0=/opt/software/gaussian/g16.c01/g16
 Initial command:
 /opt/software/gaussian/g16.c01/l1.exe "/scratch/arhender/18118842/Gau-151422.inp" -scrdir="/scratch/arhender/18118842/"
 Entering Link 1 = /opt/software/gaussian/g16.c01/l1.exe PID=    151427.
  
 Copyright (c) 1988-2019, Gaussian, Inc.  All Rights Reserved.
  
 This is part of the Gaussian(R) 16 program.  It is based on
 the Gaussian(R) 09 system (copyright 2009, Gaussian, Inc.),
 the Gaussian(R) 03 system (copyright 2003, Gaussian, Inc.),
 the Gaussian(R) 98 system (copyright 1998, Gaussian, Inc.),
 the Gaussian(R) 94 system (copyright 1995, Gaussian, Inc.),
 the Gaussian 92(TM) system (copyright 1992, Gaussian, Inc.),
 the Gaussian 90(TM) system (copyright 1990, Gaussian, Inc.),
 the Gaussian 88(TM) system (copyright 1988, Gaussian, Inc.),
 the Gaussian 86(TM) system (copyright 1986, Carnegie Mellon
 University), and the Gaussian 82(TM) system (copyright 1983,
 Carnegie Mellon University). Gaussian is a federally registered
 trademark of Gaussian, Inc.
  
 This software contains proprietary and confidential information,
 including trade secrets, belonging to Gaussian, Inc.
  
 This software is provided under written license and may be
 used, copied, transmitted, or stored only in accord with that
 written license.
  
 The following legend is applicable only to US Government
 contracts under FAR:
  
                    RESTRICTED RIGHTS LEGEND
  
 Use, reproduction and disclosure by the US Government is
 subject to restrictions as set forth in subparagraphs (a)
 and (c) of the Commercial Computer Software - Restricted
 Rights clause in FAR 52.227-19.
  
 Gaussian, Inc.
 340 Quinnipiac St., Bldg. 40, Wallingford CT 06492
  
  
 ---------------------------------------------------------------
 Warning -- This program may not be used in any manner that
 competes with the business of Gaussian, Inc. or will provide
 assistance to any competitor of Gaussian, Inc.  The licensee
 of this program is prohibited from giving any competitor of
 Gaussian, Inc. access to this program.  By using this program,
 the user acknowledges that Gaussian, Inc. is engaged in the
 business of creating and licensing software in the field of
 computational chemistry and represents and warrants to the
 licensee that it is not a competitor of Gaussian, Inc. and that
 it will not use this program in any manner prohibited above.
 ---------------------------------------------------------------
  

 Cite this work as:
 Gaussian 16, Revision C.01,
 M. J. Frisch, G. W. Trucks, H. B. Schlegel, G. E. Scuseria, 
 M. A. Robb, J. R. Cheeseman, G. Scalmani, V. Barone, 
 G. A. Petersson, H. Nakatsuji, X. Li, M. Caricato, A. V. Marenich, 
 J. Bloino, B. G. Janesko, R. Gomperts, B. Mennucci, H. P. Hratchian, 
 J. V. Ortiz, A. F. Izmaylov, J. L. Sonnenberg, D. Williams-Young, 
 F. Ding, F. Lipparini, F. Egidi, J. Goings, B. Peng, A. Petrone, 
 T. Henderson, D. Ranasinghe, V. G. Zakrzewski, J. Gao, N. Rega, 
 G. Zheng, W. Liang, M. Hada, M. Ehara, K. Toyota, R. Fukuda, 
 J. Hasegawa, M. Ishida, T. Nakajima, Y. Honda, O. Kitao, H. Nakai, 
 T. Vreven, K. Throssell, J. A. Montgomery, Jr., J. E. Peralta, 
 F. Ogliaro, M. J. Bearpark, J. J. Heyd, E. N. Brothers, K. N. Kudin, 
 V. N. Staroverov, T. A. Keith, R. Kobayashi, J. Normand, 
 K. Raghavachari, A. P. Rendell, J. C. Burant, S. S. Iyengar, 
 J. Tomasi, M. Cossi, J. M. Millam, M. Klene, C. Adamo, R. Cammi, 
 J. W. Ochterski, R. L. Martin, K. Morokuma, O. Farkas, 
 J. B. Foresman, and D. J. Fox, Gaussian, Inc., Wallingford CT, 2019.
 
 ******************************************
 Gaussian 16:  ES64L-G16RevC.01  3-Jul-2019
                26-Mar-2024 
 ******************************************
 %chk=IRC_forward_HbiLmL_collapseScan.chk
 %mem=1600MB
 %nprocs=4
 Will use up to    4 processors via shared memory.
 ----------------------------------------------------------------------
 # irc=(forward,calcfc,maxpoints=100,maxcycle=100) wb97xd/def2tzvpp geo
 m=connectivity
 ----------------------------------------------------------------------
 1/6=100,10=4,18=10,22=1,26=3,38=1,42=100,44=3,57=2,172=1/1,23;
 2/12=2,17=6,18=5,29=1,40=1/2;
 3/5=44,7=202,11=2,25=1,30=1,71=2,74=-58,140=1/1,2,3;
 4//1;
 5/5=2,38=5/2;
 8/6=4,10=90,11=11/1;
 11/6=1,8=1,9=11,15=111,16=1/1,2,10;
 10/6=1,13=1/2;
 6/7=2,8=2,9=2,10=2,28=1/1;
 7/10=1,25=1/1,2,3,16;
 1/6=100,10=4,18=10,22=1,26=3,42=100,44=3/23(2);
 2/29=1/2;
 99/5=20/99;
 2/29=1/2;
 3/5=44,7=202,11=2,25=1,30=1,71=2,74=-58,140=1/1,2,3;
 4/5=5,16=3,69=1/1;
 5/5=2,38=5/2;
 8/6=4,10=90,11=11/1;
 11/6=1,8=1,9=11,15=111,16=1/1,2,10;
 10/6=1,13=1/2;
 7/10=1,25=1/1,2,3,16;
 1/6=100,18=10,22=1,26=3,42=100,44=3/23(-8);
 2/29=1/2;
 6/7=2,8=2,9=2,10=2,19=2,28=1/1;
 99/5=20,9=1/99;
 ----------------------------------------------------------------------
 Take TS opt from hydroxyl loss of HbiL2moL collapse deprotonated and r
 eprotonate free ligand hydroxyl
 ----------------------------------------------------------------------
 Symbolic Z-matrix:
 Charge = -2 Multiplicity = 1
 Si                    0.3569   -0.02102   0.08097 
 O                     0.19669   1.13357  -1.20081 
 O                     1.08197  -0.99247   1.31789 
 O                     0.74829  -1.25802  -1.07825 
 O                    -1.32249  -0.43345   0.29744 
 O                    -3.81054   0.3378    0.58319 
 O                     0.42812   1.29312   1.21904 
 C                    -3.56469  -0.77888  -0.2457 
 H                    -4.2928   -0.77436  -1.06527 
 H                    -3.69959  -1.70875   0.32838 
 C                    -2.13891  -0.71724  -0.78215 
 H                    -2.06428   0.06895  -1.54728 
 H                    -1.87681  -1.67041  -1.26481 
 C                     0.27476   2.54154   0.64455 
 H                    -0.77605   2.88945   0.72517 
 H                     0.91017   3.28277   1.15473 
 C                     0.66654   2.38925  -0.82487 
 H                     0.20884   3.17451  -1.44891 
 H                     1.76315   2.40315  -0.908 
 C                     1.80264  -2.0509   -0.63383 
 H                     1.79099  -3.02953  -1.14273 
 H                     2.75414  -1.52558  -0.80221 
 C                     1.58524  -2.20118   0.87231 
 H                     0.86991  -3.02426   1.0771 
 H                     2.5275   -2.44038   1.3897 
 O                     3.29521   0.71128  -0.31012 
 H                     3.11899   0.69328   0.63214 
 H                    -2.92219   0.52525   0.92954 
 
 IRC-IRC-IRC-IRC-IRC-IRC-IRC-IRC-IRC-IRC-IRC-IRC-IRC-IRC-IRC-IRC-IRC-IRC
 ------------------------------------------------------------------------
 INPUT DATA FOR L123
 ------------------------------------------------------------------------
 GENERAL PARAMETERS:
 Rxn path following direction = Forward
 Maximum points per path      = 100
 Step size                    =   0.100 bohr
 Integration scheme           = HPC                                 
    Redo corrector integration= Yes                                 
    DWI Weight Power          =  2
    DWI will use Hessian update vectors when possible.
    Max correction cycles     = 100
 Initial Hessian              = CalcFC
 Hessian evaluation           = All updating
 Hessian updating method      = Bofill                              
 ------------------------------------------------------------------------
 IRC-IRC-IRC-IRC-IRC-IRC-IRC-IRC-IRC-IRC-IRC-IRC-IRC-IRC-IRC-IRC-IRC-IRC
                          Input orientation:                          
 ---------------------------------------------------------------------
 Center     Atomic      Atomic             Coordinates (Angstroms)
 Number     Number       Type             X           Y           Z
 ---------------------------------------------------------------------
      1         14           0        0.356900   -0.021020    0.080966
      2          8           0        0.196687    1.133572   -1.200814
      3          8           0        1.081966   -0.992469    1.317893
      4          8           0        0.748290   -1.258016   -1.078254
      5          8           0       -1.322485   -0.433448    0.297437
      6          8           0       -3.810542    0.337800    0.583194
      7          8           0        0.428121    1.293115    1.219037
      8          6           0       -3.564687   -0.778883   -0.245700
      9          1           0       -4.292801   -0.774363   -1.065271
     10          1           0       -3.699589   -1.708753    0.328382
     11          6           0       -2.138913   -0.717244   -0.782148
     12          1           0       -2.064285    0.068954   -1.547277
     13          1           0       -1.876813   -1.670411   -1.264805
     14          6           0        0.274761    2.541538    0.644553
     15          1           0       -0.776050    2.889453    0.725169
     16          1           0        0.910171    3.282775    1.154734
     17          6           0        0.666535    2.389248   -0.824869
     18          1           0        0.208836    3.174514   -1.448908
     19          1           0        1.763147    2.403146   -0.908001
     20          6           0        1.802643   -2.050899   -0.633828
     21          1           0        1.790989   -3.029527   -1.142730
     22          1           0        2.754137   -1.525575   -0.802212
     23          6           0        1.585244   -2.201180    0.872314
     24          1           0        0.869907   -3.024255    1.077095
     25          1           0        2.527504   -2.440384    1.389698
     26          8           0        3.295205    0.711284   -0.310118
     27          1           0        3.118994    0.693275    0.632143
     28          1           0       -2.922191    0.525248    0.929539
 ---------------------------------------------------------------------
                    Distance matrix (angstroms):
                    1          2          3          4          5
     1  Si   0.000000
     2  O    1.732545   0.000000
     3  O    1.731884   3.412866   0.000000
     4  O    1.739867   2.457434   2.433799   0.000000
     5  O    1.742782   2.647299   2.671183   2.619265   0.000000
     6  O    4.212904   4.458006   5.123088   5.107836   2.620479
     7  O    1.739893   2.436123   2.379323   3.447945   2.625831
     8  C    4.007482   4.326391   4.907324   4.418652   2.332765
     9  H    4.847794   4.879968   5.883465   5.064256   3.285723
    10  H    4.400541   5.059468   4.935125   4.686728   2.697774
    11  C    2.731076   3.009290   3.854865   2.952296   1.382967
    12  H    2.919145   2.522983   4.385740   3.145061   2.050767
    13  H    3.085622   3.487953   3.985512   2.663839   2.068322
    14  C    2.625087   2.322465   3.687028   4.198679   3.394440
    15  H    3.188954   2.781860   4.344291   4.772572   3.394586
    16  H    3.517691   3.267528   4.281804   5.062729   4.419279
    17  C    2.593415   1.392413   4.024925   3.656969   3.630893
    18  H    3.545966   2.056002   5.077528   4.480593   4.290927
    19  H    2.971896   2.037487   4.116894   3.803029   4.361247
    20  C    2.592588   3.611291   2.334280   1.392063   3.640031
    21  H    3.550374   4.458314   3.272153   2.056606   4.302026
    22  H    2.964867   3.710862   2.752309   2.042354   4.361286
    23  C    2.624530   4.164916   1.383044   2.322664   3.451123
    24  H    3.205444   4.788488   2.056965   2.789251   3.482346
    25  H    3.503944   4.991655   2.047241   3.264105   4.476968
    26  O    3.053335   3.251535   3.232897   3.309826   4.796102
    27  H    2.905714   3.477567   2.731569   3.514716   4.594374
    28  H    3.430878   3.825685   4.299716   4.547933   1.969190
                    6          7          8          9         10
     6  O    0.000000
     7  O    4.391263   0.000000
     8  C    1.412264   4.730872   0.000000
     9  H    2.046196   5.637343   1.096297   0.000000
    10  H    2.065337   5.180972   1.101103   1.779678   0.000000
    11  C    2.402420   3.825696   1.524601   2.173167   2.156867
    12  H    2.767779   3.919586   2.159661   2.431007   3.058195
    13  H    3.344745   4.501631   2.163866   2.584514   2.421204
    14  C    4.642190   1.382791   5.153553   5.897569   5.827555
    15  H    3.967270   2.059667   4.709116   5.384864   5.463334
    16  H    5.593270   2.048232   6.203437   6.961301   6.844567
    17  C    5.122040   2.331502   5.317493   5.887380   6.098085
    18  H    5.322761   3.271953   5.596118   6.000462   6.502372
    19  H    6.128240   2.745679   6.240975   6.840746   6.948226
    20  C    6.220520   4.062616   5.529638   6.242606   5.596201
    21  H    6.759797   5.110830   5.878208   6.488780   5.835671
    22  H    6.963227   4.176220   6.387080   7.091746   6.554569
    23  C    5.970303   3.697195   5.458450   6.351492   5.335523
    24  H    5.783939   4.342235   5.143647   6.025388   4.813669
    25  H    6.967035   4.286671   6.523029   7.437678   6.359117
    26  O    7.171411   3.301062   7.020176   7.768863   7.429092
    27  H    6.938820   2.818697   6.899960   7.744022   7.235681
    28  H    0.971730   3.449351   1.869424   2.747149   2.440594
                   11         12         13         14         15
    11  C    0.000000
    12  H    1.099590   0.000000
    13  H    1.100083   1.772097   0.000000
    14  C    4.298948   4.048324   5.100533   0.000000
    15  H    4.139766   3.844317   5.095492   1.109841   0.000000
    16  H    5.389673   5.145571   6.177014   1.101573   1.783976
    17  C    4.186007   3.655546   4.810717   1.528359   2.175747
    18  H    4.593721   3.849839   5.277985   2.188055   2.403720
    19  H    4.997874   4.528395   5.474531   2.155196   3.057983
    20  C    4.163712   4.503476   3.752506   5.005912   5.736167
    21  H    4.573926   4.962598   3.913422   6.044013   6.716626
    22  H    4.959409   5.129799   4.656250   4.978136   5.855560
    23  C    4.336895   4.932240   4.103027   4.925710   5.613547
    24  H    4.222805   5.006471   3.855108   5.614209   6.148575
    25  H    5.427852   6.000594   5.199736   5.518119   6.305730
    26  O    5.638541   5.537805   5.773532   3.658457   4.731951
    27  H    5.624533   5.657387   5.843245   3.392034   4.472496
    28  H    2.255478   2.660606   3.275497   3.790402   3.199555
                   16         17         18         19         20
    16  H    0.000000
    17  C    2.185538   0.000000
    18  H    2.698619   1.102522   0.000000
    19  H    2.399206   1.099846   1.817546   0.000000
    20  C    5.695923   4.587172   5.523542   4.462650   0.000000
    21  H    6.774905   5.543334   6.409920   5.437813   1.103100
    22  H    5.509090   4.436714   5.384014   4.053159   1.099845
    23  C    5.532562   4.979607   6.015036   4.939736   1.529154
    24  H    6.307636   5.741502   6.726250   5.847663   2.178228
    25  H    5.951934   5.629641   6.705295   5.415113   2.184440
    26  O    3.800887   3.160765   4.109747   2.359462   3.156293
    27  H    3.443474   3.318699   4.353888   2.670959   3.296355
    28  H    4.726697   4.408106   4.741197   5.371727   5.603990
                   21         22         23         24         25
    21  H    0.000000
    22  H    1.818097   0.000000
    23  C    2.188354   2.150998   0.000000
    24  H    2.403340   3.054204   1.109547   0.000000
    25  H    2.702357   2.385940   1.101253   1.785008   0.000000
    26  O    4.116986   2.353391   3.578346   4.664835   3.662206
    27  H    4.332785   2.667169   3.284500   4.367654   3.277738
    28  H    6.256580   6.278976   5.268174   5.196225   6.221406
                   26         27         28
    26  O    0.000000
    27  H    0.958765   0.000000
    28  H    6.342505   6.050834   0.000000
 Symmetry turned off by external request.
 Stoichiometry    C6H14O7Si(2-)
 Framework group  C1[X(C6H14O7Si)]
 Deg. of freedom    78
 Full point group                 C1      NOp   1
 Rotational constants (GHZ):           0.8538332           0.5124690           0.3974916
 Standard basis: def2TZVPP (5D, 7F)
   641 basis functions,   970 primitive gaussians,   726 cartesian basis functions
    61 alpha electrons       61 beta electrons
       nuclear repulsion energy      1229.5339534633 Hartrees.
 NAtoms=   28 NActive=   28 NUniq=   28 SFac= 1.00D+00 NAtFMM=   60 NAOKFM=F Big=F
 Integral buffers will be    131072 words long.
 Raffenetti 2 integral format.
 Two-electron integral symmetry is turned off.
 Nuclear repulsion after empirical dispersion term =     1229.5153838437 Hartrees.
 One-electron integrals computed using PRISM.
   1 Symmetry operations used in ECPInt.
 ECPInt:  NShTT=   29161 NPrTT=   80163 LenC2=   26803 LenP2D=   55488.
 LDataN:  DoStor=T MaxTD1= 6 Len=  172
 NBasis=   641 RedAO= T EigKep=  2.33D-04  NBF=   641
 NBsUse=   641 1.00D-06 EigRej= -1.00D+00 NBFU=   641
 ExpMin= 7.01D-02 ExpMax= 4.48D+04 ExpMxC= 1.53D+03 IAcc=3 IRadAn=         5 AccDes= 0.00D+00
 Harris functional with IExCor= 4639 and IRadAn=       5 diagonalized for initial guess.
 HarFok:  IExCor= 4639 AccDes= 0.00D+00 IRadAn=         5 IDoV= 1 UseB2=F ITyADJ=14
 ICtDFT=  3500011 ScaDFX=  1.000000  1.000000  1.000000  1.000000
 FoFCou: FMM=F IPFlag=           0 FMFlag=      100000 FMFlg1=           0
         NFxFlg=           0 DoJE=T BraDBF=F KetDBF=T FulRan=T
         wScrn=  0.000000 ICntrl=       500 IOpCl=  0 I1Cent=   200000004 NGrid=           0
         NMat0=    1 NMatS0=      1 NMatT0=    0 NMatD0=    1 NMtDS0=    0 NMtDT0=    0
 Symmetry not used in FoFCou.
 Requested convergence on RMS density matrix=1.00D-08 within 128 cycles.
 Requested convergence on MAX density matrix=1.00D-06.
 Requested convergence on             energy=1.00D-06.
 No special actions if energy rises.
 Integral accuracy reduced to 1.0D-05 until final iterations.
 Initial convergence to 1.0D-05 achieved.  Increase integral accuracy.
 SCF Done:  E(RwB97XD) =  -1053.30201174     A.U. after   16 cycles
            NFock= 16  Conv=0.30D-08     -V/T= 2.0037
 DoSCS=F DFT=T ScalE2(SS,OS)=  1.000000  1.000000
 Range of M.O.s used for correlation:     1   641
 NBasis=   641 NAE=    61 NBE=    61 NFC=     0 NFV=     0
 NROrb=    641 NOA=    61 NOB=    61 NVA=   580 NVB=   580

 **** Warning!!: The largest alpha MO coefficient is  0.12122036D+02

   1 Symmetry operations used in ECPInt.
 ECPInt:  NShTT=   29161 NPrTT=   80163 LenC2=   26803 LenP2D=   55488.
 LDataN:  DoStor=T MaxTD1= 7 Len=  274
 Number of processors reduced to   2 by ecpmxn.
 Symmetrizing basis deriv contribution to polar:
 IMax=3 JMax=2 DiffMx= 0.00D+00
 G2DrvN: will do    29 centers at a time, making    1 passes.
 Calling FoFCou, ICntrl=  3107 FMM=F I1Cent=   0 AccDes= 0.00D+00.
 End of G2Drv F.D. properties file   721 does not exist.
 End of G2Drv F.D. properties file   722 does not exist.
 End of G2Drv F.D. properties file   788 does not exist.
          IDoAtm=1111111111111111111111111111
          Differentiating once with respect to nuclear coordinates.
 CalDSu exits because no D1Ps are significant.
          There are    87 degrees of freedom in the 1st order CPHF.  IDoFFX=6 NUNeed=     0.
     81 vectors produced by pass  0 Test12= 4.07D-14 1.15D-09 XBig12= 9.91D-02 3.53D-02.
 AX will form    44 AO Fock derivatives at one time.
     81 vectors produced by pass  1 Test12= 4.07D-14 1.15D-09 XBig12= 3.49D-02 1.80D-02.
     81 vectors produced by pass  2 Test12= 4.07D-14 1.15D-09 XBig12= 5.93D-04 2.79D-03.
     81 vectors produced by pass  3 Test12= 4.07D-14 1.15D-09 XBig12= 8.91D-06 4.47D-04.
     81 vectors produced by pass  4 Test12= 4.07D-14 1.15D-09 XBig12= 9.87D-08 3.49D-05.
     81 vectors produced by pass  5 Test12= 4.07D-14 1.15D-09 XBig12= 9.02D-10 2.98D-06.
     81 vectors produced by pass  6 Test12= 4.07D-14 1.15D-09 XBig12= 6.79D-12 2.35D-07.
     43 vectors produced by pass  7 Test12= 4.07D-14 1.15D-09 XBig12= 5.03D-14 2.40D-08.
      3 vectors produced by pass  8 Test12= 4.07D-14 1.15D-09 XBig12= 8.67D-16 2.41D-09.
 InvSVY:  IOpt=1 It=  1 EMax= 2.78D-16
 Solved reduced A of dimension   613 with    87 vectors.
 End of Minotr F.D. properties file   721 does not exist.
 End of Minotr F.D. properties file   722 does not exist.
 End of Minotr F.D. properties file   788 does not exist.

 **********************************************************************

            Population analysis using the SCF Density.

 **********************************************************************

 Alpha  occ. eigenvalues --  -66.00633 -19.01238 -18.95153 -18.92493 -18.92362
 Alpha  occ. eigenvalues --  -18.92001 -18.91880 -18.78721 -10.09922 -10.07267
 Alpha  occ. eigenvalues --  -10.04696 -10.04694 -10.03066 -10.03040  -5.11528
 Alpha  occ. eigenvalues --   -3.46290  -3.46010  -3.45889  -0.89726  -0.84795
 Alpha  occ. eigenvalues --   -0.82068  -0.81684  -0.77777  -0.76154  -0.60223
 Alpha  occ. eigenvalues --   -0.58470  -0.53960  -0.51730  -0.46191  -0.41926
 Alpha  occ. eigenvalues --   -0.39468  -0.36433  -0.34065  -0.32106  -0.30814
 Alpha  occ. eigenvalues --   -0.29331  -0.28608  -0.28157  -0.28031  -0.25500
 Alpha  occ. eigenvalues --   -0.24611  -0.23004  -0.22112  -0.20471  -0.19594
 Alpha  occ. eigenvalues --   -0.18903  -0.17167  -0.14757  -0.12246  -0.11187
 Alpha  occ. eigenvalues --   -0.10358  -0.10024  -0.09069  -0.08466  -0.07874
 Alpha  occ. eigenvalues --   -0.07715  -0.05133  -0.04955  -0.02901   0.04934
 Alpha  occ. eigenvalues --    0.05315
 Alpha virt. eigenvalues --    0.33447   0.35691   0.36436   0.37452   0.38608
 Alpha virt. eigenvalues --    0.39478   0.40424   0.40902   0.41705   0.41901
 Alpha virt. eigenvalues --    0.43311   0.43987   0.45897   0.46405   0.46876
 Alpha virt. eigenvalues --    0.47527   0.48322   0.49158   0.49754   0.51030
 Alpha virt. eigenvalues --    0.52136   0.52409   0.53412   0.54181   0.54676
 Alpha virt. eigenvalues --    0.55741   0.55816   0.57018   0.58699   0.60711
 Alpha virt. eigenvalues --    0.61194   0.61937   0.62969   0.64423   0.65011
 Alpha virt. eigenvalues --    0.65471   0.65994   0.66331   0.67566   0.68405
 Alpha virt. eigenvalues --    0.69624   0.70099   0.70381   0.71366   0.71576
 Alpha virt. eigenvalues --    0.72858   0.73146   0.73936   0.74160   0.74609
 Alpha virt. eigenvalues --    0.74917   0.75624   0.76256   0.76637   0.77213
 Alpha virt. eigenvalues --    0.77763   0.78610   0.78953   0.79548   0.80163
 Alpha virt. eigenvalues --    0.80630   0.81715   0.81947   0.82026   0.82973
 Alpha virt. eigenvalues --    0.84159   0.84623   0.85947   0.86907   0.87568
 Alpha virt. eigenvalues --    0.88558   0.89531   0.90195   0.92179   0.92608
 Alpha virt. eigenvalues --    0.93841   0.94351   0.95841   0.97219   0.97798
 Alpha virt. eigenvalues --    0.98819   1.00281   1.00793   1.02816   1.03636
 Alpha virt. eigenvalues --    1.04179   1.05601   1.06659   1.07784   1.08214
 Alpha virt. eigenvalues --    1.08961   1.09759   1.11036   1.11654   1.12412
 Alpha virt. eigenvalues --    1.14255   1.14472   1.14900   1.16875   1.17565
 Alpha virt. eigenvalues --    1.17875   1.18864   1.19227   1.19728   1.20096
 Alpha virt. eigenvalues --    1.22587   1.23747   1.24273   1.24759   1.25187
 Alpha virt. eigenvalues --    1.26281   1.28441   1.29005   1.30784   1.31260
 Alpha virt. eigenvalues --    1.31807   1.32278   1.32760   1.33746   1.34962
 Alpha virt. eigenvalues --    1.36192   1.36610   1.37820   1.38014   1.39593
 Alpha virt. eigenvalues --    1.40210   1.40811   1.41595   1.41895   1.43078
 Alpha virt. eigenvalues --    1.43802   1.45659   1.46474   1.46773   1.47889
 Alpha virt. eigenvalues --    1.48354   1.49767   1.50182   1.50722   1.51337
 Alpha virt. eigenvalues --    1.51992   1.53391   1.54998   1.55837   1.56787
 Alpha virt. eigenvalues --    1.57253   1.57396   1.59121   1.59989   1.60400
 Alpha virt. eigenvalues --    1.61271   1.63015   1.65026   1.65709   1.65917
 Alpha virt. eigenvalues --    1.67343   1.68397   1.69152   1.70242   1.71280
 Alpha virt. eigenvalues --    1.71767   1.72781   1.73225   1.73927   1.74201
 Alpha virt. eigenvalues --    1.75589   1.76782   1.78014   1.78520   1.79362
 Alpha virt. eigenvalues --    1.79706   1.80176   1.82079   1.82423   1.83779
 Alpha virt. eigenvalues --    1.85808   1.86955   1.88141   1.90305   1.90444
 Alpha virt. eigenvalues --    1.91838   1.93567   1.95517   1.96100   1.97554
 Alpha virt. eigenvalues --    1.99228   1.99571   2.01166   2.03640   2.05416
 Alpha virt. eigenvalues --    2.05817   2.07891   2.11819   2.14378   2.15433
 Alpha virt. eigenvalues --    2.17748   2.20121   2.20277   2.21024   2.22221
 Alpha virt. eigenvalues --    2.23727   2.25359   2.26457   2.26782   2.28966
 Alpha virt. eigenvalues --    2.29614   2.30357   2.32488   2.34030   2.35478
 Alpha virt. eigenvalues --    2.37039   2.37843   2.39409   2.40633   2.40953
 Alpha virt. eigenvalues --    2.41447   2.43869   2.44841   2.47301   2.47720
 Alpha virt. eigenvalues --    2.48402   2.48966   2.51618   2.52271   2.54163
 Alpha virt. eigenvalues --    2.54762   2.55727   2.57960   2.60688   2.61342
 Alpha virt. eigenvalues --    2.62233   2.65093   2.67071   2.67706   2.69291
 Alpha virt. eigenvalues --    2.70717   2.72186   2.73257   2.75534   2.77586
 Alpha virt. eigenvalues --    2.79185   2.80507   2.84085   2.86171   2.87556
 Alpha virt. eigenvalues --    2.88120   2.90037   2.90211   2.91783   2.95329
 Alpha virt. eigenvalues --    2.96398   2.98078   2.99125   2.99472   2.99972
 Alpha virt. eigenvalues --    3.01334   3.01470   3.02877   3.04162   3.05759
 Alpha virt. eigenvalues --    3.05965   3.09615   3.13195   3.13894   3.15533
 Alpha virt. eigenvalues --    3.16999   3.18418   3.19518   3.20002   3.20978
 Alpha virt. eigenvalues --    3.21208   3.21790   3.23112   3.23347   3.24188
 Alpha virt. eigenvalues --    3.24477   3.26089   3.28224   3.29618   3.30028
 Alpha virt. eigenvalues --    3.31369   3.32475   3.33026   3.33650   3.34701
 Alpha virt. eigenvalues --    3.35654   3.35962   3.36952   3.37723   3.38540
 Alpha virt. eigenvalues --    3.39550   3.41508   3.42895   3.43852   3.44266
 Alpha virt. eigenvalues --    3.45273   3.46439   3.47132   3.47363   3.48751
 Alpha virt. eigenvalues --    3.49770   3.51258   3.51887   3.52020   3.52563
 Alpha virt. eigenvalues --    3.54581   3.55085   3.57674   3.57956   3.58459
 Alpha virt. eigenvalues --    3.59200   3.59821   3.61535   3.63259   3.63778
 Alpha virt. eigenvalues --    3.65168   3.67704   3.69491   3.70873   3.71586
 Alpha virt. eigenvalues --    3.72289   3.73773   3.75476   3.75882   3.78126
 Alpha virt. eigenvalues --    3.79636   3.81040   3.81172   3.83004   3.84028
 Alpha virt. eigenvalues --    3.85852   3.86047   3.88071   3.89715   3.90315
 Alpha virt. eigenvalues --    3.91374   3.91931   3.93208   3.93813   3.94242
 Alpha virt. eigenvalues --    3.95701   3.96501   3.98549   3.99280   4.00707
 Alpha virt. eigenvalues --    4.01816   4.02774   4.03596   4.04599   4.05591
 Alpha virt. eigenvalues --    4.05917   4.06719   4.07780   4.08305   4.11630
 Alpha virt. eigenvalues --    4.12146   4.12671   4.13073   4.13607   4.14444
 Alpha virt. eigenvalues --    4.14780   4.15571   4.17938   4.19177   4.19944
 Alpha virt. eigenvalues --    4.20836   4.21172   4.22746   4.22857   4.27756
 Alpha virt. eigenvalues --    4.28034   4.29132   4.29893   4.31127   4.31573
 Alpha virt. eigenvalues --    4.32539   4.34611   4.35147   4.37128   4.37338
 Alpha virt. eigenvalues --    4.39320   4.40658   4.41636   4.42216   4.43615
 Alpha virt. eigenvalues --    4.46482   4.46977   4.47530   4.48307   4.49007
 Alpha virt. eigenvalues --    4.50078   4.50336   4.50745   4.54088   4.55443
 Alpha virt. eigenvalues --    4.55832   4.56823   4.57890   4.58745   4.59980
 Alpha virt. eigenvalues --    4.60241   4.62236   4.63237   4.64895   4.66239
 Alpha virt. eigenvalues --    4.66830   4.69082   4.70679   4.72009   4.73847
 Alpha virt. eigenvalues --    4.74641   4.75624   4.76559   4.80960   4.84205
 Alpha virt. eigenvalues --    4.87037   4.89289   4.90691   4.92017   4.93513
 Alpha virt. eigenvalues --    4.93819   4.95408   4.97747   4.97913   4.99483
 Alpha virt. eigenvalues --    5.01759   5.04249   5.05081   5.06380   5.09259
 Alpha virt. eigenvalues --    5.11344   5.12487   5.12697   5.13032   5.13456
 Alpha virt. eigenvalues --    5.14970   5.16749   5.18635   5.19092   5.20958
 Alpha virt. eigenvalues --    5.22511   5.23474   5.24496   5.26557   5.28276
 Alpha virt. eigenvalues --    5.28858   5.29692   5.31381   5.34700   5.36655
 Alpha virt. eigenvalues --    5.40683   5.41345   5.42813   5.43757   5.45128
 Alpha virt. eigenvalues --    5.45604   5.46603   5.49653   5.52970   5.53293
 Alpha virt. eigenvalues --    5.54312   5.56654   5.57706   5.60776   5.62666
 Alpha virt. eigenvalues --    5.64450   5.65530   5.66168   5.67778   5.69165
 Alpha virt. eigenvalues --    5.69828   5.70797   5.71500   5.72728   5.75211
 Alpha virt. eigenvalues --    5.75902   5.80156   5.80628   5.82876   5.83307
 Alpha virt. eigenvalues --    5.84354   5.85844   5.86406   5.86681   5.87490
 Alpha virt. eigenvalues --    5.89713   5.91712   5.92877   5.94430   5.96235
 Alpha virt. eigenvalues --    5.96712   5.97444   5.98286   5.98542   6.00247
 Alpha virt. eigenvalues --    6.01234   6.02843   6.03479   6.05886   6.07844
 Alpha virt. eigenvalues --    6.09523   6.11123   6.18991   6.20597   6.24799
 Alpha virt. eigenvalues --    6.34908   6.35346   6.37061   6.38496   6.40622
 Alpha virt. eigenvalues --    6.43115   6.44542   6.48563   6.49266   6.49649
 Alpha virt. eigenvalues --    6.52270   6.53456   6.54270   6.55308   6.61078
 Alpha virt. eigenvalues --    6.65624   6.73677   6.80532   6.89844   6.93006
 Alpha virt. eigenvalues --    6.96311   6.97672   6.98195   7.01293   7.02227
 Alpha virt. eigenvalues --    7.04149   7.04873   7.07326   7.08857   7.11637
 Alpha virt. eigenvalues --    7.12032   7.15421   7.19347   7.19483   7.21303
 Alpha virt. eigenvalues --    7.22438   7.23407   7.23634   7.28206   7.30577
 Alpha virt. eigenvalues --    7.34216   7.39898   7.40171   7.40882   7.46199
 Alpha virt. eigenvalues --    7.48121   7.49747   7.50943   7.55768   7.58199
 Alpha virt. eigenvalues --    7.65018   7.65742   7.66861   7.68017   7.75713
 Alpha virt. eigenvalues --    7.83343   7.85433   7.91550   7.95994   7.96165
 Alpha virt. eigenvalues --    8.02008  12.35682  23.61507  23.65693  23.68441
 Alpha virt. eigenvalues --   23.77496  23.79129  23.82176  44.09059  44.30959
 Alpha virt. eigenvalues --   44.51662  44.56842  44.61899  44.71440  44.77257
          Condensed to atoms (all electrons):
               1          2          3          4          5          6
     1  Si  11.659059   0.366836   0.378870   0.365044   0.362811   0.002953
     2  O    0.366836   8.054163   0.001170  -0.054101  -0.036294  -0.000191
     3  O    0.378870   0.001170   8.025842  -0.036601  -0.034331  -0.000002
     4  O    0.365044  -0.054101  -0.036601   8.073597  -0.032443  -0.000027
     5  O    0.362811  -0.036294  -0.034331  -0.032443   8.079152  -0.028140
     6  O    0.002953  -0.000191  -0.000002  -0.000027  -0.028140   7.963947
     7  O    0.372055  -0.035761  -0.051142   0.002949  -0.038888  -0.000051
     8  C   -0.007693   0.000612  -0.000570   0.000807  -0.069011   0.316761
     9  H    0.000364   0.000091  -0.000001  -0.000025   0.006868  -0.045559
    10  H    0.000171  -0.000066  -0.000031   0.000087   0.005476  -0.056917
    11  C   -0.060555  -0.015289  -0.003645  -0.006689   0.270040  -0.055929
    12  H   -0.009709   0.022830  -0.000451  -0.000183  -0.054257   0.004034
    13  H   -0.013329   0.000917   0.001346   0.016538  -0.045122   0.005608
    14  C   -0.029922  -0.117754  -0.000793  -0.003560   0.004360  -0.000436
    15  H   -0.001431   0.014226   0.000090  -0.000037   0.002362   0.001107
    16  H   -0.000069   0.007186   0.000326   0.000113  -0.000616   0.000006
    17  C   -0.080555   0.338001  -0.000745   0.003391  -0.005926  -0.000284
    18  H   -0.005848  -0.044017  -0.000091  -0.000607  -0.000365  -0.000021
    19  H    0.008315  -0.035928   0.000343   0.000537  -0.000349   0.000001
    20  C   -0.074508   0.003395  -0.086674   0.337858  -0.003088   0.000006
    21  H   -0.001421  -0.000696   0.006175  -0.045482  -0.000307   0.000000
    22  H    0.005779   0.001231   0.005685  -0.033998  -0.000311  -0.000000
    23  C   -0.039009  -0.004169   0.347155  -0.120852   0.001191  -0.000007
    24  H   -0.008820  -0.000006  -0.066000   0.015521   0.003239  -0.000002
    25  H   -0.000150   0.000126  -0.040727   0.007303  -0.000602  -0.000000
    26  O    0.117813  -0.008518  -0.013161  -0.006517   0.000201  -0.000000
    27  H   -0.072428   0.003267   0.010473   0.003231  -0.000186   0.000000
    28  H   -0.000298  -0.000425  -0.000071   0.000119   0.051770   0.343299
               7          8          9         10         11         12
     1  Si   0.372055  -0.007693   0.000364   0.000171  -0.060555  -0.009709
     2  O   -0.035761   0.000612   0.000091  -0.000066  -0.015289   0.022830
     3  O   -0.051142  -0.000570  -0.000001  -0.000031  -0.003645  -0.000451
     4  O    0.002949   0.000807  -0.000025   0.000087  -0.006689  -0.000183
     5  O   -0.038888  -0.069011   0.006868   0.005476   0.270040  -0.054257
     6  O   -0.000051   0.316761  -0.045559  -0.056917  -0.055929   0.004034
     7  O    8.049110  -0.000728   0.000010   0.000075  -0.003839   0.001598
     8  C   -0.000728   4.732103   0.354670   0.394253   0.336769  -0.059369
     9  H    0.000010   0.354670   0.758971  -0.073187  -0.015860  -0.002012
    10  H    0.000075   0.394253  -0.073187   0.772300  -0.058541   0.014755
    11  C   -0.003839   0.336769  -0.015860  -0.058541   4.799389   0.385748
    12  H    0.001598  -0.059369  -0.002012   0.014755   0.385748   0.715730
    13  H   -0.000601  -0.038184   0.000051  -0.007034   0.373070  -0.058599
    14  C    0.352970   0.000146   0.000028   0.000030   0.000682   0.000750
    15  H   -0.071132   0.000409  -0.000043   0.000004   0.000808   0.000419
    16  H   -0.040235  -0.000044   0.000001   0.000002   0.000071   0.000018
    17  C   -0.091854   0.000035   0.000036  -0.000026   0.002438   0.001738
    18  H    0.007036  -0.000103   0.000011   0.000003   0.001451  -0.000903
    19  H    0.005768  -0.000004   0.000000  -0.000000  -0.000431   0.000345
    20  C    0.000802   0.000014   0.000003   0.000019   0.001795  -0.000104
    21  H   -0.000068  -0.000116   0.000001  -0.000003   0.000789  -0.000005
    22  H    0.000197   0.000001  -0.000000   0.000001  -0.000177  -0.000004
    23  C   -0.000996   0.000317  -0.000033  -0.000117   0.001629  -0.000484
    24  H    0.000154   0.000148   0.000001   0.000142   0.000710   0.000123
    25  H    0.000295  -0.000028   0.000000   0.000000  -0.000124  -0.000005
    26  O   -0.010310   0.000000   0.000000  -0.000000   0.000537   0.000054
    27  H    0.009496   0.000005  -0.000000  -0.000000  -0.000351  -0.000015
    28  H    0.001823  -0.065734   0.012366  -0.001223  -0.020041   0.000852
              13         14         15         16         17         18
     1  Si  -0.013329  -0.029922  -0.001431  -0.000069  -0.080555  -0.005848
     2  O    0.000917  -0.117754   0.014226   0.007186   0.338001  -0.044017
     3  O    0.001346  -0.000793   0.000090   0.000326  -0.000745  -0.000091
     4  O    0.016538  -0.003560  -0.000037   0.000113   0.003391  -0.000607
     5  O   -0.045122   0.004360   0.002362  -0.000616  -0.005926  -0.000365
     6  O    0.005608  -0.000436   0.001107   0.000006  -0.000284  -0.000021
     7  O   -0.000601   0.352970  -0.071132  -0.040235  -0.091854   0.007036
     8  C   -0.038184   0.000146   0.000409  -0.000044   0.000035  -0.000103
     9  H    0.000051   0.000028  -0.000043   0.000001   0.000036   0.000011
    10  H   -0.007034   0.000030   0.000004   0.000002  -0.000026   0.000003
    11  C    0.373070   0.000682   0.000808   0.000071   0.002438   0.001451
    12  H   -0.058599   0.000750   0.000419   0.000018   0.001738  -0.000903
    13  H    0.747720  -0.000118   0.000150  -0.000003  -0.000423  -0.000030
    14  C   -0.000118   4.992221   0.343874   0.335994   0.012065   0.017184
    15  H    0.000150   0.343874   0.904308  -0.100201  -0.056012  -0.025230
    16  H   -0.000003   0.335994  -0.100201   0.808264   0.002812   0.011932
    17  C   -0.000423   0.012065  -0.056012   0.002812   5.372169   0.250517
    18  H   -0.000030   0.017184  -0.025230   0.011932   0.250517   0.882664
    19  H    0.000027  -0.004083   0.018370  -0.016778   0.214142  -0.057262
    20  C    0.000298   0.006590  -0.000123   0.000092  -0.018900   0.000247
    21  H   -0.000516  -0.000155  -0.000001   0.000001   0.000287  -0.000011
    22  H    0.000232  -0.002536  -0.000023   0.000019   0.009615  -0.000082
    23  C    0.001558  -0.005745   0.000184   0.000108   0.007252  -0.000178
    24  H    0.000025   0.000125  -0.000018   0.000001  -0.000114  -0.000002
    25  H    0.000058   0.000061   0.000003  -0.000009   0.000153   0.000001
    26  O    0.000026   0.039275  -0.000028  -0.001002  -0.101767   0.002634
    27  H   -0.000012  -0.002858   0.000365   0.000543   0.006284  -0.000480
    28  H    0.002973   0.001205  -0.002493   0.000068   0.000507   0.000036
              19         20         21         22         23         24
     1  Si   0.008315  -0.074508  -0.001421   0.005779  -0.039009  -0.008820
     2  O   -0.035928   0.003395  -0.000696   0.001231  -0.004169  -0.000006
     3  O    0.000343  -0.086674   0.006175   0.005685   0.347155  -0.066000
     4  O    0.000537   0.337858  -0.045482  -0.033998  -0.120852   0.015521
     5  O   -0.000349  -0.003088  -0.000307  -0.000311   0.001191   0.003239
     6  O    0.000001   0.000006   0.000000  -0.000000  -0.000007  -0.000002
     7  O    0.005768   0.000802  -0.000068   0.000197  -0.000996   0.000154
     8  C   -0.000004   0.000014  -0.000116   0.000001   0.000317   0.000148
     9  H    0.000000   0.000003   0.000001  -0.000000  -0.000033   0.000001
    10  H   -0.000000   0.000019  -0.000003   0.000001  -0.000117   0.000142
    11  C   -0.000431   0.001795   0.000789  -0.000177   0.001629   0.000710
    12  H    0.000345  -0.000104  -0.000005  -0.000004  -0.000484   0.000123
    13  H    0.000027   0.000298  -0.000516   0.000232   0.001558   0.000025
    14  C   -0.004083   0.006590  -0.000155  -0.002536  -0.005745   0.000125
    15  H    0.018370  -0.000123  -0.000001  -0.000023   0.000184  -0.000018
    16  H   -0.016778   0.000092   0.000001   0.000019   0.000108   0.000001
    17  C    0.214142  -0.018900   0.000287   0.009615   0.007252  -0.000114
    18  H   -0.057262   0.000247  -0.000011  -0.000082  -0.000178  -0.000002
    19  H    0.758584   0.010037  -0.000076  -0.005783  -0.003200  -0.000028
    20  C    0.010037   5.406182   0.238420   0.211244  -0.018386  -0.045784
    21  H   -0.000076   0.238420   0.898704  -0.059967   0.018934  -0.027770
    22  H   -0.005783   0.211244  -0.059967   0.758929  -0.000758   0.019684
    23  C   -0.003200  -0.018386   0.018934  -0.000758   5.023747   0.340721
    24  H   -0.000028  -0.045784  -0.027770   0.019684   0.340721   0.903984
    25  H    0.000008  -0.000315   0.013133  -0.017008   0.340152  -0.104203
    26  O    0.097838  -0.117338   0.002606   0.100635   0.047056   0.000109
    27  H   -0.007235   0.013591  -0.000525  -0.010111  -0.005218   0.000299
    28  H   -0.000039   0.000034   0.000004   0.000004  -0.000112   0.000021
              25         26         27         28
     1  Si  -0.000150   0.117813  -0.072428  -0.000298
     2  O    0.000126  -0.008518   0.003267  -0.000425
     3  O   -0.040727  -0.013161   0.010473  -0.000071
     4  O    0.007303  -0.006517   0.003231   0.000119
     5  O   -0.000602   0.000201  -0.000186   0.051770
     6  O   -0.000000  -0.000000   0.000000   0.343299
     7  O    0.000295  -0.010310   0.009496   0.001823
     8  C   -0.000028   0.000000   0.000005  -0.065734
     9  H    0.000000   0.000000  -0.000000   0.012366
    10  H    0.000000  -0.000000  -0.000000  -0.001223
    11  C   -0.000124   0.000537  -0.000351  -0.020041
    12  H   -0.000005   0.000054  -0.000015   0.000852
    13  H    0.000058   0.000026  -0.000012   0.002973
    14  C    0.000061   0.039275  -0.002858   0.001205
    15  H    0.000003  -0.000028   0.000365  -0.002493
    16  H   -0.000009  -0.001002   0.000543   0.000068
    17  C    0.000153  -0.101767   0.006284   0.000507
    18  H    0.000001   0.002634  -0.000480   0.000036
    19  H    0.000008   0.097838  -0.007235  -0.000039
    20  C   -0.000315  -0.117338   0.013591   0.000034
    21  H    0.013133   0.002606  -0.000525   0.000004
    22  H   -0.017008   0.100635  -0.010111   0.000004
    23  C    0.340152   0.047056  -0.005218  -0.000112
    24  H   -0.104203   0.000109   0.000299   0.000021
    25  H    0.808491  -0.001052   0.001519  -0.000000
    26  O   -0.001052   8.470989   0.272093   0.000004
    27  H    0.001519   0.272093   0.655853  -0.000012
    28  H   -0.000000   0.000004  -0.000012   0.445072
 Mulliken charges:
               1
     1  Si   0.765674
     2  O   -0.460833
     3  O   -0.442438
     4  O   -0.485972
     5  O   -0.437234
     6  O   -0.450157
     7  O   -0.458731
     8  C    0.104533
     9  H    0.003246
    10  H    0.009828
    11  C    0.065546
    12  H    0.037107
    13  H    0.013374
    14  C    0.060399
    15  H   -0.029905
    16  H   -0.008601
    17  C    0.135165
    18  H   -0.038486
    19  H    0.016879
    20  C    0.134595
    21  H   -0.041936
    22  H    0.017502
    23  C    0.069258
    24  H   -0.032261
    25  H   -0.007079
    26  O   -0.892176
    27  H    0.122410
    28  H    0.230292
 Sum of Mulliken charges =  -2.00000
 Mulliken charges with hydrogens summed into heavy atoms:
               1
     1  Si   0.765674
     2  O   -0.460833
     3  O   -0.442438
     4  O   -0.485972
     5  O   -0.437234
     6  O   -0.219865
     7  O   -0.458731
     8  C    0.117607
    11  C    0.116027
    14  C    0.021894
    17  C    0.113558
    20  C    0.110162
    23  C    0.029918
    26  O   -0.769766
 APT charges:
               1
     1  Si   0.123871
     2  O   -0.377762
     3  O   -0.347188
     4  O   -0.391644
     5  O   -0.427259
     6  O   -0.000999
     7  O   -0.360896
     8  C   -0.885923
     9  H    0.578800
    10  H    0.348490
    11  C   -0.218815
    12  H    0.162422
    13  H    0.221081
    14  C   -0.607123
    15  H    0.250697
    16  H    0.448281
    17  C   -0.443612
    18  H    0.364247
    19  H    0.236585
    20  C   -0.450073
    21  H    0.377715
    22  H    0.232844
    23  C   -0.625688
    24  H    0.279777
    25  H    0.457201
    26  O   -0.732001
    27  H   -0.105661
    28  H   -0.107366
 Sum of APT charges =  -2.00000
 APT charges with hydrogens summed into heavy atoms:
               1
     1  Si   0.123871
     2  O   -0.377762
     3  O   -0.347188
     4  O   -0.391644
     5  O   -0.427259
     6  O   -0.108365
     7  O   -0.360896
     8  C    0.041368
    11  C    0.164688
    14  C    0.091854
    17  C    0.157221
    20  C    0.160486
    23  C    0.111289
    26  O   -0.837663
 Electronic spatial extent (au):  <R**2>=           3127.4427
 Charge=             -2.0000 electrons
 Dipole moment (field-independent basis, Debye):
    X=             -8.7670    Y=             -2.5745    Z=              0.2606  Tot=              9.1409
 Quadrupole moment (field-independent basis, Debye-Ang):
   XX=           -165.7508   YY=           -112.2208   ZZ=           -111.5346
   XY=             -4.6345   XZ=              8.8628   YZ=              1.3201
 Traceless Quadrupole moment (field-independent basis, Debye-Ang):
   XX=            -35.9154   YY=             17.6146   ZZ=             18.3008
   XY=             -4.6345   XZ=              8.8628   YZ=              1.3201
 Octapole moment (field-independent basis, Debye-Ang**2):
  XXX=            -68.1969  YYY=             -1.8027  ZZZ=              2.2562  XYY=            -17.4594
  XXY=            -39.4298  XXZ=              4.2942  XZZ=            -11.7508  YZZ=              0.7506
  YYZ=              2.2592  XYZ=              4.7253
 Hexadecapole moment (field-independent basis, Debye-Ang**3):
 XXXX=          -3359.1219 YYYY=          -1526.2090 ZZZZ=           -540.3310 XXXY=            -70.3533
 XXXZ=            140.2169 YYYX=             10.0530 YYYZ=              4.7694 ZZZX=            -12.4026
 ZZZY=              3.9258 XXYY=           -683.0276 XXZZ=           -491.8688 YYZZ=           -350.2572
 XXYZ=             12.8158 YYXZ=              0.3510 ZZXY=              3.1281
 N-N= 1.229515383844D+03 E-N=-4.982470897026D+03  KE= 1.049467268758D+03
  Exact polarizability:       0.000       0.000       0.000       0.000       0.000       0.000
 Approx polarizability:     135.478      -2.384     145.421       3.094       1.514     132.131
   1 Symmetry operations used in ECPInt.
 ECPInt:  NShTT=   29161 NPrTT=   80163 LenC2=   26803 LenP2D=   55488.
 LDataN:  DoStor=T MaxTD1= 8 Len=  415
 Calling FoFJK, ICntrl=    100127 FMM=F ISym2X=0 I1Cent= 0 IOpClX= 0 NMat=1 NMatS=1 NMatT=0.
 -------------------------------------------------------------------
 Center     Atomic                   Forces (Hartrees/Bohr)
 Number     Number              X              Y              Z
 -------------------------------------------------------------------
      1       14           0.000002984    0.000000176   -0.000000283
      2        8          -0.000000656   -0.000000575   -0.000000466
      3        8           0.000001369    0.000001802   -0.000000611
      4        8          -0.000000196   -0.000001959   -0.000000163
      5        8          -0.000000534   -0.000000244    0.000000074
      6        8          -0.000000340   -0.000000599    0.000002040
      7        8           0.000000171    0.000002273    0.000000294
      8        6           0.000000020   -0.000001467    0.000001426
      9        1          -0.000000077   -0.000001697    0.000003108
     10        1           0.000000605   -0.000000890    0.000002739
     11        6          -0.000000105   -0.000000231    0.000001919
     12        1          -0.000000910   -0.000001516    0.000001303
     13        1          -0.000000735   -0.000001431    0.000001530
     14        6          -0.000000457   -0.000000084   -0.000000561
     15        1          -0.000000498    0.000000081   -0.000000919
     16        1          -0.000000280    0.000000896   -0.000002166
     17        6          -0.000000466    0.000000278   -0.000001524
     18        1          -0.000001820   -0.000000661   -0.000001666
     19        1          -0.000004562    0.000001003   -0.000002676
     20        6           0.000000192   -0.000000229   -0.000001093
     21        1           0.000000308    0.000000574    0.000000534
     22        1           0.000000338    0.000001387   -0.000000468
     23        6           0.000001577    0.000000549    0.000000540
     24        1           0.000001792    0.000001236    0.000000493
     25        1           0.000001561    0.000001506   -0.000000140
     26        8          -0.000001516   -0.000000679   -0.000002496
     27        1           0.000000847    0.000001558   -0.000002419
     28        1           0.000001387   -0.000001058    0.000001650
 -------------------------------------------------------------------
 Cartesian Forces:  Max     0.000004562 RMS     0.000001357
 IRC-IRC-IRC-IRC-IRC-IRC-IRC-IRC-IRC-IRC-IRC-IRC-IRC-IRC-IRC-IRC-IRC-IRC
          ******** Start new reaction path calculation ********
 Supplied step size of   0.1000 bohr.
    Integration on MW PES will use step size of   0.3317 sqrt(amu)*bohr.
 Point Number:   0          Path Number:   1
 Calculating another point on the path.
 IRC-IRC-IRC-IRC-IRC-IRC-IRC-IRC-IRC-IRC-IRC-IRC-IRC-IRC-IRC-IRC-IRC-IRC
                          Input orientation:                          
 ---------------------------------------------------------------------
 Center     Atomic      Atomic             Coordinates (Angstroms)
 Number     Number       Type             X           Y           Z
 ---------------------------------------------------------------------
      1         14           0        0.358832   -0.023241    0.070627
      2          8           0        0.190366    1.131002   -1.211110
      3          8           0        1.075792   -0.998640    1.309958
      4          8           0        0.744814   -1.262364   -1.088339
      5          8           0       -1.323630   -0.436034    0.287797
      6          8           0       -3.812701    0.332429    0.575684
      7          8           0        0.424101    1.290126    1.210177
      8          6           0       -3.566410   -0.783876   -0.253673
      9          1           0       -4.294850   -0.779687   -1.073046
     10          1           0       -3.700550   -1.713987    0.320276
     11          6           0       -2.140594   -0.721004   -0.790632
     12          1           0       -2.067546    0.064818   -1.556472
     13          1           0       -1.878430   -1.674245   -1.273423
     14          6           0        0.265964    2.537850    0.636134
     15          1           0       -0.785646    2.882908    0.719426
     16          1           0        0.900360    3.281306    1.144744
     17          6           0        0.654314    2.388208   -0.834836
     18          1           0        0.190880    3.172127   -1.456603
     19          1           0        1.750369    2.408423   -0.920606
     20          6           0        1.793257   -2.061262   -0.642239
     21          1           0        1.775275   -3.040896   -1.149363
     22          1           0        2.748119   -1.542955   -0.811558
     23          6           0        1.575491   -2.208494    0.864604
     24          1           0        0.858109   -3.029695    1.070252
     25          1           0        2.517456   -2.450707    1.381598
     26          8           0        3.251181    0.697342   -0.312862
     27          1           0        3.105068    0.686888    0.635110
     28          1           0       -2.923712    0.520443    0.920524
 ---------------------------------------------------------------------
                    Distance matrix (angstroms):
                    1          2          3          4          5
     1  Si   0.000000
     2  O    1.733062   0.000000
     3  O    1.732449   3.416890   0.000000
     4  O    1.740003   2.459814   2.435349   0.000000
     5  O    1.745921   2.644713   2.668064   2.618212   0.000000
     6  O    4.217021   4.455883   5.119401   5.107179   2.620856
     7  O    1.740048   2.437741   2.381828   3.449817   2.623924
     8  C    4.011391   4.323981   4.903173   4.417269   2.333291
     9  H    4.851489   4.877187   5.879663   5.062749   3.286052
    10  H    4.404490   5.057503   4.929973   4.685021   2.698882
    11  C    2.734185   3.006677   3.851584   2.950810   1.382623
    12  H    2.922758   2.520752   4.384967   3.144826   2.050754
    13  H    3.088304   3.486145   3.982176   2.661825   2.068424
    14  C    2.624425   2.323197   3.690071   4.200562   3.390005
    15  H    3.190059   2.783657   4.345124   4.774265   3.389854
    16  H    3.516676   3.267712   4.286725   5.065154   4.415780
    17  C    2.592732   1.391904   4.030946   3.660482   3.626143
    18  H    3.545562   2.055835   5.082541   4.484101   4.284332
    19  H    2.971853   2.037107   4.127778   3.809718   4.358973
    20  C    2.592158   3.617101   2.335593   1.391574   3.636114
    21  H    3.549779   4.463237   3.272361   2.056393   4.295806
    22  H    2.965885   3.721798   2.755682   2.041707   4.360389
    23  C    2.624118   4.168860   1.382674   2.323613   3.446626
    24  H    3.207381   4.791857   2.056703   2.792098   3.478405
    25  H    3.502984   4.996611   2.047444   3.264201   4.473170
    26  O    3.005326   3.219238   3.200346   3.274704   4.751234
    27  H    2.892186   3.478685   2.722937   3.512927   4.582024
    28  H    3.434095   3.822842   4.295964   4.546648   1.968617
                    6          7          8          9         10
     6  O    0.000000
     7  O    4.389790   0.000000
     8  C    1.412314   4.729537   0.000000
     9  H    2.046357   5.636109   1.096364   0.000000
    10  H    2.065339   5.179707   1.101143   1.779734   0.000000
    11  C    2.402598   3.824336   1.524869   2.173481   2.157218
    12  H    2.768261   3.919698   2.159667   2.430591   3.058273
    13  H    3.344748   4.500824   2.163775   2.584467   2.421070
    14  C    4.637137   1.382515   5.149049   5.893078   5.823325
    15  H    3.960892   2.059437   4.703709   5.379783   5.457786
    16  H    5.588618   2.048390   6.199461   6.957044   6.841131
    17  C    5.115664   2.332565   5.311721   5.881031   6.093204
    18  H    5.312508   3.272314   5.586970   5.990469   6.494200
    19  H    6.123429   2.747693   6.237284   6.836078   6.945975
    20  C    6.216097   4.066674   5.523471   6.236431   5.588287
    21  H    6.751339   5.113791   5.867708   6.478064   5.822816
    22  H    6.963178   4.185071   6.384411   7.089031   6.549476
    23  C    5.964258   3.699387   5.451535   6.344831   5.327049
    24  H    5.776239   4.343822   5.135450   6.017412   4.803637
    25  H    6.961769   4.290146   6.516583   7.431359   6.350808
    26  O    7.128892   3.265489   6.976894   7.726712   7.385251
    27  H    6.927099   2.807522   6.889245   7.734819   7.223556
    28  H    0.971887   3.447341   1.868970   2.746757   2.440584
                   11         12         13         14         15
    11  C    0.000000
    12  H    1.099711   0.000000
    13  H    1.100220   1.772067   0.000000
    14  C    4.295033   4.045822   5.097703   0.000000
    15  H    4.135740   3.842474   5.092472   1.109904   0.000000
    16  H    5.386239   5.143037   6.174681   1.101758   1.783882
    17  C    4.180989   3.650674   4.807356   1.528712   2.175763
    18  H    4.586476   3.842633   5.272847   2.188034   2.402573
    19  H    4.994978   4.524741   5.473650   2.154912   3.057158
    20  C    4.158545   4.501315   3.745592   5.011855   5.740183
    21  H    4.565591   4.957668   3.902908   6.048837   6.718791
    22  H    4.957374   5.131321   4.651398   4.990978   5.866828
    23  C    4.331481   4.929633   4.097091   4.928980   5.614128
    24  H    4.217245   5.003513   3.849506   5.615750   6.146860
    25  H    5.422904   5.998530   5.193827   5.523643   6.308440
    26  O    5.595642   5.498682   5.732365   3.633122   4.705134
    27  H    5.615325   5.652073   5.835469   3.389184   4.468475
    28  H    2.254444   2.660098   3.274549   3.784817   3.192649
                   16         17         18         19         20
    16  H    0.000000
    17  C    2.185611   0.000000
    18  H    2.698572   1.102676   0.000000
    19  H    2.397938   1.099591   1.817289   0.000000
    20  C    5.703824   4.596963   5.533458   4.478551   0.000000
    21  H    6.782230   5.552536   6.419218   5.454176   1.103260
    22  H    5.524022   4.454054   5.402550   4.076860   1.099578
    23  C    5.538248   4.986616   6.021315   4.953129   1.529600
    24  H    6.311582   5.746700   6.729991   5.859418   2.178300
    25  H    5.960459   5.639058   6.714507   5.431364   2.184501
    26  O    3.785213   3.142483   4.098553   2.355756   3.137503
    27  H    3.442596   3.325872   4.363962   2.686847   3.302241
    28  H    4.721882   4.401375   4.731051   5.366681   5.599752
                   21         22         23         24         25
    21  H    0.000000
    22  H    1.817792   0.000000
    23  C    2.188349   2.151167   0.000000
    24  H    2.401668   3.053480   1.109639   0.000000
    25  H    2.702761   2.384775   1.101475   1.784824   0.000000
    26  O    4.105175   2.349617   3.555031   4.640108   3.649625
    27  H    4.341551   2.681876   3.282607   4.364764   3.278267
    28  H    6.248843   6.279122   5.262419   5.189226   6.216641
                   26         27         28
    26  O    0.000000
    27  H    0.959223   0.000000
    28  H    6.299352   6.037827   0.000000
 Symmetry turned off by external request.
 Stoichiometry    C6H14O7Si(2-)
 Framework group  C1[X(C6H14O7Si)]
 Deg. of freedom    78
 Full point group                 C1      NOp   1
 Rotational constants (GHZ):           0.8524835           0.5153594           0.3990274
 Standard basis: def2TZVPP (5D, 7F)
   641 basis functions,   970 primitive gaussians,   726 cartesian basis functions
    61 alpha electrons       61 beta electrons
       nuclear repulsion energy      1230.6072040882 Hartrees.
 NAtoms=   28 NActive=   28 NUniq=   28 SFac= 1.00D+00 NAtFMM=   60 NAOKFM=F Big=F
 Integral buffers will be    131072 words long.
 Raffenetti 2 integral format.
 Two-electron integral symmetry is turned off.
 Nuclear repulsion after empirical dispersion term =     1230.5886328233 Hartrees.
 One-electron integrals computed using PRISM.
   1 Symmetry operations used in ECPInt.
 ECPInt:  NShTT=   29161 NPrTT=   80163 LenC2=   26807 LenP2D=   55529.
 LDataN:  DoStor=T MaxTD1= 6 Len=  172
 NBasis=   641 RedAO= T EigKep=  2.33D-04  NBF=   641
 NBsUse=   641 1.00D-06 EigRej= -1.00D+00 NBFU=   641
 Initial guess from the checkpoint file:  "IRC_forward_HbiLmL_collapseScan.chk"
 B after Tr=    -0.014015   -0.009468   -0.015965
         Rot=    1.000000    0.000003    0.000013   -0.000000 Ang=   0.00 deg.
 ExpMin= 7.01D-02 ExpMax= 4.48D+04 ExpMxC= 1.53D+03 IAcc=3 IRadAn=         5 AccDes= 0.00D+00
 Harris functional with IExCor= 4639 and IRadAn=       5 diagonalized for initial guess.
 HarFok:  IExCor= 4639 AccDes= 0.00D+00 IRadAn=         5 IDoV= 1 UseB2=F ITyADJ=14
 ICtDFT=  3500011 ScaDFX=  1.000000  1.000000  1.000000  1.000000
 FoFCou: FMM=F IPFlag=           0 FMFlag=      100000 FMFlg1=           0
         NFxFlg=           0 DoJE=T BraDBF=F KetDBF=T FulRan=T
         wScrn=  0.000000 ICntrl=       500 IOpCl=  0 I1Cent=   200000004 NGrid=           0
         NMat0=    1 NMatS0=      1 NMatT0=    0 NMatD0=    1 NMtDS0=    0 NMtDT0=    0
 Symmetry not used in FoFCou.
 Requested convergence on RMS density matrix=1.00D-08 within 128 cycles.
 Requested convergence on MAX density matrix=1.00D-06.
 Requested convergence on             energy=1.00D-06.
 No special actions if energy rises.
 Integral accuracy reduced to 1.0D-05 until final iterations.
 Initial convergence to 1.0D-05 achieved.  Increase integral accuracy.
 SCF Done:  E(RwB97XD) =  -1053.30203866     A.U. after   13 cycles
            NFock= 13  Conv=0.38D-08     -V/T= 2.0037
 DoSCS=F DFT=T ScalE2(SS,OS)=  1.000000  1.000000
 Range of M.O.s used for correlation:     1   641
 NBasis=   641 NAE=    61 NBE=    61 NFC=     0 NFV=     0
 NROrb=    641 NOA=    61 NOB=    61 NVA=   580 NVB=   580

 **** Warning!!: The largest alpha MO coefficient is  0.12275713D+02

 Symmetrizing basis deriv contribution to polar:
 IMax=3 JMax=2 DiffMx= 0.00D+00
   1 Symmetry operations used in ECPInt.
 ECPInt:  NShTT=   29161 NPrTT=   80163 LenC2=   26807 LenP2D=   55529.
 LDataN:  DoStor=T MaxTD1= 7 Len=  274
 Calling FoFJK, ICntrl=      2127 FMM=F ISym2X=0 I1Cent= 0 IOpClX= 0 NMat=1 NMatS=1 NMatT=0.
 -------------------------------------------------------------------
 Center     Atomic                   Forces (Hartrees/Bohr)
 Number     Number              X              Y              Z
 -------------------------------------------------------------------
      1       14           0.000338656    0.000088677   -0.000034105
      2        8           0.000000104    0.000052757   -0.000044092
      3        8          -0.000000067   -0.000047754    0.000025118
      4        8           0.000066767   -0.000018322   -0.000030837
      5        8           0.000075722    0.000031819   -0.000018126
      6        8           0.000074232   -0.000003154    0.000015767
      7        8           0.000023482    0.000051463    0.000006266
      8        6           0.000059269    0.000000553    0.000006917
      9        1           0.000004356   -0.000001847    0.000003600
     10        1           0.000006258   -0.000000872    0.000003071
     11        6           0.000059938    0.000014599    0.000003078
     12        1           0.000002486   -0.000000996    0.000000758
     13        1           0.000004414   -0.000000961    0.000001254
     14        6          -0.000014852    0.000001749    0.000006807
     15        1           0.000001731   -0.000000644   -0.000000779
     16        1          -0.000004191    0.000004313   -0.000002944
     17        6          -0.000054119    0.000023971   -0.000017335
     18        1          -0.000003490   -0.000006995    0.000003988
     19        1          -0.000006573    0.000021021   -0.000010563
     20        6          -0.000033173   -0.000041097   -0.000004118
     21        1          -0.000005160    0.000009053    0.000004575
     22        1          -0.000008233   -0.000026526   -0.000004193
     23        6          -0.000032538   -0.000010823    0.000015091
     24        1           0.000000646    0.000000392   -0.000000736
     25        1          -0.000001531   -0.000004978    0.000000642
     26        8          -0.000636341   -0.000141550    0.000590873
     27        1           0.000076038    0.000007258   -0.000520982
     28        1           0.000006170   -0.000001107    0.000001006
 -------------------------------------------------------------------
 Cartesian Forces:  Max     0.000636341 RMS     0.000120614
 IRC-IRC-IRC-IRC-IRC-IRC-IRC-IRC-IRC-IRC-IRC-IRC-IRC-IRC-IRC-IRC-IRC-IRC
 Pt  1 Step number   1 out of a maximum of 100
 Modified Bulirsch-Stoer Extrapolation Cycles:
    EPS =    0.000010000000000
      PEZero:  N= 2 I= 1 D=  8.64D-04 Err=  8.83D-03
      PEZero:  N= 3 I= 2 D=  8.64D-04 Err=  1.51D-02
      PEZero:  N= 3 I= 1 D=  1.73D-03 Err=  1.39D-02
      PEZero:  N= 4 I= 3 D=  4.32D-04 Err=  2.67D-02
      PEZero:  N= 4 I= 2 D=  1.30D-03 Err=  2.04D-02
      PEZero:  N= 4 I= 1 D=  2.16D-03 Err=  1.62D-02
      PEZero:  N= 5 I= 4 D=  4.32D-04 Err=  4.04D-02
      PEZero:  N= 5 I= 3 D=  8.64D-04 Err=  3.40D-02
      PEZero:  N= 5 I= 2 D=  1.73D-03 Err=  2.38D-02
      PEZero:  N= 5 I= 1 D=  2.59D-03 Err=  1.84D-02
      PEZero:  N= 6 I= 5 D=  2.16D-04 Err=  6.93D-02
      PEZero:  N= 6 I= 4 D=  6.48D-04 Err=  5.20D-02
      PEZero:  N= 6 I= 3 D=  1.08D-03 Err=  4.20D-02
      PEZero:  N= 6 I= 2 D=  1.94D-03 Err=  2.94D-02
      PEZero:  N= 6 I= 1 D=  2.81D-03 Err=  2.29D-02
      PEZero:  N= 7 I= 6 D=  2.16D-04 Err=  9.06D-02
      PEZero:  N= 7 I= 5 D=  4.32D-04 Err=  6.65D-02
      PEZero:  N= 7 I= 4 D=  8.64D-04 Err=  4.06D-02
      PEZero:  N= 7 I= 3 D=  1.30D-03 Err=  2.66D-02
      PEZero:  N= 7 I= 2 D=  2.16D-03 Err=  1.54D-02
      PEZero:  N= 7 I= 1 D=  3.02D-03 Err=  9.91D-03
      PEZero:  N= 8 I= 7 D=  1.08D-04 Err=  4.05D-02
      PEZero:  N= 8 I= 6 D=  3.24D-04 Err=  3.66D-02
      PEZero:  N= 8 I= 5 D=  5.40D-04 Err=  8.39D-02
      PEZero:  N= 9 I= 8 D=  1.08D-04 Err=  2.88D-03
      PEZero:  N= 9 I= 7 D=  2.16D-04 Err=  3.62D-02
      PEZero:  N=10 I= 9 D=  5.40D-05 Err=  1.72D-04
      PEZero:  N=10 I= 8 D=  1.62D-04 Err=  2.65D-03
      PEZero:  N=11 I=10 D=  5.40D-05 Err=  1.09D-04
      PEZero:  N=11 I= 9 D=  1.08D-04 Err=  8.49D-06
      PEZero:  N=11 I= 8 D=  2.16D-04 Err=  1.83D-02
 Maximum DWI energy   std dev =  0.000000328 at pt     2
 Maximum DWI gradient std dev =  1.076259470 at pt     2
 CORRECTOR INTEGRATION CONVERGENCE:
   Recorrection delta-x convergence threshold:    0.010000
   Delta-x Convergence Met
 Point Number:   1          Path Number:   1
   CHANGE IN THE REACTION COORDINATE =    0.33156
   NET REACTION COORDINATE UP TO THIS POINT =    0.33156
  # OF POINTS ALONG THE PATH =   1
  # OF STEPS =   1

 Calculating another point on the path.
 IRC-IRC-IRC-IRC-IRC-IRC-IRC-IRC-IRC-IRC-IRC-IRC-IRC-IRC-IRC-IRC-IRC-IRC
                          Input orientation:                          
 ---------------------------------------------------------------------
 Center     Atomic      Atomic             Coordinates (Angstroms)
 Number     Number       Type             X           Y           Z
 ---------------------------------------------------------------------
      1         14           0        0.368396   -0.020454    0.068810
      2          8           0        0.191338    1.133304   -1.213039
      3          8           0        1.076756   -0.999975    1.310722
      4          8           0        0.748728   -1.261858   -1.089837
      5          8           0       -1.317374   -0.433529    0.286749
      6          8           0       -3.807554    0.332242    0.576774
      7          8           0        0.427379    1.292258    1.209786
      8          6           0       -3.560808   -0.784037   -0.252576
      9          1           0       -4.289743   -0.780686   -1.071593
     10          1           0       -3.693915   -1.714134    0.321727
     11          6           0       -2.135027   -0.720010   -0.790290
     12          1           0       -2.063746    0.065194   -1.557112
     13          1           0       -1.872877   -1.673485   -1.272968
     14          6           0        0.264480    2.539177    0.635990
     15          1           0       -0.787911    2.881385    0.721931
     16          1           0        0.897848    3.284969    1.142873
     17          6           0        0.649241    2.392077   -0.836587
     18          1           0        0.179760    3.174490   -1.456009
     19          1           0        1.744698    2.419067   -0.925392
     20          6           0        1.791119   -2.066807   -0.642069
     21          1           0        1.766534   -3.047513   -1.147203
     22          1           0        2.749458   -1.555975   -0.812742
     23          6           0        1.573261   -2.210778    0.865582
     24          1           0        0.854196   -3.030345    1.072301
     25          1           0        2.515112   -2.455640    1.382025
     26          8           0        3.214601    0.688458   -0.307813
     27          1           0        3.097056    0.686033    0.644521
     28          1           0       -2.917923    0.520943    0.920037
 ---------------------------------------------------------------------
                    Distance matrix (angstroms):
                    1          2          3          4          5
     1  Si   0.000000
     2  O    1.733679   0.000000
     3  O    1.733084   3.421142   0.000000
     4  O    1.740172   2.462247   2.436979   0.000000
     5  O    1.749271   2.642072   2.664815   2.617230   0.000000
     6  O    4.221491   4.453793   5.115659   5.106707   2.621358
     7  O    1.740263   2.439479   2.384578   3.451816   2.621927
     8  C    4.015594   4.321722   4.898727   4.416041   2.333822
     9  H    4.855588   4.874777   5.875612   5.061428   3.286425
    10  H    4.408503   5.055552   4.924169   4.683391   2.699838
    11  C    2.737619   3.004241   3.848140   2.949469   1.382259
    12  H    2.926820   2.518859   4.384268   3.144746   2.050761
    13  H    3.091308   3.484629   3.978618   2.660035   2.068524
    14  C    2.623776   2.323949   3.693325   4.202480   3.385441
    15  H    3.191283   2.785467   4.346104   4.776006   3.385022
    16  H    3.515643   3.267895   4.291961   5.067629   4.412186
    17  C    2.592089   1.391366   4.037292   3.664052   3.621258
    18  H    3.545183   2.055629   5.087786   4.487649   4.277432
    19  H    2.972189   2.036874   4.139590   3.816832   4.356934
    20  C    2.591727   3.622984   2.337058   1.391049   3.632220
    21  H    3.549163   4.468199   3.272552   2.056157   4.289477
    22  H    2.967224   3.733154   2.759741   2.041129   4.359804
    23  C    2.623750   4.172919   1.382284   2.324643   3.442300
    24  H    3.209742   4.795637   2.056400   2.795266   3.475091
    25  H    3.501864   5.001480   2.047660   3.264250   4.469509
    26  O    2.957243   3.187074   3.168730   3.239726   4.706502
    27  H    2.876830   3.477610   2.714417   3.509547   4.568217
    28  H    3.437673   3.820014   4.292235   4.545581   1.968205
                    6          7          8          9         10
     6  O    0.000000
     7  O    4.388279   0.000000
     8  C    1.412368   4.728121   0.000000
     9  H    2.046516   5.634982   1.096424   0.000000
    10  H    2.065337   5.178041   1.101191   1.779796   0.000000
    11  C    2.402800   3.823015   1.525152   2.173848   2.157544
    12  H    2.768691   3.920090   2.159676   2.430289   3.058349
    13  H    3.344767   4.500097   2.163661   2.584354   2.420927
    14  C    4.632011   1.382239   5.144523   5.888826   5.818789
    15  H    3.954422   2.059189   4.698291   5.374972   5.451956
    16  H    5.583894   2.048589   6.195457   6.953021   6.837368
    17  C    5.109162   2.333767   5.305966   5.874965   6.088158
    18  H    5.301817   3.272702   5.577637   5.980606   6.485704
    19  H    6.118729   2.750275   6.233855   6.831857   6.943859
    20  C    6.211776   4.070930   5.517275   6.230207   5.580222
    21  H    6.742796   5.116868   5.856983   6.467048   5.809661
    22  H    6.963515   4.194652   6.381938   7.086496   6.544394
    23  C    5.958484   3.701727   5.444679   6.338188   5.318419
    24  H    5.769268   4.345799   5.127715   6.009772   4.793860
    25  H    6.956783   4.293604   6.510221   7.425077   6.342404
    26  O    7.086611   3.230524   6.933791   7.684851   7.341415
    27  H    6.914001   2.795391   6.876993   7.724060   7.209875
    28  H    0.972051   3.445276   1.868501   2.746401   2.440433
                   11         12         13         14         15
    11  C    0.000000
    12  H    1.099838   0.000000
    13  H    1.100370   1.772054   0.000000
    14  C    4.291178   4.043627   5.094991   0.000000
    15  H    4.131777   3.840927   5.089560   1.109963   0.000000
    16  H    5.382871   5.140807   6.172477   1.101949   1.783775
    17  C    4.176048   3.646071   4.804196   1.529106   2.175732
    18  H    4.579143   3.835526   5.267797   2.187982   2.401192
    19  H    4.992426   4.521508   5.473266   2.154852   3.056390
    20  C    4.153366   4.499191   3.738663   5.017883   5.744258
    21  H    4.557063   4.952576   3.892182   6.053680   6.720914
    22  H    4.955556   5.133148   4.646676   5.004419   5.878637
    23  C    4.326164   4.927201   4.091204   4.932310   5.614792
    24  H    4.212167   5.001056   3.844254   5.617625   6.145554
    25  H    5.418040   5.996588   5.187986   5.529024   6.311064
    26  O    5.552935   5.459868   5.691462   3.608205   4.678612
    27  H    5.604492   5.645043   5.826176   3.384923   4.463018
    28  H    2.253467   2.659623   3.273669   3.779105   3.185574
                   16         17         18         19         20
    16  H    0.000000
    17  C    2.185709   0.000000
    18  H    2.698526   1.102844   0.000000
    19  H    2.396802   1.099382   1.816934   0.000000
    20  C    5.711870   4.606883   5.543480   4.495052   0.000000
    21  H    6.789653   5.561831   6.428571   5.471122   1.103426
    22  H    5.539642   4.471979   5.421664   4.101609   1.099315
    23  C    5.544033   4.993743   6.027665   4.967136   1.530098
    24  H    6.315859   5.752263   6.734033   5.871956   2.178370
    25  H    5.968863   5.648370   6.723591   5.447980   2.184563
    26  O    3.770106   3.124579   4.087661   2.353089   3.119217
    27  H    3.440834   3.331076   4.372100   2.701279   3.307403
    28  H    4.716948   4.394488   4.720439   5.361764   5.595686
                   21         22         23         24         25
    21  H    0.000000
    22  H    1.817330   0.000000
    23  C    2.188329   2.151506   0.000000
    24  H    2.399761   3.052732   1.109720   0.000000
    25  H    2.703272   2.383552   1.101705   1.784616   0.000000
    26  O    4.093770   2.347082   3.532198   4.615813   3.637333
    27  H    4.349704   2.696487   3.280599   4.361753   3.279128
    28  H    6.241113   6.279755   5.256995   5.183022   6.212193
                   26         27         28
    26  O    0.000000
    27  H    0.959564   0.000000
    28  H    6.256479   6.023548   0.000000
 Symmetry turned off by external request.
 Stoichiometry    C6H14O7Si(2-)
 Framework group  C1[X(C6H14O7Si)]
 Deg. of freedom    78
 Full point group                 C1      NOp   1
 Rotational constants (GHZ):           0.8510841           0.5182366           0.4005420
 Standard basis: def2TZVPP (5D, 7F)
   641 basis functions,   970 primitive gaussians,   726 cartesian basis functions
    61 alpha electrons       61 beta electrons
       nuclear repulsion energy      1231.6716622531 Hartrees.
 NAtoms=   28 NActive=   28 NUniq=   28 SFac= 1.00D+00 NAtFMM=   60 NAOKFM=F Big=F
 Integral buffers will be    131072 words long.
 Raffenetti 2 integral format.
 Two-electron integral symmetry is turned off.
 Nuclear repulsion after empirical dispersion term =     1231.6530905796 Hartrees.
 One-electron integrals computed using PRISM.
   1 Symmetry operations used in ECPInt.
 ECPInt:  NShTT=   29161 NPrTT=   80163 LenC2=   26819 LenP2D=   55550.
 LDataN:  DoStor=T MaxTD1= 6 Len=  172
 NBasis=   641 RedAO= T EigKep=  2.32D-04  NBF=   641
 NBsUse=   641 1.00D-06 EigRej= -1.00D+00 NBFU=   641
 Initial guess from the checkpoint file:  "IRC_forward_HbiLmL_collapseScan.chk"
 B after Tr=    -0.000146   -0.000091    0.000101
         Rot=    1.000000    0.000067   -0.000038   -0.000008 Ang=   0.01 deg.
 ExpMin= 7.01D-02 ExpMax= 4.48D+04 ExpMxC= 1.53D+03 IAcc=3 IRadAn=         5 AccDes= 0.00D+00
 Harris functional with IExCor= 4639 and IRadAn=       5 diagonalized for initial guess.
 HarFok:  IExCor= 4639 AccDes= 0.00D+00 IRadAn=         5 IDoV= 1 UseB2=F ITyADJ=14
 ICtDFT=  3500011 ScaDFX=  1.000000  1.000000  1.000000  1.000000
 FoFCou: FMM=F IPFlag=           0 FMFlag=      100000 FMFlg1=           0
         NFxFlg=           0 DoJE=T BraDBF=F KetDBF=T FulRan=T
         wScrn=  0.000000 ICntrl=       500 IOpCl=  0 I1Cent=   200000004 NGrid=           0
         NMat0=    1 NMatS0=      1 NMatT0=    0 NMatD0=    1 NMtDS0=    0 NMtDT0=    0
 Symmetry not used in FoFCou.
 Requested convergence on RMS density matrix=1.00D-08 within 128 cycles.
 Requested convergence on MAX density matrix=1.00D-06.
 Requested convergence on             energy=1.00D-06.
 No special actions if energy rises.
 Integral accuracy reduced to 1.0D-05 until final iterations.
 Initial convergence to 1.0D-05 achieved.  Increase integral accuracy.
 SCF Done:  E(RwB97XD) =  -1053.30212824     A.U. after   13 cycles
            NFock= 13  Conv=0.41D-08     -V/T= 2.0037
 DoSCS=F DFT=T ScalE2(SS,OS)=  1.000000  1.000000
 Range of M.O.s used for correlation:     1   641
 NBasis=   641 NAE=    61 NBE=    61 NFC=     0 NFV=     0
 NROrb=    641 NOA=    61 NOB=    61 NVA=   580 NVB=   580

 **** Warning!!: The largest alpha MO coefficient is  0.12362787D+02

 Symmetrizing basis deriv contribution to polar:
 IMax=3 JMax=2 DiffMx= 0.00D+00
   1 Symmetry operations used in ECPInt.
 ECPInt:  NShTT=   29161 NPrTT=   80163 LenC2=   26819 LenP2D=   55550.
 LDataN:  DoStor=T MaxTD1= 7 Len=  274
 Calling FoFJK, ICntrl=      2127 FMM=F ISym2X=0 I1Cent= 0 IOpClX= 0 NMat=1 NMatS=1 NMatT=0.
 -------------------------------------------------------------------
 Center     Atomic                   Forces (Hartrees/Bohr)
 Number     Number              X              Y              Z
 -------------------------------------------------------------------
      1       14           0.000773830    0.000187499   -0.000106051
      2        8          -0.000031955    0.000126972   -0.000100451
      3        8           0.000015706   -0.000089012    0.000048189
      4        8           0.000148086   -0.000034631   -0.000057619
      5        8           0.000165566    0.000067886   -0.000034768
      6        8           0.000157541   -0.000006713    0.000032218
      7        8           0.000056087    0.000106976    0.000008440
      8        6           0.000126390   -0.000002347    0.000020878
      9        1           0.000008902    0.000000297   -0.000000513
     10        1           0.000010256    0.000000910   -0.000000768
     11        6           0.000126805    0.000025773    0.000006951
     12        1           0.000007150    0.000000848   -0.000001231
     13        1           0.000009858    0.000001531   -0.000001460
     14        6          -0.000032803    0.000008353    0.000008808
     15        1           0.000005346   -0.000001555    0.000000703
     16        1          -0.000007520    0.000005905   -0.000000372
     17        6          -0.000111111    0.000041164   -0.000034020
     18        1           0.000000951   -0.000013356    0.000012838
     19        1          -0.000020611    0.000034269   -0.000012148
     20        6          -0.000069438   -0.000082748   -0.000003513
     21        1          -0.000011097    0.000019489    0.000008957
     22        1          -0.000020746   -0.000055062   -0.000005583
     23        6          -0.000064553   -0.000027658    0.000029783
     24        1          -0.000004069   -0.000003657   -0.000001877
     25        1          -0.000005858   -0.000012871    0.000001931
     26        8          -0.001376020   -0.000308645    0.001112448
     27        1           0.000135148    0.000009549   -0.000929079
     28        1           0.000008156    0.000000832   -0.000002691
 -------------------------------------------------------------------
 Cartesian Forces:  Max     0.001376020 RMS     0.000243120
 IRC-IRC-IRC-IRC-IRC-IRC-IRC-IRC-IRC-IRC-IRC-IRC-IRC-IRC-IRC-IRC-IRC-IRC
 Pt  2 Step number   1 out of a maximum of 100
 Modified Bulirsch-Stoer Extrapolation Cycles:
    EPS =    0.000010000000000
      PEZero:  N= 2 I= 1 D=  1.73D-03 Err=  8.45D-03
      PEZero:  N= 3 I= 2 D=  1.73D-03 Err=  2.46D-02
      PEZero:  N= 3 I= 1 D=  3.45D-03 Err=  2.85D-02
      PEZero:  N= 4 I= 3 D=  8.63D-04 Err=  5.06D-02
      PEZero:  N= 4 I= 2 D=  2.59D-03 Err=  4.29D-02
      PEZero:  N= 4 I= 1 D=  4.32D-03 Err=  3.67D-02
      PEZero:  N= 5 I= 4 D=  8.63D-04 Err=  8.08D-02
      PEZero:  N= 5 I= 3 D=  1.73D-03 Err=  7.06D-02
      PEZero:  N= 5 I= 2 D=  3.45D-03 Err=  4.91D-02
      PEZero:  N= 5 I= 1 D=  5.18D-03 Err=  3.69D-02
      PEZero:  N= 6 I= 5 D=  4.32D-04 Err=  1.49D-01
[...]
 SCF Done:  E(RwB97XD) =  -1053.30276777     A.U. after   11 cycles
            NFock= 11  Conv=0.81D-08     -V/T= 2.0037
 DoSCS=F DFT=T ScalE2(SS,OS)=  1.000000  1.000000
 Range of M.O.s used for correlation:     1   641
 NBasis=   641 NAE=    61 NBE=    61 NFC=     0 NFV=     0
 NROrb=    641 NOA=    61 NOB=    61 NVA=   580 NVB=   580

 **** Warning!!: The largest alpha MO coefficient is  0.12810318D+02

 Symmetrizing basis deriv contribution to polar:
 IMax=3 JMax=2 DiffMx= 0.00D+00
   1 Symmetry operations used in ECPInt.
 ECPInt:  NShTT=   29161 NPrTT=   80163 LenC2=   26830 LenP2D=   55635.
 LDataN:  DoStor=T MaxTD1= 7 Len=  274
 Calling FoFJK, ICntrl=      2127 FMM=F ISym2X=0 I1Cent= 0 IOpClX= 0 NMat=1 NMatS=1 NMatT=0.
 -------------------------------------------------------------------
 Center     Atomic                   Forces (Hartrees/Bohr)
 Number     Number              X              Y              Z
 -------------------------------------------------------------------
      1       14           0.001813743    0.000508874   -0.000465007
      2        8           0.000096016    0.000262061   -0.000170152
      3        8           0.000141008   -0.000106667    0.000097899
      4        8           0.000366515   -0.000009676   -0.000134073
      5        8           0.000616854    0.000238688   -0.000097481
      6        8           0.000495665   -0.000031206    0.000058095
      7        8           0.000292130    0.000191328    0.000017590
      8        6           0.000421188   -0.000016899    0.000036125
      9        1          -0.000022464   -0.000003072   -0.000003629
     10        1          -0.000021865    0.000000675   -0.000001540
     11        6           0.000416975    0.000095136   -0.000009495
     12        1          -0.000014604   -0.000001247    0.000004256
     13        1          -0.000020280   -0.000001788   -0.000000349
     14        6          -0.000156601    0.000103168    0.000013187
     15        1           0.000012034   -0.000002604   -0.000003886
     16        1           0.000005789   -0.000017714    0.000007773
     17        6          -0.000493596    0.000306229   -0.000146222
     18        1           0.000020297   -0.000024346    0.000010559
     19        1          -0.000026085   -0.000031043    0.000014437
     20        6          -0.000283937   -0.000523094   -0.000026174
     21        1           0.000008153    0.000029731    0.000006064
     22        1          -0.000039036    0.000024726    0.000009728
     23        6          -0.000231052   -0.000219189    0.000068394
     24        1           0.000012378    0.000014961   -0.000003330
     25        1           0.000001583    0.000018895    0.000000012
     26        8          -0.003515439   -0.000975995   -0.003808947
     27        1           0.000132277    0.000170784    0.004527054
     28        1          -0.000027646   -0.000000716   -0.000000886
 -------------------------------------------------------------------
 Cartesian Forces:  Max     0.004527054 RMS     0.000805274
 IRC-IRC-IRC-IRC-IRC-IRC-IRC-IRC-IRC-IRC-IRC-IRC-IRC-IRC-IRC-IRC-IRC-IRC
 Error in corrector energy =          -0.0000547234
 Magnitude of corrector gradient =     0.0046762675
 Magnitude of analytic gradient =      0.0073804572
 Magnitude of difference =             0.0064726489
 Angle between gradients (degrees)=   60.0666
 Pt  5 Step number  99 out of a maximum of 100
 Modified Bulirsch-Stoer Extrapolation Cycles:
    EPS =    0.000010000000000
      PEZero:  N= 2 I= 1 D=  1.73D-03 Err=  1.13D-01
      PEZero:  N= 3 I= 2 D=  1.73D-03 Err=  1.61D-01
      PEZero:  N= 3 I= 1 D=  3.45D-03 Err=  1.29D-01
      PEZero:  N= 4 I= 3 D=  8.64D-04 Err=  5.33D-02
      PEZero:  N= 4 I= 2 D=  2.59D-03 Err=  9.04D-02
      PEZero:  N= 5 I= 4 D=  8.64D-04 Err=  2.88D-05
      PEZero:  N= 5 I= 3 D=  1.73D-03 Err=  5.33D-02
      PEZero:  N= 6 I= 5 D=  4.32D-04 Err=  2.16D-05
      PEZero:  N= 6 I= 4 D=  1.30D-03 Err=  1.15D-07
      PEZero:  N= 6 I= 3 D=  2.16D-03 Err=  7.75D-02
 Maximum DWI energy   std dev =  0.000007513 at pt    -1
 Maximum DWI gradient std dev =  0.634232530 at pt    61
 CORRECTOR INTEGRATION CONVERGENCE:
   Recorrection delta-x convergence threshold:    0.010000
   Delta-x Convergence NOT Met
 IRC-IRC-IRC-IRC-IRC-IRC-IRC-IRC-IRC-IRC-IRC-IRC-IRC-IRC-IRC-IRC-IRC-IRC
                          Input orientation:                          
 ---------------------------------------------------------------------
 Center     Atomic      Atomic             Coordinates (Angstroms)
 Number     Number       Type             X           Y           Z
 ---------------------------------------------------------------------
      1         14           0        0.398676   -0.011832    0.063371
      2          8           0        0.193943    1.140714   -1.218752
      3          8           0        1.078960   -1.004857    1.313554
      4          8           0        0.760476   -1.260836   -1.094670
      5          8           0       -1.298722   -0.426656    0.283068
      6          8           0       -3.792627    0.331536    0.579402
      7          8           0        0.435010    1.298644    1.209693
      8          6           0       -3.544406   -0.783983   -0.250852
      9          1           0       -4.274186   -0.782136   -1.069379
     10          1           0       -3.674903   -1.714552    0.323519
     11          6           0       -2.118338   -0.716489   -0.790096
     12          1           0       -2.051885    0.067430   -1.559304
     13          1           0       -1.856395   -1.670317   -1.273368
     14          6           0        0.259927    2.542987    0.636349
     15          1           0       -0.794377    2.877919    0.729315
     16          1           0        0.890366    3.295477    1.138371
     17          6           0        0.634356    2.403313   -0.840936
     18          1           0        0.147041    3.181507   -1.452685
     19          1           0        1.727541    2.451886   -0.939405
     20          6           0        1.783777   -2.083837   -0.641675
     21          1           0        1.738116   -3.067651   -1.140280
     22          1           0        2.753417   -1.598628   -0.817454
     23          6           0        1.565597   -2.218139    0.868444
     24          1           0        0.840987   -3.032652    1.077318
     25          1           0        2.506642   -2.472323    1.383437
     26          8           0        3.105675    0.662482   -0.291332
     27          1           0        3.078711    0.685430    0.670319
     28          1           0       -2.900936    0.522058    0.917837
 ---------------------------------------------------------------------
                    Distance matrix (angstroms):
                    1          2          3          4          5
     1  Si   0.000000
     2  O    1.736121   0.000000
     3  O    1.735466   3.435011   0.000000
     4  O    1.741254   2.470586   2.442641   0.000000
     5  O    1.761109   2.634418   2.655106   2.614252   0.000000
     6  O    4.236887   4.447569   5.104634   5.105772   2.623401
     7  O    1.741471   2.445486   2.394071   3.459328   2.615554
     8  C    4.030242   4.314689   4.885864   4.412644   2.335776
     9  H    4.869511   4.866605   5.863800   5.057432   3.287684
    10  H    4.422780   5.049665   4.907449   4.678644   2.703063
    11  C    2.749601   2.996597   3.838127   2.945615   1.381106
    12  H    2.940171   2.512301   4.382385   3.144765   2.050782
    13  H    3.102062   3.479764   3.968792   2.654736   2.068861
    14  C    2.621957   2.326398   3.703596   4.209043   3.372384
    15  H    3.196485   2.790990   4.350480   4.782654   3.372494
    16  H    3.512218   3.268644   4.308030   5.075758   4.402036
    17  C    2.589641   1.389556   4.056491   3.675088   3.606785
    18  H    3.543890   2.054693   5.103547   4.498765   4.256983
    19  H    2.973440   2.036941   4.176787   3.839743   4.351863
    20  C    2.590134   3.641197   2.341769   1.389129   3.619833
    21  H    3.546957   4.483410   3.272752   2.054858   4.268859
    22  H    2.972974   3.770403   2.774448   2.040286   4.359414
    23  C    2.622525   4.185655   1.380939   2.327759   3.428761
    24  H    3.216998   4.807035   2.055332   2.804165   3.464160
    25  H    3.498587   5.017369   2.048564   3.264630   4.458291
    26  O    2.812179   3.093056   3.076239   3.137588   4.573277
    27  H    2.834986   3.478183   2.696262   3.503905   4.533059
    28  H    3.450013   3.811302   4.281078   4.542557   1.967252
                    6          7          8          9         10
     6  O    0.000000
     7  O    4.382406   0.000000
     8  C    1.412557   4.722952   0.000000
     9  H    2.047106   5.630306   1.096617   0.000000
    10  H    2.065384   5.172624   1.101314   1.780086   0.000000
    11  C    2.403565   3.818312   1.526110   2.174854   2.158510
    12  H    2.770198   3.920188   2.159762   2.429077   3.058541
    13  H    3.345021   4.497873   2.163449   2.583833   2.420533
    14  C    4.617029   1.381220   5.131160   5.875724   5.805807
    15  H    3.936501   2.058219   4.683259   5.361005   5.436257
    16  H    5.570262   2.049336   6.183780   6.940727   6.826863
    17  C    5.089970   2.337758   5.288583   5.856027   6.073095
    18  H    5.269981   3.273585   5.549441   5.950180   6.460151
    19  H    6.105318   2.760295   6.224016   6.818836   6.938342
    20  C    6.198494   4.085084   5.498354   6.210980   5.555642
    21  H    6.715720   5.126890   5.823338   6.432448   5.768393
    22  H    6.966163   4.228300   6.375521   7.079360   6.529821
    23  C    5.940956   3.709776   5.424183   6.318254   5.292768
    24  H    5.747700   4.352294   5.104138   5.986495   4.764332
    25  H    6.941821   4.306046   6.491269   7.406259   6.317368
    26  O    6.960910   3.128934   6.805694   7.560068   7.211419
    27  H    6.881046   2.766968   6.846416   7.697104   7.175757
    28  H    0.972600   3.437557   1.866984   2.745135   2.440218
                   11         12         13         14         15
    11  C    0.000000
    12  H    1.100284   0.000000
    13  H    1.100888   1.771931   0.000000
    14  C    4.279611   4.036551   5.087020   0.000000
    15  H    4.120831   3.836398   5.081837   1.110125   0.000000
    16  H    5.372816   5.133670   6.166059   1.102597   1.783267
    17  C    4.160898   3.631568   4.794298   1.530384   2.175366
    18  H    4.556900   3.813674   5.252247   2.187353   2.395738
    19  H    4.985146   4.511536   5.472539   2.155270   3.053882
    20  C    4.137411   4.492470   3.717645   5.036165   5.757213
    21  H    4.530213   4.936438   3.858855   6.068008   6.727460
    22  H    4.951052   5.139748   4.632857   5.048169   5.917669
    23  C    4.310115   4.919752   4.074003   4.942364   5.617708
    24  H    4.196362   4.993094   3.828518   5.623152   6.142505
    25  H    5.403484   5.990846   5.170872   5.546098   6.320576
    26  O    5.425922   5.344367   5.570321   3.534851   4.600031
    27  H    5.577411   5.628157   5.803683   3.375977   4.450989
    28  H    2.250221   2.657781   3.270925   3.762240   3.165946
                   16         17         18         19         20
    16  H    0.000000
    17  C    2.186127   0.000000
    18  H    2.697979   1.103313   0.000000
    19  H    2.393670   1.098685   1.814878   0.000000
    20  C    5.736179   4.636312   5.573193   4.545832   0.000000
    21  H    6.811779   5.589217   6.456090   5.523202   1.103895
    22  H    5.590032   4.528410   5.481460   4.180186   1.098421
    23  C    5.561362   5.014679   6.046165   5.010357   1.531697
    24  H    6.328615   5.768198   6.745239   5.910440   2.178081
    25  H    5.994991   5.676717   6.751081   5.500039   2.185071
    26  O    3.726165   3.072454   4.055581   2.349727   3.067966
    27  H    3.438062   3.348117   4.396844   2.745403   3.326713
    28  H    4.702601   4.373865   4.688519   5.347559   5.582947
                   21         22         23         24         25
    21  H    0.000000
    22  H    1.814686   0.000000
    23  C    2.187786   2.153360   0.000000
    24  H    2.392448   3.050241   1.110009   0.000000
    25  H    2.704478   2.380790   1.102449   1.783840   0.000000
    26  O    4.062613   2.348085   3.466250   4.544890   3.604260
    27  H    4.377338   2.745214   3.280164   4.358577   3.287431
    28  H    6.216322   6.283331   5.240328   5.163659   6.198790
                   26         27         28
    26  O    0.000000
    27  H    0.962302   0.000000
    28  H    6.128717   5.986997   0.000000
 Symmetry turned off by external request.
 Stoichiometry    C6H14O7Si(2-)
 Framework group  C1[X(C6H14O7Si)]
 Deg. of freedom    78
 Full point group                 C1      NOp   1
 Rotational constants (GHZ):           0.8466846           0.5267513           0.4049663
 Standard basis: def2TZVPP (5D, 7F)
   641 basis functions,   970 primitive gaussians,   726 cartesian basis functions
    61 alpha electrons       61 beta electrons
       nuclear repulsion energy      1234.7825016412 Hartrees.
 NAtoms=   28 NActive=   28 NUniq=   28 SFac= 1.00D+00 NAtFMM=   60 NAOKFM=F Big=F
 Integral buffers will be    131072 words long.
 Raffenetti 2 integral format.
 Two-electron integral symmetry is turned off.
 Nuclear repulsion after empirical dispersion term =     1234.7639460692 Hartrees.
 One-electron integrals computed using PRISM.
   1 Symmetry operations used in ECPInt.
 ECPInt:  NShTT=   29161 NPrTT=   80163 LenC2=   26830 LenP2D=   55634.
 LDataN:  DoStor=T MaxTD1= 6 Len=  172
 NBasis=   641 RedAO= T EigKep=  2.31D-04  NBF=   641
 NBsUse=   641 1.00D-06 EigRej= -1.00D+00 NBFU=   641
 Initial guess from the checkpoint file:  "IRC_forward_HbiLmL_collapseScan.chk"
 B after Tr=     0.000198    0.000075    0.000007
         Rot=    1.000000    0.000003   -0.000019   -0.000000 Ang=   0.00 deg.
 ExpMin= 7.01D-02 ExpMax= 4.48D+04 ExpMxC= 1.53D+03 IAcc=3 IRadAn=         5 AccDes= 0.00D+00
 Harris functional with IExCor= 4639 and IRadAn=       5 diagonalized for initial guess.
 HarFok:  IExCor= 4639 AccDes= 0.00D+00 IRadAn=         5 IDoV= 1 UseB2=F ITyADJ=14
 ICtDFT=  3500011 ScaDFX=  1.000000  1.000000  1.000000  1.000000
 FoFCou: FMM=F IPFlag=           0 FMFlag=      100000 FMFlg1=           0
         NFxFlg=           0 DoJE=T BraDBF=F KetDBF=T FulRan=T
         wScrn=  0.000000 ICntrl=       500 IOpCl=  0 I1Cent=   200000004 NGrid=           0
         NMat0=    1 NMatS0=      1 NMatT0=    0 NMatD0=    1 NMtDS0=    0 NMtDT0=    0
 Symmetry not used in FoFCou.
 Requested convergence on RMS density matrix=1.00D-08 within 128 cycles.
 Requested convergence on MAX density matrix=1.00D-06.
 Requested convergence on             energy=1.00D-06.
 No special actions if energy rises.
 Integral accuracy reduced to 1.0D-05 until final iterations.
 Initial convergence to 1.0D-05 achieved.  Increase integral accuracy.
 SCF Done:  E(RwB97XD) =  -1053.30278428     A.U. after   13 cycles
            NFock= 13  Conv=0.20D-08     -V/T= 2.0037
 DoSCS=F DFT=T ScalE2(SS,OS)=  1.000000  1.000000
 Range of M.O.s used for correlation:     1   641
 NBasis=   641 NAE=    61 NBE=    61 NFC=     0 NFV=     0
 NROrb=    641 NOA=    61 NOB=    61 NVA=   580 NVB=   580

 **** Warning!!: The largest alpha MO coefficient is  0.12735866D+02

 Symmetrizing basis deriv contribution to polar:
 IMax=3 JMax=2 DiffMx= 0.00D+00
   1 Symmetry operations used in ECPInt.
 ECPInt:  NShTT=   29161 NPrTT=   80163 LenC2=   26830 LenP2D=   55634.
 LDataN:  DoStor=T MaxTD1= 7 Len=  274
 Calling FoFJK, ICntrl=      2127 FMM=F ISym2X=0 I1Cent= 0 IOpClX= 0 NMat=1 NMatS=1 NMatT=0.
 -------------------------------------------------------------------
 Center     Atomic                   Forces (Hartrees/Bohr)
 Number     Number              X              Y              Z
 -------------------------------------------------------------------
      1       14           0.002151793    0.000590833   -0.000191416
      2        8           0.000122737    0.000229212   -0.000205286
      3        8           0.000031144   -0.000219834    0.000119567
      4        8           0.000366582    0.000029594   -0.000169198
      5        8           0.000595932    0.000232978   -0.000130384
      6        8           0.000466694   -0.000027580    0.000064300
      7        8           0.000159717    0.000236291    0.000027153
      8        6           0.000392938   -0.000007152    0.000035013
      9        1           0.000001827   -0.000000368    0.000000533
     10        1           0.000001316   -0.000000399    0.000000731
     11        6           0.000406639    0.000092775    0.000004110
     12        1          -0.000000176   -0.000000103   -0.000000473
     13        1           0.000000618   -0.000000827   -0.000000359
     14        6          -0.000137413    0.000063040    0.000041253
     15        1          -0.000003058    0.000005948   -0.000001373
     16        1           0.000001212    0.000004039   -0.000002405
     17        6          -0.000449055    0.000297231   -0.000096401
     18        1           0.000000565    0.000002527   -0.000001811
     19        1           0.000015801    0.000011252   -0.000010396
     20        6          -0.000251429   -0.000477255    0.000017472
     21        1           0.000001508   -0.000001060   -0.000001819
     22        1           0.000017110   -0.000008738   -0.000012501
     23        6          -0.000220294   -0.000163398    0.000091501
     24        1           0.000000742   -0.000008883   -0.000000855
     25        1           0.000003914   -0.000002819   -0.000001603
     26        8          -0.003695584   -0.000764497    0.004338135
     27        1           0.000015738   -0.000113662   -0.003913227
     28        1           0.000002480    0.000000856   -0.000000260
 -------------------------------------------------------------------
 Cartesian Forces:  Max     0.004338135 RMS     0.000812856
 IRC-IRC-IRC-IRC-IRC-IRC-IRC-IRC-IRC-IRC-IRC-IRC-IRC-IRC-IRC-IRC-IRC-IRC
 Error in corrector energy =          -0.0000349354
 Magnitude of corrector gradient =     0.0050213318
 Magnitude of analytic gradient =      0.0074499456
 Magnitude of difference =             0.0055885836
 Angle between gradients (degrees)=   48.5943
 Pt  5 Step number 100 out of a maximum of 100
 Modified Bulirsch-Stoer Extrapolation Cycles:
    EPS =    0.000010000000000
      PEZero:  N= 2 I= 1 D=  1.73D-03 Err=  1.12D-01
      PEZero:  N= 3 I= 2 D=  1.73D-03 Err=  1.50D-01
      PEZero:  N= 3 I= 1 D=  3.45D-03 Err=  1.13D-01
      PEZero:  N= 4 I= 3 D=  8.64D-04 Err=  3.28D-02
      PEZero:  N= 4 I= 2 D=  2.59D-03 Err=  1.06D-01
      PEZero:  N= 5 I= 4 D=  8.64D-04 Err=  3.50D-05
      PEZero:  N= 5 I= 3 D=  1.73D-03 Err=  3.29D-02
      PEZero:  N= 6 I= 5 D=  4.32D-04 Err=  2.63D-05
      PEZero:  N= 6 I= 4 D=  1.30D-03 Err=  3.03D-08
      PEZero:  N= 6 I= 3 D=  2.16D-03 Err=  6.76D-02
 Maximum DWI energy   std dev =  0.000008487 at pt    63
 Maximum DWI gradient std dev =  0.458523656 at pt    62
 CORRECTOR INTEGRATION CONVERGENCE:
   Recorrection delta-x convergence threshold:    0.010000
   Delta-x Convergence NOT Met
 Maximum number of corrector steps exceded.
 Error termination via Lnk1e in /opt/software/gaussian/g16.c01/l123.exe at Wed Mar 27 14:53:21 2024.
 Job cpu time:       5 days 19 hours 39 minutes 49.9 seconds.
 Elapsed time:       1 days 11 hours  1 minutes 55.2 seconds.
 File lengths (MBytes):  RWF=    782 Int=      0 D2E=      0 Chk=     32 Scr=      1
