 Entering Gaussian System, Link 0=/opt/software/gaussian/g16.c01/g16
 Initial command:
 /opt/software/gaussian/g16.c01/l1.exe "/scratch/arhender/25002861/Gau-250899.inp" -scrdir="/scratch/arhender/25002861/"
 Entering Link 1 = /opt/software/gaussian/g16.c01/l1.exe PID=    250903.
  
 Copyright (c) 1988-2019, Gaussian, Inc.  All Rights Reserved.
  
 This is part of the Gaussian(R) 16 program.  It is based on
 the Gaussian(R) 09 system (copyright 2009, Gaussian, Inc.),
 the Gaussian(R) 03 system (copyright 2003, Gaussian, Inc.),
 the Gaussian(R) 98 system (copyright 1998, Gaussian, Inc.),
 the Gaussian(R) 94 system (copyright 1995, Gaussian, Inc.),
 the Gaussian 92(TM) system (copyright 1992, Gaussian, Inc.),
 the Gaussian 90(TM) system (copyright 1990, Gaussian, Inc.),
 the Gaussian 88(TM) system (copyright 1988, Gaussian, Inc.),
 the Gaussian 86(TM) system (copyright 1986, Carnegie Mellon
 University), and the Gaussian 82(TM) system (copyright 1983,
 Carnegie Mellon University). Gaussian is a federally registered
 trademark of Gaussian, Inc.
  
 This software contains proprietary and confidential information,
 including trade secrets, belonging to Gaussian, Inc.
  
 This software is provided under written license and may be
 used, copied, transmitted, or stored only in accord with that
 written license.
  
 The following legend is applicable only to US Government
 contracts under FAR:
  
                    RESTRICTED RIGHTS LEGEND
  
 Use, reproduction and disclosure by the US Government is
 subject to restrictions as set forth in subparagraphs (a)
 and (c) of the Commercial Computer Software - Restricted
 Rights clause in FAR 52.227-19.
  
 Gaussian, Inc.
 340 Quinnipiac St., Bldg. 40, Wallingford CT 06492
  
  
 ---------------------------------------------------------------
 Warning -- This program may not be used in any manner that
 competes with the business of Gaussian, Inc. or will provide
 assistance to any competitor of Gaussian, Inc.  The licensee
 of this program is prohibited from giving any competitor of
 Gaussian, Inc. access to this program.  By using this program,
 the user acknowledges that Gaussian, Inc. is engaged in the
 business of creating and licensing software in the field of
 computational chemistry and represents and warrants to the
 licensee that it is not a competitor of Gaussian, Inc. and that
 it will not use this program in any manner prohibited above.
 ---------------------------------------------------------------
  

 Cite this work as:
 Gaussian 16, Revision C.01,
 M. J. Frisch, G. W. Trucks, H. B. Schlegel, G. E. Scuseria, 
 M. A. Robb, J. R. Cheeseman, G. Scalmani, V. Barone, 
 G. A. Petersson, H. Nakatsuji, X. Li, M. Caricato, A. V. Marenich, 
 J. Bloino, B. G. Janesko, R. Gomperts, B. Mennucci, H. P. Hratchian, 
 J. V. Ortiz, A. F. Izmaylov, J. L. Sonnenberg, D. Williams-Young, 
 F. Ding, F. Lipparini, F. Egidi, J. Goings, B. Peng, A. Petrone, 
 T. Henderson, D. Ranasinghe, V. G. Zakrzewski, J. Gao, N. Rega, 
 G. Zheng, W. Liang, M. Hada, M. Ehara, K. Toyota, R. Fukuda, 
 J. Hasegawa, M. Ishida, T. Nakajima, Y. Honda, O. Kitao, H. Nakai, 
 T. Vreven, K. Throssell, J. A. Montgomery, Jr., J. E. Peralta, 
 F. Ogliaro, M. J. Bearpark, J. J. Heyd, E. N. Brothers, K. N. Kudin, 
 V. N. Staroverov, T. A. Keith, R. Kobayashi, J. Normand, 
 K. Raghavachari, A. P. Rendell, J. C. Burant, S. S. Iyengar, 
 J. Tomasi, M. Cossi, J. M. Millam, M. Klene, C. Adamo, R. Cammi, 
 J. W. Ochterski, R. L. Martin, K. Morokuma, O. Farkas, 
 J. B. Foresman, and D. J. Fox, Gaussian, Inc., Wallingford CT, 2019.
 
 ******************************************
 Gaussian 16:  ES64L-G16RevC.01  3-Jul-2019
                11-Feb-2024 
 ******************************************
 %chk=IRC_PmonoL1toHbiL1_reverse_ReactantOpt.chk
 %mem=1600MB
 %nprocs=4
 Will use up to    4 processors via shared memory.
 ---------------------------------------------
 # opt freq wb97xd/def2tzvpp geom=connectivity
 ---------------------------------------------
 1/18=20,19=15,26=3,38=1,57=2/1,3;
 2/9=110,12=2,17=6,18=5,40=1/2;
 3/5=44,7=202,11=2,25=1,30=1,71=1,74=-58/1,2,3;
 4//1;
 5/5=2,38=5/2;
 6/7=2,8=2,9=2,10=2,28=1/1;
 7//1,2,3,16;
 1/18=20,19=15,26=3/3(2);
 2/9=110/2;
 99//99;
 2/9=110/2;
 3/5=44,7=202,11=2,25=1,30=1,71=1,74=-58/1,2,3;
 4/5=5,16=3,69=1/1;
 5/5=2,38=5/2;
 7//1,2,3,16;
 1/18=20,19=15,26=3/3(-5);
 2/9=110/2;
 6/7=2,8=2,9=2,10=2,19=2,28=1/1;
 99/9=1/99;
 ----------------------------------------------
 IRC Forward of possible PL1 collapse to HL1 TS
 ----------------------------------------------
 Symbolic Z-matrix:
 Charge = -2 Multiplicity = 1
 Si                    0.56533  -0.02188  -0.03924 
 O                     0.43152   0.15442   1.77735 
 O                     0.50394  -0.42365  -1.75826 
 O                     1.76934   1.23214  -0.18906 
 O                    -0.72329   1.31044  -0.24963 
 O                    -1.05214  -1.21392   0.17219 
 O                     1.68318  -1.35821   0.23165 
 C                    -2.18614  -0.52792  -0.16245 
 H                    -3.08796  -0.90758   0.37527 
 H                    -2.42034  -0.60172  -1.25147 
 C                    -1.97204   0.95843   0.16597 
 H                    -2.10293   1.09282   1.26589 
 H                    -2.75979   1.57353  -0.32348 
 H                     1.79175  -1.31779   1.18063 
 H                    -0.29858  -0.43674   1.96036 
 H                     1.24352   2.02948  -0.14578 
 H                     0.04732  -1.25593  -1.75013 
 

 GradGradGradGradGradGradGradGradGradGradGradGradGradGradGradGradGradGrad
 Berny optimization.
 Initialization pass.
                           ----------------------------
                           !    Initial Parameters    !
                           ! (Angstroms and Degrees)  !
 --------------------------                            --------------------------
 ! Name  Definition              Value          Derivative Info.                !
 --------------------------------------------------------------------------------
 ! R1    R(1,2)                  1.83           estimate D2E/DX2                !
 ! R2    R(1,3)                  1.7664         estimate D2E/DX2                !
 ! R3    R(1,4)                  1.7449         estimate D2E/DX2                !
 ! R4    R(1,5)                  1.8654         estimate D2E/DX2                !
 ! R5    R(1,7)                  1.7632         estimate D2E/DX2                !
 ! R6    R(2,15)                 0.9571         estimate D2E/DX2                !
 ! R7    R(3,17)                 0.9494         estimate D2E/DX2                !
 ! R8    R(4,16)                 0.9561         estimate D2E/DX2                !
 ! R9    R(5,11)                 1.3624         estimate D2E/DX2                !
 ! R10   R(6,8)                  1.3669         estimate D2E/DX2                !
 ! R11   R(7,14)                 0.956          estimate D2E/DX2                !
 ! R12   R(8,9)                  1.1165         estimate D2E/DX2                !
 ! R13   R(8,10)                 1.1164         estimate D2E/DX2                !
 ! R14   R(8,11)                 1.5372         estimate D2E/DX2                !
 ! R15   R(11,12)                1.1158         estimate D2E/DX2                !
 ! R16   R(11,13)                1.1129         estimate D2E/DX2                !
 ! A1    A(2,1,4)               93.81           estimate D2E/DX2                !
 ! A2    A(2,1,5)               89.5783         estimate D2E/DX2                !
 ! A3    A(2,1,7)               88.1006         estimate D2E/DX2                !
 ! A4    A(3,1,4)               95.9628         estimate D2E/DX2                !
 ! A5    A(3,1,5)               91.6437         estimate D2E/DX2                !
 ! A6    A(3,1,7)               89.9525         estimate D2E/DX2                !
 ! A7    A(4,1,5)               87.3451         estimate D2E/DX2                !
 ! A8    A(4,1,7)               96.9161         estimate D2E/DX2                !
 ! A9    A(1,2,15)             100.7243         estimate D2E/DX2                !
 ! A10   A(1,3,17)             101.9924         estimate D2E/DX2                !
 ! A11   A(1,4,16)             102.4725         estimate D2E/DX2                !
 ! A12   A(1,5,11)             114.4714         estimate D2E/DX2                !
 ! A13   A(1,7,14)             101.0968         estimate D2E/DX2                !
 ! A14   A(6,8,9)              112.4288         estimate D2E/DX2                !
 ! A15   A(6,8,10)             112.3134         estimate D2E/DX2                !
 ! A16   A(6,8,11)             108.5059         estimate D2E/DX2                !
 ! A17   A(9,8,10)             106.1341         estimate D2E/DX2                !
 ! A18   A(9,8,11)             109.7798         estimate D2E/DX2                !
 ! A19   A(10,8,11)            107.5506         estimate D2E/DX2                !
 ! A20   A(5,11,8)             108.1996         estimate D2E/DX2                !
 ! A21   A(5,11,12)            112.1557         estimate D2E/DX2                !
 ! A22   A(5,11,13)            111.8301         estimate D2E/DX2                !
 ! A23   A(8,11,12)            108.1026         estimate D2E/DX2                !
 ! A24   A(8,11,13)            109.9918         estimate D2E/DX2                !
 ! A25   A(12,11,13)           106.4958         estimate D2E/DX2                !
 ! A26   L(2,1,3,4,-1)         189.7728         estimate D2E/DX2                !
 ! A27   L(5,1,7,2,-1)         177.6788         estimate D2E/DX2                !
 ! A28   L(2,1,3,4,-2)         179.2232         estimate D2E/DX2                !
 ! A29   L(5,1,7,2,-2)         175.8812         estimate D2E/DX2                !
 ! D1    D(4,1,2,15)           173.6416         estimate D2E/DX2                !
 ! D2    D(5,1,2,15)            86.3306         estimate D2E/DX2                !
 ! D3    D(7,1,2,15)           -89.5505         estimate D2E/DX2                !
 ! D4    D(4,1,3,17)           165.3132         estimate D2E/DX2                !
 ! D5    D(5,1,3,17)          -107.1853         estimate D2E/DX2                !
 ! D6    D(7,1,3,17)            68.3643         estimate D2E/DX2                !
 ! D7    D(2,1,4,16)           -79.3621         estimate D2E/DX2                !
 ! D8    D(3,1,4,16)           101.4147         estimate D2E/DX2                !
 ! D9    D(5,1,4,16)            10.0379         estimate D2E/DX2                !
 ! D10   D(7,1,4,16)          -167.9075         estimate D2E/DX2                !
 ! D11   D(2,1,5,11)           -67.9355         estimate D2E/DX2                !
 ! D12   D(3,1,5,11)           102.3356         estimate D2E/DX2                !
 ! D13   D(4,1,5,11)          -161.7693         estimate D2E/DX2                !
 ! D14   D(2,1,7,14)            -6.3564         estimate D2E/DX2                !
 ! D15   D(3,1,7,14)          -176.7464         estimate D2E/DX2                !
 ! D16   D(4,1,7,14)            87.2527         estimate D2E/DX2                !
 ! D17   D(1,5,11,8)           -35.982          estimate D2E/DX2                !
 ! D18   D(1,5,11,12)           83.1637         estimate D2E/DX2                !
 ! D19   D(1,5,11,13)         -157.2734         estimate D2E/DX2                !
 ! D20   D(6,8,11,5)            43.3383         estimate D2E/DX2                !
 ! D21   D(6,8,11,12)          -78.339          estimate D2E/DX2                !
 ! D22   D(6,8,11,13)          165.7601         estimate D2E/DX2                !
 ! D23   D(9,8,11,5)           166.5638         estimate D2E/DX2                !
 ! D24   D(9,8,11,12)           44.8865         estimate D2E/DX2                !
 ! D25   D(9,8,11,13)          -71.0144         estimate D2E/DX2                !
 ! D26   D(10,8,11,5)          -78.3826         estimate D2E/DX2                !
 ! D27   D(10,8,11,12)         159.9401         estimate D2E/DX2                !
 ! D28   D(10,8,11,13)          44.0392         estimate D2E/DX2                !
 --------------------------------------------------------------------------------
 Trust Radius=3.00D-01 FncErr=1.00D-07 GrdErr=1.00D-06 EigMax=2.50D+02 EigMin=1.00D-04
 Number of steps in this run=     83 maximum allowed number of steps=    102.
 GradGradGradGradGradGradGradGradGradGradGradGradGradGradGradGradGradGrad

                          Input orientation:                          
 ---------------------------------------------------------------------
 Center     Atomic      Atomic             Coordinates (Angstroms)
 Number     Number       Type             X           Y           Z
 ---------------------------------------------------------------------
      1         14           0        0.565327   -0.021882   -0.039244
      2          8           0        0.431524    0.154416    1.777351
      3          8           0        0.503938   -0.423645   -1.758264
      4          8           0        1.769341    1.232141   -0.189064
      5          8           0       -0.723285    1.310439   -0.249626
      6          8           0       -1.052137   -1.213917    0.172185
      7          8           0        1.683177   -1.358208    0.231654
      8          6           0       -2.186140   -0.527923   -0.162447
      9          1           0       -3.087964   -0.907580    0.375266
     10          1           0       -2.420337   -0.601715   -1.251469
     11          6           0       -1.972038    0.958434    0.165969
     12          1           0       -2.102934    1.092817    1.265893
     13          1           0       -2.759785    1.573531   -0.323479
     14          1           0        1.791746   -1.317788    1.180629
     15          1           0       -0.298578   -0.436739    1.960360
     16          1           0        1.243518    2.029484   -0.145775
     17          1           0        0.047319   -1.255931   -1.750134
 ---------------------------------------------------------------------
                    Distance matrix (angstroms):
                    1          2          3          4          5
     1  Si   0.000000
     2  O    1.830028   0.000000
     3  O    1.766412   3.583291   0.000000
     4  O    1.744898   2.611136   2.608689   0.000000
     5  O    1.865438   2.603576   2.605592   2.494591   0.000000
     6  O    2.020356   2.578787   2.602409   3.751591   2.580396
     7  O    1.763162   2.498769   2.494752   2.625707   3.625516
     8  C    2.800326   3.328749   3.129541   4.329476   2.350983
     9  H    3.781906   3.934523   4.205699   5.337629   3.301788
    10  H    3.274124   4.228309   2.973203   4.695225   2.745907
    11  C    2.727884   3.003349   3.426846   3.768140   1.362355
    12  H    3.172626   2.750575   4.270944   4.138940   2.060968
    13  H    3.698987   4.075761   4.086466   4.543963   2.054752
    14  H    2.161381   2.091331   3.330921   2.894598   3.908783
    15  H    2.217398   0.957082   3.804257   3.417817   2.849043
    16  H    2.163191   2.805999   3.027365   0.956096   2.096694
    17  H    2.172177   3.818356   0.949351   3.404820   3.071093
                    6          7          8          9         10
     6  O    0.000000
     7  O    2.739763   0.000000
     8  C    1.366942   3.976972   0.000000
     9  H    2.068738   4.794526   1.116495   0.000000
    10  H    2.067257   4.428404   1.116361   1.784810   0.000000
    11  C    2.359103   4.328018   1.537190   2.184286   2.155033
    12  H    2.760687   4.627290   2.161915   2.401060   3.051114
    13  H    3.306299   5.351932   2.184287   2.598434   2.389160
    14  H    3.019175   0.956020   4.272156   4.962706   4.916249
    15  H    2.090317   2.786554   2.842097   3.242667   3.852911
    16  H    3.986324   3.436890   4.278220   5.259236   4.644308
    17  H    2.214922   2.571765   2.835328   3.803771   2.601152
                   11         12         13         14         15
    11  C    0.000000
    12  H    1.115807   0.000000
    13  H    1.112856   1.785677   0.000000
    14  H    4.514066   4.581137   5.598080   0.000000
    15  H    2.822555   2.465264   3.913393   2.398683   0.000000
    16  H    3.403547   3.750852   4.033101   3.641996   3.591117
    17  H    3.557059   4.385958   4.233324   3.411191   3.815558
                   16         17
    16  H    0.000000
    17  H    3.846922   0.000000
 Stoichiometry    C2H8O6Si(2-)
 Framework group  C1[X(C2H8O6Si)]
 Deg. of freedom    45
 Full point group                 C1      NOp   1
 Largest Abelian subgroup         C1      NOp   1
 Largest concise Abelian subgroup C1      NOp   1
                         Standard orientation:                         
 ---------------------------------------------------------------------
 Center     Atomic      Atomic             Coordinates (Angstroms)
 Number     Number       Type             X           Y           Z
 ---------------------------------------------------------------------
      1         14           0        0.610317    0.014757   -0.054800
      2          8           0        0.475616    0.497091    1.705374
      3          8           0        0.568311   -0.686234   -1.675620
      4          8           0        1.713802    1.308726   -0.445481
      5          8           0       -0.777856    1.190093   -0.468830
      6          8           0       -0.909727   -1.238198    0.393986
      7          8           0        1.828945   -1.166541    0.422925
      8          6           0       -2.095122   -0.707692   -0.032548
      9          1           0       -2.961617   -1.052778    0.581181
     10          1           0       -2.330293   -0.988850   -1.087018
     11          6           0       -1.993191    0.824966    0.026805
     12          1           0       -2.126599    1.140444    1.088738
     13          1           0       -2.828968    1.284353   -0.546686
     14          1           0        1.940472   -0.952067    1.347877
     15          1           0       -0.205861   -0.105201    2.003432
     16          1           0        1.128807    2.060045   -0.531620
     17          1           0        0.176787   -1.535677   -1.513073
 ---------------------------------------------------------------------
 Rotational constants (GHZ):           2.0239631           1.2967082           1.2344002
 Standard basis: def2TZVPP (5D, 7F)
 There are   456 symmetry adapted cartesian basis functions of A   symmetry.
 There are   402 symmetry adapted basis functions of A   symmetry.
   402 basis functions,   613 primitive gaussians,   456 cartesian basis functions
    42 alpha electrons       42 beta electrons
       nuclear repulsion energy       667.7880855490 Hartrees.
 NAtoms=   17 NActive=   17 NUniq=   17 SFac= 1.00D+00 NAtFMM=   60 NAOKFM=F Big=F
 Integral buffers will be    131072 words long.
 Raffenetti 2 integral format.
 Two-electron integral symmetry is turned on.
 Nuclear repulsion after empirical dispersion term =      667.7789964510 Hartrees.
 One-electron integrals computed using PRISM.
   1 Symmetry operations used in ECPInt.
 ECPInt:  NShTT=   11325 NPrTT=   31861 LenC2=   11022 LenP2D=   24557.
 LDataN:  DoStor=T MaxTD1= 6 Len=  172
 NBasis=   402 RedAO= T EigKep=  2.86D-04  NBF=   402
 NBsUse=   402 1.00D-06 EigRej= -1.00D+00 NBFU=   402
 ExpMin= 7.01D-02 ExpMax= 4.48D+04 ExpMxC= 1.53D+03 IAcc=3 IRadAn=         5 AccDes= 0.00D+00
 Harris functional with IExCor= 4639 and IRadAn=       5 diagonalized for initial guess.
 HarFok:  IExCor= 4639 AccDes= 0.00D+00 IRadAn=         5 IDoV= 1 UseB2=F ITyADJ=14
 ICtDFT=  3500011 ScaDFX=  1.000000  1.000000  1.000000  1.000000
 FoFCou: FMM=F IPFlag=           0 FMFlag=      100000 FMFlg1=           0
         NFxFlg=           0 DoJE=T BraDBF=F KetDBF=T FulRan=T
         wScrn=  0.000000 ICntrl=       500 IOpCl=  0 I1Cent=   200000004 NGrid=           0
         NMat0=    1 NMatS0=      1 NMatT0=    0 NMatD0=    1 NMtDS0=    0 NMtDT0=    0
 Petite list used in FoFCou.
 Requested convergence on RMS density matrix=1.00D-08 within 128 cycles.
 Requested convergence on MAX density matrix=1.00D-06.
 Requested convergence on             energy=1.00D-06.
 No special actions if energy rises.
 Integral accuracy reduced to 1.0D-05 until final iterations.
 Initial convergence to 1.0D-05 achieved.  Increase integral accuracy.
 SCF Done:  E(RwB97XD) =  -822.056698304     A.U. after   15 cycles
            NFock= 15  Conv=0.69D-08     -V/T= 2.0033

 **********************************************************************

            Population analysis using the SCF Density.

 **********************************************************************

 Orbital symmetries:
       Occupied  (A) (A) (A) (A) (A) (A) (A) (A) (A) (A) (A) (A)
                 (A) (A) (A) (A) (A) (A) (A) (A) (A) (A) (A) (A)
                 (A) (A) (A) (A) (A) (A) (A) (A) (A) (A) (A) (A)
                 (A) (A) (A) (A) (A) (A)
       Virtual   (A) (A) (A) (A) (A) (A) (A) (A) (A) (A) (A) (A)
                 (A) (A) (A) (A) (A) (A) (A) (A) (A) (A) (A) (A)
                 (A) (A) (A) (A) (A) (A) (A) (A) (A) (A) (A) (A)
                 (A) (A) (A) (A) (A) (A) (A) (A) (A) (A) (A) (A)
                 (A) (A) (A) (A) (A) (A) (A) (A) (A) (A) (A) (A)
                 (A) (A) (A) (A) (A) (A) (A) (A) (A) (A) (A) (A)
                 (A) (A) (A) (A) (A) (A) (A) (A) (A) (A) (A) (A)
                 (A) (A) (A) (A) (A) (A) (A) (A) (A) (A) (A) (A)
                 (A) (A) (A) (A) (A) (A) (A) (A) (A) (A) (A) (A)
                 (A) (A) (A) (A) (A) (A) (A) (A) (A) (A) (A) (A)
                 (A) (A) (A) (A) (A) (A) (A) (A) (A) (A) (A) (A)
                 (A) (A) (A) (A) (A) (A) (A) (A) (A) (A) (A) (A)
                 (A) (A) (A) (A) (A) (A) (A) (A) (A) (A) (A) (A)
                 (A) (A) (A) (A) (A) (A) (A) (A) (A) (A) (A) (A)
                 (A) (A) (A) (A) (A) (A) (A) (A) (A) (A) (A) (A)
                 (A) (A) (A) (A) (A) (A) (A) (A) (A) (A) (A) (A)
                 (A) (A) (A) (A) (A) (A) (A) (A) (A) (A) (A) (A)
                 (A) (A) (A) (A) (A) (A) (A) (A) (A) (A) (A) (A)
                 (A) (A) (A) (A) (A) (A) (A) (A) (A) (A) (A) (A)
                 (A) (A) (A) (A) (A) (A) (A) (A) (A) (A) (A) (A)
                 (A) (A) (A) (A) (A) (A) (A) (A) (A) (A) (A) (A)
                 (A) (A) (A) (A) (A) (A) (A) (A) (A) (A) (A) (A)
                 (A) (A) (A) (A) (A) (A) (A) (A) (A) (A) (A) (A)
                 (A) (A) (A) (A) (A) (A) (A) (A) (A) (A) (A) (A)
                 (A) (A) (A) (A) (A) (A) (A) (A) (A) (A) (A) (A)
                 (A) (A) (A) (A) (A) (A) (A) (A) (A) (A) (A) (A)
                 (A) (A) (A) (A) (A) (A) (A) (A) (A) (A) (A) (A)
                 (A) (A) (A) (A) (A) (A) (A) (A) (A) (A) (A) (A)
                 (A) (A) (A) (A) (A) (A) (A) (A) (A) (A) (A) (A)
                 (A) (A) (A) (A) (A) (A) (A) (A) (A) (A) (A) (A)
 The electronic state is 1-A.
 Alpha  occ. eigenvalues --  -65.95014 -18.86635 -18.86388 -18.85531 -18.85098
 Alpha  occ. eigenvalues --  -18.85079 -18.84594 -10.01019 -10.00990  -5.05460
 Alpha  occ. eigenvalues --   -3.40103  -3.40005  -3.39937  -0.77540  -0.72510
 Alpha  occ. eigenvalues --   -0.72168  -0.69929  -0.69497  -0.67918  -0.48211
 Alpha  occ. eigenvalues --   -0.36234  -0.27010  -0.25084  -0.23382  -0.21266
 Alpha  occ. eigenvalues --   -0.20233  -0.19206  -0.17109  -0.15861  -0.14401
 Alpha  occ. eigenvalues --   -0.10277  -0.08828  -0.07297  -0.06446  -0.03810
 Alpha  occ. eigenvalues --   -0.02697  -0.02280  -0.01388  -0.01204  -0.00094
 Alpha  occ. eigenvalues --    0.01178   0.02212
 Alpha virt. eigenvalues --    0.38230   0.41555   0.42072   0.42728   0.45915
 Alpha virt. eigenvalues --    0.46683   0.48519   0.48943   0.51297   0.53992
 Alpha virt. eigenvalues --    0.55075   0.55428   0.57051   0.58471   0.59752
 Alpha virt. eigenvalues --    0.60638   0.68414   0.68965   0.70621   0.70977
 Alpha virt. eigenvalues --    0.73896   0.74261   0.74785   0.75577   0.76629
 Alpha virt. eigenvalues --    0.77059   0.77621   0.77748   0.79161   0.79982
 Alpha virt. eigenvalues --    0.80863   0.81838   0.82711   0.83382   0.85523
 Alpha virt. eigenvalues --    0.86144   0.86677   0.87880   0.88812   0.91237
 Alpha virt. eigenvalues --    0.92534   0.92986   0.94781   0.95514   0.96884
 Alpha virt. eigenvalues --    0.97671   1.00656   1.01870   1.02755   1.04102
 Alpha virt. eigenvalues --    1.07454   1.08847   1.09768   1.10199   1.10901
 Alpha virt. eigenvalues --    1.13242   1.15760   1.16356   1.16609   1.18956
 Alpha virt. eigenvalues --    1.19580   1.20548   1.21914   1.23790   1.25465
 Alpha virt. eigenvalues --    1.27960   1.28640   1.30444   1.32224   1.34629
 Alpha virt. eigenvalues --    1.35517   1.37369   1.37803   1.39874   1.41794
 Alpha virt. eigenvalues --    1.42493   1.44011   1.45835   1.46921   1.49322
 Alpha virt. eigenvalues --    1.50766   1.51899   1.52615   1.55758   1.56286
 Alpha virt. eigenvalues --    1.58380   1.58637   1.61794   1.62763   1.64066
 Alpha virt. eigenvalues --    1.67885   1.68221   1.69866   1.70549   1.72003
 Alpha virt. eigenvalues --    1.73789   1.74420   1.75952   1.77631   1.78604
 Alpha virt. eigenvalues --    1.80238   1.82014   1.85515   1.87383   1.90070
 Alpha virt. eigenvalues --    1.91115   1.92405   1.94312   1.95512   1.99013
 Alpha virt. eigenvalues --    2.03230   2.06230   2.15004   2.16512   2.18023
 Alpha virt. eigenvalues --    2.21212   2.21704   2.27044   2.28343   2.29961
 Alpha virt. eigenvalues --    2.33035   2.34277   2.35631   2.37052   2.38118
 Alpha virt. eigenvalues --    2.39887   2.40617   2.40837   2.43805   2.45040
 Alpha virt. eigenvalues --    2.47745   2.48827   2.49815   2.52792   2.53682
 Alpha virt. eigenvalues --    2.54803   2.56505   2.57241   2.60070   2.64209
 Alpha virt. eigenvalues --    2.66868   2.69508   2.71540   2.72059   2.74892
 Alpha virt. eigenvalues --    2.79298   2.80456   2.81462   2.83971   2.87005
 Alpha virt. eigenvalues --    2.93001   2.94470   2.99477   3.01542   3.01693
 Alpha virt. eigenvalues --    3.04603   3.05673   3.06304   3.15766   3.18204
 Alpha virt. eigenvalues --    3.20601   3.21142   3.23175   3.23993   3.27709
 Alpha virt. eigenvalues --    3.28399   3.31447   3.32916   3.34709   3.36828
 Alpha virt. eigenvalues --    3.38658   3.41572   3.44515   3.46711   3.48142
 Alpha virt. eigenvalues --    3.48277   3.49117   3.50730   3.51340   3.53436
 Alpha virt. eigenvalues --    3.55180   3.60280   3.62504   3.63880   3.67633
 Alpha virt. eigenvalues --    3.70412   3.70515   3.71960   3.74804   3.76347
 Alpha virt. eigenvalues --    3.77606   3.79056   3.80170   3.81166   3.82874
 Alpha virt. eigenvalues --    3.84040   3.84713   3.86957   3.89204   3.91476
 Alpha virt. eigenvalues --    3.93300   3.94444   3.96322   3.97935   4.00427
 Alpha virt. eigenvalues --    4.01920   4.07233   4.08900   4.10760   4.11550
 Alpha virt. eigenvalues --    4.12521   4.14972   4.16545   4.17480   4.21293
 Alpha virt. eigenvalues --    4.24752   4.27158   4.32867   4.34066   4.35349
 Alpha virt. eigenvalues --    4.36659   4.37871   4.39116   4.41707   4.43937
 Alpha virt. eigenvalues --    4.44788   4.47248   4.48438   4.50053   4.51959
 Alpha virt. eigenvalues --    4.54306   4.55164   4.57648   4.58392   4.60594
 Alpha virt. eigenvalues --    4.62683   4.62981   4.65118   4.66208   4.68021
 Alpha virt. eigenvalues --    4.69683   4.72685   4.72795   4.74690   4.75317
 Alpha virt. eigenvalues --    4.76342   4.80227   4.86614   4.88631   4.95265
 Alpha virt. eigenvalues --    4.96358   5.00003   5.01634   5.02595   5.09630
 Alpha virt. eigenvalues --    5.11428   5.18459   5.20922   5.24161   5.28125
 Alpha virt. eigenvalues --    5.29451   5.30611   5.36484   5.38106   5.40103
 Alpha virt. eigenvalues --    5.40841   5.43398   5.46696   5.48576   5.53843
 Alpha virt. eigenvalues --    5.55224   5.62123   5.64135   5.66823   5.68339
 Alpha virt. eigenvalues --    5.71167   5.72954   5.74977   5.77116   5.80277
 Alpha virt. eigenvalues --    5.83410   5.85557   5.85980   5.87373   5.89658
 Alpha virt. eigenvalues --    5.91832   5.92308   5.94457   5.95362   5.96109
 Alpha virt. eigenvalues --    5.98818   6.00852   6.02986   6.04643   6.05436
 Alpha virt. eigenvalues --    6.11239   6.14643   6.15369   6.30392   6.39223
 Alpha virt. eigenvalues --    6.44176   6.51087   6.56500   6.57434   6.65577
 Alpha virt. eigenvalues --    6.67352   6.88351   6.89115   6.92536   6.92951
 Alpha virt. eigenvalues --    6.93742   6.96102   6.99852   7.01035   7.01949
 Alpha virt. eigenvalues --    7.03723   7.04120   7.06356   7.07746   7.10351
 Alpha virt. eigenvalues --    7.12661   7.14241   7.14768   7.15832   7.16860
 Alpha virt. eigenvalues --    7.17983   7.20695   7.22253   7.22661   7.25657
 Alpha virt. eigenvalues --    7.28089   7.29901   7.32771   7.37806   7.43649
 Alpha virt. eigenvalues --    7.47407   7.51584   7.57489   7.61088   7.62254
 Alpha virt. eigenvalues --    7.63680   7.67016   7.70229   7.79835   7.84796
 Alpha virt. eigenvalues --    7.86106   7.88787   7.96530   8.00984   8.03152
 Alpha virt. eigenvalues --    8.11031  11.95632  23.71204  23.83978  44.20447
 Alpha virt. eigenvalues --   44.23868  44.39762  44.42479  44.61290  44.69209
          Condensed to atoms (all electrons):
               1          2          3          4          5          6
     1  Si  11.531454   0.265345   0.339025   0.413330   0.232965   0.178153
     2  O    0.265345   8.240610   0.004911  -0.052513  -0.056891  -0.056819
     3  O    0.339025   0.004911   8.123838  -0.052642  -0.045463  -0.063361
     4  O    0.413330  -0.052513  -0.052642   8.090005  -0.080622   0.003160
     5  O    0.232965  -0.056891  -0.045463  -0.080622   8.304761  -0.016054
     6  O    0.178153  -0.056819  -0.063361   0.003160  -0.016054   8.418250
     7  O    0.403123  -0.096156  -0.082431  -0.060755   0.004951  -0.039255
     8  C   -0.065238   0.003180   0.034823  -0.004456  -0.139606   0.375878
     9  H    0.000153  -0.000198  -0.000532   0.000056   0.010069  -0.047316
    10  H    0.008598  -0.001399   0.013642  -0.000124   0.018550  -0.079613
    11  C   -0.046460   0.020922  -0.015192   0.004649   0.387121  -0.143795
    12  H    0.007042   0.017336  -0.001185   0.000657  -0.077091   0.015049
    13  H   -0.001008   0.000487  -0.000248  -0.000431  -0.042030   0.010363
    14  H   -0.066321   0.035482   0.006217   0.002116   0.000227   0.003940
    15  H   -0.055720   0.289865  -0.000561   0.003813   0.007346   0.030005
    16  H   -0.057497   0.004606   0.004184   0.294407   0.016628  -0.000963
    17  H   -0.054770  -0.001024   0.298762   0.003665   0.004261   0.020863
               7          8          9         10         11         12
     1  Si   0.403123  -0.065238   0.000153   0.008598  -0.046460   0.007042
     2  O   -0.096156   0.003180  -0.000198  -0.001399   0.020922   0.017336
     3  O   -0.082431   0.034823  -0.000532   0.013642  -0.015192  -0.001185
     4  O   -0.060755  -0.004456   0.000056  -0.000124   0.004649   0.000657
     5  O    0.004951  -0.139606   0.010069   0.018550   0.387121  -0.077091
     6  O   -0.039255   0.375878  -0.047316  -0.079613  -0.143795   0.015049
     7  O    8.140714   0.000442  -0.000115   0.000304  -0.004000   0.000363
     8  C    0.000442   4.946084   0.251279   0.350626   0.243078  -0.121080
     9  H   -0.000115   0.251279   0.996397  -0.119602  -0.016078  -0.010129
    10  H    0.000304   0.350626  -0.119602   0.990077  -0.127108   0.029581
    11  C   -0.004000   0.243078  -0.016078  -0.127108   4.985247   0.334559
    12  H    0.000363  -0.121080  -0.010129   0.029581   0.334559   0.981244
    13  H    0.000053   0.001381   0.014935  -0.014818   0.248308  -0.114329
    14  H    0.288172   0.000192   0.000040   0.000028  -0.001113  -0.000130
    15  H    0.006276   0.001472  -0.003020   0.002841  -0.017652   0.007491
    16  H    0.002255   0.001312  -0.000129  -0.000185   0.002878  -0.000999
    17  H    0.001011  -0.004723   0.000943  -0.007173   0.005409  -0.000158
              13         14         15         16         17
     1  Si  -0.001008  -0.066321  -0.055720  -0.057497  -0.054770
     2  O    0.000487   0.035482   0.289865   0.004606  -0.001024
     3  O   -0.000248   0.006217  -0.000561   0.004184   0.298762
     4  O   -0.000431   0.002116   0.003813   0.294407   0.003665
     5  O   -0.042030   0.000227   0.007346   0.016628   0.004261
     6  O    0.010363   0.003940   0.030005  -0.000963   0.020863
     7  O    0.000053   0.288172   0.006276   0.002255   0.001011
     8  C    0.001381   0.000192   0.001472   0.001312  -0.004723
     9  H    0.014935   0.000040  -0.003020  -0.000129   0.000943
    10  H   -0.014818   0.000028   0.002841  -0.000185  -0.007173
    11  C    0.248308  -0.001113  -0.017652   0.002878   0.005409
    12  H   -0.114329  -0.000130   0.007491  -0.000999  -0.000158
    13  H    0.967100  -0.000016   0.000444  -0.000800  -0.000055
    14  H   -0.000016   0.619593   0.002574  -0.000778  -0.001136
    15  H    0.000444   0.002574   0.601857  -0.000802  -0.000826
    16  H   -0.000800  -0.000778  -0.000802   0.609839  -0.000549
    17  H   -0.000055  -0.001136  -0.000826  -0.000549   0.603076
 Mulliken charges:
               1
     1  Si   0.967826
     2  O   -0.617744
     3  O   -0.563784
     4  O   -0.564316
     5  O   -0.529121
     6  O   -0.608486
     7  O   -0.564949
     8  C    0.125355
     9  H   -0.076753
    10  H   -0.064225
    11  C    0.139227
    12  H   -0.068222
    13  H   -0.069335
    14  H    0.110913
    15  H    0.124596
    16  H    0.126592
    17  H    0.132425
 Sum of Mulliken charges =  -2.00000
 Mulliken charges with hydrogens summed into heavy atoms:
               1
     1  Si   0.967826
     2  O   -0.493148
     3  O   -0.431359
     4  O   -0.437723
     5  O   -0.529121
     6  O   -0.608486
     7  O   -0.454036
     8  C   -0.015623
    11  C    0.001670
 Electronic spatial extent (au):  <R**2>=           1223.8129
 Charge=             -2.0000 electrons
 Dipole moment (field-independent basis, Debye):
    X=             -4.1227    Y=              0.0543    Z=              1.1271  Tot=              4.2743
 Quadrupole moment (field-independent basis, Debye-Ang):
   XX=            -92.2601   YY=            -79.7942   ZZ=            -80.4977
   XY=              0.0977   XZ=              2.1908   YZ=             -1.1829
 Traceless Quadrupole moment (field-independent basis, Debye-Ang):
   XX=             -8.0761   YY=              4.3898   ZZ=              3.6863
   XY=              0.0977   XZ=              2.1908   YZ=             -1.1829
 Octapole moment (field-independent basis, Debye-Ang**2):
  XXX=              8.4619  YYY=              7.4557  ZZZ=              8.1800  XYY=              2.9318
  XXY=              0.8808  XXZ=              6.1186  XZZ=             -1.7846  YZZ=             -7.1731
  YYZ=             -6.7303  XYZ=             -3.7094
 Hexadecapole moment (field-independent basis, Debye-Ang**3):
 XXXX=          -1013.7074 YYYY=           -429.9027 ZZZZ=           -420.6574 XXXY=             -5.2319
 XXXZ=             15.7825 YYYX=             10.3782 YYYZ=              7.6665 ZZZX=              4.5367
 ZZZY=            -25.8361 XXYY=           -264.8500 XXZZ=           -215.0146 YYZZ=           -136.3108
 XXYZ=              1.2186 YYXZ=              1.5473 ZZXY=             -3.4541
 N-N= 6.677789964510D+02 E-N=-3.313780544803D+03  KE= 8.193439081203D+02
   1 Symmetry operations used in ECPInt.
 ECPInt:  NShTT=   11325 NPrTT=   31861 LenC2=   11022 LenP2D=   24557.
 LDataN:  DoStor=T MaxTD1= 7 Len=  274
 Calling FoFJK, ICntrl=      2127 FMM=F ISym2X=0 I1Cent= 0 IOpClX= 0 NMat=1 NMatS=1 NMatT=0.
 ***** Axes restored to original set *****
 -------------------------------------------------------------------
 Center     Atomic                   Forces (Hartrees/Bohr)
 Number     Number              X              Y              Z
 -------------------------------------------------------------------
      1       14          -0.001767941   -0.001320414   -0.000141202
      2        8           0.000553107    0.001033644    0.000889202
      3        8           0.003016151    0.006926738   -0.000353186
      4        8          -0.000936173   -0.000528661    0.000242204
      5        8          -0.000811786    0.000637331    0.000223410
      6        8           0.002712568    0.001523620   -0.000121546
      7        8          -0.001344325   -0.001106631    0.000123071
      8        6           0.001161554   -0.000603791    0.000050895
      9        1           0.000096709    0.000183448   -0.000133418
     10        1          -0.000033937    0.000029080    0.000072309
     11        6          -0.000445513   -0.000200343   -0.000409011
     12        1           0.000011513   -0.000003039   -0.000040483
     13        1           0.000086893   -0.000012851    0.000033003
     14        1           0.000026887   -0.000018307   -0.000007990
     15        1           0.000277953    0.000232009   -0.000190015
     16        1           0.000355910   -0.000496396    0.000051764
     17        1          -0.002959571   -0.006275437   -0.000289005
 -------------------------------------------------------------------
 Cartesian Forces:  Max     0.006926738 RMS     0.001598377

 GradGradGradGradGradGradGradGradGradGradGradGradGradGradGradGradGradGrad
 Berny optimization.
 FormGI is forming the generalized inverse of G from B-inverse, IUseBI=4.
 Internal  Forces:  Max     0.016164391 RMS     0.002801872
 Search for a local minimum.
 Step number   1 out of a maximum of   83
 All quantities printed in internal units (Hartrees-Bohrs-Radians)
 Mixed Optimization -- RFO/linear search
 Second derivative matrix not updated -- first step.
 ITU=  0
     Eigenvalues ---    0.00274   0.00828   0.01296   0.02138   0.02181
     Eigenvalues ---    0.02190   0.02422   0.05306   0.05744   0.06050
     Eigenvalues ---    0.06285   0.06389   0.06636   0.11122   0.11244
     Eigenvalues ---    0.11266   0.13753   0.15458   0.15935   0.16000
     Eigenvalues ---    0.16000   0.16000   0.16000   0.16000   0.16000
     Eigenvalues ---    0.20510   0.21572   0.21940   0.22457   0.23887
     Eigenvalues ---    0.25000   0.28769   0.28952   0.29248   0.30987
     Eigenvalues ---    0.31922   0.31936   0.31993   0.32299   0.51569
     Eigenvalues ---    0.52474   0.56106   0.56322   0.56338   0.57828
 RFO step:  Lambda=-3.16619276D-03 EMin= 2.73991807D-03
 Linear search not attempted -- first point.
 Iteration  1 RMS(Cart)=  0.12483764 RMS(Int)=  0.00435245
 Iteration  2 RMS(Cart)=  0.00580577 RMS(Int)=  0.00016593
 Iteration  3 RMS(Cart)=  0.00001434 RMS(Int)=  0.00016566
 Iteration  4 RMS(Cart)=  0.00000000 RMS(Int)=  0.00016566
 Variable       Old X    -DE/DX   Delta X   Delta X   Delta X     New X
                                 (Linear)    (Quad)   (Total)
    R1        3.45825   0.00075   0.00000   0.00311   0.00311   3.46137
    R2        3.33804   0.00048   0.00000   0.00163   0.00163   3.33966
    R3        3.29738  -0.00116   0.00000  -0.00371  -0.00371   3.29367
    R4        3.52517  -0.00078   0.00000  -0.00356  -0.00356   3.52161
    R5        3.33189   0.00004   0.00000   0.00012   0.00012   3.33201
    R6        1.80862  -0.00039   0.00000  -0.00068  -0.00068   1.80794
    R7        1.79401   0.00691   0.00000   0.01189   0.01189   1.80590
    R8        1.80676  -0.00060   0.00000  -0.00107  -0.00107   1.80569
    R9        2.57448  -0.00369   0.00000  -0.00700  -0.00700   2.56748
   R10        2.58315   0.00146   0.00000   0.00281   0.00281   2.58595
   R11        1.80662  -0.00001   0.00000  -0.00002  -0.00002   1.80660
   R12        2.10987  -0.00021   0.00000  -0.00064  -0.00064   2.10923
   R13        2.10962  -0.00006   0.00000  -0.00019  -0.00019   2.10943
   R14        2.90487  -0.00161   0.00000  -0.00554  -0.00554   2.89933
   R15        2.10857  -0.00004   0.00000  -0.00012  -0.00012   2.10845
   R16        2.10299  -0.00008   0.00000  -0.00026  -0.00026   2.10273
    A1        1.63729  -0.00106   0.00000  -0.01325  -0.01325   1.62404
    A2        1.56344  -0.00001   0.00000  -0.00086  -0.00072   1.56271
    A3        1.53764   0.00019   0.00000   0.00140   0.00151   1.53916
    A4        1.67487  -0.00045   0.00000  -0.00885  -0.00884   1.66603
    A5        1.59948  -0.00076   0.00000  -0.00569  -0.00542   1.59406
    A6        1.56997   0.00029   0.00000   0.00089   0.00113   1.57110
    A7        1.52446   0.00149   0.00000   0.01897   0.01897   1.54343
    A8        1.69150   0.00091   0.00000   0.01590   0.01591   1.70742
    A9        1.75797  -0.00022   0.00000  -0.00132  -0.00132   1.75665
   A10        1.78010   0.00069   0.00000   0.00424   0.00424   1.78435
   A11        1.78848   0.00003   0.00000   0.00017   0.00017   1.78865
   A12        1.99790  -0.01616   0.00000  -0.06385  -0.06385   1.93405
   A13        1.76447   0.00006   0.00000   0.00037   0.00037   1.76484
   A14        1.96225   0.00216   0.00000   0.01317   0.01321   1.97547
   A15        1.96024   0.00108   0.00000  -0.00250  -0.00262   1.95762
   A16        1.89379  -0.00457   0.00000  -0.02091  -0.02095   1.87284
   A17        1.85239   0.00002   0.00000   0.00349   0.00347   1.85586
   A18        1.91602   0.00092   0.00000   0.00709   0.00710   1.92312
   A19        1.87711   0.00049   0.00000   0.00007   0.00001   1.87712
   A20        1.88844  -0.01098   0.00000  -0.05295  -0.05313   1.83531
   A21        1.95749   0.00286   0.00000  -0.00111  -0.00192   1.95556
   A22        1.95180   0.00386   0.00000   0.02373   0.02408   1.97589
   A23        1.88675   0.00150   0.00000  -0.00318  -0.00375   1.88300
   A24        1.91972   0.00411   0.00000   0.02648   0.02670   1.94642
   A25        1.85870  -0.00102   0.00000   0.00838   0.00823   1.86693
   A26        3.31216  -0.00151   0.00000  -0.02211  -0.02209   3.29007
   A27        3.10108   0.00018   0.00000   0.00054   0.00079   3.10187
   A28        3.12803   0.00045   0.00000   0.00234   0.00235   3.13038
   A29        3.06971  -0.00246   0.00000  -0.03546  -0.03546   3.03424
    D1        3.03062   0.00018   0.00000   0.00036   0.00036   3.03098
    D2        1.50675  -0.00133   0.00000  -0.01874  -0.01874   1.48801
    D3       -1.56295   0.00113   0.00000   0.01672   0.01672  -1.54623
    D4        2.88526  -0.00039   0.00000  -0.01012  -0.01013   2.87513
    D5       -1.87074   0.00102   0.00000   0.00816   0.00820  -1.86253
    D6        1.19318  -0.00133   0.00000  -0.02610  -0.02613   1.16705
    D7       -1.38513   0.00015   0.00000   0.00200   0.00200  -1.38313
    D8        1.77002  -0.00030   0.00000  -0.00034  -0.00034   1.76968
    D9        0.17519   0.00029   0.00000   0.00303   0.00292   0.17811
   D10       -2.93054   0.00003   0.00000   0.00116   0.00127  -2.92927
   D11       -1.18570  -0.00127   0.00000  -0.04926  -0.04928  -1.23498
   D12        1.78609   0.00018   0.00000  -0.02767  -0.02763   1.75847
   D13       -2.82341  -0.00020   0.00000  -0.03583  -0.03586  -2.85927
   D14       -0.11094   0.00084   0.00000   0.01171   0.01168  -0.09926
   D15       -3.08481  -0.00063   0.00000  -0.01050  -0.01046  -3.09526
   D16        1.52285  -0.00022   0.00000  -0.00188  -0.00189   1.52095
   D17       -0.62800   0.00293   0.00000   0.08415   0.08386  -0.54414
   D18        1.45148  -0.00063   0.00000   0.04516   0.04531   1.49679
   D19       -2.74494   0.00273   0.00000   0.07163   0.07177  -2.67317
   D20        0.75640  -0.00160   0.00000  -0.08226  -0.08193   0.67446
   D21       -1.36727   0.00052   0.00000  -0.04797  -0.04809  -1.41537
   D22        2.89306  -0.00133   0.00000  -0.07048  -0.07055   2.82251
   D23        2.90709  -0.00131   0.00000  -0.07503  -0.07476   2.83233
   D24        0.78342   0.00081   0.00000  -0.04073  -0.04092   0.74250
   D25       -1.23944  -0.00103   0.00000  -0.06324  -0.06338  -1.30281
   D26       -1.36803  -0.00054   0.00000  -0.06719  -0.06694  -1.43497
   D27        2.79148   0.00158   0.00000  -0.03290  -0.03310   2.75838
   D28        0.76863  -0.00026   0.00000  -0.05541  -0.05556   0.71307
         Item               Value     Threshold  Converged?
 Maximum Force            0.016164     0.000450     NO 
 RMS     Force            0.002802     0.000300     NO 
 Maximum Displacement     0.472024     0.001800     NO 
 RMS     Displacement     0.125738     0.001200     NO 
 Predicted change in Energy=-1.682713D-03
 GradGradGradGradGradGradGradGradGradGradGradGradGradGradGradGradGradGrad

                          Input orientation:                          
 ---------------------------------------------------------------------
 Center     Atomic      Atomic             Coordinates (Angstroms)
 Number     Number       Type             X           Y           Z
 ---------------------------------------------------------------------
      1         14           0        0.496504   -0.009788   -0.040177
      2          8           0        0.394850    0.182269    1.778564
      3          8           0        0.416881   -0.386516   -1.764993
      4          8           0        1.767288    1.173936   -0.187574
      5          8           0       -0.741122    1.369081   -0.239789
      6          8           0       -0.802353   -1.053890    0.147262
      7          8           0        1.515480   -1.424614    0.222355
      8          6           0       -2.032169   -0.532196   -0.149348
      9          1           0       -2.862484   -1.012282    0.421527
     10          1           0       -2.287960   -0.645033   -1.230031
     11          6           0       -1.977136    0.969815    0.158695
     12          1           0       -2.125531    1.100105    1.256823
     13          1           0       -2.800484    1.520844   -0.347871
     14          1           0        1.628668   -1.396767    1.171234
     15          1           0       -0.365528   -0.365224    1.971926
     16          1           0        1.287843    1.998962   -0.137514
     17          1           0       -0.080056   -1.202769   -1.771285
 ---------------------------------------------------------------------
                    Distance matrix (angstroms):
                    1          2          3          4          5
     1  Si   0.000000
     2  O    1.831676   0.000000
     3  O    1.767274   3.588983   0.000000
     4  O    1.742935   2.594742   2.597472   0.000000
     5  O    1.863557   2.602442   2.597950   2.516531   0.000000
     6  O    1.676994   2.371187   2.364031   3.417364   2.454455
     7  O    1.763226   2.501933   2.496822   2.642709   3.620851
     8  C    2.584379   3.180837   2.937581   4.165120   2.299965
     9  H    3.535670   3.725416   3.990826   5.156097   3.257055
    10  H    3.093950   4.115037   2.769329   4.565128   2.725791
    11  C    2.667971   2.978342   3.357310   3.765937   1.358651
    12  H    3.128760   2.732573   4.219630   4.152803   2.056401
    13  H    3.647964   4.064931   3.999712   4.583729   2.067773
    14  H    2.161717   2.093923   3.333236   2.911029   3.905996
    15  H    2.217654   0.956719   3.818008   3.403139   2.835590
    16  H    2.161197   2.787322   3.016251   0.955532   2.126949
    17  H    2.179991   3.839960   0.955643   3.401403   3.065436
                    6          7          8          9         10
     6  O    0.000000
     7  O    2.348494   0.000000
     8  C    1.368426   3.677008   0.000000
     9  H    2.078724   4.401847   1.116155   0.000000
    10  H    2.066671   4.145277   1.116260   1.786783   0.000000
    11  C    2.340006   4.235057   1.534261   2.186693   2.152418
    12  H    2.760728   4.549867   2.156488   2.388094   3.042421
    13  H    3.296505   5.256275   2.201067   2.648121   2.394140
    14  H    2.660065   0.956012   3.986621   4.569501   4.655228
    15  H    1.998618   2.778758   2.702846   3.009520   3.745205
    16  H    3.710785   3.449956   4.174852   5.158036   4.579374
    17  H    2.055408   2.563113   2.625089   3.547762   2.340697
                   11         12         13         14         15
    11  C    0.000000
    12  H    1.115743   0.000000
    13  H    1.112719   1.790985   0.000000
    14  H    4.430324   4.509513   5.517021   0.000000
    15  H    2.769010   2.399203   3.855869   2.383696   0.000000
    16  H    3.436128   3.795161   4.121561   3.655127   3.573898
    17  H    3.470426   4.319333   4.104254   3.408194   3.846375
                   16         17
    16  H    0.000000
    17  H    3.845964   0.000000
 Stoichiometry    C2H8O6Si(2-)
 Framework group  C1[X(C2H8O6Si)]
 Deg. of freedom    45
 Full point group                 C1      NOp   1
 Largest Abelian subgroup         C1      NOp   1
 Largest concise Abelian subgroup C1      NOp   1
                         Standard orientation:                         
 ---------------------------------------------------------------------
 Center     Atomic      Atomic             Coordinates (Angstroms)
 Number     Number       Type             X           Y           Z
 ---------------------------------------------------------------------
      1         14           0        0.546760    0.036337   -0.062567
      2          8           0        0.436157    0.674270    1.650864
      3          8           0        0.504832   -0.778449   -1.630248
      4          8           0        1.636467    1.301452   -0.562411
      5          8           0       -0.874774    1.138937   -0.548738
      6          8           0       -0.590052   -1.088614    0.441869
      7          8           0        1.757501   -1.113767    0.503412
      8          6           0       -1.883885   -0.830270    0.078765
      9          1           0       -2.632790   -1.254088    0.789626
     10          1           0       -2.131365   -1.250431   -0.925353
     11          6           0       -2.038324    0.693812   -0.006569
     12          1           0       -2.193270    1.081048    1.028285
     13          1           0       -2.935882    0.980657   -0.598391
     14          1           0        1.874555   -0.827933    1.408152
     15          1           0       -0.237559    0.098216    2.010837
     16          1           0        1.045958    2.039721   -0.701337
     17          1           0        0.127935   -1.627792   -1.407045
 ---------------------------------------------------------------------
 Rotational constants (GHZ):           2.0598559           1.3950243           1.3367777
 Standard basis: def2TZVPP (5D, 7F)
 There are   456 symmetry adapted cartesian basis functions of A   symmetry.
 There are   402 symmetry adapted basis functions of A   symmetry.
   402 basis functions,   613 primitive gaussians,   456 cartesian basis functions
    42 alpha electrons       42 beta electrons
       nuclear repulsion energy       685.5692921576 Hartrees.
 NAtoms=   17 NActive=   17 NUniq=   17 SFac= 1.00D+00 NAtFMM=   60 NAOKFM=F Big=F
 Integral buffers will be    131072 words long.
 Raffenetti 2 integral format.
 Two-electron integral symmetry is turned on.
 Nuclear repulsion after empirical dispersion term =      685.5601221819 Hartrees.
 One-electron integrals computed using PRISM.
   1 Symmetry operations used in ECPInt.
 ECPInt:  NShTT=   11325 NPrTT=   31861 LenC2=   11061 LenP2D=   24787.
 LDataN:  DoStor=T MaxTD1= 6 Len=  172
 NBasis=   402 RedAO= T EigKep=  2.64D-04  NBF=   402
 NBsUse=   402 1.00D-06 EigRej= -1.00D+00 NBFU=   402
 Initial guess from the checkpoint file:  "IRC_PmonoL1toHbiL1_reverse_ReactantOpt.chk"
 B after Tr=    -0.000000   -0.000000    0.000000
         Rot=    0.998783    0.040264   -0.009040   -0.027028 Ang=   5.66 deg.
 ExpMin= 7.01D-02 ExpMax= 4.48D+04 ExpMxC= 1.53D+03 IAcc=3 IRadAn=         5 AccDes= 0.00D+00
 Harris functional with IExCor= 4639 and IRadAn=       5 diagonalized for initial guess.
 HarFok:  IExCor= 4639 AccDes= 0.00D+00 IRadAn=         5 IDoV= 1 UseB2=F ITyADJ=14
 ICtDFT=  3500011 ScaDFX=  1.000000  1.000000  1.000000  1.000000
 FoFCou: FMM=F IPFlag=           0 FMFlag=      100000 FMFlg1=           0
         NFxFlg=           0 DoJE=T BraDBF=F KetDBF=T FulRan=T
         wScrn=  0.000000 ICntrl=       500 IOpCl=  0 I1Cent=   200000004 NGrid=           0
         NMat0=    1 NMatS0=      1 NMatT0=    0 NMatD0=    1 NMtDS0=    0 NMtDT0=    0
 Petite list used in FoFCou.
 Requested convergence on RMS density matrix=1.00D-08 within 128 cycles.
 Requested convergence on MAX density matrix=1.00D-06.
 Requested convergence on             energy=1.00D-06.
 No special actions if energy rises.
 Integral accuracy reduced to 1.0D-05 until final iterations.
 Initial convergence to 1.0D-05 achieved.  Increase integral accuracy.
 SCF Done:  E(RwB97XD) =  -822.035492192     A.U. after   14 cycles
            NFock= 14  Conv=0.95D-08     -V/T= 2.0027
   1 Symmetry operations used in ECPInt.
 ECPInt:  NShTT=   11325 NPrTT=   31861 LenC2=   11061 LenP2D=   24787.
 LDataN:  DoStor=T MaxTD1= 7 Len=  274
 Calling FoFJK, ICntrl=      2127 FMM=F ISym2X=0 I1Cent= 0 IOpClX= 0 NMat=1 NMatS=1 NMatT=0.
 ***** Axes restored to original set *****
 -------------------------------------------------------------------
 Center     Atomic                   Forces (Hartrees/Bohr)
 Number     Number              X              Y              Z
 -------------------------------------------------------------------
      1       14           0.041055889    0.012143373   -0.004477848
      2        8           0.005575913    0.010954407    0.016470796
      3        8           0.007500147    0.006190710   -0.020343543
      4        8          -0.000623996    0.001494547   -0.000356472
      5        8          -0.002937053    0.012810492   -0.001083982
      6        8          -0.078858755   -0.041897305    0.008272600
      7        8           0.021943367   -0.002341685    0.001813885
      8        6          -0.013341052    0.000729308   -0.003044055
      9        1           0.003919473   -0.001504317   -0.000825532
     10        1           0.001011784   -0.000987610    0.001857835
     11        6           0.005084782   -0.001398278    0.001168485
     12        1          -0.001598410    0.001528488    0.000525200
     13        1           0.000393052   -0.001019344   -0.000313497
     14        1           0.001000859   -0.000070065   -0.000560822
     15        1           0.004934012    0.001799166    0.001178839
     16        1           0.000351788    0.000322191    0.000313369
     17        1           0.004588201    0.001245923   -0.000595259
 -------------------------------------------------------------------
 Cartesian Forces:  Max     0.078858755 RMS     0.015207152

 GradGradGradGradGradGradGradGradGradGradGradGradGradGradGradGradGradGrad
 Berny optimization.
 Using GEDIIS/GDIIS optimizer.
 FormGI is forming the generalized inverse of G from B-inverse, IUseBI=4.
 Internal  Forces:  Max     0.362604677 RMS     0.061931655
 Search for a local minimum.
 Step number   2 out of a maximum of   83
 All quantities printed in internal units (Hartrees-Bohrs-Radians)
 Mixed Optimization -- RFO/linear search
 Update second derivatives using D2CorX and points    2    1
 DE=  2.12D-02 DEPred=-1.68D-03 R=-1.26D+01
 Trust test=-1.26D+01 RLast= 2.58D-01 DXMaxT set to 1.50D-01
 ITU= -1  0
 Use linear search instead of GDIIS.
     Eigenvalues ---    0.00314   0.00817   0.01296   0.02128   0.02181
     Eigenvalues ---    0.02349   0.02422   0.05564   0.05818   0.05869
     Eigenvalues ---    0.06240   0.06389   0.06991   0.11031   0.11120
     Eigenvalues ---    0.11274   0.13548   0.15451   0.15863   0.15984
     Eigenvalues ---    0.16000   0.16000   0.16000   0.16000   0.16001
     Eigenvalues ---    0.20504   0.21564   0.22365   0.23392   0.23812
     Eigenvalues ---    0.28723   0.28896   0.29231   0.30948   0.31918
     Eigenvalues ---    0.31935   0.31993   0.32299   0.50834   0.51947
     Eigenvalues ---    0.56041   0.56253   0.56338   0.56511   4.61069
 RFO step:  Lambda=-1.54984359D-02 EMin= 3.13723997D-03
 Quartic linear search produced a step of -0.87022.
 Iteration  1 RMS(Cart)=  0.14303971 RMS(Int)=  0.00580232
 Iteration  2 RMS(Cart)=  0.01265808 RMS(Int)=  0.00012091
 Iteration  3 RMS(Cart)=  0.00010354 RMS(Int)=  0.00009592
 Iteration  4 RMS(Cart)=  0.00000001 RMS(Int)=  0.00009592
 Variable       Old X    -DE/DX   Delta X   Delta X   Delta X     New X
                                 (Linear)    (Quad)   (Total)
    R1        3.46137   0.01828  -0.00271   0.01039   0.00768   3.46905
    R2        3.33966   0.01830  -0.00142   0.00738   0.00596   3.34562
    R3        3.29367   0.00104   0.00323  -0.00417  -0.00094   3.29273
    R4        3.52161   0.03316   0.00309   0.00831   0.01140   3.53302
    R5        3.33201   0.01538  -0.00010   0.00464   0.00453   3.33655
    R6        1.80794  -0.00472   0.00060  -0.00149  -0.00090   1.80704
    R7        1.80590  -0.00344  -0.01035   0.01258   0.00223   1.80814
    R8        1.80569   0.00011   0.00093  -0.00116  -0.00023   1.80546
    R9        2.56748   0.09119   0.00609   0.00739   0.01348   2.58096
   R10        2.58595  -0.05311  -0.00244  -0.00586  -0.00830   2.57765
   R11        1.80660  -0.00044   0.00001  -0.00009  -0.00007   1.80653
   R12        2.10923  -0.00269   0.00056  -0.00149  -0.00093   2.10830
   R13        2.10943  -0.00193   0.00017  -0.00075  -0.00058   2.10884
   R14        2.89933   0.04461   0.00482   0.00650   0.01131   2.91065
   R15        2.10845   0.00091   0.00011   0.00010   0.00020   2.10865
   R16        2.10273  -0.00065   0.00023  -0.00048  -0.00026   2.10248
    A1        1.62404  -0.01203   0.01153  -0.03706  -0.02554   1.59851
    A2        1.56271   0.00066   0.00063   0.00056   0.00111   1.56382
    A3        1.53916   0.00188  -0.00132   0.00407   0.00271   1.54187
    A4        1.66603  -0.01180   0.00769  -0.03076  -0.02307   1.64295
    A5        1.59406   0.00141   0.00472  -0.00591  -0.00132   1.59274
    A6        1.57110   0.00248  -0.00099   0.00330   0.00221   1.57331
    A7        1.54343  -0.01518  -0.01651   0.01915   0.00265   1.54609
    A8        1.70742  -0.01078  -0.01385   0.01747   0.00363   1.71105
    A9        1.75665   0.00360   0.00115   0.00002   0.00116   1.75782
   A10        1.78435   0.00154  -0.00369   0.00668   0.00299   1.78733
   A11        1.78865   0.00079  -0.00014   0.00063   0.00049   1.78914
   A12        1.93405   0.36260   0.05556   0.04302   0.09858   2.03263
   A13        1.76484   0.00117  -0.00032   0.00111   0.00079   1.76563
   A14        1.97547  -0.05703  -0.01150  -0.00922  -0.02068   1.95478
   A15        1.95762  -0.02448   0.00228  -0.00422  -0.00207   1.95554
   A16        1.87284   0.11555   0.01823   0.01731   0.03550   1.90834
   A17        1.85586  -0.00152  -0.00302   0.00021  -0.00283   1.85303
   A18        1.92312  -0.02388  -0.00618  -0.00323  -0.00939   1.91372
   A19        1.87712  -0.00959  -0.00001  -0.00092  -0.00100   1.87612
   A20        1.83531   0.26968   0.04624   0.03889   0.08529   1.92060
   A21        1.95556  -0.06253   0.00167  -0.01772  -0.01621   1.93935
   A22        1.97589  -0.10081  -0.02096  -0.01140  -0.03237   1.94352
   A23        1.88300  -0.03816   0.00326  -0.01094  -0.00761   1.87538
   A24        1.94642  -0.09518  -0.02324  -0.00617  -0.02929   1.91713
   A25        1.86693   0.02516  -0.00716   0.00662  -0.00099   1.86594
   A26        3.29007  -0.02383   0.01922  -0.06782  -0.04861   3.24146
   A27        3.10187   0.00253  -0.00069   0.00463   0.00382   3.10570
   A28        3.13038  -0.00046  -0.00204   0.00072  -0.00135   3.12903
   A29        3.03424   0.02547   0.03086  -0.03818  -0.00730   3.02695
    D1        3.03098  -0.00056  -0.00031   0.00151   0.00119   3.03217
    D2        1.48801   0.01450   0.01631  -0.01805  -0.00173   1.48628
    D3       -1.54623  -0.01097  -0.01455   0.02012   0.00557  -1.54066
    D4        2.87513  -0.00035   0.00882  -0.03204  -0.02322   2.85190
    D5       -1.86253  -0.01572  -0.00714  -0.01401  -0.02115  -1.88368
    D6        1.16705   0.01040   0.02274  -0.04950  -0.02676   1.14030
    D7       -1.38313  -0.00008  -0.00174   0.00391   0.00215  -1.38097
    D8        1.76968   0.00038   0.00030   0.00319   0.00350   1.77318
    D9        0.17811   0.00010  -0.00254   0.00653   0.00405   0.18216
   D10       -2.92927   0.00020  -0.00110   0.00397   0.00281  -2.92646
   D11       -1.23498  -0.01238   0.04289  -0.18581  -0.14290  -1.37788
   D12        1.75847   0.01168   0.02404  -0.11830  -0.09430   1.66417
   D13       -2.85927  -0.00048   0.03121  -0.14853  -0.11730  -2.97657
   D14       -0.09926   0.01116  -0.01016   0.03315   0.02300  -0.07626
   D15       -3.09526  -0.01218   0.00910  -0.03451  -0.02544  -3.12071
   D16        1.52095  -0.00046   0.00165  -0.00416  -0.00250   1.51845
   D17       -0.54414  -0.05465  -0.07298   0.12727   0.05433  -0.48981
   D18        1.49679   0.02756  -0.03943   0.12821   0.08839   1.58518
   D19       -2.67317  -0.05974  -0.06245   0.11535   0.05325  -2.61993
   D20        0.67446   0.04177   0.07130  -0.24143  -0.17003   0.50443
   D21       -1.41537  -0.00860   0.04185  -0.23588  -0.19396  -1.60933
   D22        2.82251   0.03791   0.06140  -0.23376  -0.17238   2.65013
   D23        2.83233   0.03169   0.06506  -0.24356  -0.17847   2.65386
   D24        0.74250  -0.01867   0.03561  -0.23801  -0.20240   0.54010
   D25       -1.30281   0.02784   0.05515  -0.23589  -0.18082  -1.48363
   D26       -1.43497   0.01198   0.05825  -0.24552  -0.18725  -1.62223
   D27        2.75838  -0.03838   0.02880  -0.23997  -0.21118   2.54720
   D28        0.71307   0.00812   0.04835  -0.23786  -0.18960   0.52347
         Item               Value     Threshold  Converged?
 Maximum Force            0.362605     0.000450     NO 
 RMS     Force            0.061932     0.000300     NO 
 Maximum Displacement     0.557585     0.001800     NO 
 RMS     Displacement     0.147989     0.001200     NO 
 Predicted change in Energy=-7.408941D-03
 GradGradGradGradGradGradGradGradGradGradGradGradGradGradGradGradGradGrad

                          Input orientation:                          
 ---------------------------------------------------------------------
 Center     Atomic      Atomic             Coordinates (Angstroms)
 Number     Number       Type             X           Y           Z
 ---------------------------------------------------------------------
      1         14           0        0.573597   -0.017963    0.003082
      2          8           0        0.556848    0.195143    1.826335
      3          8           0        0.481471   -0.362818   -1.730988
      4          8           0        1.797428    1.209084   -0.177705
      5          8           0       -0.724030    1.319010   -0.151981
      6          8           0       -1.026247   -1.201299   -0.010918
      7          8           0        1.644617   -1.403790    0.226310
      8          6           0       -2.209018   -0.544672   -0.185501
      9          1           0       -3.015884   -0.956740    0.465553
     10          1           0       -2.583021   -0.626968   -1.233689
     11          6           0       -2.011318    0.952102    0.119369
     12          1           0       -2.255524    1.109273    1.196765
     13          1           0       -2.737327    1.556377   -0.468513
     14          1           0        1.788713   -1.376071    1.170955
     15          1           0       -0.173796   -0.373667    2.065120
     16          1           0        1.292670    2.017045   -0.105423
     17          1           0        0.033512   -1.208114   -1.748965
 ---------------------------------------------------------------------
                    Distance matrix (angstroms):
                    1          2          3          4          5
     1  Si   0.000000
     2  O    1.835741   0.000000
     3  O    1.770427   3.601603   0.000000
     4  O    1.742438   2.565792   2.572024   0.000000
     5  O    1.869592   2.611026   2.602890   2.523983   0.000000
     6  O    1.989970   2.798524   2.436166   3.716302   2.542281
     7  O    1.765625   2.509961   2.503507   2.648337   3.628667
     8  C    2.838297   3.499260   3.108107   4.373480   2.383196
     9  H    3.738924   3.992865   4.172412   5.317193   3.288309
    10  H    3.444521   4.460761   3.115796   4.865646   2.900477
    11  C    2.763392   3.175248   3.371473   3.828947   1.365783
    12  H    3.271004   3.023480   4.269652   4.280836   2.051483
    13  H    3.696372   4.239207   3.954467   4.557321   2.051804
    14  H    2.164461   2.101363   3.340185   2.915817   3.915034
    15  H    2.221964   0.956245   3.852263   3.379510   2.843140
    16  H    2.161040   2.755440   2.994036   0.955409   2.134595
    17  H    2.185822   3.876310   0.956825   3.379807   3.083923
                    6          7          8          9         10
     6  O    0.000000
     7  O    2.689013   0.000000
     8  C    1.364033   3.969657   0.000000
     9  H    2.060459   4.688002   1.115663   0.000000
    10  H    2.061206   4.539600   1.115952   1.784249   0.000000
    11  C    2.371598   4.350577   1.540248   2.184645   2.156634
    12  H    2.882424   4.740081   2.156004   2.319747   3.004812
    13  H    3.277494   5.333554   2.184859   2.695520   2.318685
    14  H    3.058000   0.955974   4.302679   4.874175   5.045346
    15  H    2.391982   2.783703   3.039188   3.313012   4.092757
    16  H    3.967876   3.454855   4.339426   5.266217   4.825429
    17  H    2.035668   2.556494   2.813097   3.777049   2.729374
                   11         12         13         14         15
    11  C    0.000000
    12  H    1.115851   0.000000
    13  H    1.112583   1.790304   0.000000
    14  H    4.578914   4.746941   5.636678   0.000000
    15  H    2.986653   2.699396   4.088527   2.378190   0.000000
    16  H    3.478644   3.887084   4.072459   3.659021   3.546446
    17  H    3.512625   4.391730   4.118193   3.410993   3.909798
                   16         17
    16  H    0.000000
    17  H    3.832539   0.000000
 Stoichiometry    C2H8O6Si(2-)
 Framework group  C1[X(C2H8O6Si)]
 Deg. of freedom    45
 Full point group                 C1      NOp   1
 Largest Abelian subgroup         C1      NOp   1
 Largest concise Abelian subgroup C1      NOp   1
                         Standard orientation:                         
 ---------------------------------------------------------------------
 Center     Atomic      Atomic             Coordinates (Angstroms)
 Number     Number       Type             X           Y           Z
 ---------------------------------------------------------------------
      1         14           0        0.610006    0.003056   -0.047745
      2          8           0        0.688182    0.826930    1.590872
      3          8           0        0.437737   -0.918658   -1.549470
      4          8           0        1.734271    1.146052   -0.730152
      5          8           0       -0.782718    1.148057   -0.542386
      6          8           0       -0.903385   -1.182048    0.467191
      7          8           0        1.784480   -1.174324    0.545397
      8          6           0       -2.136512   -0.677213    0.175428
      9          1           0       -2.872888   -0.876081    0.989618
     10          1           0       -2.566244   -1.129846   -0.749668
     11          6           0       -2.023391    0.840538   -0.061214
     12          1           0       -2.212666    1.346483    0.915166
     13          1           0       -2.822869    1.174574   -0.759136
     14          1           0        1.982764   -0.818409    1.410206
     15          1           0        0.013665    0.343053    2.065523
     16          1           0        1.180847    1.907051   -0.895706
     17          1           0        0.048185   -1.737643   -1.244467
 ---------------------------------------------------------------------
 Rotational constants (GHZ):           2.0201914           1.2883014           1.2104496
 Standard basis: def2TZVPP (5D, 7F)
 There are   456 symmetry adapted cartesian basis functions of A   symmetry.
 There are   402 symmetry adapted basis functions of A   symmetry.
   402 basis functions,   613 primitive gaussians,   456 cartesian basis functions
    42 alpha electrons       42 beta electrons
       nuclear repulsion energy       665.8269533372 Hartrees.
 NAtoms=   17 NActive=   17 NUniq=   17 SFac= 1.00D+00 NAtFMM=   60 NAOKFM=F Big=F
 Integral buffers will be    131072 words long.
 Raffenetti 2 integral format.
 Two-electron integral symmetry is turned on.
 Nuclear repulsion after empirical dispersion term =      665.8180419920 Hartrees.
 One-electron integrals computed using PRISM.
   1 Symmetry operations used in ECPInt.
 ECPInt:  NShTT=   11325 NPrTT=   31861 LenC2=   11018 LenP2D=   24491.
 LDataN:  DoStor=T MaxTD1= 6 Len=  172
 NBasis=   402 RedAO= T EigKep=  3.00D-04  NBF=   402
 NBsUse=   402 1.00D-06 EigRej= -1.00D+00 NBFU=   402
 Lowest energy guess from the checkpoint file:  "IRC_PmonoL1toHbiL1_reverse_ReactantOpt.chk"
 B after Tr=    -0.000000   -0.000000   -0.000000
         Rot=    0.996672    0.077034   -0.023510    0.012547 Ang=   9.35 deg.
 B after Tr=     0.000000   -0.000000   -0.000000
         Rot=    0.998381    0.038178   -0.012721    0.040198 Ang=   6.52 deg.
 Requested convergence on RMS density matrix=1.00D-08 within 128 cycles.
 Requested convergence on MAX density matrix=1.00D-06.
 Requested convergence on             energy=1.00D-06.
 No special actions if energy rises.
 Integral accuracy reduced to 1.0D-05 until final iterations.
 Initial convergence to 1.0D-05 achieved.  Increase integral accuracy.
 SCF Done:  E(RwB97XD) =  -822.049171024     A.U. after   15 cycles
            NFock= 15  Conv=0.35D-08     -V/T= 2.0033
   1 Symmetry operations used in ECPInt.
 ECPInt:  NShTT=   11325 NPrTT=   31861 LenC2=   11018 LenP2D=   24491.
 LDataN:  DoStor=T MaxTD1= 7 Len=  274
 Calling FoFJK, ICntrl=      2127 FMM=F ISym2X=0 I1Cent= 0 IOpClX= 0 NMat=1 NMatS=1 NMatT=0.
 ***** Axes restored to original set *****
 -------------------------------------------------------------------
 Center     Atomic                   Forces (Hartrees/Bohr)
 Number     Number              X              Y              Z
 -------------------------------------------------------------------
      1       14          -0.004969326   -0.002258002   -0.019543504
      2        8          -0.008064743   -0.006699902   -0.004985814
      3        8           0.009105243    0.002268625   -0.009185300
      4        8          -0.000696225    0.001114741    0.001520797
      5        8          -0.002639024   -0.000844133   -0.000081719
      6        8          -0.000608118   -0.000553957    0.024507705
      7        8          -0.002121939    0.000944820    0.002673534
      8        6           0.006440771   -0.002158661   -0.004994199
      9        1          -0.001813176    0.001250854   -0.001105618
     10        1           0.000296057   -0.001940722   -0.000880378
     11        6           0.006891754    0.004264324    0.005106139
     12        1          -0.001397859    0.001835091    0.001181581
     13        1          -0.000332414   -0.000520116    0.002009855
     14        1           0.001100984   -0.000284015    0.000029128
     15        1          -0.002315223   -0.000491088    0.002929778
     16        1           0.000283905    0.000584247    0.000019290
     17        1           0.000839333    0.003487893    0.000798724
 -------------------------------------------------------------------
 Cartesian Forces:  Max     0.024507705 RMS     0.005528201

 GradGradGradGradGradGradGradGradGradGradGradGradGradGradGradGradGradGrad
 Berny optimization.
 Using GEDIIS/GDIIS optimizer.
 FormGI is forming the generalized inverse of G from B-inverse, IUseBI=4.
 Internal  Forces:  Max     0.045172805 RMS     0.010611851
 Search for a local minimum.
 Step number   3 out of a maximum of   83
 All quantities printed in internal units (Hartrees-Bohrs-Radians)
 Mixed Optimization -- RFO/linear search
 Update second derivatives using D2CorX and points    2    3    1
 DE=  7.53D-03 DEPred=-7.41D-03 R=-1.02D+00
 Trust test=-1.02D+00 RLast= 8.35D-01 DXMaxT set to 7.50D-02
 ITU= -1 -1  0
 Use linear search instead of GDIIS.
 Energy rises -- skip Quadratic/GDIIS search.
 Quartic linear search produced a step of -0.93785.
 Iteration  1 RMS(Cart)=  0.08811096 RMS(Int)=  0.01212353
 Iteration  2 RMS(Cart)=  0.01681312 RMS(Int)=  0.00024422
 Iteration  3 RMS(Cart)=  0.00025852 RMS(Int)=  0.00001300
 Iteration  4 RMS(Cart)=  0.00000005 RMS(Int)=  0.00001300
 Variable       Old X    -DE/DX   Delta X   Delta X   Delta X     New X
                                 (Linear)    (Quad)   (Total)
    R1        3.46905  -0.00278  -0.01013   0.00000  -0.01013   3.45892
    R2        3.34562   0.00657  -0.00712   0.00000  -0.00712   3.33851
    R3        3.29273   0.00075   0.00436   0.00000   0.00436   3.29709
    R4        3.53302  -0.00594  -0.00736   0.00000  -0.00736   3.52566
    R5        3.33655  -0.00080  -0.00436   0.00000  -0.00436   3.33218
    R6        1.80704   0.00279   0.00148   0.00000   0.00148   1.80852
    R7        1.80814  -0.00349  -0.01325   0.00000  -0.01325   1.79489
    R8        1.80546   0.00035   0.00122   0.00000   0.00122   1.80668
    R9        2.58096  -0.00438  -0.00608   0.00000  -0.00608   2.57488
   R10        2.57765   0.00288   0.00515   0.00000   0.00515   2.58280
   R11        1.80653   0.00019   0.00008   0.00000   0.00008   1.80661
   R12        2.10830   0.00020   0.00147   0.00000   0.00147   2.10977
   R13        2.10884   0.00087   0.00073   0.00000   0.00073   2.10957
   R14        2.91065  -0.00071  -0.00542   0.00000  -0.00542   2.90523
   R15        2.10865   0.00170  -0.00008   0.00000  -0.00008   2.10857
   R16        2.10248  -0.00113   0.00048   0.00000   0.00048   2.10296
    A1        1.59851   0.00635   0.03637   0.00000   0.03637   1.63488
    A2        1.56382  -0.00590  -0.00036   0.00000  -0.00039   1.56343
    A3        1.54187  -0.00034  -0.00396   0.00000  -0.00399   1.53788
    A4        1.64295  -0.00689   0.02993   0.00000   0.02993   1.67288
    A5        1.59274   0.00572   0.00633   0.00000   0.00627   1.59901
    A6        1.57331   0.00051  -0.00313   0.00000  -0.00319   1.57012
    A7        1.54609  -0.00051  -0.02028   0.00000  -0.02029   1.52580
    A8        1.71105   0.00128  -0.01833   0.00000  -0.01834   1.69271
    A9        1.75782   0.00433   0.00015   0.00000   0.00015   1.75796
   A10        1.78733  -0.00140  -0.00678   0.00000  -0.00678   1.78055
   A11        1.78914   0.00099  -0.00061   0.00000  -0.00061   1.78852
   A12        2.03263   0.00016  -0.03257   0.00000  -0.03257   2.00006
   A13        1.76563   0.00158  -0.00109   0.00000  -0.00109   1.76454
   A14        1.95478  -0.00311   0.00700   0.00000   0.00700   1.96179
   A15        1.95554   0.01057   0.00440   0.00000   0.00440   1.95995
   A16        1.90834  -0.01067  -0.01365   0.00000  -0.01365   1.89469
   A17        1.85303  -0.00098  -0.00060   0.00000  -0.00060   1.85243
   A18        1.91372  -0.00391   0.00215   0.00000   0.00215   1.91588
   A19        1.87612   0.00876   0.00094   0.00000   0.00094   1.87705
   A20        1.92060  -0.00002  -0.03016   0.00000  -0.03016   1.89044
   A21        1.93935   0.00923   0.01701   0.00000   0.01701   1.95635
   A22        1.94352  -0.00907   0.00777   0.00000   0.00778   1.95130
   A23        1.87538  -0.01861   0.01066   0.00000   0.01065   1.88603
   A24        1.91713   0.01944   0.00243   0.00000   0.00243   1.91956
   A25        1.86594  -0.00104  -0.00678   0.00000  -0.00678   1.85916
   A26        3.24146  -0.00055   0.06630   0.00000   0.06630   3.30777
   A27        3.10570  -0.00624  -0.00433   0.00000  -0.00438   3.10131
   A28        3.12903   0.00021  -0.00094   0.00000  -0.00094   3.12810
   A29        3.02695  -0.00039   0.04010   0.00000   0.04010   3.06705
    D1        3.03217  -0.00109  -0.00145   0.00000  -0.00145   3.03072
    D2        1.48628  -0.00037   0.01920   0.00000   0.01920   1.50548
    D3       -1.54066   0.00003  -0.02090   0.00000  -0.02090  -1.56157
    D4        2.85190   0.00099   0.03129   0.00000   0.03129   2.88319
    D5       -1.88368   0.00076   0.01214   0.00000   0.01213  -1.87155
    D6        1.14030  -0.00024   0.04960   0.00000   0.04961   1.18990
    D7       -1.38097   0.00175  -0.00390   0.00000  -0.00390  -1.38487
    D8        1.77318   0.00153  -0.00296   0.00000  -0.00296   1.77022
    D9        0.18216  -0.00433  -0.00653   0.00000  -0.00651   0.17565
   D10       -2.92646   0.00116  -0.00382   0.00000  -0.00384  -2.93031
   D11       -1.37788   0.02935   0.18024   0.00000   0.18024  -1.19764
   D12        1.66417   0.02989   0.11435   0.00000   0.11435   1.77851
   D13       -2.97657   0.02285   0.14364   0.00000   0.14365  -2.83292
   D14       -0.07626  -0.00235  -0.03253   0.00000  -0.03252  -0.10878
   D15       -3.12071  -0.00289   0.03367   0.00000   0.03366  -3.08704
   D16        1.51845   0.00399   0.00412   0.00000   0.00412   1.52257
   D17       -0.48981   0.04517  -0.12961   0.00000  -0.12961  -0.61942
   D18        1.58518   0.02783  -0.12539   0.00000  -0.12538   1.45980
   D19       -2.61993   0.02665  -0.11724   0.00000  -0.11725  -2.73717
   D20        0.50443   0.01488   0.23630   0.00000   0.23631   0.74074
   D21       -1.60933   0.01514   0.22701   0.00000   0.22701  -1.38232
   D22        2.65013   0.01648   0.22784   0.00000   0.22783   2.87796
   D23        2.65386   0.00145   0.23749   0.00000   0.23749   2.89135
   D24        0.54010   0.00171   0.22820   0.00000   0.22820   0.76829
   D25       -1.48363   0.00305   0.22902   0.00000   0.22902  -1.25461
   D26       -1.62223   0.00302   0.23839   0.00000   0.23840  -1.38383
   D27        2.54720   0.00328   0.22910   0.00000   0.22910   2.77630
   D28        0.52347   0.00462   0.22993   0.00000   0.22992   0.75339
         Item               Value     Threshold  Converged?
 Maximum Force            0.045173     0.000450     NO 
 RMS     Force            0.010612     0.000300     NO 
 Maximum Displacement     0.324099     0.001800     NO 
 RMS     Displacement     0.096054     0.001200     NO 
 Predicted change in Energy=-3.451258D-04
 GradGradGradGradGradGradGradGradGradGradGradGradGradGradGradGradGradGrad

                          Input orientation:                          
 ---------------------------------------------------------------------
[...]
 18358747,-0.0446073854,-0.0368250846\O,0.5348996564,0.1546288507,1.788
 3064127\O,0.2760016084,-0.4033944716,-1.7710692782\O,1.7317754986,1.14
 98525064,-0.2253615583\O,-0.7711287189,1.3324876531,-0.2059445529\O,-1
 .0817505459,-1.1302667316,0.3394529778\O,1.5436666032,-1.4430550848,0.
 0917322469\C,-2.2176902962,-0.5107875862,-0.0988474448\H,-3.1275163857
 ,-0.8824470545,0.425635578\H,-2.3822270153,-0.6661060136,-1.1870505725
 \C,-2.0452216809,0.995089653,0.1474967255\H,-2.2476685164,1.1964964327
 ,1.2277203899\H,-2.8024848252,1.5736852197,-0.426818479\H,1.7824906118
 ,-1.404859682,1.0159731444\H,-0.2258995273,-0.3607854966,2.0541294206\
 H,1.2846478343,1.9706218791,-0.0282234827\H,0.7289618243,-1.2406186884
 ,-1.8505014427\\Version=ES64L-G16RevC.01\State=1-A\HF=-822.058439\RMSD
 =2.516e-09\RMSF=7.525e-06\ZeroPoint=0.1210061\Thermal=0.1319934\ETot=-
 821.9264456\HTot=-821.9255014\GTot=-821.9723243\Dipole=-1.3374553,-0.0
 344892,0.4146261\DipoleDeriv=2.9297953,-0.0397744,0.0313582,-0.1503642
 ,2.2307592,0.1035278,-0.0819734,0.0677338,2.3501799,-0.8212575,0.12745
 87,-0.1331929,0.1154112,-0.7120383,-0.1432892,-0.1760812,-0.0363821,-1
 .2792726,-0.7984007,-0.0883366,-0.0315243,-0.0665017,-0.5819363,-0.102
 8533,0.1104776,-0.1617228,-1.2807136,-1.1228258,-0.4369166,0.0361903,-
 0.3649132,-0.8940294,0.080845,0.03041,0.0872209,-0.7424767,-1.5951941,
 0.1085393,0.1825329,0.070281,-0.8986228,0.0807731,0.1341026,0.0366987,
 -0.6222767,-1.5236644,0.0402965,-0.1649834,0.0386382,-0.8652035,0.1269
 093,-0.1724217,0.0616205,-0.7295337,-1.0764871,0.3137942,-0.0228763,0.
 3710857,-1.091922,0.0556032,0.04382,-0.0068042,-0.6603075,1.0302437,0.
 0456377,0.0471567,-0.2697811,0.3190931,-0.1194461,0.1424624,-0.0742435
 ,0.5364,-0.4987919,-0.1480866,0.1421446,-0.1284515,-0.076929,0.0369567
 ,0.2465759,0.093563,-0.097229,-0.071284,-0.0195738,-0.1024587,-0.00909
 1,-0.0584188,-0.0423413,-0.2256155,-0.0765216,-0.3946727,1.0635641,-0.
 2448644,-0.085148,0.0827602,0.2719062,-0.0867545,-0.1452626,-0.034352,
 0.626777,-0.109968,0.0260925,0.1010304,0.0211669,-0.0711089,-0.0566017
 ,0.2275432,-0.1383894,-0.4567485,-0.3707048,0.21171,-0.149795,0.202493
 ,-0.1600523,0.0784062,-0.2223148,0.1596576,-0.1247175,0.289689,-0.0480
 317,-0.0637253,-0.065488,0.2969262,0.0143854,-0.1060506,0.0501972,0.06
 40373,0.1518997,-0.0761694,0.1474866,-0.0536985,0.1614778,0.0742794,0.
 1464744,0.0378267,0.2811483,0.3229752,0.1451138,0.0137808,0.1094376,0.
 0761677,-0.0459912,0.0216302,-0.0526049,0.2308111,0.2004112,0.0831109,
 0.0520235,0.0970153,0.0539311,-0.054409,0.0262235,-0.0134979,0.2985949
 \Polar=95.5674397,-3.1581255,77.8544823,0.1281468,1.0845843,79.8958606
 \Quadrupole=-4.9226436,3.1150951,1.8075484,-0.5408045,-0.0026396,-0.27
 12217\PG=C01 [X(C2H8O6Si1)]\NImag=0\\0.32065715,-0.01198155,0.32981731
 ,0.00332110,0.00657110,0.32380548,-0.04615295,0.00221643,0.00762180,0.
 39883167,0.00083619,-0.04446207,0.00133303,0.23220050,0.21495164,-0.00
 673839,-0.00892462,-0.05255203,-0.11051271,-0.05890161,0.18036693,-0.0
 4399135,0.00438484,0.00255942,0.00443704,-0.00088216,-0.00043128,0.178
 23836,-0.00247355,-0.04332624,-0.02181156,-0.00018984,0.00336860,-0.00
 052787,-0.22678371,0.47687541,-0.01636968,0.00170854,-0.09093605,0.000
 13484,-0.00155819,-0.00229582,-0.00397286,0.05483564,0.18164793,-0.080
 48090,-0.02238551,0.00714953,-0.00457730,-0.00854965,0.01160004,-0.000
 02717,-0.01138980,-0.00763755,0.25863371,-0.04654190,-0.07722574,0.008
 90109,-0.00937569,-0.00169509,0.00943892,-0.01235265,-0.00821550,-0.01
 227706,-0.14777544,0.51511469,0.00418274,0.00206843,-0.04243184,0.0189
 1595,0.01549182,-0.01372149,-0.01087995,-0.01494692,-0.00490362,-0.069
 73724,0.08665908,0.07842466,-0.03449539,-0.01083249,0.00320179,-0.0027
 2315,0.01112591,-0.01514261,-0.00154470,0.01436614,0.00690832,-0.03835
 570,0.00208609,-0.00053359,0.42365264,-0.00570211,-0.04593183,0.002889
 04,0.00640104,-0.00019104,0.00866263,0.01060789,-0.01167093,-0.0082911
 8,-0.00303659,0.00469642,-0.00038229,0.04912840,0.18004796,-0.00074114
 ,0.00527217,-0.03492341,-0.01434714,0.01316446,-0.01292363,0.00935695,
 -0.01581336,-0.00438376,0.00563790,-0.00040090,0.00563828,-0.08048104,
 -0.02957820,0.11476162,-0.01007989,0.01686863,-0.00596209,-0.01322324,
 -0.01842467,-0.02095841,-0.00591907,-0.00808216,0.02079655,-0.00006988
 ,-0.00359029,0.00124184,0.01485793,-0.01688037,0.00361718,0.34725980,0
 .01226057,-0.03663319,0.00128016,-0.01377714,0.00140035,-0.01092805,-0
 .00312818,0.00513564,0.00417904,-0.00243636,0.00117759,0.00035843,0.00
 861774,-0.01709021,0.00383665,-0.10108382,0.19912509,-0.00579727,0.001
 27432,-0.03907173,-0.01781820,-0.01156827,-0.00959237,0.01787786,0.009
 20934,-0.01869152,0.00039173,-0.00004003,0.00408740,-0.00208182,0.0041
 7425,0.00500317,0.08817076,-0.05677548,0.13794402,-0.06062627,0.029566
 74,0.00334518,-0.00032397,0.01537957,0.01446860,-0.00394153,0.00774921
 ,-0.01540604,0.00611189,-0.00349184,0.00000723,0.00108386,0.00251980,-
 0.00036808,-0.02267143,0.00849786,-0.00316936,0.12967318,0.02024534,-0
 .07521980,-0.00667778,0.01331495,-0.00937669,-0.02018869,0.00761120,0.
 00073279,0.01001070,0.00506590,-0.02540345,0.00119439,0.00449405,0.000
 32970,0.00026394,0.00183670,0.00355391,0.00080793,-0.05873970,0.133019
 30,-0.00840106,0.00948124,-0.05036306,0.01469810,-0.02190675,-0.013141
 10,-0.02096310,0.01450228,-0.02491189,-0.00100103,0.00315659,0.0057700
 6,-0.00049314,0.00041768,0.00385008,0.00160594,-0.00045727,0.00614601,
 0.13677498,0.02268924,0.57583725,-0.03969314,-0.01875598,0.00393670,0.
 00495392,0.00404363,0.00299946,0.00138690,0.00309189,-0.00760811,0.000
 51055,0.00226158,-0.00090920,-0.03505577,-0.03140302,-0.00225248,-0.21
 484570,0.05979624,-0.04366209,0.00168101,-0.00002156,-0.00044592,0.541
 95772,0.00565305,0.01691686,-0.00605686,-0.00301514,-0.00518012,-0.003
 78176,-0.00194174,-0.00226249,0.00356729,0.00079346,-0.00115281,0.0004
 5493,-0.01771595,-0.02661881,0.00727263,0.08344137,-0.12033188,0.03569
 293,-0.00311308,0.00116126,0.00027940,0.02551067,0.44090044,-0.0084205
 8,-0.00938756,0.00961104,0.00112659,-0.00021095,0.00076223,-0.00065584
 ,0.00171473,-0.00710114,0.00045351,0.00045391,-0.00099772,0.00655123,0
 .01555520,0.00500035,-0.05111121,0.03467370,-0.09590503,0.00443315,-0.
 00039543,-0.00067851,-0.01046996,-0.00500391,0.52786067,0.00696216,0.0
 0750316,-0.00104151,-0.00120039,-0.00118876,-0.00222287,-0.00071066,-0
 .00053023,0.00250669,-0.00063550,-0.00061352,0.00007634,0.00057658,-0.
 00258342,-0.00093642,-0.04743541,-0.00220783,0.00250937,-0.00258204,0.
 00073814,-0.00003367,-0.15302452,-0.05939334,0.07704145,0.19856146,0.0
 0058694,-0.00433985,0.00063463,-0.00011469,0.00049851,-0.00024162,0.00
 008507,0.00055473,0.00013590,-0.00067727,0.00031876,-0.00003259,-0.004
 00946,-0.00724083,-0.00222611,0.01839645,0.00943327,-0.00781662,0.0005
 7790,0.00014686,-0.00000211,-0.05562995,-0.07715388,0.03626204,0.06157
 611,0.07783032,-0.00179408,0.00017796,-0.00134632,0.00023738,0.0000167
 0,0.00015043,0.00107802,-0.00010402,0.00072146,0.00035532,0.00016130,0
 .00008680,0.00007735,-0.00003326,0.00203806,-0.00903165,-0.00658999,0.
 01184409,0.00005205,-0.00015722,0.00022192,0.07764915,0.03982543,-0.10
 451983,-0.08675158,-0.04146049,0.10662669,0.00265766,0.00251408,-0.005
 82339,-0.00146850,-0.00139425,-0.00093174,0.00100183,0.00053461,0.0018
 0684,-0.00003795,-0.00000291,0.00065517,0.00089323,0.00001787,0.000483
 72,-0.02009189,0.00545760,-0.03724611,-0.00050882,-0.00003235,0.000979
 97,-0.04614681,-0.00858363,-0.00975458,0.00217311,0.00309947,0.0231055
 4,0.05891840,-0.00105534,-0.00150439,0.00062690,0.00037288,0.00095373,
 0.00060449,-0.00014025,-0.00026528,-0.00010730,-0.00008567,0.00011197,
 -0.00004352,0.00031036,0.00264736,0.00233349,0.00943607,0.00582985,0.0
 1857617,0.00010173,0.00001571,-0.00005819,-0.00566921,-0.05677144,-0.0
 3199946,-0.00154940,0.00269006,0.01272671,-0.00110430,0.06006881,0.005
 15023,0.00402612,-0.00478684,-0.00165848,-0.00127217,-0.00096873,0.001
 37204,-0.00039660,0.00302478,-0.00039880,-0.00033061,0.00064289,-0.000
 80777,-0.00044407,0.00209387,-0.02631889,0.01057255,-0.01324693,-0.001
 23542,0.00020049,0.00071083,-0.01317989,-0.03967627,-0.24021576,0.0034
 9589,-0.00304650,-0.01663682,0.02979924,0.03420683,0.27624479,-0.03586
 678,0.03232603,-0.00206521,0.00276708,-0.00458547,0.00735771,0.0012991
 7,-0.00610343,-0.00289139,0.00327241,-0.00095706,-0.00007325,-0.250481
 93,-0.02923413,0.04624906,-0.02389529,0.02996140,0.00186630,0.00014132
 ,-0.00251035,0.00055494,-0.06138616,-0.01913735,-0.00157113,-0.0038343
 1,-0.02623346,-0.00417998,0.00104526,-0.00014624,0.00161305,0.52973238
 ,0.00599278,0.01131583,-0.00321678,0.00071522,-0.00214356,0.00071392,-
 0.00012187,-0.00279814,-0.00086561,0.00371554,0.00103418,-0.00023913,-
 0.05723043,-0.09700956,0.01838176,0.01827590,-0.03914174,0.00850780,-0
 .00055468,-0.00040485,-0.00001320,-0.00453994,-0.15339757,-0.02849652,
 -0.00004880,-0.00397338,-0.00528300,-0.00064516,-0.00817443,-0.0006603
 2,-0.04292655,0.46349856,0.00666006,-0.00954315,0.00610233,0.00111704,
 0.00071984,-0.00588895,-0.00033948,0.00153893,0.00056222,-0.00433252,0
 .00030419,0.00077639,0.04569685,0.01496929,-0.08566465,-0.00467775,0.0
 1901179,0.00453135,-0.00018625,0.00036340,-0.00101408,-0.00407137,-0.0
 2880478,-0.08186159,0.00631120,0.01840769,-0.00033783,-0.00377992,-0.0
 3414079,-0.01028646,0.01240784,-0.01255272,0.50968082,0.00323815,-0.00
 596612,0.00478946,0.00097544,-0.00069137,-0.00167164,-0.00043131,0.001
 48577,0.00060447,-0.00132779,0.00031137,-0.00080055,-0.02740411,0.0019
 8301,0.03879770,0.00099658,0.00056836,0.00010896,0.00003782,0.00015063
 ,-0.00055681,0.00069085,-0.00163243,-0.00382385,0.00050384,0.00031539,
 -0.00042449,0.00087503,-0.00125203,-0.00002060,-0.04532437,0.00827524,
 0.01352734,0.06360929,0.00023261,-0.00095133,-0.00055456,-0.00022599,0
 .00028789,0.00036718,0.00027208,0.00040123,0.00025958,-0.00000016,0.00
 002980,0.00006500,-0.00326122,0.00799772,0.00822481,-0.00037795,0.0027
 7113,0.00259250,0.00007159,0.00007897,0.00014240,0.00019795,-0.0079027
 0,-0.03429882,-0.00026943,0.00148215,0.00056382,-0.00036760,-0.0065941
 1,-0.00217234,0.00500504,-0.05910408,-0.03257577,-0.00223722,0.0586755
 5,-0.00536506,0.00679841,-0.00439675,-0.00022532,-0.00001222,0.0033536
 5,0.00082209,-0.00141767,-0.00047405,0.00193320,-0.00016221,0.00063516
 ,0.03067085,0.00396866,-0.00738994,0.00106979,-0.00071452,0.00300709,0
 .00028419,-0.00039335,0.00063208,-0.00133004,0.00035537,-0.01157581,-0
 .00178563,-0.00116238,0.00132381,-0.00072429,-0.00270816,0.00130936,0.
 01144108,-0.03961927,-0.22333147,-0.03346526,0.03971520,0.25813318,0.0
 0428687,-0.00938639,-0.00094325,-0.00084986,0.00103632,-0.00218255,-0.
 00014926,0.00092674,0.00133795,-0.00326569,-0.00028906,0.00045608,-0.0
 4812366,0.01610506,-0.00664522,0.00138988,0.00043326,0.00032876,-0.000
 29887,0.00074137,0.00012269,0.00252098,-0.00123017,-0.00108004,0.00004
 072,0.00164944,-0.00000657,0.00035590,0.00055939,0.00119236,-0.1152390
 2,0.06785197,-0.06773258,0.00365186,0.00061177,-0.00305855,0.15490014,
 -0.00286391,-0.00157386,0.00074897,0.00053334,0.00042161,0.00092881,0.
 00027859,0.00015902,-0.00084239,0.00019572,0.00020367,-0.00000909,-0.0
 0406616,0.01004032,-0.00667903,0.00220046,-0.00858841,-0.00212136,0.00
 066047,0.00002708,-0.00010864,0.02307982,-0.00905687,0.02072010,-0.001
 82130,-0.00040293,0.00030510,-0.00002756,0.00139284,-0.00139735,0.0647
 0981,-0.10951540,0.05900142,-0.00283115,0.00328383,-0.00296259,-0.0795
 4383,0.11384754,0.00212423,-0.00065235,-0.00126236,-0.00073258,0.00032
 842,0.00055084,-0.00018238,0.00000701,0.00040945,-0.00023011,-0.000111
 18,0.00016436,0.00407137,-0.00768074,0.01211892,-0.00015133,0.00008688
 ,0.00221788,-0.00034156,0.00026465,0.00021866,0.00298791,-0.00561250,0
 .00018891,0.00007724,0.00038839,-0.00005922,0.00045201,0.00041307,0.00
 126622,-0.06909964,0.06269991,-0.11307710,-0.01780973,0.01766793,-0.02
 016224,0.07811211,-0.06721899,0.11740192,-0.00248022,0.00454273,-0.022
 05807,0.00147730,-0.00616633,-0.00011154,-0.00116322,0.00232587,-0.003
 90310,-0.00137897,-0.00007633,0.00103944,0.00010986,-0.00036802,0.0011
 2433,-0.00022011,-0.00001773,0.00189320,-0.04663577,0.00811424,-0.1194
 0692,-0.00079375,0.00025038,-0.00005319,0.00009203,0.00003752,-0.00005
 267,0.00033585,-0.00006551,0.00031471,-0.00014461,-0.00005769,-0.00022
 348,-0.00015892,0.00003707,0.00007817,0.00013219,-0.00010018,0.0001236
 4,0.05418085,0.01088505,0.00063908,0.02308292,-0.00333975,-0.00043001,
 -0.00040972,0.00354175,-0.00123980,0.00430684,-0.00039772,-0.00009960,
 -0.00187632,-0.00106319,-0.00008159,-0.00094769,-0.00004798,-0.0011006
 8,-0.00091455,0.00103279,-0.02054165,-0.03379803,0.00013365,-0.0000550
 9,0.00010133,-0.00004956,-0.00005493,0.00001724,-0.00011671,-0.0000248
 0,-0.00012799,0.00053559,0.00014924,0.00016853,0.00010447,-0.00005690,
 -0.00003311,-0.00019299,0.00000884,-0.00012657,-0.01071786,0.02349489,
 -0.00618308,0.00203616,-0.00448807,0.00191911,-0.00297980,-0.00717311,
 -0.00137364,0.00057467,-0.00098988,0.00097551,-0.00109033,-0.00020678,
 -0.00013770,0.00028118,-0.00046391,0.00071061,-0.00059101,-0.00029795,
 -0.13756410,-0.00945889,-0.50392271,0.00014394,0.00002256,-0.00021875,
 0.00007265,-0.00003409,0.00005354,0.00001617,0.00001655,0.00003015,0.0
 0027049,0.00004811,0.00007510,0.00003639,-0.00001079,-0.00000264,-0.00
 004738,-0.00000823,-0.00002594,0.14024785,0.01043123,0.51663949,0.0027
 1223,-0.00359828,0.00379173,-0.34033475,-0.22346074,0.12437759,-0.0008
 2693,0.00002645,0.00021634,0.00061899,0.00001035,0.00067556,-0.0018686
 4,0.00006062,-0.00040850,-0.00586171,-0.00223001,-0.00160744,0.0009047
 9,0.00103818,-0.00169669,-0.00250105,0.00002013,-0.00216625,0.00018759
 ,-0.00002719,-0.00021022,0.00015588,0.00004206,0.00039710,0.00047261,0
 .00052199,-0.00160398,-0.00033124,0.00039353,0.00048975,-0.00001948,-0
 .00017254,0.00040302,-0.00220072,-0.00034512,0.00108370,0.34875423,-0.
 00169505,0.00447019,0.00053195,-0.22580220,-0.16050809,0.08397886,-0.0
 0004203,-0.00032699,0.00036756,-0.00051719,0.00053758,0.00173659,0.000
 80785,-0.00044359,-0.00114663,-0.00090943,-0.00573013,-0.00246897,-0.0
 0058698,-0.00274299,-0.00076398,-0.00201121,0.00133448,0.00031730,0.00
 040133,-0.00004876,-0.00018044,0.00050472,-0.00045721,0.00041740,0.000
 20577,0.00037422,0.00244545,0.00080753,-0.00043303,-0.00102589,-0.0000
 9310,-0.00020115,-0.00056030,0.00136163,0.00116986,-0.00022237,0.22773
 224,0.16264977,0.02357808,0.01462116,-0.01228318,0.10122929,0.06705022
 ,-0.06638271,-0.00135793,-0.00073251,0.00068450,0.00301178,0.00277734,
 -0.00593348,-0.00159965,-0.00126359,0.00018197,0.00325074,-0.00000196,
 0.00349847,-0.00154422,-0.00183179,-0.00048649,-0.00483641,0.00233924,
 -0.00144366,0.00101501,-0.00002166,-0.00018721,0.00121894,-0.00047296,
 0.00131599,-0.00072019,0.00082721,-0.00027348,-0.00001372,-0.00006308,
 -0.00045441,-0.00000104,-0.00042617,0.00013984,0.00044915,0.00029997,-
 0.00013268,-0.12421469,-0.08274324,0.08162592,0.00770131,-0.01847138,-
 0.00149186,-0.00184479,0.00027909,-0.00021875,-0.00263745,-0.00076560,
 -0.00141123,-0.13676843,0.22074323,0.05708003,-0.00082193,0.00119650,-
 0.00088723,-0.00053391,0.00097567,-0.00017415,0.00030821,-0.00249876,0
 .00054855,0.00077276,-0.00036557,-0.00027471,0.00018132,0.00044198,-0.
 00011391,0.00004063,0.00003945,0.00011935,-0.00368720,0.00058453,0.001
 74584,0.00062352,-0.00003288,-0.00093372,0.00074145,-0.00017058,0.0001
 7919,0.00007130,-0.00009912,-0.00002786,-0.00003149,-0.00024323,0.0003
 0678,0.13588325,0.00831567,-0.02366394,-0.00586231,0.00033918,0.001931
 23,-0.00062997,-0.00151676,0.00009037,-0.00050018,0.18900736,-0.409706
 11,-0.08982108,0.00615286,0.00051054,-0.00042391,-0.00027480,0.0006641
 4,0.00030820,-0.00151985,-0.00411075,0.00112385,0.00007047,-0.00024673
 ,-0.00010164,0.00007874,0.00019495,-0.00004533,0.00006467,0.00001682,0
 .00010462,-0.00011420,-0.00024300,0.00098900,0.00024423,0.00000992,-0.
 00040869,0.00072183,-0.00000297,0.00006297,0.00024644,-0.00029299,-0.0
 0044540,-0.00007439,0.00040897,-0.00040566,-0.20183403,0.43427609,0.00
 160351,0.00134843,0.00611651,-0.00052958,-0.00142515,-0.00112363,-0.00
 213397,-0.00035060,-0.00133342,0.05360131,-0.09781345,-0.02654371,0.00
 118470,0.00017027,-0.00185825,-0.00046406,0.00003773,-0.00061970,0.000
 59229,0.00244560,0.00009268,0.00032312,-0.00015689,0.00005710,-0.00001
 307,0.00008808,0.00002816,-0.00006567,0.00000510,-0.00011450,-0.000011
 58,0.00033580,-0.00015116,0.00034185,0.00005489,-0.00027922,0.00000090
 ,-0.00003217,-0.00001068,-0.00037414,-0.00018690,0.00036838,0.00028427
 ,-0.00055294,0.00021743,-0.05461929,0.09574862,0.02509975,0.00565139,0
 .00145508,-0.00033130,-0.00074356,0.00044220,0.00031909,-0.12502064,0.
 22581164,0.02488796,-0.00222229,-0.00034593,-0.00139660,-0.00029911,0.
 00118748,0.00180040,0.00034334,-0.00168764,-0.00159050,-0.00235338,0.0
 0045200,-0.00228683,-0.00102778,0.00045937,-0.00022459,0.00014401,-0.0
 0007425,0.00001035,-0.00019881,0.00020601,0.00016589,0.00112942,0.0001
 9195,-0.00051885,-0.00022465,-0.00004918,0.00009874,-0.00007415,-0.000
 06100,0.00001661,-0.00122308,0.00013670,-0.00014265,0.00016970,0.00007
 935,0.00022808,0.00000145,0.00009259,0.00027939,0.12594816,0.00730521,
 -0.00832704,-0.00241995,-0.00025309,0.00017312,-0.00016090,0.22012795,
 -0.41721241,-0.05492919,-0.00152662,0.00027364,-0.00067773,0.00108950,
 0.00000836,-0.00153408,-0.00078410,-0.00047473,0.00056186,0.00184847,-
 0.00126539,0.00531550,-0.00015503,-0.00018266,0.00009600,-0.00004189,0
 .00006496,0.00005947,0.00008144,0.00006451,-0.00000379,-0.00079538,-0.
 00046631,-0.00030231,0.00036432,0.00002396,-0.00021759,0.00009840,-0.0
 0004315,0.00004340,0.00065377,-0.00148388,0.00143046,0.00006270,-0.000
 05313,0.00004746,0.00022071,0.00016347,0.00028355,-0.22829637,0.428736
 68,0.01319040,-0.02687635,-0.00679374,-0.00117608,0.00173062,0.0005794
 9,0.00922403,-0.02628148,-0.03102919,-0.00177257,0.00037335,-0.0014873
 4,0.00291486,-0.00341489,-0.00307875,-0.00178803,0.00202135,-0.0008542
 6,-0.00014265,0.00086280,0.00103828,0.00072521,-0.00071681,0.00103749,
 -0.00032108,0.00012745,-0.00000776,-0.00019192,0.00002108,-0.00038285,
 -0.00114809,-0.00056797,0.00015858,0.00038050,0.00002204,-0.00032779,0
 .00014633,0.00010159,-0.00007946,0.00091260,0.00001282,0.00075576,0.00
 018872,-0.00013035,-0.00008681,0.00017296,0.00030690,0.00005425,-0.021
 31520,0.05240784,0.04050412\\-0.00000693,0.00001774,0.00002895,0.00000
 394,-0.00000691,-0.00001027,-0.00000673,0.00001093,-0.00001411,0.00000
 330,0.00000202,0.00000287,0.00000294,-0.00000542,0.00000416,0.00001171
 ,-0.00000457,-0.00000089,0.00000135,-0.00000858,-0.00000860,-0.0000152
 6,0.00000516,-0.00001065,0.00000303,0.00000009,-0.00000289,0.00000328,
 0.00000456,0.00000120,0.00000199,-0.00000325,0.00000339,-0.00000127,-0
 .00000299,0.00000442,-0.00000123,0.00000140,0.00000604,-0.00000040,-0.
 00000277,-0.00000587,-0.00000263,-0.00000838,-0.00000407,-0.00000161,0
 .00000044,0.00000902,0.00000452,0.00000053,-0.00000271\\\@
 The archive entry for this job was punched.


 Some scientists claim that hydrogen, because it is so
 plentiful, is the basic building block of the universe. 
 I dispute that. I say that stupidity is far more
 abundant than hydrogen, and THAT is the basic building 
 block of the universe.
                   --Frank Zappa
 Job cpu time:       0 days  2 hours 33 minutes 55.0 seconds.
 Elapsed time:       0 days  0 hours 38 minutes 41.9 seconds.
 File lengths (MBytes):  RWF=    241 Int=      0 D2E=      0 Chk=     14 Scr=      1
 Normal termination of Gaussian 16 at Sun Feb 11 17:34:14 2024.
