 Entering Gaussian System, Link 0=/opt/software/gaussian/g16.c01/g16
 Initial command:
 /opt/software/gaussian/g16.c01/l1.exe "/scratch/arhender/18119276/Gau-126166.inp" -scrdir="/scratch/arhender/18119276/"
 Entering Link 1 = /opt/software/gaussian/g16.c01/l1.exe PID=    126187.
  
 Copyright (c) 1988-2019, Gaussian, Inc.  All Rights Reserved.
  
 This is part of the Gaussian(R) 16 program.  It is based on
 the Gaussian(R) 09 system (copyright 2009, Gaussian, Inc.),
 the Gaussian(R) 03 system (copyright 2003, Gaussian, Inc.),
 the Gaussian(R) 98 system (copyright 1998, Gaussian, Inc.),
 the Gaussian(R) 94 system (copyright 1995, Gaussian, Inc.),
 the Gaussian 92(TM) system (copyright 1992, Gaussian, Inc.),
 the Gaussian 90(TM) system (copyright 1990, Gaussian, Inc.),
 the Gaussian 88(TM) system (copyright 1988, Gaussian, Inc.),
 the Gaussian 86(TM) system (copyright 1986, Carnegie Mellon
 University), and the Gaussian 82(TM) system (copyright 1983,
 Carnegie Mellon University). Gaussian is a federally registered
 trademark of Gaussian, Inc.
  
 This software contains proprietary and confidential information,
 including trade secrets, belonging to Gaussian, Inc.
  
 This software is provided under written license and may be
 used, copied, transmitted, or stored only in accord with that
 written license.
  
 The following legend is applicable only to US Government
 contracts under FAR:
  
                    RESTRICTED RIGHTS LEGEND
  
 Use, reproduction and disclosure by the US Government is
 subject to restrictions as set forth in subparagraphs (a)
 and (c) of the Commercial Computer Software - Restricted
 Rights clause in FAR 52.227-19.
  
 Gaussian, Inc.
 340 Quinnipiac St., Bldg. 40, Wallingford CT 06492
  
  
 ---------------------------------------------------------------
 Warning -- This program may not be used in any manner that
 competes with the business of Gaussian, Inc. or will provide
 assistance to any competitor of Gaussian, Inc.  The licensee
 of this program is prohibited from giving any competitor of
 Gaussian, Inc. access to this program.  By using this program,
 the user acknowledges that Gaussian, Inc. is engaged in the
 business of creating and licensing software in the field of
 computational chemistry and represents and warrants to the
 licensee that it is not a competitor of Gaussian, Inc. and that
 it will not use this program in any manner prohibited above.
 ---------------------------------------------------------------
  

 Cite this work as:
 Gaussian 16, Revision C.01,
 M. J. Frisch, G. W. Trucks, H. B. Schlegel, G. E. Scuseria, 
 M. A. Robb, J. R. Cheeseman, G. Scalmani, V. Barone, 
 G. A. Petersson, H. Nakatsuji, X. Li, M. Caricato, A. V. Marenich, 
 J. Bloino, B. G. Janesko, R. Gomperts, B. Mennucci, H. P. Hratchian, 
 J. V. Ortiz, A. F. Izmaylov, J. L. Sonnenberg, D. Williams-Young, 
 F. Ding, F. Lipparini, F. Egidi, J. Goings, B. Peng, A. Petrone, 
 T. Henderson, D. Ranasinghe, V. G. Zakrzewski, J. Gao, N. Rega, 
 G. Zheng, W. Liang, M. Hada, M. Ehara, K. Toyota, R. Fukuda, 
 J. Hasegawa, M. Ishida, T. Nakajima, Y. Honda, O. Kitao, H. Nakai, 
 T. Vreven, K. Throssell, J. A. Montgomery, Jr., J. E. Peralta, 
 F. Ogliaro, M. J. Bearpark, J. J. Heyd, E. N. Brothers, K. N. Kudin, 
 V. N. Staroverov, T. A. Keith, R. Kobayashi, J. Normand, 
 K. Raghavachari, A. P. Rendell, J. C. Burant, S. S. Iyengar, 
 J. Tomasi, M. Cossi, J. M. Millam, M. Klene, C. Adamo, R. Cammi, 
 J. W. Ochterski, R. L. Martin, K. Morokuma, O. Farkas, 
 J. B. Foresman, and D. J. Fox, Gaussian, Inc., Wallingford CT, 2019.
 
 ******************************************
 Gaussian 16:  ES64L-G16RevC.01  3-Jul-2019
                26-Mar-2024 
 ******************************************
 %chk=PbiLmL_to_HbiL2_IRCForward_ProductOpt.chk
 %mem=1600MB
 %nprocs=4
 Will use up to    4 processors via shared memory.
 ----------------------------------------------------
 # opt=calcfc freq wb97xd/def2tzvpp geom=connectivity
 ----------------------------------------------------
 1/10=4,18=20,19=15,26=3,38=1,57=2/1,3;
 2/9=110,12=2,17=6,18=5,40=1/2;
 3/5=44,7=202,11=2,25=1,30=1,71=2,74=-58,140=1/1,2,3;
 4//1;
 5/5=2,38=5/2;
 8/6=4,10=90,11=11/1;
 11/6=1,8=1,9=11,15=111,16=1/1,2,10;
 10/6=1,13=1/2;
 6/7=2,8=2,9=2,10=2,28=1/1;
 7/10=1,25=1/1,2,3,16;
 1/10=4,18=20,19=15,26=3/3(2);
 2/9=110/2;
 99//99;
 2/9=110/2;
 3/5=44,7=202,11=2,25=1,30=1,71=1,74=-58/1,2,3;
 4/5=5,16=3,69=1/1;
 5/5=2,38=5/2;
 7//1,2,3,16;
 1/18=20,19=15,26=3/3(-5);
 2/9=110/2;
 6/7=2,8=2,9=2,10=2,19=2,28=1/1;
 99/9=1/99;
 ----------------------------------------------------------------------
 Modify TS discovered for PmonoL1 to HBiL3 into potential PL3 to HL3 TS
  opt Unfreeze Result of previous job and optimize to a TS
 ----------------------------------------------------------------------
 Symbolic Z-matrix:
 Charge = -2 Multiplicity = 1
 Si                    0.32832   0.32554  -0.03404 
 O                    -0.46003   1.28763  -1.25159 
 O                     1.41395  -0.59191   1.10991 
 O                     1.76651   0.47797  -1.0253 
 O                    -0.5815   -1.09455  -0.2754 
 O                    -2.81284   0.7998    0.61754 
 O                    -0.19653   1.24251   1.26705 
 C                    -2.89045  -0.5291    0.41635 
 H                    -3.91348  -0.87149   0.06059 
 H                    -2.70656  -1.14026   1.3417 
 C                    -1.92779  -1.115    -0.64239 
 H                    -2.08934  -0.57313  -1.58813 
 H                    -2.21101  -2.1723   -0.80868 
 C                     2.88758  -0.21721  -0.61762 
 H                     3.37503  -0.7148   -1.47499 
 H                     3.63453   0.46708  -0.16922 
 C                     2.41969  -1.22353   0.43955 
 H                     2.07593  -2.15207  -0.06507 
 H                     3.25263  -1.50949   1.11024 
 H                    -1.18378   1.25594   1.17054 
 H                    -1.34238   1.45641  -0.90022 
 
 Add virtual bond connecting atoms H9         and C8         Dist= 2.15D+00.

 GradGradGradGradGradGradGradGradGradGradGradGradGradGradGradGradGradGrad
 Berny optimization.
 Initialization pass.
                           ----------------------------
                           !    Initial Parameters    !
                           ! (Angstroms and Degrees)  !
 --------------------------                            --------------------------
 ! Name  Definition              Value          Derivative Info.                !
 --------------------------------------------------------------------------------
 ! R1    R(1,2)                  1.7406         calculate D2E/DX2 analytically  !
 ! R2    R(1,3)                  1.8245         calculate D2E/DX2 analytically  !
 ! R3    R(1,4)                  1.7534         calculate D2E/DX2 analytically  !
 ! R4    R(1,5)                  1.7037         calculate D2E/DX2 analytically  !
 ! R5    R(1,7)                  1.676          calculate D2E/DX2 analytically  !
 ! R6    R(2,21)                 0.9646         calculate D2E/DX2 analytically  !
 ! R7    R(3,17)                 1.3638         calculate D2E/DX2 analytically  !
 ! R8    R(4,14)                 1.3807         calculate D2E/DX2 analytically  !
 ! R9    R(5,11)                 1.3956         calculate D2E/DX2 analytically  !
 ! R10   R(6,8)                  1.3463         calculate D2E/DX2 analytically  !
 ! R11   R(7,20)                 0.992          calculate D2E/DX2 analytically  !
 ! R12   R(8,9)                  1.136          calculate D2E/DX2 analytically  !
 ! R13   R(8,10)                 1.1241         calculate D2E/DX2 analytically  !
 ! R14   R(8,11)                 1.5463         calculate D2E/DX2 analytically  !
 ! R15   R(11,12)                1.1019         calculate D2E/DX2 analytically  !
 ! R16   R(11,13)                1.1071         calculate D2E/DX2 analytically  !
 ! R17   R(14,15)                1.1047         calculate D2E/DX2 analytically  !
 ! R18   R(14,16)                1.1078         calculate D2E/DX2 analytically  !
 ! R19   R(14,17)                1.5327         calculate D2E/DX2 analytically  !
 ! R20   R(17,18)                1.1113         calculate D2E/DX2 analytically  !
 ! R21   R(17,19)                1.107          calculate D2E/DX2 analytically  !
 ! A1    A(2,1,4)               85.8706         calculate D2E/DX2 analytically  !
 ! A2    A(2,1,5)               96.8784         calculate D2E/DX2 analytically  !
 ! A3    A(2,1,7)               95.6692         calculate D2E/DX2 analytically  !
 ! A4    A(3,1,4)               84.843          calculate D2E/DX2 analytically  !
 ! A5    A(3,1,5)               89.2803         calculate D2E/DX2 analytically  !
 ! A6    A(3,1,7)               88.551          calculate D2E/DX2 analytically  !
 ! A7    A(4,1,5)              115.4929         calculate D2E/DX2 analytically  !
 ! A8    A(4,1,7)              130.4039         calculate D2E/DX2 analytically  !
 ! A9    A(5,1,7)              113.5013         calculate D2E/DX2 analytically  !
 ! A10   A(1,2,21)             104.8454         calculate D2E/DX2 analytically  !
 ! A11   A(1,3,17)             111.3158         calculate D2E/DX2 analytically  !
 ! A12   A(1,4,14)             117.0851         calculate D2E/DX2 analytically  !
 ! A13   A(1,5,11)             124.3763         calculate D2E/DX2 analytically  !
 ! A14   A(1,7,20)             104.0942         calculate D2E/DX2 analytically  !
 ! A15   A(6,8,9)              113.3434         calculate D2E/DX2 analytically  !
 ! A16   A(6,8,10)             113.8424         calculate D2E/DX2 analytically  !
 ! A17   A(6,8,11)             116.1332         calculate D2E/DX2 analytically  !
 ! A18   A(9,8,10)             103.9612         calculate D2E/DX2 analytically  !
 ! A19   A(9,8,11)             103.4165         calculate D2E/DX2 analytically  !
 ! A20   A(10,8,11)            104.8201         calculate D2E/DX2 analytically  !
 ! A21   A(5,11,8)             114.5181         calculate D2E/DX2 analytically  !
 ! A22   A(5,11,12)            111.0956         calculate D2E/DX2 analytically  !
 ! A23   A(5,11,13)            107.474          calculate D2E/DX2 analytically  !
 ! A24   A(8,11,12)            108.0634         calculate D2E/DX2 analytically  !
 ! A25   A(8,11,13)            107.7849         calculate D2E/DX2 analytically  !
 ! A26   A(12,11,13)           107.6509         calculate D2E/DX2 analytically  !
 ! A27   A(4,14,15)            110.8498         calculate D2E/DX2 analytically  !
 ! A28   A(4,14,16)            110.8541         calculate D2E/DX2 analytically  !
 ! A29   A(4,14,17)            106.6415         calculate D2E/DX2 analytically  !
 ! A30   A(15,14,16)           107.1491         calculate D2E/DX2 analytically  !
 ! A31   A(15,14,17)           111.98           calculate D2E/DX2 analytically  !
 ! A32   A(16,14,17)           109.4022         calculate D2E/DX2 analytically  !
 ! A33   A(3,17,14)            105.0748         calculate D2E/DX2 analytically  !
 ! A34   A(3,17,18)            112.4611         calculate D2E/DX2 analytically  !
 ! A35   A(3,17,19)            112.1312         calculate D2E/DX2 analytically  !
 ! A36   A(14,17,18)           109.258          calculate D2E/DX2 analytically  !
 ! A37   A(14,17,19)           110.9658         calculate D2E/DX2 analytically  !
 ! A38   A(18,17,19)           106.9796         calculate D2E/DX2 analytically  !
 ! A39   L(2,1,3,4,-1)         170.7136         calculate D2E/DX2 analytically  !
 ! A40   L(2,1,3,4,-2)         177.6094         calculate D2E/DX2 analytically  !
 ! D1    D(4,1,2,21)          -174.3771         calculate D2E/DX2 analytically  !
 ! D2    D(5,1,2,21)            70.4129         calculate D2E/DX2 analytically  !
 ! D3    D(7,1,2,21)           -44.1449         calculate D2E/DX2 analytically  !
 ! D4    D(4,1,3,17)           -29.2043         calculate D2E/DX2 analytically  !
 ! D5    D(5,1,3,17)            86.4739         calculate D2E/DX2 analytically  !
 ! D6    D(7,1,3,17)          -159.995          calculate D2E/DX2 analytically  !
 ! D7    D(2,1,4,14)          -175.6104         calculate D2E/DX2 analytically  !
 ! D8    D(3,1,4,14)             6.7801         calculate D2E/DX2 analytically  !
 ! D9    D(5,1,4,14)           -79.9519         calculate D2E/DX2 analytically  !
 ! D10   D(7,1,4,14)            90.4555         calculate D2E/DX2 analytically  !
 ! D11   D(2,1,5,11)           -33.8635         calculate D2E/DX2 analytically  !
 ! D12   D(3,1,5,11)           153.5056         calculate D2E/DX2 analytically  !
 ! D13   D(4,1,5,11)          -122.5549         calculate D2E/DX2 analytically  !
 ! D14   D(7,1,5,11)            65.3989         calculate D2E/DX2 analytically  !
 ! D15   D(2,1,7,20)            55.2356         calculate D2E/DX2 analytically  !
 ! D16   D(3,1,7,20)          -133.3929         calculate D2E/DX2 analytically  !
 ! D17   D(4,1,7,20)           144.6321         calculate D2E/DX2 analytically  !
 ! D18   D(5,1,7,20)           -44.8083         calculate D2E/DX2 analytically  !
 ! D19   D(1,3,17,14)           41.3274         calculate D2E/DX2 analytically  !
 ! D20   D(1,3,17,18)          -77.4214         calculate D2E/DX2 analytically  !
 ! D21   D(1,3,17,19)          161.9632         calculate D2E/DX2 analytically  !
 ! D22   D(1,4,14,15)          136.1005         calculate D2E/DX2 analytically  !
 ! D23   D(1,4,14,16)         -105.0358         calculate D2E/DX2 analytically  !
 ! D24   D(1,4,14,17)           13.9694         calculate D2E/DX2 analytically  !
 ! D25   D(1,5,11,8)           -65.2245         calculate D2E/DX2 analytically  !
 ! D26   D(1,5,11,12)           57.5434         calculate D2E/DX2 analytically  !
 ! D27   D(1,5,11,13)          175.0702         calculate D2E/DX2 analytically  !
 ! D28   D(6,8,11,5)            69.0425         calculate D2E/DX2 analytically  !
 ! D29   D(6,8,11,12)          -55.3502         calculate D2E/DX2 analytically  !
 ! D30   D(6,8,11,13)         -171.426          calculate D2E/DX2 analytically  !
 ! D31   D(9,8,11,5)          -166.1533         calculate D2E/DX2 analytically  !
 ! D32   D(9,8,11,12)           69.454          calculate D2E/DX2 analytically  !
 ! D33   D(9,8,11,13)          -46.6218         calculate D2E/DX2 analytically  !
 ! D34   D(10,8,11,5)          -57.5096         calculate D2E/DX2 analytically  !
 ! D35   D(10,8,11,12)         178.0977         calculate D2E/DX2 analytically  !
 ! D36   D(10,8,11,13)          62.0219         calculate D2E/DX2 analytically  !
 ! D37   D(4,14,17,3)          -34.6192         calculate D2E/DX2 analytically  !
 ! D38   D(4,14,17,18)          86.26           calculate D2E/DX2 analytically  !
 ! D39   D(4,14,17,19)        -156.0203         calculate D2E/DX2 analytically  !
 ! D40   D(15,14,17,3)        -156.0346         calculate D2E/DX2 analytically  !
 ! D41   D(15,14,17,18)        -35.1554         calculate D2E/DX2 analytically  !
 ! D42   D(15,14,17,19)         82.5643         calculate D2E/DX2 analytically  !
 ! D43   D(16,14,17,3)          85.3276         calculate D2E/DX2 analytically  !
 ! D44   D(16,14,17,18)       -153.7932         calculate D2E/DX2 analytically  !
 ! D45   D(16,14,17,19)        -36.0735         calculate D2E/DX2 analytically  !
 --------------------------------------------------------------------------------
 Trust Radius=3.00D-01 FncErr=1.00D-07 GrdErr=1.00D-06 EigMax=2.50D+02 EigMin=1.00D-04
 Number of steps in this run=    116 maximum allowed number of steps=    126.
 GradGradGradGradGradGradGradGradGradGradGradGradGradGradGradGradGradGrad

                          Input orientation:                          
 ---------------------------------------------------------------------
 Center     Atomic      Atomic             Coordinates (Angstroms)
 Number     Number       Type             X           Y           Z
 ---------------------------------------------------------------------
      1         14           0        0.328317    0.325543   -0.034040
      2          8           0       -0.460031    1.287632   -1.251587
      3          8           0        1.413945   -0.591906    1.109908
      4          8           0        1.766513    0.477971   -1.025304
      5          8           0       -0.581495   -1.094552   -0.275398
      6          8           0       -2.812838    0.799798    0.617539
      7          8           0       -0.196527    1.242508    1.267051
      8          6           0       -2.890448   -0.529095    0.416352
      9          1           0       -3.913484   -0.871488    0.060585
     10          1           0       -2.706557   -1.140255    1.341696
     11          6           0       -1.927794   -1.115002   -0.642387
     12          1           0       -2.089336   -0.573128   -1.588127
     13          1           0       -2.211014   -2.172304   -0.808678
     14          6           0        2.887577   -0.217205   -0.617622
     15          1           0        3.375028   -0.714798   -1.474993
     16          1           0        3.634533    0.467076   -0.169216
     17          6           0        2.419693   -1.223532    0.439547
     18          1           0        2.075934   -2.152072   -0.065068
     19          1           0        3.252627   -1.509487    1.110244
     20          1           0       -1.183778    1.255942    1.170538
     21          1           0       -1.342382    1.456405   -0.900223
 ---------------------------------------------------------------------
                    Distance matrix (angstroms):
                    1          2          3          4          5
     1  Si   0.000000
     2  O    1.740554   0.000000
     3  O    1.824532   3.552620   0.000000
     4  O    1.753353   2.379969   2.414140   0.000000
     5  O    1.703726   2.577305   2.480626   2.923753   0.000000
     6  O    3.242889   3.044226   4.477160   4.875752   3.060194
     7  O    1.676044   2.532787   2.446097   3.113348   2.826517
     8  C    3.360611   3.462578   4.360363   4.977935   2.475787
     9  H    4.408482   4.279011   5.436979   5.938229   3.356306
    10  H    3.640285   4.203169   4.163286   5.313163   2.670762
    11  C    2.745049   2.880643   3.809381   4.041298   1.395572
    12  H    3.011286   2.496061   4.421846   4.035982   2.066089
    13  H    3.645203   3.902982   4.395334   4.784517   2.025159
    14  C    2.680477   3.724638   2.301380   1.380673   3.594623
    15  H    3.527195   4.332126   3.246947   2.052374   4.151785
    16  H    3.312004   4.313965   2.772835   2.054873   4.497205
    17  C    2.645330   4.178360   1.363768   2.338278   3.087865
    18  H    3.032112   4.435145   2.062260   2.816899   2.867842
    19  H    3.637074   5.214015   2.054923   3.274002   4.097886
    20  H    2.145479   2.528142   3.188477   3.759146   2.824588
    21  H    2.195531   0.964616   3.979138   3.261626   2.734362
                    6          7          8          9         10
     6  O    0.000000
     7  O    2.731838   0.000000
     8  C    1.346275   3.334588   0.000000
     9  H    2.077214   4.443007   1.135960   0.000000
    10  H    2.073525   3.461702   1.124097   1.780493   0.000000
    11  C    2.457066   3.493006   1.546259   2.120480   2.131594
    12  H    2.696914   3.877022   2.159087   2.476850   3.047369
    13  H    3.351071   4.475237   2.159274   2.312173   2.436144
    14  C    5.920697   3.898006   5.878091   6.866038   5.998774
    15  H    6.705399   4.909772   6.547355   7.450165   6.715685
    16  H    6.503713   4.164274   6.626509   7.669232   6.713851
    17  C    5.612925   3.689271   5.355406   6.354265   5.205694
    18  H    5.751485   4.296719   5.246977   6.126076   5.086745
    19  H    6.508872   4.415283   6.259395   7.270624   5.975096
    20  H    1.779807   0.992048   2.582223   3.634453   2.844277
    21  H    2.212911   2.460856   2.841142   3.599000   3.691858
                   11         12         13         14         15
    11  C    0.000000
    12  H    1.101884   0.000000
    13  H    1.107138   1.783174   0.000000
    14  C    4.898413   5.083131   5.463931   0.000000
    15  H    5.382687   5.467371   5.811382   1.104668   0.000000
    16  H    5.802271   5.988156   6.445592   1.107814   1.780231
    17  C    4.481406   4.986565   4.888935   1.532715   2.199304
    18  H    4.175961   4.707680   4.351010   2.169744   2.396099
    19  H    5.483074   6.057602   5.828633   2.188327   2.707390
    20  H    3.075977   3.431583   4.089668   4.684401   5.627198
    21  H    2.649777   2.269396   3.732349   4.557783   5.224791
                   16         17         18         19         20
    16  H    0.000000
    17  C    2.169005   0.000000
    18  H    3.049592   1.111302   0.000000
    19  H    2.385303   1.106971   1.782941   0.000000
    20  H    5.062941   4.434765   4.875141   5.228090   0.000000
    21  H    5.126678   4.809392   5.040186   5.826886   2.086478
                   21
    21  H    0.000000
 Stoichiometry    C4H10O6Si(2-)
 Framework group  C1[X(C4H10O6Si)]
 Deg. of freedom    57
 Full point group                 C1      NOp   1
 Largest Abelian subgroup         C1      NOp   1
 Largest concise Abelian subgroup C1      NOp   1
                         Standard orientation:                         
 ---------------------------------------------------------------------
 Center     Atomic      Atomic             Coordinates (Angstroms)
 Number     Number       Type             X           Y           Z
 ---------------------------------------------------------------------
      1         14           0       -0.309199   -0.374373    0.057451
      2          8           0        0.469078   -1.484073   -1.034511
      3          8           0       -1.384823    0.661305    1.105936
      4          8           0       -1.790821   -0.779541   -0.788055
      5          8           0        0.482498    1.033717   -0.484010
      6          8           0        2.891277   -0.544087    0.551898
      7          8           0        0.356796   -1.020861    1.453025
      8          6           0        2.863198    0.732438    0.125107
      9          1           0        3.836182    1.067766   -0.355791
     10          1           0        2.693580    1.482149    0.945324
     11          6           0        1.799226    1.069514   -0.945061
     12          1           0        1.940495    0.383102   -1.795372
     13          1           0        1.997022    2.097070   -1.306670
     14          6           0       -2.930952   -0.091454   -0.423505
     15          1           0       -3.503332    0.221383   -1.315025
     16          1           0       -3.599455   -0.730783    0.186096
     17          6           0       -2.471276    1.107778    0.413010
     18          1           0       -2.224765    1.953937   -0.263924
     19          1           0       -3.279844    1.455743    1.084220
     20          1           0        1.334856   -0.992803    1.289406
     21          1           0        1.380826   -1.537679   -0.724146
 ---------------------------------------------------------------------
 Rotational constants (GHZ):           1.9255454           0.6909276           0.6620211
 Standard basis: def2TZVPP (5D, 7F)
 There are   558 symmetry adapted cartesian basis functions of A   symmetry.
 There are   492 symmetry adapted basis functions of A   symmetry.
   492 basis functions,   749 primitive gaussians,   558 cartesian basis functions
    49 alpha electrons       49 beta electrons
       nuclear repulsion energy       852.8327643960 Hartrees.
 NAtoms=   21 NActive=   21 NUniq=   21 SFac= 1.00D+00 NAtFMM=   60 NAOKFM=F Big=F
 Integral buffers will be    131072 words long.
 Raffenetti 2 integral format.
 Two-electron integral symmetry is turned on.
 Nuclear repulsion after empirical dispersion term =      852.8206575621 Hartrees.
 One-electron integrals computed using PRISM.
   1 Symmetry operations used in ECPInt.
 ECPInt:  NShTT=   17020 NPrTT=   47563 LenC2=   16004 LenP2D=   34476.
 LDataN:  DoStor=T MaxTD1= 6 Len=  172
 NBasis=   492 RedAO= T EigKep=  2.91D-04  NBF=   492
 NBsUse=   492 1.00D-06 EigRej= -1.00D+00 NBFU=   492
 ExpMin= 7.01D-02 ExpMax= 4.48D+04 ExpMxC= 1.53D+03 IAcc=3 IRadAn=         5 AccDes= 0.00D+00
 Harris functional with IExCor= 4639 and IRadAn=       5 diagonalized for initial guess.
 HarFok:  IExCor= 4639 AccDes= 0.00D+00 IRadAn=         5 IDoV= 1 UseB2=F ITyADJ=14
 ICtDFT=  3500011 ScaDFX=  1.000000  1.000000  1.000000  1.000000
 FoFCou: FMM=F IPFlag=           0 FMFlag=      100000 FMFlg1=           0
         NFxFlg=           0 DoJE=T BraDBF=F KetDBF=T FulRan=T
         wScrn=  0.000000 ICntrl=       500 IOpCl=  0 I1Cent=   200000004 NGrid=           0
         NMat0=    1 NMatS0=      1 NMatT0=    0 NMatD0=    1 NMtDS0=    0 NMtDT0=    0
 Petite list used in FoFCou.
 Requested convergence on RMS density matrix=1.00D-08 within 128 cycles.
 Requested convergence on MAX density matrix=1.00D-06.
 Requested convergence on             energy=1.00D-06.
 No special actions if energy rises.
 Integral accuracy reduced to 1.0D-05 until final iterations.
 Initial convergence to 1.0D-05 achieved.  Increase integral accuracy.
 SCF Done:  E(RwB97XD) =  -899.475255365     A.U. after   16 cycles
            NFock= 16  Conv=0.42D-08     -V/T= 2.0035
 DoSCS=F DFT=T ScalE2(SS,OS)=  1.000000  1.000000
 Range of M.O.s used for correlation:     1   492
 NBasis=   492 NAE=    49 NBE=    49 NFC=     0 NFV=     0
 NROrb=    492 NOA=    49 NOB=    49 NVA=   443 NVB=   443

 **** Warning!!: The largest alpha MO coefficient is  0.12329881D+02

   1 Symmetry operations used in ECPInt.
 ECPInt:  NShTT=   17020 NPrTT=   47563 LenC2=   16004 LenP2D=   34476.
 LDataN:  DoStor=T MaxTD1= 7 Len=  274
 Symmetrizing basis deriv contribution to polar:
 IMax=3 JMax=2 DiffMx= 0.00D+00
 G2DrvN: will do    22 centers at a time, making    1 passes.
 Calling FoFCou, ICntrl=  3107 FMM=F I1Cent=   0 AccDes= 0.00D+00.
 End of G2Drv F.D. properties file   721 does not exist.
 End of G2Drv F.D. properties file   722 does not exist.
 End of G2Drv F.D. properties file   788 does not exist.
          IDoAtm=111111111111111111111
          Differentiating once with respect to nuclear coordinates.
 CalDSu exits because no D1Ps are significant.
          There are    66 degrees of freedom in the 1st order CPHF.  IDoFFX=6 NUNeed=     0.
     60 vectors produced by pass  0 Test12= 3.29D-14 1.52D-09 XBig12= 8.91D-02 4.02D-02.
 AX will form    60 AO Fock derivatives at one time.
     60 vectors produced by pass  1 Test12= 3.29D-14 1.52D-09 XBig12= 3.05D-02 1.79D-02.
     60 vectors produced by pass  2 Test12= 3.29D-14 1.52D-09 XBig12= 6.81D-04 2.83D-03.
     60 vectors produced by pass  3 Test12= 3.29D-14 1.52D-09 XBig12= 9.04D-06 3.97D-04.
     60 vectors produced by pass  4 Test12= 3.29D-14 1.52D-09 XBig12= 1.29D-07 4.14D-05.
     60 vectors produced by pass  5 Test12= 3.29D-14 1.52D-09 XBig12= 1.43D-09 4.03D-06.
     60 vectors produced by pass  6 Test12= 3.29D-14 1.52D-09 XBig12= 1.20D-11 3.21D-07.
     33 vectors produced by pass  7 Test12= 3.29D-14 1.52D-09 XBig12= 8.50D-14 2.65D-08.
      3 vectors produced by pass  8 Test12= 3.29D-14 1.52D-09 XBig12= 6.32D-16 2.10D-09.
 InvSVY:  IOpt=1 It=  1 EMax= 3.33D-16
 Solved reduced A of dimension   456 with    66 vectors.
 End of Minotr F.D. properties file   721 does not exist.
 End of Minotr F.D. properties file   722 does not exist.
 End of Minotr F.D. properties file   788 does not exist.

 **********************************************************************

            Population analysis using the SCF Density.

 **********************************************************************

 Orbital symmetries:
       Occupied  (A) (A) (A) (A) (A) (A) (A) (A) (A) (A) (A) (A)
                 (A) (A) (A) (A) (A) (A) (A) (A) (A) (A) (A) (A)
                 (A) (A) (A) (A) (A) (A) (A) (A) (A) (A) (A) (A)
                 (A) (A) (A) (A) (A) (A) (A) (A) (A) (A) (A) (A)
                 (A)
       Virtual   (A) (A) (A) (A) (A) (A) (A) (A) (A) (A) (A) (A)
                 (A) (A) (A) (A) (A) (A) (A) (A) (A) (A) (A) (A)
                 (A) (A) (A) (A) (A) (A) (A) (A) (A) (A) (A) (A)
                 (A) (A) (A) (A) (A) (A) (A) (A) (A) (A) (A) (A)
                 (A) (A) (A) (A) (A) (A) (A) (A) (A) (A) (A) (A)
                 (A) (A) (A) (A) (A) (A) (A) (A) (A) (A) (A) (A)
                 (A) (A) (A) (A) (A) (A) (A) (A) (A) (A) (A) (A)
                 (A) (A) (A) (A) (A) (A) (A) (A) (A) (A) (A) (A)
                 (A) (A) (A) (A) (A) (A) (A) (A) (A) (A) (A) (A)
                 (A) (A) (A) (A) (A) (A) (A) (A) (A) (A) (A) (A)
                 (A) (A) (A) (A) (A) (A) (A) (A) (A) (A) (A) (A)
                 (A) (A) (A) (A) (A) (A) (A) (A) (A) (A) (A) (A)
                 (A) (A) (A) (A) (A) (A) (A) (A) (A) (A) (A) (A)
                 (A) (A) (A) (A) (A) (A) (A) (A) (A) (A) (A) (A)
                 (A) (A) (A) (A) (A) (A) (A) (A) (A) (A) (A) (A)
                 (A) (A) (A) (A) (A) (A) (A) (A) (A) (A) (A) (A)
                 (A) (A) (A) (A) (A) (A) (A) (A) (A) (A) (A) (A)
                 (A) (A) (A) (A) (A) (A) (A) (A) (A) (A) (A) (A)
                 (A) (A) (A) (A) (A) (A) (A) (A) (A) (A) (A) (A)
                 (A) (A) (A) (A) (A) (A) (A) (A) (A) (A) (A) (A)
                 (A) (A) (A) (A) (A) (A) (A) (A) (A) (A) (A) (A)
                 (A) (A) (A) (A) (A) (A) (A) (A) (A) (A) (A) (A)
                 (A) (A) (A) (A) (A) (A) (A) (A) (A) (A) (A) (A)
                 (A) (A) (A) (A) (A) (A) (A) (A) (A) (A) (A) (A)
                 (A) (A) (A) (A) (A) (A) (A) (A) (A) (A) (A) (A)
                 (A) (A) (A) (A) (A) (A) (A) (A) (A) (A) (A) (A)
                 (A) (A) (A) (A) (A) (A) (A) (A) (A) (A) (A) (A)
                 (A) (A) (A) (A) (A) (A) (A) (A) (A) (A) (A) (A)
                 (A) (A) (A) (A) (A) (A) (A) (A) (A) (A) (A) (A)
                 (A) (A) (A) (A) (A) (A) (A) (A) (A) (A) (A) (A)
                 (A) (A) (A) (A) (A) (A) (A) (A) (A) (A) (A) (A)
                 (A) (A) (A) (A) (A) (A) (A) (A) (A) (A) (A) (A)
                 (A) (A) (A) (A) (A) (A) (A) (A) (A) (A) (A) (A)
                 (A) (A) (A) (A) (A) (A) (A) (A) (A) (A) (A) (A)
                 (A) (A) (A) (A) (A) (A) (A) (A) (A) (A) (A) (A)
                 (A) (A) (A) (A) (A) (A) (A) (A) (A) (A) (A) (A)
                 (A) (A) (A) (A) (A) (A) (A) (A) (A) (A) (A)
 The electronic state is 1-A.
 Alpha  occ. eigenvalues --  -65.97863 -18.92877 -18.90915 -18.90138 -18.87763
 Alpha  occ. eigenvalues --  -18.87736 -18.83572 -10.05349 -10.04473 -10.01861
 Alpha  occ. eigenvalues --  -10.00637  -5.08826  -3.43486  -3.43347  -3.43237
 Alpha  occ. eigenvalues --   -0.83186  -0.78645  -0.76503  -0.74227  -0.71431
 Alpha  occ. eigenvalues --   -0.70603  -0.53160  -0.49186  -0.41041  -0.37053
 Alpha  occ. eigenvalues --   -0.31326  -0.29939  -0.28032  -0.26138  -0.24036
 Alpha  occ. eigenvalues --   -0.23561  -0.21961  -0.20611  -0.18824  -0.17559
 Alpha  occ. eigenvalues --   -0.16417  -0.15321  -0.12398  -0.10066  -0.09238
 Alpha  occ. eigenvalues --   -0.08576  -0.07549  -0.06724  -0.05920  -0.04629
 Alpha  occ. eigenvalues --   -0.02529  -0.02301   0.02503   0.02908
 Alpha virt. eigenvalues --    0.35611   0.38327   0.39332   0.39802   0.41863
 Alpha virt. eigenvalues --    0.42805   0.43803   0.45199   0.45872   0.47717
 Alpha virt. eigenvalues --    0.48843   0.49495   0.51173   0.51266   0.52085
 Alpha virt. eigenvalues --    0.53407   0.55283   0.55544   0.57156   0.58124
 Alpha virt. eigenvalues --    0.59632   0.61845   0.62005   0.63469   0.65298
 Alpha virt. eigenvalues --    0.66663   0.67633   0.68004   0.69301   0.70027
 Alpha virt. eigenvalues --    0.70769   0.72228   0.72701   0.72788   0.74603
 Alpha virt. eigenvalues --    0.74935   0.75138   0.76156   0.76185   0.77171
 Alpha virt. eigenvalues --    0.78068   0.78520   0.79425   0.80301   0.81937
 Alpha virt. eigenvalues --    0.82307   0.82705   0.84540   0.85052   0.85925
 Alpha virt. eigenvalues --    0.86685   0.87350   0.88664   0.90420   0.90856
 Alpha virt. eigenvalues --    0.94054   0.95652   0.96061   0.96749   0.98105
 Alpha virt. eigenvalues --    1.00621   1.01505   1.02998   1.04462   1.05769
 Alpha virt. eigenvalues --    1.06200   1.07162   1.07909   1.09307   1.09998
 Alpha virt. eigenvalues --    1.12842   1.13650   1.13873   1.15591   1.16945
 Alpha virt. eigenvalues --    1.17465   1.19415   1.19769   1.20708   1.21642
 Alpha virt. eigenvalues --    1.23370   1.23639   1.25504   1.26115   1.28281
 Alpha virt. eigenvalues --    1.29047   1.29846   1.31083   1.31265   1.33305
 Alpha virt. eigenvalues --    1.33695   1.37162   1.37415   1.38864   1.39631
 Alpha virt. eigenvalues --    1.40147   1.41773   1.43820   1.44264   1.45111
 Alpha virt. eigenvalues --    1.46841   1.47509   1.48616   1.49887   1.50973
 Alpha virt. eigenvalues --    1.52593   1.53069   1.54332   1.55116   1.56257
 Alpha virt. eigenvalues --    1.56901   1.58265   1.59942   1.60306   1.62110
 Alpha virt. eigenvalues --    1.64433   1.65335   1.66178   1.67198   1.68396
 Alpha virt. eigenvalues --    1.69361   1.70934   1.72296   1.74747   1.74977
 Alpha virt. eigenvalues --    1.75602   1.75778   1.78371   1.80803   1.82114
 Alpha virt. eigenvalues --    1.83753   1.84750   1.85542   1.86240   1.88577
 Alpha virt. eigenvalues --    1.90890   1.91204   1.93150   1.94165   1.95527
 Alpha virt. eigenvalues --    1.97989   2.01582   2.02675   2.06985   2.10882
 Alpha virt. eigenvalues --    2.12461   2.15278   2.16576   2.18188   2.21254
 Alpha virt. eigenvalues --    2.22364   2.24520   2.25892   2.28031   2.31928
 Alpha virt. eigenvalues --    2.32518   2.34338   2.35602   2.36372   2.37066
 Alpha virt. eigenvalues --    2.38305   2.41519   2.42641   2.44153   2.45339
 Alpha virt. eigenvalues --    2.45688   2.47663   2.48499   2.49048   2.52352
 Alpha virt. eigenvalues --    2.54249   2.56908   2.57723   2.59614   2.61897
 Alpha virt. eigenvalues --    2.64198   2.64653   2.66530   2.68198   2.70125
 Alpha virt. eigenvalues --    2.72899   2.74980   2.75450   2.78200   2.80728
 Alpha virt. eigenvalues --    2.82468   2.84200   2.85909   2.89072   2.93619
 Alpha virt. eigenvalues --    2.95459   2.97755   2.98843   2.99822   3.00409
 Alpha virt. eigenvalues --    3.02229   3.05228   3.07331   3.07944   3.12366
 Alpha virt. eigenvalues --    3.13945   3.15217   3.15965   3.16184   3.18008
 Alpha virt. eigenvalues --    3.20256   3.22827   3.24619   3.26359   3.27503
 Alpha virt. eigenvalues --    3.29393   3.30793   3.32643   3.33953   3.34156
 Alpha virt. eigenvalues --    3.34477   3.37091   3.38378   3.40314   3.41704
 Alpha virt. eigenvalues --    3.42226   3.43884   3.45369   3.45717   3.47328
 Alpha virt. eigenvalues --    3.48654   3.49690   3.50380   3.51095   3.51705
 Alpha virt. eigenvalues --    3.54375   3.55105   3.55786   3.57627   3.58881
 Alpha virt. eigenvalues --    3.59783   3.62484   3.63799   3.67015   3.67674
 Alpha virt. eigenvalues --    3.69415   3.71715   3.72489   3.74821   3.77279
 Alpha virt. eigenvalues --    3.78368   3.80433   3.81280   3.82758   3.84848
 Alpha virt. eigenvalues --    3.85645   3.87498   3.89889   3.91178   3.91978
 Alpha virt. eigenvalues --    3.94562   3.95204   3.95492   3.97201   3.98427
 Alpha virt. eigenvalues --    3.99956   4.01336   4.02421   4.03749   4.05256
 Alpha virt. eigenvalues --    4.06778   4.08013   4.08587   4.11411   4.12065
 Alpha virt. eigenvalues --    4.12426   4.13542   4.16565   4.18751   4.18885
 Alpha virt. eigenvalues --    4.20943   4.23405   4.25625   4.27187   4.28519
 Alpha virt. eigenvalues --    4.31645   4.33155   4.35016   4.36716   4.36934
 Alpha virt. eigenvalues --    4.38959   4.40157   4.41071   4.44287   4.45576
 Alpha virt. eigenvalues --    4.48248   4.48683   4.49620   4.50123   4.50960
 Alpha virt. eigenvalues --    4.54153   4.55109   4.59252   4.60015   4.60789
 Alpha virt. eigenvalues --    4.62357   4.63846   4.65408   4.65934   4.68387
 Alpha virt. eigenvalues --    4.68919   4.70818   4.71606   4.73733   4.75618
 Alpha virt. eigenvalues --    4.79311   4.81749   4.84462   4.86027   4.90411
 Alpha virt. eigenvalues --    4.92567   4.95038   4.96398   5.00698   5.02008
 Alpha virt. eigenvalues --    5.03816   5.06473   5.08021   5.09630   5.11624
 Alpha virt. eigenvalues --    5.13822   5.15280   5.17468   5.19385   5.20538
 Alpha virt. eigenvalues --    5.23245   5.25249   5.27163   5.28812   5.29547
 Alpha virt. eigenvalues --    5.34569   5.36403   5.38191   5.39719   5.41765
 Alpha virt. eigenvalues --    5.43297   5.44289   5.45455   5.45586   5.51231
 Alpha virt. eigenvalues --    5.53852   5.56591   5.59444   5.63359   5.64834
 Alpha virt. eigenvalues --    5.65478   5.67449   5.68847   5.71591   5.72852
 Alpha virt. eigenvalues --    5.75554   5.76075   5.78065   5.79424   5.80231
 Alpha virt. eigenvalues --    5.82826   5.83571   5.85394   5.85942   5.86902
 Alpha virt. eigenvalues --    5.89137   5.91578   5.92617   5.95294   5.96718
 Alpha virt. eigenvalues --    5.98406   5.99121   6.00977   6.05202   6.06728
 Alpha virt. eigenvalues --    6.07912   6.10804   6.11872   6.13555   6.19049
 Alpha virt. eigenvalues --    6.36087   6.37221   6.40796   6.44112   6.45781
 Alpha virt. eigenvalues --    6.49561   6.51532   6.53117   6.58302   6.61311
 Alpha virt. eigenvalues --    6.65954   6.68248   6.70551   6.81431   6.87865
 Alpha virt. eigenvalues --    6.90141   6.94797   6.97394   6.99023   7.01956
 Alpha virt. eigenvalues --    7.04016   7.06358   7.07500   7.08391   7.12803
 Alpha virt. eigenvalues --    7.13440   7.15301   7.16234   7.19701   7.20789
 Alpha virt. eigenvalues --    7.24926   7.27524   7.28302   7.32664   7.34639
 Alpha virt. eigenvalues --    7.37970   7.40159   7.43457   7.47166   7.50309
 Alpha virt. eigenvalues --    7.52206   7.54896   7.61330   7.63512   7.74718
 Alpha virt. eigenvalues --    7.77522   7.81062   7.83084   7.86167   7.93938
 Alpha virt. eigenvalues --    8.02543   8.06153  12.69691  23.62844  23.72446
 Alpha virt. eigenvalues --   23.80365  23.81126  44.24774  44.31037  44.37848
 Alpha virt. eigenvalues --   44.52617  44.65075  44.66795
          Condensed to atoms (all electrons):
               1          2          3          4          5          6
     1  Si  11.462249   0.434488   0.369869   0.368081   0.375722  -0.004641
     2  O    0.434488   7.985251   0.003089  -0.047055  -0.053626  -0.023187
     3  O    0.369869   0.003089   8.095423  -0.047958  -0.045789  -0.000167
     4  O    0.368081  -0.047055  -0.047958   8.020704  -0.019152  -0.000062
     5  O    0.375722  -0.053626  -0.045789  -0.019152   8.027572   0.010254
     6  O   -0.004641  -0.023187  -0.000167  -0.000062   0.010254   8.510176
     7  O    0.455122  -0.064031  -0.052214  -0.011866  -0.029873  -0.051849
     8  C    0.000319  -0.006240  -0.000988  -0.000498  -0.091701   0.474757
     9  H    0.000269  -0.000476  -0.000010   0.000009   0.012825  -0.047516
    10  H    0.002527  -0.000935   0.000225  -0.000039   0.017416  -0.085227
    11  C   -0.051696   0.007605   0.003111  -0.000630   0.292720  -0.201023
    12  H   -0.010542   0.021521  -0.000364   0.000226  -0.054759   0.017734
    13  H    0.008346   0.001456  -0.000141  -0.000136  -0.040428   0.015911
    14  C   -0.086407   0.004612  -0.138326   0.379906  -0.002964  -0.000027
    15  H    0.007647   0.000056   0.009206  -0.052479   0.000290  -0.000001
    16  H    0.008760  -0.000070   0.015256  -0.064210  -0.000227   0.000001
    17  C   -0.055101  -0.002771   0.404402  -0.098585  -0.001525  -0.000067
    18  H    0.021338   0.000147  -0.065442   0.007748   0.013685   0.000002
    19  H   -0.005120   0.000030  -0.053318   0.006145  -0.000388  -0.000001
    20  H   -0.050102   0.003987   0.002853   0.000173  -0.003550   0.090724
    21  H   -0.061333   0.313055   0.000262   0.002734   0.007317   0.062302
               7          8          9         10         11         12
     1  Si   0.455122   0.000319   0.000269   0.002527  -0.051696  -0.010542
     2  O   -0.064031  -0.006240  -0.000476  -0.000935   0.007605   0.021521
     3  O   -0.052214  -0.000988  -0.000010   0.000225   0.003111  -0.000364
     4  O   -0.011866  -0.000498   0.000009  -0.000039  -0.000630   0.000226
     5  O   -0.029873  -0.091701   0.012825   0.017416   0.292720  -0.054759
     6  O   -0.051849   0.474757  -0.047516  -0.085227  -0.201023   0.017734
     7  O    7.971803   0.018725  -0.001367   0.002577  -0.015182   0.001505
     8  C    0.018725   4.871912   0.107988   0.397099   0.149711  -0.071653
     9  H   -0.001367   0.107988   1.216716  -0.133369  -0.041847  -0.008651
    10  H    0.002577   0.397099  -0.133369   1.056019  -0.207371   0.029502
    11  C   -0.015182   0.149711  -0.041847  -0.207371   5.435163   0.325083
    12  H    0.001505  -0.071653  -0.008651   0.029502   0.325083   0.821871
    13  H   -0.000487  -0.009458   0.026307   0.007100   0.197727  -0.056264
    14  C    0.000501  -0.000240  -0.000003   0.000041   0.000573  -0.000054
    15  H   -0.000067   0.000007  -0.000000  -0.000001   0.000051   0.000040
    16  H    0.000082  -0.000005   0.000000   0.000001  -0.000093   0.000003
    17  C    0.000354  -0.000166  -0.000017   0.000080  -0.000126  -0.000306
    18  H   -0.000273   0.000068  -0.000006   0.000046   0.000306   0.000282
    19  H   -0.000277  -0.000008  -0.000001  -0.000000   0.000120  -0.000007
    20  H    0.322636  -0.018583   0.006115  -0.014427   0.018922  -0.002929
    21  H    0.001460   0.006400  -0.001188   0.006600  -0.040471   0.010145
              13         14         15         16         17         18
     1  Si   0.008346  -0.086407   0.007647   0.008760  -0.055101   0.021338
     2  O    0.001456   0.004612   0.000056  -0.000070  -0.002771   0.000147
     3  O   -0.000141  -0.138326   0.009206   0.015256   0.404402  -0.065442
     4  O   -0.000136   0.379906  -0.052479  -0.064210  -0.098585   0.007748
     5  O   -0.040428  -0.002964   0.000290  -0.000227  -0.001525   0.013685
     6  O    0.015911  -0.000027  -0.000001   0.000001  -0.000067   0.000002
     7  O   -0.000487   0.000501  -0.000067   0.000082   0.000354  -0.000273
     8  C   -0.009458  -0.000240   0.000007  -0.000005  -0.000166   0.000068
     9  H    0.026307  -0.000003  -0.000000   0.000000  -0.000017  -0.000006
    10  H    0.007100   0.000041  -0.000001   0.000001   0.000080   0.000046
    11  C    0.197727   0.000573   0.000051  -0.000093  -0.000126   0.000306
    12  H   -0.056264  -0.000054   0.000040   0.000003  -0.000306   0.000282
    13  H    0.899134   0.000005   0.000006   0.000002  -0.000135  -0.000229
    14  C    0.000005   4.903766   0.316007   0.335502   0.289113  -0.108944
    15  H    0.000006   0.316007   0.884262  -0.110164  -0.018533  -0.011991
    16  H    0.000002   0.335502  -0.110164   0.895948  -0.049329   0.024641
    17  C   -0.000135   0.289113  -0.018533  -0.049329   4.757019   0.368292
    18  H   -0.000229  -0.108944  -0.011991   0.024641   0.368292   0.895794
    19  H   -0.000040  -0.007616   0.012479  -0.026504   0.311438  -0.117434
    20  H   -0.000552  -0.000764  -0.000001   0.000081  -0.000516   0.000121
    21  H    0.002259  -0.000776   0.000009   0.000107  -0.000202   0.000108
              19         20         21
     1  Si  -0.005120  -0.050102  -0.061333
     2  O    0.000030   0.003987   0.313055
     3  O   -0.053318   0.002853   0.000262
     4  O    0.006145   0.000173   0.002734
     5  O   -0.000388  -0.003550   0.007317
     6  O   -0.000001   0.090724   0.062302
     7  O   -0.000277   0.322636   0.001460
     8  C   -0.000008  -0.018583   0.006400
     9  H   -0.000001   0.006115  -0.001188
    10  H   -0.000000  -0.014427   0.006600
    11  C    0.000120   0.018922  -0.040471
    12  H   -0.000007  -0.002929   0.010145
    13  H   -0.000040  -0.000552   0.002259
    14  C   -0.007616  -0.000764  -0.000776
    15  H    0.012479  -0.000001   0.000009
    16  H   -0.026504   0.000081   0.000107
    17  C    0.311438  -0.000516  -0.000202
    18  H   -0.117434   0.000121   0.000108
    19  H    0.919571   0.000034  -0.000012
    20  H    0.000034   0.446971  -0.007570
    21  H   -0.000012  -0.007570   0.559558
 Mulliken charges:
               1
     1  Si   0.810206
     2  O   -0.576907
     3  O   -0.498979
     4  O   -0.443054
     5  O   -0.413821
     6  O   -0.768092
     7  O   -0.547280
     8  C    0.172550
     9  H   -0.135776
    10  H   -0.077863
    11  C    0.127346
    12  H   -0.022383
    13  H   -0.050384
    14  C    0.116096
    15  H   -0.036824
    16  H   -0.029783
    17  C    0.096682
    18  H   -0.028257
    19  H   -0.039091
    20  H    0.206377
    21  H    0.139236
 Sum of Mulliken charges =  -2.00000
 Mulliken charges with hydrogens summed into heavy atoms:
               1
     1  Si   0.810206
     2  O   -0.437671
     3  O   -0.498979
     4  O   -0.443054
     5  O   -0.413821
     6  O   -0.768092
     7  O   -0.340902
     8  C   -0.041089
    11  C    0.054580
    14  C    0.049489
    17  C    0.029333
 APT charges:
               1
     1  Si   0.150865
     2  O   -0.556691
     3  O   -0.428941
     4  O   -0.386854
     5  O   -0.388849
     6  O   -0.545500
     7  O   -0.527966
     8  C   -0.689525
     9  H    0.217191
    10  H    0.128333
    11  C   -0.258150
    12  H    0.166574
    13  H    0.258959
    14  C   -0.595774
    15  H    0.369260
    16  H    0.365075
    17  C   -0.451763
    18  H    0.170330
    19  H    0.383752
    20  H    0.317392
    21  H    0.302283
 Sum of APT charges =  -2.00000
 APT charges with hydrogens summed into heavy atoms:
               1
     1  Si   0.150865
     2  O   -0.254408
     3  O   -0.428941
     4  O   -0.386854
     5  O   -0.388849
     6  O   -0.545500
     7  O   -0.210574
     8  C   -0.344000
    11  C    0.167382
    14  C    0.138561
    17  C    0.102319
 Electronic spatial extent (au):  <R**2>=           1983.8501
 Charge=             -2.0000 electrons
 Dipole moment (field-independent basis, Debye):
    X=             -5.4264    Y=              2.5977    Z=             -1.9080  Tot=              6.3115
 Quadrupole moment (field-independent basis, Debye-Ang):
   XX=           -122.8803   YY=            -94.0913   ZZ=            -94.4187
   XY=              1.1494   XZ=             -3.5579   YZ=             -1.8550
 Traceless Quadrupole moment (field-independent basis, Debye-Ang):
   XX=            -19.0835   YY=              9.7055   ZZ=              9.3781
   XY=              1.1494   XZ=             -3.5579   YZ=             -1.8550
 Octapole moment (field-independent basis, Debye-Ang**2):
  XXX=            -85.1278  YYY=             -8.7891  ZZZ=             -3.9074  XYY=             -5.9709
  XXY=             -3.7158  XXZ=            -10.2881  XZZ=             -0.9556  YZZ=              4.4137
  YYZ=              5.3470  XYZ=             10.2549
 Hexadecapole moment (field-independent basis, Debye-Ang**3):
 XXXX=          -2396.5617 YYYY=           -536.4316 ZZZZ=           -427.9667 XXXY=             -4.5139
 XXXZ=            -44.6191 YYYX=            -19.3248 YYYZ=             -3.3123 ZZZX=             10.2329
 ZZZY=              3.7318 XXYY=           -449.0706 XXZZ=           -412.8978 YYZZ=           -172.0097
 XXYZ=              5.6538 YYXZ=              2.2279 ZZXY=             -4.5393
 N-N= 8.528206575621D+02 E-N=-3.864666812359D+03  KE= 8.963186861944D+02
  Exact polarizability:       0.000       0.000       0.000       0.000       0.000       0.000
 Approx polarizability:     115.929       1.059     110.312      -2.017      -2.824     104.588
   1 Symmetry operations used in ECPInt.
 ECPInt:  NShTT=   17020 NPrTT=   47563 LenC2=   16004 LenP2D=   34476.
 LDataN:  DoStor=T MaxTD1= 8 Len=  415
 Calling FoFJK, ICntrl=    100127 FMM=F ISym2X=0 I1Cent= 0 IOpClX= 0 NMat=1 NMatS=1 NMatT=0.
 ***** Axes restored to original set *****
 -------------------------------------------------------------------
 Center     Atomic                   Forces (Hartrees/Bohr)
 Number     Number              X              Y              Z
 -------------------------------------------------------------------
      1       14          -0.000010341   -0.000806572    0.001002144
      2        8          -0.000596069   -0.000325654    0.001197680
      3        8           0.000950113   -0.000161441   -0.000198735
      4        8          -0.000516672   -0.000098056   -0.000434394
      5        8          -0.000157320   -0.000606253    0.000958545
      6        8          -0.000185947    0.001562830   -0.002242377
      7        8          -0.003272218   -0.000910074    0.000504337
      8        6          -0.000274101    0.000838623   -0.000583339
      9        1          -0.000047449    0.000063096   -0.000061135
     10        1          -0.000057509    0.000108596   -0.000017774
     11        6           0.000054799   -0.000263170    0.000332006
     12        1           0.000035404   -0.000052451   -0.000007014
     13        1          -0.000023626   -0.000018583    0.000065613
     14        6           0.000039566    0.000491625   -0.000556765
     15        1           0.000010365    0.000033422   -0.000047293
     16        1           0.000009712    0.000058776   -0.000030939
     17        6           0.000883536    0.000495968   -0.000375664
     18        1           0.000050320   -0.000007183   -0.000004767
     19        1           0.000077214    0.000047486   -0.000000970
     20        1           0.003188399   -0.000347025    0.000504513
     21        1          -0.000158179   -0.000103961   -0.000003671
 -------------------------------------------------------------------
 Cartesian Forces:  Max     0.003272218 RMS     0.000789243
 FormGI is forming the generalized inverse of G from B-inverse, IUseBI=4.

 GradGradGradGradGradGradGradGradGradGradGradGradGradGradGradGradGradGrad
 Berny optimization.
 Internal  Forces:  Max     0.007334389 RMS     0.001724251
 Search for a local minimum.
 Step number   1 out of a maximum of  116
 All quantities printed in internal units (Hartrees-Bohrs-Radians)
 Mixed Optimization -- RFO/linear search
 Second derivative matrix not updated -- analytic derivatives used.
 ITU=  0
     Eigenvalues ---    0.00299   0.00362   0.00504   0.00646   0.00751
     Eigenvalues ---    0.01250   0.01552   0.04396   0.04569   0.04646
     Eigenvalues ---    0.04895   0.05132   0.05423   0.05752   0.06187
     Eigenvalues ---    0.07327   0.08294   0.09117   0.09200   0.09561
     Eigenvalues ---    0.09922   0.10195   0.10380   0.11339   0.11585
     Eigenvalues ---    0.12080   0.12871   0.13869   0.14360   0.15717
     Eigenvalues ---    0.16946   0.18012   0.18077   0.21330   0.22463
     Eigenvalues ---    0.22835   0.23673   0.24384   0.25476   0.25702
     Eigenvalues ---    0.26848   0.27901   0.28369   0.28580   0.29455
     Eigenvalues ---    0.29674   0.29973   0.30691   0.31345   0.34187
     Eigenvalues ---    0.36755   0.37911   0.41730   0.42837   0.45884
     Eigenvalues ---    0.51880   1.04738
 RFO step:  Lambda=-4.66154600D-03 EMin= 2.98830059D-03
 Linear search not attempted -- first point.
 Iteration  1 RMS(Cart)=  0.15085164 RMS(Int)=  0.01039665
 Iteration  2 RMS(Cart)=  0.01407383 RMS(Int)=  0.00017407
 Iteration  3 RMS(Cart)=  0.00016206 RMS(Int)=  0.00005162
 Iteration  4 RMS(Cart)=  0.00000005 RMS(Int)=  0.00005162
 Variable       Old X    -DE/DX   Delta X   Delta X   Delta X     New X
                                 (Linear)    (Quad)   (Total)
    R1        3.28917  -0.00073   0.00000  -0.03693  -0.03693   3.25224
    R2        3.44787   0.00091   0.00000  -0.00149  -0.00152   3.44634
    R3        3.31336   0.00011   0.00000   0.00877   0.00877   3.32212
    R4        3.21958  -0.00078   0.00000   0.00867   0.00867   3.22824
    R5        3.16726   0.00012   0.00000   0.01898   0.01898   3.18625
    R6        1.82286   0.00013   0.00000   0.01763   0.01763   1.84049
    R7        2.57715   0.00106   0.00000   0.00186   0.00186   2.57901
    R8        2.60909  -0.00080   0.00000  -0.00564  -0.00561   2.60348
    R9        2.63725   0.00111   0.00000   0.00618   0.00618   2.64343
   R10        2.54409   0.00119   0.00000   0.00427   0.00427   2.54836
   R11        1.87470  -0.00323   0.00000  -0.03493  -0.03493   1.83977
   R12        2.14665   0.00004   0.00000  -0.00119  -0.00119   2.14546
   R13        2.12424  -0.00008   0.00000  -0.00169  -0.00169   2.12254
   R14        2.92201  -0.00066   0.00000   0.00670   0.00670   2.92871
   R15        2.08226  -0.00003   0.00000  -0.00071  -0.00071   2.08155
   R16        2.09219   0.00001   0.00000  -0.00132  -0.00132   2.09087
   R17        2.08752   0.00003   0.00000   0.00071   0.00071   2.08823
   R18        2.09346   0.00003   0.00000   0.00120   0.00120   2.09466
   R19        2.89641  -0.00017   0.00000  -0.00113  -0.00111   2.89530
   R20        2.10006  -0.00001   0.00000   0.00066   0.00066   2.10072
   R21        2.09187   0.00004   0.00000  -0.00011  -0.00011   2.09177
    A1        1.49872  -0.00009   0.00000   0.00359   0.00363   1.50235
    A2        1.69085  -0.00170   0.00000   0.00267   0.00262   1.69346
    A3        1.66974   0.00036   0.00000   0.00863   0.00871   1.67845
    A4        1.48079  -0.00064   0.00000  -0.00268  -0.00281   1.47798
    A5        1.55823   0.00237   0.00000   0.00170   0.00170   1.55994
    A6        1.54551   0.00005   0.00000  -0.01139  -0.01142   1.53408
    A7        2.01573   0.00169   0.00000   0.03260   0.03258   2.04831
    A8        2.27598   0.00041   0.00000  -0.01238  -0.01245   2.26353
    A9        1.98097  -0.00188   0.00000  -0.02237  -0.02239   1.95859
   A10        1.82990  -0.00003   0.00000   0.00705   0.00705   1.83695
   A11        1.94283  -0.00022   0.00000   0.00970   0.00952   1.95234
   A12        2.04352   0.00118   0.00000   0.00644   0.00627   2.04979
   A13        2.17078  -0.00550   0.00000  -0.02626  -0.02626   2.14451
   A14        1.81679  -0.00002   0.00000  -0.01000  -0.01000   1.80678
   A15        1.97822   0.00030   0.00000   0.00068   0.00069   1.97891
   A16        1.98692   0.00147   0.00000  -0.00555  -0.00556   1.98137
   A17        2.02691  -0.00291   0.00000   0.00745   0.00745   2.03436
   A18        1.81446   0.00005   0.00000   0.00121   0.00121   1.81567
   A19        1.80496   0.00019   0.00000  -0.00533  -0.00533   1.79963
   A20        1.82946   0.00111   0.00000   0.00105   0.00105   1.83051
   A21        1.99872   0.00400   0.00000   0.01691   0.01693   2.01565
   A22        1.93898  -0.00061   0.00000  -0.00596  -0.00594   1.93305
   A23        1.87577  -0.00184   0.00000  -0.00238  -0.00238   1.87340
   A24        1.88606  -0.00400   0.00000  -0.00652  -0.00652   1.87955
   A25        1.88120   0.00207   0.00000  -0.00587  -0.00588   1.87532
   A26        1.87886   0.00036   0.00000   0.00329   0.00326   1.88212
   A27        1.93469   0.00021   0.00000   0.00284   0.00287   1.93756
   A28        1.93477  -0.00000   0.00000   0.00265   0.00269   1.93746
   A29        1.86124  -0.00044   0.00000  -0.00338  -0.00348   1.85776
   A30        1.87010  -0.00007   0.00000  -0.00138  -0.00139   1.86872
   A31        1.95442   0.00027   0.00000  -0.00202  -0.00201   1.95241
   A32        1.90943   0.00004   0.00000   0.00140   0.00143   1.91086
   A33        1.83390   0.00018   0.00000   0.00444   0.00438   1.83828
   A34        1.96282  -0.00011   0.00000  -0.00101  -0.00098   1.96183
   A35        1.95706   0.00006   0.00000  -0.00210  -0.00209   1.95496
   A36        1.90691  -0.00006   0.00000  -0.00225  -0.00229   1.90463
   A37        1.93672  -0.00011   0.00000   0.00187   0.00194   1.93865
   A38        1.86715   0.00004   0.00000  -0.00091  -0.00091   1.86623
   A39        2.97951  -0.00072   0.00000   0.00091   0.00083   2.98034
   A40        3.09987  -0.00017   0.00000  -0.00059  -0.00060   3.09927
    D1       -3.04345   0.00036   0.00000  -0.08206  -0.08206  -3.12552
    D2        1.22894  -0.00137   0.00000  -0.11521  -0.11521   1.11373
    D3       -0.77047   0.00076   0.00000  -0.09435  -0.09435  -0.86482
    D4       -0.50971   0.00010   0.00000   0.02937   0.02934  -0.48037
    D5        1.50925   0.00158   0.00000   0.06213   0.06209   1.57135
    D6       -2.79244  -0.00038   0.00000   0.03997   0.03992  -2.75252
    D7       -3.06498   0.00009   0.00000  -0.02999  -0.03006  -3.09504
    D8        0.11834   0.00027   0.00000  -0.02940  -0.02945   0.08888
    D9       -1.39542  -0.00187   0.00000  -0.02617  -0.02601  -1.42144
   D10        1.57875  -0.00030   0.00000  -0.04454  -0.04455   1.53419
   D11       -0.59103   0.00459   0.00000   0.15396   0.15402  -0.43701
   D12        2.67918   0.00498   0.00000   0.14934   0.14940   2.82857
   D13       -2.13899   0.00530   0.00000   0.14512   0.14497  -1.99402
   D14        1.14143   0.00384   0.00000   0.16042   0.16045   1.30188
   D15        0.96404  -0.00025   0.00000  -0.23692  -0.23693   0.72711
   D16       -2.32815  -0.00088   0.00000  -0.23755  -0.23762  -2.56577
   D17        2.52431  -0.00002   0.00000  -0.22598  -0.22610   2.29820
   D18       -0.78205   0.00180   0.00000  -0.23986  -0.23966  -1.02171
   D19        0.72130  -0.00002   0.00000  -0.02054  -0.02066   0.70064
   D20       -1.35126   0.00000   0.00000  -0.02004  -0.02009  -1.37135
   D21        2.82679  -0.00001   0.00000  -0.01663  -0.01670   2.81009
   D22        2.37540  -0.00009   0.00000   0.01912   0.01911   2.39451
   D23       -1.83322  -0.00004   0.00000   0.02095   0.02098  -1.81225
   D24        0.24381  -0.00026   0.00000   0.02206   0.02209   0.26590
   D25       -1.13838   0.00733   0.00000   0.08837   0.08838  -1.05001
   D26        1.00432   0.00453   0.00000   0.08770   0.08769   1.09201
   D27        3.05555   0.00352   0.00000   0.08693   0.08692  -3.14071
   D28        1.20502   0.00028   0.00000  -0.00649  -0.00649   1.19853
   D29       -0.96604   0.00135   0.00000  -0.00561  -0.00560  -0.97164
   D30       -2.99195   0.00192   0.00000  -0.00305  -0.00305  -2.99500
   D31       -2.89992  -0.00103   0.00000  -0.00498  -0.00498  -2.90491
   D32        1.21220   0.00005   0.00000  -0.00410  -0.00409   1.20811
   D33       -0.81370   0.00061   0.00000  -0.00154  -0.00155  -0.81525
   D34       -1.00373  -0.00053   0.00000  -0.00523  -0.00523  -1.00896
   D35        3.10839   0.00054   0.00000  -0.00435  -0.00434   3.10406
   D36        1.08249   0.00111   0.00000  -0.00178  -0.00179   1.08069
   D37       -0.60422   0.00026   0.00000   0.00242   0.00243  -0.60178
   D38        1.50552   0.00020   0.00000   0.00258   0.00256   1.50808
   D39       -2.72307   0.00014   0.00000   0.00120   0.00119  -2.72188
   D40       -2.72332   0.00013   0.00000   0.00234   0.00237  -2.72095
   D41       -0.61358   0.00007   0.00000   0.00250   0.00250  -0.61108
   D42        1.44102   0.00001   0.00000   0.00112   0.00112   1.44214
   D43        1.48925   0.00002   0.00000   0.00440   0.00441   1.49366
   D44       -2.68420  -0.00004   0.00000   0.00456   0.00454  -2.67966
   D45       -0.62960  -0.00010   0.00000   0.00317   0.00316  -0.62644
         Item               Value     Threshold  Converged?
 Maximum Force            0.007334     0.000450     NO 
 RMS     Force            0.001724     0.000300     NO 
 Maximum Displacement     0.580867     0.001800     NO 
 RMS     Displacement     0.152129     0.001200     NO 
 Predicted change in Energy=-3.231402D-03
 GradGradGradGradGradGradGradGradGradGradGradGradGradGradGradGradGradGrad

                          Input orientation:                          
 ---------------------------------------------------------------------
 Center     Atomic      Atomic             Coordinates (Angstroms)
 Number     Number       Type             X           Y           Z
 ---------------------------------------------------------------------
      1         14           0        0.313652    0.246360    0.053981
      2          8           0       -0.549267    1.216199   -1.075914
      3          8           0        1.477043   -0.676896    1.112329
      4          8           0        1.705779    0.476783   -0.994551
      5          8           0       -0.599624   -1.181962   -0.156142
      6          8           0       -2.790302    0.942532    0.310158
      7          8           0       -0.154965    1.106683    1.426258
      8          6           0       -2.928306   -0.398524    0.277375
      9          1           0       -3.936976   -0.738159   -0.117852
     10          1           0       -2.855465   -0.881553    1.288790
     11          6           0       -1.923181   -1.177138   -0.608840
     12          1           0       -1.985644   -0.763983   -1.628016
     13          1           0       -2.261944   -2.229694   -0.648465
     14          6           0        2.874444   -0.165599   -0.648676
     15          1           0        3.358840   -0.611951   -1.535948
     16          1           0        3.600910    0.543458   -0.203547
     17          6           0        2.495079   -1.227171    0.388896
     18          1           0        2.186870   -2.156780   -0.137039
     19          1           0        3.361888   -1.489291    1.025446
     20          1           0       -1.098386    1.288923    1.269513
     21          1           0       -1.451963    1.285815   -0.716938
 ---------------------------------------------------------------------
                    Distance matrix (angstroms):
                    1          2          3          4          5
     1  Si   0.000000
     2  O    1.721011   0.000000
     3  O    1.823727   3.532442   0.000000
     4  O    1.757991   2.374571   2.412932   0.000000
     5  O    1.708312   2.568986   2.485288   2.961291   0.000000
     6  O    3.191365   2.649212   4.634248   4.704671   3.087066
     7  O    1.686090   2.535415   2.437858   3.117604   2.817731
     8  C    3.313016   3.177821   4.492409   4.884537   2.494890
     9  H    4.366536   4.026657   5.552359   5.838267   3.366949
    10  H    3.583328   3.912918   4.340927   5.278605   2.695718
    11  C    2.732966   2.798903   3.843721   4.006692   1.398844
    12  H    3.022692   2.507811   4.416704   3.945552   2.064502
    13  H    3.641149   3.871712   4.414929   4.815352   2.025693
    14  C    2.687210   3.716678   2.305493   1.377702   3.653044
    15  H    3.540868   4.339017   3.249423   2.052088   4.230628
    16  H    3.310688   4.293900   2.780577   2.054667   4.541344
    17  C    2.653693   4.169384   1.364755   2.332462   3.142657
    18  H    3.052953   4.443526   2.062725   2.811126   2.952149
    19  H    3.639776   5.199281   2.054307   3.269332   4.145380
    20  H    2.135018   2.409947   3.243760   3.694441   2.895950
    21  H    2.189105   0.973945   3.972094   3.271534   2.670374
                    6          7          8          9         10
     6  O    0.000000
     7  O    2.866640   0.000000
     8  C    1.348536   3.358125   0.000000
     9  H    2.079128   4.482335   1.135328   0.000000
    10  H    2.071050   3.356290   1.123202   1.780131   0.000000
    11  C    2.467681   3.533278   1.549804   2.118759   2.134835
    12  H    2.704844   4.022358   2.157009   2.467581   3.046008
    13  H    3.355762   4.458167   2.157407   2.304769   2.433662
    14  C    5.851211   3.886048   5.880794   6.856023   6.090831
    15  H    6.605791   4.906648   6.546900   7.433428   6.831502
    16  H    6.424231   4.132806   6.614324   7.646543   6.778090
    17  C    5.713935   3.680452   5.487459   6.470491   5.436688
    18  H    5.880303   4.310253   5.424780   6.286044   5.392990
    19  H    6.653934   4.389531   6.427747   7.425950   6.252533
    20  H    1.975583   0.973562   2.679631   3.753856   2.792609
    21  H    1.721604   2.511490   2.450560   3.260470   3.269594
                   11         12         13         14         15
    11  C    0.000000
    12  H    1.101507   0.000000
    13  H    1.106438   1.784425   0.000000
    14  C    4.903265   4.993759   5.535609   0.000000
    15  H    5.392469   5.347439   5.915905   1.105044   0.000000
    16  H    5.800026   5.911692   6.500876   1.108447   1.780129
    17  C    4.529791   4.935519   4.970959   1.532126   2.197636
    18  H    4.251449   4.644650   4.478707   2.167795   2.391016
    19  H    5.540784   6.013570   5.914191   2.189166   2.707484
    20  H    3.207795   3.660235   4.172909   4.645262   5.599178
    21  H    2.509953   2.305764   3.608263   4.563887   5.236041
                   16         17         18         19         20
    16  H    0.000000
    17  C    2.170018   0.000000
    18  H    3.048806   1.111653   0.000000
    19  H    2.387389   1.106915   1.782576   0.000000
    20  H    4.980864   4.474282   4.964289   5.260426   0.000000
    21  H    5.132854   4.808025   5.042703   5.823253   2.017676
                   21
    21  H    0.000000
 Stoichiometry    C4H10O6Si(2-)
 Framework group  C1[X(C4H10O6Si)]
 Deg. of freedom    57
 Full point group                 C1      NOp   1
 Largest Abelian subgroup         C1      NOp   1
 Largest concise Abelian subgroup C1      NOp   1
                         Standard orientation:                         
 ---------------------------------------------------------------------
 Center     Atomic      Atomic             Coordinates (Angstroms)
 Number     Number       Type             X           Y           Z
 ---------------------------------------------------------------------
      1         14           0       -0.292917   -0.323783    0.070708
      2          8           0        0.621954   -1.269070   -1.038940
      3          8           0       -1.504711    0.544773    1.121016
      4          8           0       -1.687582   -0.730249   -0.919356
      5          8           0        0.480920    1.167670   -0.237632
      6          8           0        2.867337   -0.726834    0.258195
      7          8           0        0.290365   -1.068110    1.466652
      8          6           0        2.882328    0.617778    0.156495
      9          1           0        3.844492    1.025372   -0.287439
     10          1           0        2.794705    1.143165    1.145369
     11          6           0        1.786123    1.257743   -0.732703
     12          1           0        1.856864    0.800544   -1.732344
     13          1           0        2.026901    2.332909   -0.833948
     14          6           0       -2.899362   -0.177759   -0.566643
     15          1           0       -3.447124    0.178019   -1.457991
     16          1           0       -3.545724   -0.925159   -0.064385
     17          6           0       -2.588478    0.964725    0.405722
     18          1           0       -2.380751    1.890160   -0.174099
     19          1           0       -3.457092    1.180610    1.057001
     20          1           0        1.241596   -1.173334    1.288016
     21          1           0        1.537047   -1.239687   -0.706808
 ---------------------------------------------------------------------
 Rotational constants (GHZ):           1.9951238           0.6891713           0.6599146
 Standard basis: def2TZVPP (5D, 7F)
 There are   558 symmetry adapted cartesian basis functions of A   symmetry.
 There are   492 symmetry adapted basis functions of A   symmetry.
   492 basis functions,   749 primitive gaussians,   558 cartesian basis functions
    49 alpha electrons       49 beta electrons
       nuclear repulsion energy       854.9723883549 Hartrees.
 NAtoms=   21 NActive=   21 NUniq=   21 SFac= 1.00D+00 NAtFMM=   60 NAOKFM=F Big=F
 Integral buffers will be    131072 words long.
 Raffenetti 2 integral format.
 Two-electron integral symmetry is turned on.
 Nuclear repulsion after empirical dispersion term =      854.9604594166 Hartrees.
 One-electron integrals computed using PRISM.
   1 Symmetry operations used in ECPInt.
 ECPInt:  NShTT=   17020 NPrTT=   47563 LenC2=   15997 LenP2D=   34495.
 LDataN:  DoStor=T MaxTD1= 6 Len=  172
 NBasis=   492 RedAO= T EigKep=  2.89D-04  NBF=   492
 NBsUse=   492 1.00D-06 EigRej= -1.00D+00 NBFU=   492
 Initial guess from the checkpoint file:  "PbiLmL_to_HbiL2_IRCForward_ProductOpt.chk"
 B after Tr=     0.000000   -0.000000    0.000000
         Rot=    0.998394   -0.054958    0.010858   -0.008415 Ang=  -6.49 deg.
 ExpMin= 7.01D-02 ExpMax= 4.48D+04 ExpMxC= 1.53D+03 IAcc=3 IRadAn=         5 AccDes= 0.00D+00
 Harris functional with IExCor= 4639 and IRadAn=       5 diagonalized for initial guess.
 HarFok:  IExCor= 4639 AccDes= 0.00D+00 IRadAn=         5 IDoV= 1 UseB2=F ITyADJ=14
 ICtDFT=  3500011 ScaDFX=  1.000000  1.000000  1.000000  1.000000
 FoFCou: FMM=F IPFlag=           0 FMFlag=      100000 FMFlg1=           0
         NFxFlg=           0 DoJE=T BraDBF=F KetDBF=T FulRan=T
         wScrn=  0.000000 ICntrl=       500 IOpCl=  0 I1Cent=   200000004 NGrid=           0
         NMat0=    1 NMatS0=      1 NMatT0=    0 NMatD0=    1 NMtDS0=    0 NMtDT0=    0
 Petite list used in FoFCou.
 Requested convergence on RMS density matrix=1.00D-08 within 128 cycles.
 Requested convergence on MAX density matrix=1.00D-06.
 Requested convergence on             energy=1.00D-06.
 No special actions if energy rises.
 Integral accuracy reduced to 1.0D-05 until final iterations.
 Initial convergence to 1.0D-05 achieved.  Increase integral accuracy.
 SCF Done:  E(RwB97XD) =  -899.477080865     A.U. after   14 cycles
            NFock= 14  Conv=0.80D-08     -V/T= 2.0035
   1 Symmetry operations used in ECPInt.
 ECPInt:  NShTT=   17020 NPrTT=   47563 LenC2=   15997 LenP2D=   34495.
 LDataN:  DoStor=T MaxTD1= 7 Len=  274
 Calling FoFJK, ICntrl=      2127 FMM=F ISym2X=0 I1Cent= 0 IOpClX= 0 NMat=1 NMatS=1 NMatT=0.
 ***** Axes restored to original set *****
 -------------------------------------------------------------------
 Center     Atomic                   Forces (Hartrees/Bohr)
 Number     Number              X              Y              Z
 -------------------------------------------------------------------
      1       14           0.000508862    0.001607365   -0.004067075
      2        8           0.009958261   -0.001444055   -0.001676064
      3        8          -0.000087042   -0.000357239    0.000003622
      4        8           0.000466732   -0.000583585   -0.000434521
      5        8          -0.000868472   -0.000659099    0.001606906
      6        8          -0.004374247   -0.001248450    0.003009928
      7        8          -0.000154808   -0.001406287    0.001707589
      8        6          -0.000642710   -0.000780607    0.000133326
      9        1           0.000181609    0.000163719    0.000068750
     10        1          -0.000097433    0.000069972   -0.000127249
     11        6           0.000885157    0.000806968   -0.000635316
     12        1          -0.000134362   -0.000169595   -0.000156800
     13        1          -0.000104477    0.000104385    0.000187115
     14        6          -0.000060445    0.000340134   -0.000007559
     15        1           0.000088788   -0.000018725   -0.000029846
     16        1           0.000114876   -0.000018626    0.000075290
     17        6           0.000234379    0.000164371    0.000054221
     18        1           0.000026091   -0.000012270    0.000059025
     19        1           0.000004895    0.000013751    0.000053293
     20        1          -0.000409067    0.001715679   -0.000769144
     21        1          -0.005536586    0.001712195    0.000944510
 -------------------------------------------------------------------
 Cartesian Forces:  Max     0.009958261 RMS     0.001800749

 GradGradGradGradGradGradGradGradGradGradGradGradGradGradGradGradGradGrad
 Berny optimization.
 Using GEDIIS/GDIIS optimizer.
 FormGI is forming the generalized inverse of G from B-inverse, IUseBI=4.
 Internal  Forces:  Max     0.018423766 RMS     0.003093408
 Search for a local minimum.
 Step number   2 out of a maximum of  116
 All quantities printed in internal units (Hartrees-Bohrs-Radians)
 Mixed Optimization -- RFO/linear search
 Update second derivatives using D2CorX and points    1    2
 DE= -1.83D-03 DEPred=-3.23D-03 R= 5.65D-01
 TightC=F SS=  1.41D+00  RLast= 6.22D-01 DXNew= 5.0454D-01 1.8649D+00
 Trust test= 5.65D-01 RLast= 6.22D-01 DXMaxT set to 5.05D-01
 ITU=  1  0
 Use linear search instead of GDIIS.
     Eigenvalues ---    0.00309   0.00500   0.00635   0.00672   0.00802
     Eigenvalues ---    0.01326   0.01522   0.04399   0.04623   0.04661
     Eigenvalues ---    0.04893   0.05109   0.05440   0.05756   0.06187
     Eigenvalues ---    0.07632   0.08327   0.09053   0.09315   0.09530
     Eigenvalues ---    0.09846   0.10285   0.10316   0.11346   0.11585
     Eigenvalues ---    0.12080   0.12867   0.13871   0.14747   0.16138
     Eigenvalues ---    0.16980   0.18019   0.18257   0.21324   0.22464
     Eigenvalues ---    0.23186   0.23801   0.24325   0.25437   0.25739
     Eigenvalues ---    0.26933   0.27892   0.28561   0.28768   0.29080
     Eigenvalues ---    0.29501   0.29942   0.30698   0.32504   0.34636
     Eigenvalues ---    0.36746   0.38134   0.41907   0.42835   0.45844
     Eigenvalues ---    0.52889   1.14744
 RFO step:  Lambda=-1.79194816D-03 EMin= 3.08920752D-03
 Quartic linear search produced a step of -0.24470.
 Iteration  1 RMS(Cart)=  0.03947900 RMS(Int)=  0.00065777
 Iteration  2 RMS(Cart)=  0.00092198 RMS(Int)=  0.00010188
 Iteration  3 RMS(Cart)=  0.00000069 RMS(Int)=  0.00010188
 Variable       Old X    -DE/DX   Delta X   Delta X   Delta X     New X
                                 (Linear)    (Quad)   (Total)
    R1        3.25224  -0.00158   0.00904  -0.01684  -0.00781   3.24443
    R2        3.44634   0.00015   0.00037  -0.01086  -0.01056   3.43578
    R3        3.32212   0.00061  -0.00214   0.01258   0.01038   3.33250
    R4        3.22824   0.00369  -0.00212  -0.00557  -0.00769   3.22055
    R5        3.18625   0.00108  -0.00465   0.01193   0.00728   3.19353
    R6        1.84049   0.00560  -0.00431   0.00833   0.00401   1.84450
    R7        2.57901   0.00002  -0.00046   0.00079   0.00038   2.57939
    R8        2.60348   0.00011   0.00137  -0.00340  -0.00199   2.60149
    R9        2.64343   0.00325  -0.00151   0.00271   0.00120   2.64463
   R10        2.54836  -0.00162  -0.00105  -0.00447  -0.00551   2.54285
   R11        1.83977   0.00084   0.00855  -0.01540  -0.00685   1.83292
   R12        2.14546  -0.00023   0.00029   0.00285   0.00315   2.14861
   R13        2.12254  -0.00015   0.00041   0.00196   0.00237   2.12491
   R14        2.92871   0.00406  -0.00164   0.00567   0.00403   2.93273
   R15        2.08155   0.00009   0.00017  -0.00004   0.00014   2.08168
   R16        2.09087  -0.00007   0.00032  -0.00002   0.00031   2.09117
   R17        2.08823   0.00007  -0.00017   0.00013  -0.00004   2.08819
   R18        2.09466   0.00009  -0.00029   0.00081   0.00051   2.09517
   R19        2.89530   0.00018   0.00027  -0.00217  -0.00181   2.89349
   R20        2.10072  -0.00003  -0.00016   0.00035   0.00019   2.10091
   R21        2.09177   0.00003   0.00003  -0.00054  -0.00052   2.09125
    A1        1.50235  -0.00331  -0.00089  -0.01869  -0.01942   1.48293
    A2        1.69346   0.00418  -0.00064   0.02242   0.02185   1.71532
    A3        1.67845   0.00149  -0.00213   0.00644   0.00480   1.68325
    A4        1.47798  -0.00003   0.00069  -0.00200  -0.00141   1.47657
    A5        1.55994  -0.00194  -0.00042   0.01399   0.01362   1.57356
    A6        1.53408   0.00003   0.00280  -0.01006  -0.00671   1.52737
    A7        2.04831  -0.00041  -0.00797   0.01342   0.00549   2.05380
    A8        2.26353   0.00027   0.00305   0.03307   0.03608   2.29961
    A9        1.95859  -0.00016   0.00548  -0.04695  -0.04145   1.91714
   A10        1.83695   0.00315  -0.00172   0.02753   0.02581   1.86276
   A11        1.95234   0.00015  -0.00233   0.01651   0.01395   1.96629
   A12        2.04979  -0.00004  -0.00153   0.00306   0.00121   2.05099
   A13        2.14451   0.01842   0.00643   0.00304   0.00947   2.15398
   A14        1.80678   0.00031   0.00245   0.01612   0.01856   1.82535
   A15        1.97891  -0.00329  -0.00017   0.00000  -0.00014   1.97876
   A16        1.98137  -0.00328   0.00136   0.00080   0.00214   1.98351
   A17        2.03436   0.00989  -0.00182   0.01484   0.01302   2.04738
   A18        1.81567  -0.00019  -0.00030  -0.00321  -0.00356   1.81211
   A19        1.79963  -0.00191   0.00130  -0.01101  -0.00971   1.78992
   A20        1.83051  -0.00195  -0.00026  -0.00423  -0.00452   1.82599
   A21        2.01565   0.00814  -0.00414   0.01266   0.00848   2.02412
   A22        1.93305  -0.00260   0.00145   0.00085   0.00222   1.93527
   A23        1.87340  -0.00236   0.00058  -0.00380  -0.00320   1.87020
   A24        1.87955   0.00214   0.00159   0.00370   0.00524   1.88479
   A25        1.87532  -0.00655   0.00144  -0.01284  -0.01138   1.86394
   A26        1.88212   0.00068  -0.00080  -0.00192  -0.00270   1.87942
   A27        1.93756   0.00005  -0.00070   0.00162   0.00092   1.93848
   A28        1.93746   0.00005  -0.00066   0.00289   0.00230   1.93976
   A29        1.85776  -0.00002   0.00085  -0.00298  -0.00224   1.85553
   A30        1.86872  -0.00002   0.00034  -0.00106  -0.00073   1.86799
   A31        1.95241  -0.00011   0.00049  -0.00054   0.00001   1.95243
   A32        1.91086   0.00005  -0.00035   0.00016  -0.00020   1.91067
   A33        1.83828   0.00011  -0.00107   0.00269   0.00152   1.83981
   A34        1.96183  -0.00005   0.00024  -0.00090  -0.00060   1.96123
   A35        1.95496  -0.00007   0.00051  -0.00248  -0.00198   1.95299
   A36        1.90463  -0.00008   0.00056  -0.00051   0.00002   1.90465
   A37        1.93865   0.00008  -0.00047   0.00207   0.00166   1.94032
   A38        1.86623  -0.00001   0.00022  -0.00075  -0.00054   1.86570
   A39        2.98034  -0.00335  -0.00020  -0.02069  -0.02084   2.95950
   A40        3.09927  -0.00084   0.00015  -0.02856  -0.02856   3.07071
    D1       -3.12552  -0.00002   0.02008  -0.05672  -0.03672   3.12095
    D2        1.11373   0.00079   0.02819  -0.06800  -0.03969   1.07404
    D3       -0.86482  -0.00003   0.02309  -0.02502  -0.00198  -0.86680
    D4       -0.48037   0.00035  -0.00718   0.04100   0.03383  -0.44654
    D5        1.57135   0.00016  -0.01519   0.05308   0.03796   1.60931
    D6       -2.75252   0.00009  -0.00977   0.00574  -0.00401  -2.75653
    D7       -3.09504  -0.00122   0.00735  -0.07341  -0.06612   3.12203
[...]
 ,0.00119133,-0.00062702,0.00101625,-0.01007253,0.04888863,-0.19567029,
 -0.00453032,0.00158099,-0.01338445,0.01344910,-0.07464116,0.22245313,-
 0.02833439,-0.02739434,-0.00764073,-0.00541600,0.00991776,-0.00663760,
 0.00524541,-0.00056683,0.00157583,0.00405112,0.00202013,-0.00080001,-0
 .21870977,-0.01266858,-0.05731362,0.00546511,-0.00249665,-0.00488433,-
 0.00092484,0.00703943,0.00409916,-0.09989840,0.01836706,0.04003805,-0.
 02478383,0.00801682,0.01646557,-0.00071154,0.00180079,-0.00471376,0.45
 362174,-0.02005843,-0.00575613,-0.00742685,-0.00019470,-0.00002699,-0.
 00071781,-0.00114422,0.00085955,-0.00074211,0.00029097,-0.00051101,0.0
 0044190,0.00545662,-0.08059462,0.00590512,0.02025195,-0.03884954,-0.02
 355014,0.00034511,0.00013712,0.00060912,0.01374522,-0.08127461,-0.0179
 6460,-0.00647841,0.00223730,0.00130525,-0.00503301,0.00517764,0.008728
 86,0.04486311,0.54495417,-0.00746733,-0.01601490,-0.00226535,-0.005923
 67,0.00289282,-0.00587707,-0.00031304,-0.00025235,0.00155021,0.0024308
 2,0.00269493,-0.00084484,-0.05000494,-0.00001743,-0.08541816,-0.000967
 21,-0.00939302,0.00439629,0.00059658,0.00288882,0.00031447,0.03385134,
 -0.01585795,-0.11272020,-0.01698141,0.00366363,0.00393192,0.02422392,-
 0.01018418,-0.02784673,0.01635419,-0.04318634,0.51398603,0.00180288,0.
 00685144,-0.00277875,0.00012997,-0.00103761,0.00164073,-0.00173109,-0.
 00045154,-0.00009943,0.00000243,-0.00037476,0.00043803,-0.01980909,0.0
 0972526,-0.03750459,0.00060051,-0.00077786,-0.00282737,0.00005410,-0.0
 0106164,0.00007504,0.00040346,-0.00794173,0.02050919,0.00087975,-0.000
 56454,-0.00091752,-0.00231322,0.00262934,0.00347521,-0.04420771,-0.002
 74488,0.00290267,0.06224633,-0.00203666,-0.00086347,-0.00126199,-0.001
 81585,-0.00207856,-0.00062614,0.00032971,-0.00006517,0.00004173,0.0004
 5876,-0.00001168,-0.00013173,0.00486973,0.00436158,-0.00002336,-0.0010
 2777,0.00182376,0.00148107,0.00006402,0.00017770,0.00049816,0.00189332
 ,0.00603295,-0.01469857,-0.00118605,-0.00005915,0.00069532,0.00160669,
 -0.00025794,-0.00322370,0.00142354,-0.08908232,0.08836428,-0.00212744,
 0.09428326,0.00174342,0.00743474,-0.00157997,0.00270776,0.00036681,0.0
 0303334,-0.00147781,-0.00029786,-0.00010194,-0.00029880,-0.00069087,0.
 00041043,-0.01884235,0.00161403,-0.01212083,-0.00185183,-0.00140585,0.
 00441333,-0.00017570,-0.00116010,0.00032278,0.00087116,0.01318854,-0.0
 2128201,0.00133109,-0.00008490,0.00076884,0.00390331,-0.00165756,-0.00
 263829,0.00115369,0.08165472,-0.24031979,0.00936082,-0.09704900,0.2677
 2622,0.00206307,0.00409911,-0.00001950,0.00057502,-0.00119747,0.000513
 63,-0.00182767,0.00035809,-0.00070571,-0.00101135,-0.00030857,0.000276
 10,-0.03351716,-0.03445859,-0.01030040,-0.00155697,0.00097836,0.003410
 77,0.00017969,-0.00129163,-0.00094015,0.00477221,0.01991800,-0.0003034
 2,0.00067202,0.00022644,-0.00067410,0.00045140,-0.00113143,-0.00027890
 ,-0.05189424,-0.05011278,0.00077559,0.00139712,-0.00170954,0.00134124,
 0.08029999,0.00430126,0.00237861,0.00092849,-0.00109109,-0.00079931,-0
 .00022219,-0.00122936,0.00036982,-0.00027930,-0.00106254,0.00013032,0.
 00015152,-0.01165167,0.00429400,-0.00376115,0.00523199,-0.00290740,-0.
 00537574,-0.00056155,-0.00044146,-0.00074321,-0.01154429,-0.01813278,0
 .00610640,0.00264053,0.00107764,0.00102542,-0.00007598,0.00127741,-0.0
 0142381,-0.04966430,-0.25193742,-0.00645050,-0.00156334,-0.01265102,-0
 .00059332,0.06482558,0.27661855,-0.00021523,0.00195552,-0.00092329,0.0
 0139920,0.00055473,0.00139462,-0.00051396,0.00005924,-0.00019064,0.000
 04157,-0.00020776,0.00008347,-0.01262421,-0.01307863,-0.00019365,0.003
 79022,-0.00215555,-0.00182969,-0.00011281,-0.00037863,0.00012812,-0.00
 672673,-0.02160766,0.00104729,-0.00016318,0.00105223,0.00087377,-0.000
 81483,0.00089116,-0.00019747,0.00182543,-0.00393966,-0.05151016,0.0066
 1689,0.02668688,0.00326596,0.00692355,0.01065100,0.04892673,-0.0402330
 1,0.00042170,0.02011876,0.00247961,-0.00065919,0.00085065,-0.03229528,
 0.00079260,0.02401242,-0.21492546,0.06191933,-0.02810963,0.00388218,0.
 00217283,-0.00130396,0.00123376,0.00047375,-0.00048948,0.00198253,-0.0
 0025604,-0.00267666,-0.00026526,-0.00074869,0.00026840,0.00059188,0.00
 018933,0.00013658,-0.00001300,0.00019714,-0.00028888,-0.00199737,-0.00
 038205,-0.00107869,-0.00000399,-0.00013193,0.00015662,0.00045080,0.000
 48107,-0.00001088,0.54307332,0.01118379,0.00402615,-0.01265778,-0.0019
 0356,0.00156727,0.00011698,0.00888763,0.00635207,0.00395978,0.07833960
 ,-0.11433388,0.01716917,-0.00142662,-0.00149281,0.00121005,-0.00049945
 ,-0.00047139,0.00014222,-0.00024665,-0.00096157,0.00072019,0.00008109,
 0.00050781,-0.00003051,-0.00019551,-0.00009065,-0.00005906,0.00000533,
 -0.00011039,0.00011786,0.00063822,0.00004725,0.00043385,0.00008867,0.0
 0009757,-0.00001860,-0.00017470,-0.00019417,0.00000572,0.00827537,0.49
 173802,0.00171367,-0.00722348,0.00829488,0.00418904,-0.00068359,0.0006
 1598,0.03055776,0.01012750,-0.03872398,-0.04640253,0.02892019,-0.09375
 071,0.00021515,0.00082251,-0.00070374,0.00032442,0.00023594,-0.0003440
 2,-0.00015610,0.00021203,-0.00120529,-0.00009436,-0.00030549,0.0000417
 8,0.00008822,0.00005107,0.00002633,0.00000284,0.00009312,-0.00012309,-
 0.00024749,-0.00010718,0.00001052,-0.00007014,-0.00000024,-0.00008369,
 0.00007878,0.00009630,-0.00001961,-0.03100857,0.05746784,0.51577505,0.
 00469871,0.00424070,-0.00321507,-0.00254070,0.00044031,-0.00026614,0.0
 0040750,-0.00154747,0.00214283,-0.03204751,0.01950223,0.02206918,-0.00
 075136,-0.00073571,-0.00011669,-0.00046158,-0.00031383,0.00012737,-0.0
 0096871,0.00023370,0.00072695,0.00008987,0.00038475,0.00001374,-0.0001
 6020,-0.00008548,-0.00006128,0.00000777,-0.00006103,0.00005319,0.00045
 127,0.00004998,0.00019330,-0.00002056,0.00007414,-0.00005513,-0.000114
 22,-0.00014075,0.00000307,-0.07779389,0.02828914,0.06748231,0.10210623
 ,-0.00344590,-0.00323205,0.00378319,0.00162584,-0.00023808,0.00004951,
 -0.00314338,-0.00104846,0.00378020,0.02228446,-0.00707503,-0.00891256,
 0.00039898,0.00041198,-0.00016265,0.00029326,0.00021342,-0.00011248,0.
 00032481,0.00018727,-0.00038805,-0.00005582,-0.00025645,0.00001034,0.0
 0010043,0.00005508,0.00003522,-0.00000383,0.00004806,-0.00004775,-0.00
 026601,-0.00006703,-0.00010898,-0.00000792,-0.00003877,0.00001508,0.00
 006059,0.00008282,-0.00000684,0.03084033,-0.08373148,-0.07389911,-0.04
 521511,0.09207859,-0.00384494,0.00113131,-0.00122322,0.00042270,-0.000
 25462,0.00020170,0.00447352,0.00400751,-0.00304350,-0.00141988,0.00448
 047,0.01533896,0.00104211,0.00038804,0.00046492,0.00029975,0.00012598,
 0.00004480,0.00086433,-0.00053048,-0.00009291,-0.00006834,-0.00017568,
 -0.00001871,0.00015486,0.00005820,0.00005249,-0.00001059,0.00001333,-0
 .00001201,-0.00047114,-0.00006171,-0.00019581,0.00007471,-0.00005489,0
 .00010514,0.00011177,0.00012417,0.00001135,0.07097774,-0.07156970,-0.2
 0037781,-0.08296232,0.08245634,0.21298269,0.00472950,-0.00019316,-0.00
 899327,-0.00240307,0.00115220,0.00048477,0.00162609,0.00017118,0.00132
 312,-0.04430476,-0.00642454,-0.01542237,-0.00161880,-0.00067971,0.0005
 0795,-0.00042388,-0.00010860,0.00029883,-0.00010544,0.00043262,0.00097
 015,0.00006426,0.00019419,-0.00007632,-0.00019057,-0.00004517,-0.00003
 855,-0.00000201,-0.00007163,0.00008897,0.00071935,0.00008577,0.0004125
 5,0.00000072,0.00006039,-0.00006167,-0.00014867,-0.00014769,-0.0000033
 7,-0.11620484,-0.08885238,-0.04174799,0.00891371,0.00585969,0.00424043
 ,0.15055556,0.00174922,-0.00014726,0.00006291,-0.00027535,0.00005916,-
 0.00010691,0.00015747,0.00281427,0.00108826,0.01060826,0.01927322,0.00
 684159,-0.00035452,0.00019742,-0.00006434,-0.00011662,0.00008089,0.000
 05664,-0.00027641,0.00032022,0.00026276,0.00004653,-0.00002298,-0.0000
 3395,-0.00007374,-0.00001185,-0.00001343,-0.00000199,-0.00000279,0.000
 01617,0.00027993,0.00005419,0.00011715,-0.00003531,0.00000981,-0.00003
 654,-0.00001895,-0.00002381,0.00000007,-0.08747008,-0.15298965,-0.0577
 4041,-0.00738510,-0.00931124,-0.00595191,0.09559125,0.16295966,0.00336
 633,0.00045922,-0.00366486,-0.00106043,0.00039932,0.00013505,-0.001538
 20,-0.00155133,0.00135457,-0.01720998,0.00122611,0.00195036,-0.0005324
 6,-0.00036808,0.00018566,-0.00022678,-0.00008559,0.00011452,-0.0002851
 5,0.00015875,0.00046275,0.00005418,0.00013392,-0.00002203,-0.00008189,
 -0.00003207,-0.00002276,-0.00000215,-0.00003587,0.00005119,0.00027243,
 0.00004261,0.00007559,-0.00000034,0.00001332,-0.00000987,-0.00006334,-
 0.00006643,0.00000026,-0.04546477,-0.06101241,-0.08508230,-0.01353792,
 -0.02144712,-0.01170407,0.06174588,0.06277529,0.08817830,-0.02839586,0
 .02590484,-0.01489045,-0.00082236,-0.00102795,0.00165967,-0.19725248,0
 .06867926,0.06587401,-0.01563857,0.02992414,-0.00969283,0.00558456,0.0
 0065983,0.00310964,0.00064758,-0.00024440,0.00036914,0.00224779,-0.001
 63363,0.00008797,-0.00004819,0.00004212,0.00016624,0.00061067,0.000090
 03,0.00008763,-0.00004417,-0.00002053,-0.00002487,-0.00173964,-0.00024
 703,-0.00116546,0.00048498,-0.00018566,0.00055878,0.00055444,0.0004413
 7,0.00010619,-0.06944547,-0.03139375,0.01705060,-0.00207857,-0.0105555
 3,0.00679776,-0.00362534,-0.01212902,0.01183142,0.54248169,0.02044209,
 -0.01213542,0.00765493,-0.00140751,0.00041433,-0.00066871,0.05752046,-
 0.10436234,-0.03349682,0.01754234,-0.01861824,0.01784411,-0.00520455,-
 0.00313525,-0.00391682,-0.00051432,-0.00035578,-0.00008611,0.00145588,
 0.00040962,0.00006326,0.00011415,0.00036129,0.00013399,-0.00029893,-0.
 00009870,-0.00009393,0.00003511,-0.00002676,0.00002780,0.00061679,0.00
 005052,-0.00022943,-0.00034859,0.00010117,-0.00029908,-0.00049842,-0.0
 0040503,-0.00007530,-0.02276341,-0.12774769,0.04053187,0.00364600,0.01
 073971,-0.01631352,-0.00627627,-0.02032779,0.01670401,-0.03377896,0.52
 030079,0.00745194,-0.00629638,0.01976794,0.00060394,0.00018275,-0.0014
 3091,0.08433266,-0.04344637,-0.13849872,-0.00828655,0.02451197,-0.0277
 0084,-0.00570648,-0.00236553,-0.00422901,-0.00049889,-0.00026973,-0.00
 044203,-0.00381916,0.00366247,0.00067064,0.00010631,0.00031808,0.00007
 296,-0.00032244,-0.00011719,-0.00008935,0.00004025,0.00000599,-0.00000
 155,0.00071555,-0.00007848,-0.00021164,-0.00039952,0.00009922,-0.00035
 327,-0.00049712,-0.00039299,-0.00011126,0.00514465,0.04630383,-0.10409
 678,0.00720618,0.01506101,-0.01351571,-0.00534473,-0.01211293,0.007787
 47,0.05615968,0.01774657,0.48680475,0.00149410,0.00115467,0.00313137,0
 .00007866,-0.00018760,-0.00016841,0.00441834,0.03035310,0.01824538,0.0
 0195402,-0.00015186,-0.00013696,0.00074272,-0.00025225,0.00019881,-0.0
 0012129,-0.00014415,-0.00011159,-0.00115840,0.00029464,-0.00021621,0.0
 0006443,0.00016976,0.00009846,0.00005212,-0.00003142,-0.00002997,-0.00
 000075,0.00000156,-0.00000809,-0.00024280,-0.00034804,-0.00014745,0.00
 010087,-0.00000758,0.00006349,0.00002585,0.00005976,0.00000351,-0.0047
 2635,-0.00810595,-0.00447339,0.00007918,0.00012589,0.00032697,0.000365
 49,-0.00158914,0.00214798,-0.07223222,-0.05759357,-0.03392908,0.076832
 17,-0.00580631,0.00056902,-0.00653759,0.00065380,0.00011571,0.00049735
 ,0.01815846,-0.01772715,-0.01772156,0.00089082,0.00202878,0.00158865,0
 .00123122,0.00178858,0.00133366,0.00044467,0.00051400,0.00020171,0.002
 11294,-0.00083598,0.00019582,-0.00009050,-0.00050247,-0.00012206,0.000
 12341,0.00011411,0.00007424,-0.00002170,0.00003934,-0.00003322,-0.0000
 8336,-0.00002307,0.00026178,0.00010024,-0.00004631,0.00008766,0.000191
 79,0.00017665,0.00001684,-0.01205902,-0.01968689,-0.01136179,-0.000583
 70,0.00150469,0.00099127,-0.00110404,-0.00319693,0.00343965,-0.0582318
 2,-0.18795002,-0.06515328,0.05518844,0.21841391,-0.00452934,0.00160755
 ,-0.00539188,0.00023037,0.00001893,0.00042656,0.01255919,-0.02536558,-
 0.01058111,-0.00068724,-0.00204358,0.00173215,0.00097837,0.00116766,0.
 00093053,0.00030834,0.00030786,0.00016175,0.00167427,-0.00079137,0.000
 16012,-0.00004008,-0.00030835,-0.00003734,0.00011312,0.00007404,0.0000
 4118,-0.00001434,0.00002951,-0.00003653,-0.00007219,-0.00000897,0.0000
 4116,0.00005798,-0.00002186,0.00004951,0.00015716,0.00013761,0.0000258
 6,0.00901588,0.01891374,0.00787321,-0.00047430,-0.00042991,0.00191716,
 0.00129140,0.00440396,-0.00139245,-0.03482505,-0.07110918,-0.08768914,
 0.02604812,0.09026206,0.10116591,0.00351059,-0.00550687,0.00673661,-0.
 00019930,0.00046919,-0.00055504,-0.03701409,0.02067152,-0.00527536,0.0
 0244508,-0.00095705,0.00029048,-0.00267602,-0.00034076,-0.00102565,-0.
 00041089,-0.00004732,-0.00002548,-0.00176660,0.00170863,0.00051898,0.0
 0012939,0.00018158,-0.00010822,-0.00025133,-0.00006675,-0.00005368,0.0
 0001359,-0.00004765,0.00009269,0.00097352,-0.00011236,0.00026886,-0.00
 017375,0.00005760,-0.00018187,-0.00025934,-0.00021602,-0.00006873,0.00
 555309,-0.00372839,0.00261259,-0.00032176,0.00112178,-0.00061680,0.001
 55761,0.00118807,0.00029885,-0.16112551,0.02642532,-0.10342080,-0.0077
 4599,-0.00054923,-0.01142190,0.19724739,-0.00179882,0.00051370,-0.0013
 7721,0.00055715,-0.00009709,0.00009070,0.01837094,-0.00500830,0.005883
 51,0.00026721,-0.00324458,0.00378100,0.00110260,0.00080589,0.00060274,
 0.00021662,0.00015253,-0.00001283,0.00085055,-0.00064434,-0.00035588,-
 0.00006124,-0.00018052,-0.00001298,0.00006925,0.00003858,0.00002673,-0
 .00000418,0.00002716,-0.00003453,-0.00008918,0.00013184,0.00006465,0.0
 0003438,-0.00002349,0.00003485,0.00011942,0.00007770,0.00001933,0.0178
 5953,-0.00329171,0.01265902,-0.00078256,-0.00034361,0.00113601,0.00006
 630,0.00040641,-0.00081964,0.02300345,-0.05643279,0.02220259,-0.019107
 20,0.00494695,-0.01667674,-0.04039786,0.06230474,0.00240070,0.00033016
 ,-0.00303921,-0.00076545,0.00020253,0.00016205,0.01909207,-0.00567576,
 0.01764047,-0.00020426,0.00524826,-0.00190381,-0.00029813,0.00009598,0
 .00035665,-0.00021376,-0.00006908,0.00012038,0.00010014,-0.00025949,0.
 00020445,0.00003788,0.00011760,-0.00005311,-0.00010135,-0.00002855,-0.
 00001988,-0.00000010,-0.00003740,0.00005250,0.00034960,0.00012791,0.00
 024315,0.00000635,0.00001967,-0.00001320,-0.00003699,-0.00006635,0.000
 00018,-0.02012366,-0.00128191,-0.00954075,0.00107633,0.00001827,-0.000
 79799,0.00069913,0.00049400,0.00173274,-0.10268248,0.02576867,-0.13796
 664,-0.01121749,0.00224351,-0.00917296,0.11166689,-0.02712740,0.142209
 43,-0.01167234,0.01577305,0.01399191,-0.00508569,-0.00073795,-0.007850
 53,0.00154406,-0.00239999,-0.00028637,0.00084771,-0.00085938,-0.001138
 44,-0.00435042,-0.00426025,-0.00259709,0.00428941,0.01112227,0.0087188
 2,-0.42868566,0.09953637,-0.05903292,-0.00032474,-0.01351009,0.0010314
 4,0.00228634,0.00345099,0.00130916,-0.00014994,0.00173317,-0.00174216,
 0.00367887,0.00099882,0.00060057,-0.00013685,0.00005916,-0.00008372,-0
 .00058993,0.00035293,0.00015192,-0.00061831,0.00030057,-0.00014506,0.0
 0024358,-0.00014211,-0.00021274,0.00007272,0.00003700,0.00008134,-0.00
 004374,0.00056175,0.00037658,0.00002088,-0.00037070,-0.00026225,0.0003
 3347,-0.00014388,0.00005265,0.43164603,0.01621914,-0.00283493,-0.00560
 976,-0.00026958,-0.00290726,0.00062873,0.00359400,-0.00227642,-0.00169
 234,-0.00058540,0.00039331,0.00044372,-0.00120651,0.00111616,0.0018375
 1,0.00565057,-0.00570715,0.00359257,0.09126479,-0.04026075,0.00602569,
 -0.00363120,-0.00244392,-0.00257501,0.00036730,-0.00018643,0.00028225,
 -0.00026399,-0.00037785,0.00025676,-0.00097934,-0.00098170,-0.00123237
 ,0.00008924,-0.00000374,0.00025751,0.00014779,0.00018545,0.00005464,0.
 00033362,-0.00025547,0.00018792,-0.00007526,0.00006889,0.00000482,-0.0
 0003539,-0.00001090,-0.00004718,0.00055732,-0.00088421,0.00029608,0.00
 015084,-0.00016465,-0.00015214,0.00021960,-0.00012416,-0.00011846,-0.1
 1227667,0.05513325,0.02484425,-0.00861867,0.00312729,-0.00312519,0.001
 61971,0.00104931,0.00221477,-0.00329602,-0.00037759,-0.00056671,-0.000
 56693,-0.00143846,-0.00148251,0.00061136,-0.00102504,0.00547517,0.0042
 3082,-0.00290071,-0.07652362,0.01231246,-0.04587830,-0.00032628,-0.005
 19776,0.00040016,0.00114000,0.00154896,0.00052097,0.00014826,0.0011717
 5,-0.00069584,0.00001081,-0.00040388,-0.00005200,-0.00005897,-0.000141
 82,-0.00016116,0.00000470,0.00032081,-0.00000827,-0.00021870,-0.000012
 09,0.00006778,0.00014774,-0.00004099,-0.00012545,-0.00008644,0.0000231
 3,0.00000149,-0.00033501,0.00001182,0.00091778,0.00012161,-0.00026669,
 -0.00018746,0.00025124,-0.00013775,-0.00009371,0.04995169,-0.00274120,
 0.05393969,-0.01979755,0.01692315,-0.01019149,-0.38614018,0.04320376,0
 .12705273,0.00033128,-0.00094577,0.00045395,0.00225237,-0.00081257,-0.
 00011583,-0.00484413,-0.00725833,0.00086949,0.00159642,0.01175128,-0.0
 0909034,-0.00240240,-0.00117171,0.00784658,-0.00141785,-0.01530990,-0.
 00161468,0.00152571,0.00184789,0.00105922,-0.00000281,0.00374608,-0.00
 179988,0.00465415,0.00076834,0.00143881,0.00029312,-0.00066858,-0.0001
 6252,-0.00052206,0.00061407,0.00039236,-0.00072494,0.00043756,0.000030
 25,0.00026124,-0.00020047,-0.00017989,0.00042236,0.00006849,0.00020501
 ,-0.00011960,0.00032462,0.00008703,-0.00000103,-0.00019542,-0.00010751
 ,0.00018083,-0.00013251,0.00016194,0.00669456,0.00072914,-0.00158680,0
 .39776052,0.01624150,-0.00031683,-0.00152651,0.03640463,-0.03080781,-0
 .00306075,-0.00059512,-0.00029181,-0.00003657,0.00335278,-0.00065192,0
 .00080244,-0.00257434,-0.00003878,0.00034957,0.00547414,-0.00704061,-0
 .00521154,-0.00068418,-0.00216452,-0.00036014,-0.00463708,-0.00407956,
 0.00373762,0.00031139,-0.00013841,0.00009704,-0.00006675,-0.00040578,-
 0.00035031,-0.00077501,-0.00454515,0.00154554,-0.00048142,-0.00170617,
 -0.00136028,-0.00002313,0.00082343,-0.00049733,0.00051382,0.00102161,-
 0.00008401,0.00006501,-0.00004833,-0.00000494,0.00032500,-0.00013005,0
 .00011350,0.00014592,0.00010258,-0.00015767,0.00002008,-0.00007825,-0.
 00001526,-0.00007305,-0.00001491,-0.00000217,0.00077493,0.00252250,-0.
 00042702,-0.05371911,0.04798880,-0.01445534,0.00045615,0.01110616,0.14
 045412,-0.00789585,-0.08414465,0.00075359,-0.00020130,-0.00082723,-0.0
 0585722,0.00294967,0.00002117,0.00174887,0.00183197,-0.00206138,-0.006
 70344,-0.00804930,-0.00158890,0.00415366,-0.00092993,-0.00263138,0.000
 38912,0.00993093,0.00138643,-0.00172875,-0.00226011,-0.00105931,0.0001
 8567,-0.00132474,0.00056932,-0.00007944,-0.00062774,0.00271240,-0.0005
 0101,-0.00066637,-0.00143155,0.00022634,-0.00016674,-0.00077356,0.0000
 9217,0.00008085,0.00134626,-0.00055334,0.00034725,-0.00001202,-0.00028
 847,-0.00008150,-0.00013163,-0.00024259,-0.00019815,0.00031531,0.00005
 295,0.00000201,-0.00003623,0.00001635,0.00005383,-0.00012074,-0.002914
 80,0.00030026,-0.00708047,-0.11474844,0.00644880,0.08444201\\-0.000004
 28,-0.00000128,-0.00002682,-0.00000264,0.00001343,0.00001358,-0.000002
 85,-0.00000051,0.00000098,-0.00000598,-0.00000429,-0.00000464,0.000003
 00,0.00000410,0.00000705,0.00004335,0.00001729,0.00000609,-0.00009678,
 0.00001681,0.00000463,0.00000549,0.00000854,0.00000261,-0.00000200,-0.
 00000322,0.00000031,0.00000077,0.00000079,0.00000145,0.00000271,-0.000
 00694,-0.00000099,-0.00000373,-0.00000600,0.00000211,0.00000091,-0.000
 00238,0.00000200,0.00000214,0.00000046,-0.00000083,-0.00000065,-0.0000
 0116,0.00000024,-0.00000215,0.00000130,-0.00000259,0.00000371,0.000001
 46,0.00000166,0.00000088,0.00000212,0.00000435,0.00000069,0.00000435,0
 .00000151,0.00006779,-0.00001498,-0.00000338,-0.00001036,-0.00002990,-
 0.00000931\\\@
 The archive entry for this job was punched.


 DIATOMIC MOLECULES ARE PECULIAR BECAUSE THEY ONLY HAVE TWO ENDS,
 AND THESE ENDS ARE VERY CLOSE TOGETHER.
 KLAUS RUEDENBERG, REV.MOD.PHYS. PG 176, 32, (1960)
 Job cpu time:       0 days  4 hours  5 minutes 40.9 seconds.
 Elapsed time:       0 days  1 hours  1 minutes 34.1 seconds.
 File lengths (MBytes):  RWF=    424 Int=      0 D2E=      0 Chk=     20 Scr=      1
 Normal termination of Gaussian 16 at Tue Mar 26 06:55:02 2024.
