 Entering Gaussian System, Link 0=/opt/software/gaussian/g16.c01/g16
 Initial command:
 /opt/software/gaussian/g16.c01/l1.exe "/scratch/arhender/22222887/Gau-21763.inp" -scrdir="/scratch/arhender/22222887/"
 Entering Link 1 = /opt/software/gaussian/g16.c01/l1.exe PID=     21765.
  
 Copyright (c) 1988-2019, Gaussian, Inc.  All Rights Reserved.
  
 This is part of the Gaussian(R) 16 program.  It is based on
 the Gaussian(R) 09 system (copyright 2009, Gaussian, Inc.),
 the Gaussian(R) 03 system (copyright 2003, Gaussian, Inc.),
 the Gaussian(R) 98 system (copyright 1998, Gaussian, Inc.),
 the Gaussian(R) 94 system (copyright 1995, Gaussian, Inc.),
 the Gaussian 92(TM) system (copyright 1992, Gaussian, Inc.),
 the Gaussian 90(TM) system (copyright 1990, Gaussian, Inc.),
 the Gaussian 88(TM) system (copyright 1988, Gaussian, Inc.),
 the Gaussian 86(TM) system (copyright 1986, Carnegie Mellon
 University), and the Gaussian 82(TM) system (copyright 1983,
 Carnegie Mellon University). Gaussian is a federally registered
 trademark of Gaussian, Inc.
  
 This software contains proprietary and confidential information,
 including trade secrets, belonging to Gaussian, Inc.
  
 This software is provided under written license and may be
 used, copied, transmitted, or stored only in accord with that
 written license.
  
 The following legend is applicable only to US Government
 contracts under FAR:
  
                    RESTRICTED RIGHTS LEGEND
  
 Use, reproduction and disclosure by the US Government is
 subject to restrictions as set forth in subparagraphs (a)
 and (c) of the Commercial Computer Software - Restricted
 Rights clause in FAR 52.227-19.
  
 Gaussian, Inc.
 340 Quinnipiac St., Bldg. 40, Wallingford CT 06492
  
  
 ---------------------------------------------------------------
 Warning -- This program may not be used in any manner that
 competes with the business of Gaussian, Inc. or will provide
 assistance to any competitor of Gaussian, Inc.  The licensee
 of this program is prohibited from giving any competitor of
 Gaussian, Inc. access to this program.  By using this program,
 the user acknowledges that Gaussian, Inc. is engaged in the
 business of creating and licensing software in the field of
 computational chemistry and represents and warrants to the
 licensee that it is not a competitor of Gaussian, Inc. and that
 it will not use this program in any manner prohibited above.
 ---------------------------------------------------------------
  

 Cite this work as:
 Gaussian 16, Revision C.01,
 M. J. Frisch, G. W. Trucks, H. B. Schlegel, G. E. Scuseria, 
 M. A. Robb, J. R. Cheeseman, G. Scalmani, V. Barone, 
 G. A. Petersson, H. Nakatsuji, X. Li, M. Caricato, A. V. Marenich, 
 J. Bloino, B. G. Janesko, R. Gomperts, B. Mennucci, H. P. Hratchian, 
 J. V. Ortiz, A. F. Izmaylov, J. L. Sonnenberg, D. Williams-Young, 
 F. Ding, F. Lipparini, F. Egidi, J. Goings, B. Peng, A. Petrone, 
 T. Henderson, D. Ranasinghe, V. G. Zakrzewski, J. Gao, N. Rega, 
 G. Zheng, W. Liang, M. Hada, M. Ehara, K. Toyota, R. Fukuda, 
 J. Hasegawa, M. Ishida, T. Nakajima, Y. Honda, O. Kitao, H. Nakai, 
 T. Vreven, K. Throssell, J. A. Montgomery, Jr., J. E. Peralta, 
 F. Ogliaro, M. J. Bearpark, J. J. Heyd, E. N. Brothers, K. N. Kudin, 
 V. N. Staroverov, T. A. Keith, R. Kobayashi, J. Normand, 
 K. Raghavachari, A. P. Rendell, J. C. Burant, S. S. Iyengar, 
 J. Tomasi, M. Cossi, J. M. Millam, M. Klene, C. Adamo, R. Cammi, 
 J. W. Ochterski, R. L. Martin, K. Morokuma, O. Farkas, 
 J. B. Foresman, and D. J. Fox, Gaussian, Inc., Wallingford CT, 2019.
 
 ******************************************
 Gaussian 16:  ES64L-G16RevC.01  3-Jul-2019
                12-Jan-2024 
 ******************************************
 %chk=IRC_attackingOHDeprotonated_SiOH4Attack_forward.chk
 ----------------------------------------------------------------------
 # irc=(forward,calcfc,maxpoints=100) wb97xd/def2tzvpp geom=connectivit
 y
 ----------------------------------------------------------------------
 1/10=4,18=10,22=1,26=3,38=1,42=100,44=3,57=2,172=1/1,23;
 2/12=2,17=6,18=5,29=1,40=1/2;
 3/5=44,7=202,11=2,25=1,30=1,71=2,74=-58,140=1/1,2,3;
 4//1;
 5/5=2,38=5/2;
 8/6=4,10=90,11=11/1;
 11/6=1,8=1,9=11,15=111,16=1/1,2,10;
 10/6=1,13=1/2;
 6/7=2,8=2,9=2,10=2,28=1/1;
 7/10=1,25=1/1,2,3,16;
 1/10=4,18=10,22=1,26=3,42=100,44=3/23(2);
 2/29=1/2;
 99/5=20/99;
 2/29=1/2;
 3/5=44,7=202,11=2,25=1,30=1,71=2,74=-58,140=1/1,2,3;
 4/5=5,16=3,69=1/1;
 5/5=2,38=5/2;
 8/6=4,10=90,11=11/1;
 11/6=1,8=1,9=11,15=111,16=1/1,2,10;
 10/6=1,13=1/2;
 7/10=1,25=1/1,2,3,16;
 1/18=10,22=1,26=3,42=100,44=3/23(-8);
 2/29=1/2;
 6/7=2,8=2,9=2,10=2,19=2,28=1/1;
 99/5=20,9=1/99;
 --------------------------------------------------------
 forward IRC for Si Attack with attacking OH deprotonated
 --------------------------------------------------------
 Symbolic Z-matrix:
 Charge = -1 Multiplicity = 1
 C                     1.74385   0.80959   0.59003 
 H                     0.88335   1.38565   0.92147 
 H                     2.56672   0.97022   1.29509 
 C                     1.42561  -0.66387   0.56108 
 H                     1.13309  -1.11665  -0.36451 
 H                     1.62895  -1.28772   1.40856 
 O                     2.10264   1.24074  -0.70511 
 H                     2.76056   0.53652  -0.91754 
 O                     3.31292  -0.92291  -0.1058 
 H                     3.26959  -1.7406   -0.59975 
 Si                   -1.4732   -0.08048   0.01742 
 O                    -2.47411   1.04702   0.72136 
 H                    -2.1549    1.24476   1.59871 
 O                    -0.7845    0.53647  -1.35984 
 H                     0.12165   0.85855  -1.29529 
 O                    -0.41257  -0.58956   1.08052 
 O                    -2.538    -1.19697  -0.59938 
 H                    -2.25199  -1.51653  -1.45117 
 
 IRC-IRC-IRC-IRC-IRC-IRC-IRC-IRC-IRC-IRC-IRC-IRC-IRC-IRC-IRC-IRC-IRC-IRC
 ------------------------------------------------------------------------
 INPUT DATA FOR L123
 ------------------------------------------------------------------------
 GENERAL PARAMETERS:
 Rxn path following direction = Forward
 Maximum points per path      = 100
 Step size                    =   0.100 bohr
 Integration scheme           = HPC                                 
    Redo corrector integration= Yes                                 
    DWI Weight Power          =  2
    DWI will use Hessian update vectors when possible.
    Max correction cycles     =  20
 Initial Hessian              = CalcFC
 Hessian evaluation           = All updating
 Hessian updating method      = Bofill                              
 ------------------------------------------------------------------------
 IRC-IRC-IRC-IRC-IRC-IRC-IRC-IRC-IRC-IRC-IRC-IRC-IRC-IRC-IRC-IRC-IRC-IRC
                          Input orientation:                          
 ---------------------------------------------------------------------
 Center     Atomic      Atomic             Coordinates (Angstroms)
 Number     Number       Type             X           Y           Z
 ---------------------------------------------------------------------
      1          6           0        1.743851    0.809588    0.590031
      2          1           0        0.883346    1.385653    0.921467
      3          1           0        2.566717    0.970218    1.295090
      4          6           0        1.425607   -0.663872    0.561078
      5          1           0        1.133093   -1.116653   -0.364513
      6          1           0        1.628951   -1.287724    1.408556
      7          8           0        2.102637    1.240740   -0.705114
      8          1           0        2.760563    0.536522   -0.917545
      9          8           0        3.312923   -0.922912   -0.105797
     10          1           0        3.269588   -1.740598   -0.599748
     11         14           0       -1.473202   -0.080485    0.017415
     12          8           0       -2.474111    1.047021    0.721359
     13          1           0       -2.154903    1.244758    1.598707
     14          8           0       -0.784503    0.536472   -1.359841
     15          1           0        0.121650    0.858546   -1.295295
     16          8           0       -0.412567   -0.589561    1.080518
     17          8           0       -2.537995   -1.196972   -0.599377
     18          1           0       -2.251993   -1.516529   -1.451172
 ---------------------------------------------------------------------
                    Distance matrix (angstroms):
                    1          2          3          4          5
     1  C    0.000000
     2  H    1.087276   0.000000
     3  H    1.095454   1.773674   0.000000
     4  C    1.507715   2.150461   2.123949   0.000000
     5  H    2.234857   2.824474   3.027308   1.071118   0.000000
     6  H    2.254307   2.817823   2.447566   1.071802   1.849031
     7  O    1.411390   2.037998   2.071079   2.385196   2.571639
     8  H    1.838764   2.761690   2.263056   2.325807   2.384846
     9  O    2.438795   3.505366   2.470476   2.018362   2.203663
    10  H    3.201078   4.216835   3.381266   2.430457   2.238137
    11  Si   3.386672   2.918936   4.365476   3.006494   2.830598
    12  O    4.226680   3.380419   5.073955   4.261531   4.344251
    13  H    4.050565   3.116000   4.739330   4.188030   4.499045
    14  O    3.204554   2.950796   4.297380   3.164702   2.720418
    15  H    2.487647   2.402510   3.563835   2.732065   2.406404
    16  O    2.616932   2.367733   3.369731   1.911602   2.180597
    17  O    4.875980   4.548461   5.860359   4.164252   3.679470
    18  H    5.054117   4.886965   6.078309   4.277957   3.577644
                    6          7          8          9         10
     6  H    0.000000
     7  O    3.329431   0.000000
     8  H    3.165307   0.986872   0.000000
     9  O    2.293930   2.550562   1.758973   0.000000
    10  H    2.632503   3.203319   2.354863   0.956282   0.000000
    11  Si   3.607776   3.879989   4.379454   4.861261   5.062700
    12  O    4.770575   4.797810   5.508941   6.168840   6.519680
    13  H    4.557101   4.840894   5.567308   6.123826   6.570438
    14  O    4.100789   3.043065   3.572551   4.526735   4.711523
    15  H    3.766861   2.102070   2.685192   3.843530   4.141117
    16  O    2.182392   3.586745   3.915236   3.923996   4.207903
    17  O    4.626388   5.243004   5.583991   5.878093   5.832971
    18  H    4.826191   5.207873   5.442931   5.755928   5.591332
                   11         12         13         14         15
    11  Si   0.000000
    12  O    1.663918   0.000000
    13  H    2.172894   0.954323   0.000000
    14  O    1.658848   2.728888   3.336565   0.000000
    15  H    2.269039   3.292475   3.702309   0.963852   0.000000
    16  O    1.585652   2.656569   2.582437   2.713234   2.833176
    17  O    1.661554   2.604598   3.307624   2.580285   3.432662
    18  H    2.196699   3.367642   4.115324   2.525209   3.361467
                   16         17         18
    16  O    0.000000
    17  O    2.776408   0.000000
    18  H    3.263773   0.953660   0.000000
 Symmetry turned off by external request.
 Stoichiometry    C2H9O6Si(1-)
 Framework group  C1[X(C2H9O6Si)]
 Deg. of freedom    48
 Full point group                 C1      NOp   1
 Rotational constants (GHZ):           2.4456553           0.7113048           0.6853023
 Standard basis: def2TZVPP (5D, 7F)
   416 basis functions,   630 primitive gaussians,   471 cartesian basis functions
    42 alpha electrons       42 beta electrons
       nuclear repulsion energy       618.0769661222 Hartrees.
 NAtoms=   18 NActive=   18 NUniq=   18 SFac= 1.00D+00 NAtFMM=   60 NAOKFM=F Big=F
 Integral buffers will be    131072 words long.
 Raffenetti 2 integral format.
 Two-electron integral symmetry is turned off.
 Nuclear repulsion after empirical dispersion term =      618.0673048481 Hartrees.
 One-electron integrals computed using PRISM.
   1 Symmetry operations used in ECPInt.
 ECPInt:  NShTT=   12246 NPrTT=   33908 LenC2=   11548 LenP2D=   24988.
 LDataN:  DoStor=T MaxTD1= 6 Len=  172
 NBasis=   416 RedAO= T EigKep=  1.78D-04  NBF=   416
 NBsUse=   416 1.00D-06 EigRej= -1.00D+00 NBFU=   416
 ExpMin= 7.01D-02 ExpMax= 4.48D+04 ExpMxC= 1.53D+03 IAcc=3 IRadAn=         5 AccDes= 0.00D+00
 Harris functional with IExCor= 4639 and IRadAn=       5 diagonalized for initial guess.
 HarFok:  IExCor= 4639 AccDes= 0.00D+00 IRadAn=         5 IDoV= 1 UseB2=F ITyADJ=14
 ICtDFT=  3500011 ScaDFX=  1.000000  1.000000  1.000000  1.000000
 FoFCou: FMM=F IPFlag=           0 FMFlag=      100000 FMFlg1=           0
         NFxFlg=           0 DoJE=T BraDBF=F KetDBF=T FulRan=T
         wScrn=  0.000000 ICntrl=       500 IOpCl=  0 I1Cent=   200000004 NGrid=           0
         NMat0=    1 NMatS0=      1 NMatT0=    0 NMatD0=    1 NMtDS0=    0 NMtDT0=    0
 Symmetry not used in FoFCou.
 Requested convergence on RMS density matrix=1.00D-08 within 128 cycles.
 Requested convergence on MAX density matrix=1.00D-06.
 Requested convergence on             energy=1.00D-06.
 No special actions if energy rises.
 Integral accuracy reduced to 1.0D-05 until final iterations.
 Initial convergence to 1.0D-05 achieved.  Increase integral accuracy.
 SCF Done:  E(RwB97XD) =  -822.736919268     A.U. after   14 cycles
            NFock= 14  Conv=0.47D-08     -V/T= 2.0033
 DoSCS=F DFT=T ScalE2(SS,OS)=  1.000000  1.000000
 Range of M.O.s used for correlation:     1   416
 NBasis=   416 NAE=    42 NBE=    42 NFC=     0 NFV=     0
 NROrb=    416 NOA=    42 NOB=    42 NVA=   374 NVB=   374

 **** Warning!!: The largest alpha MO coefficient is  0.11188263D+02

   1 Symmetry operations used in ECPInt.
 ECPInt:  NShTT=   12246 NPrTT=   33908 LenC2=   11548 LenP2D=   24988.
 LDataN:  DoStor=T MaxTD1= 7 Len=  274
 Symmetrizing basis deriv contribution to polar:
 IMax=3 JMax=2 DiffMx= 0.00D+00
 G2DrvN: will do    19 centers at a time, making    1 passes.
 Calling FoFCou, ICntrl=  3107 FMM=F I1Cent=   0 AccDes= 0.00D+00.
 End of G2Drv F.D. properties file   721 does not exist.
 End of G2Drv F.D. properties file   722 does not exist.
 End of G2Drv F.D. properties file   788 does not exist.
          IDoAtm=111111111111111111
          Differentiating once with respect to nuclear coordinates.
 CalDSu exits because no D1Ps are significant.
          There are    57 degrees of freedom in the 1st order CPHF.  IDoFFX=6 NUNeed=     0.
     51 vectors produced by pass  0 Test12= 2.76D-14 1.75D-09 XBig12= 7.94D-02 1.06D-01.
 AX will form    51 AO Fock derivatives at one time.
     51 vectors produced by pass  1 Test12= 2.76D-14 1.75D-09 XBig12= 1.88D-02 2.09D-02.
     51 vectors produced by pass  2 Test12= 2.76D-14 1.75D-09 XBig12= 4.69D-04 3.25D-03.
     51 vectors produced by pass  3 Test12= 2.76D-14 1.75D-09 XBig12= 4.26D-06 2.63D-04.
     51 vectors produced by pass  4 Test12= 2.76D-14 1.75D-09 XBig12= 4.04D-08 2.61D-05.
     51 vectors produced by pass  5 Test12= 2.76D-14 1.75D-09 XBig12= 3.26D-10 2.33D-06.
     51 vectors produced by pass  6 Test12= 2.76D-14 1.75D-09 XBig12= 2.34D-12 1.78D-07.
     23 vectors produced by pass  7 Test12= 2.76D-14 1.75D-09 XBig12= 1.52D-14 1.45D-08.
 InvSVY:  IOpt=1 It=  1 EMax= 2.22D-16
 Solved reduced A of dimension   380 with    57 vectors.
 End of Minotr F.D. properties file   721 does not exist.
 End of Minotr F.D. properties file   722 does not exist.
 End of Minotr F.D. properties file   788 does not exist.

 **********************************************************************

            Population analysis using the SCF Density.

 **********************************************************************

 Alpha  occ. eigenvalues --  -66.12706 -19.09529 -19.09250 -19.09142 -19.08381
 Alpha  occ. eigenvalues --  -19.02650 -19.01873 -10.20333 -10.18644  -5.24481
 Alpha  occ. eigenvalues --   -3.59046  -3.58999  -3.58848  -0.97996  -0.96847
 Alpha  occ. eigenvalues --   -0.94097  -0.93053  -0.85162  -0.84364  -0.68692
 Alpha  occ. eigenvalues --   -0.56767  -0.50344  -0.45937  -0.44417  -0.42150
 Alpha  occ. eigenvalues --   -0.41657  -0.38749  -0.35412  -0.34997  -0.32123
 Alpha  occ. eigenvalues --   -0.31164  -0.30596  -0.29307  -0.27832  -0.27714
 Alpha  occ. eigenvalues --   -0.26297  -0.24651  -0.23555  -0.21767  -0.19280
 Alpha  occ. eigenvalues --   -0.17678  -0.16004
 Alpha virt. eigenvalues --    0.22992   0.23497   0.25620   0.27104   0.28736
 Alpha virt. eigenvalues --    0.30309   0.31332   0.32490   0.34194   0.35262
 Alpha virt. eigenvalues --    0.36081   0.36923   0.39506   0.40407   0.41895
 Alpha virt. eigenvalues --    0.42966   0.45924   0.46610   0.48075   0.49334
 Alpha virt. eigenvalues --    0.51368   0.53160   0.54163   0.54349   0.56410
 Alpha virt. eigenvalues --    0.58293   0.59852   0.60862   0.61004   0.61972
 Alpha virt. eigenvalues --    0.62819   0.63120   0.64103   0.64750   0.66007
 Alpha virt. eigenvalues --    0.67217   0.68058   0.68775   0.69651   0.71031
 Alpha virt. eigenvalues --    0.71807   0.73390   0.73739   0.74275   0.75483
 Alpha virt. eigenvalues --    0.77652   0.78785   0.79405   0.80281   0.81563
 Alpha virt. eigenvalues --    0.82390   0.83884   0.84296   0.85195   0.87859
 Alpha virt. eigenvalues --    0.90130   0.90719   0.91149   0.94005   0.94122
 Alpha virt. eigenvalues --    0.97396   0.99649   1.00122   1.02104   1.04790
 Alpha virt. eigenvalues --    1.04957   1.06208   1.07050   1.09211   1.09930
 Alpha virt. eigenvalues --    1.11599   1.12139   1.13039   1.14665   1.16674
 Alpha virt. eigenvalues --    1.18297   1.19254   1.20223   1.21786   1.24300
 Alpha virt. eigenvalues --    1.26716   1.27317   1.28972   1.29867   1.30192
 Alpha virt. eigenvalues --    1.32393   1.33245   1.34084   1.36544   1.37050
 Alpha virt. eigenvalues --    1.39895   1.41793   1.44818   1.46114   1.46914
 Alpha virt. eigenvalues --    1.47993   1.49414   1.51763   1.52184   1.54214
 Alpha virt. eigenvalues --    1.55396   1.58240   1.58915   1.60258   1.62185
 Alpha virt. eigenvalues --    1.63565   1.64805   1.66331   1.68368   1.70376
 Alpha virt. eigenvalues --    1.71179   1.72371   1.75571   1.76093   1.80343
 Alpha virt. eigenvalues --    1.83015   1.85628   1.86793   1.88164   1.93088
 Alpha virt. eigenvalues --    1.95363   1.96932   2.01300   2.02436   2.04494
 Alpha virt. eigenvalues --    2.05212   2.06415   2.08738   2.10202   2.12757
 Alpha virt. eigenvalues --    2.13674   2.17003   2.18361   2.20997   2.22542
 Alpha virt. eigenvalues --    2.23493   2.24309   2.26188   2.27359   2.28318
 Alpha virt. eigenvalues --    2.31259   2.33223   2.33606   2.36629   2.38068
 Alpha virt. eigenvalues --    2.39816   2.41872   2.43960   2.46089   2.47238
 Alpha virt. eigenvalues --    2.48836   2.51876   2.57342   2.59806   2.64362
 Alpha virt. eigenvalues --    2.66736   2.71435   2.74047   2.76599   2.78760
 Alpha virt. eigenvalues --    2.81761   2.84252   2.88441   2.90485   2.91118
 Alpha virt. eigenvalues --    2.96287   2.98067   2.98920   3.01187   3.02710
 Alpha virt. eigenvalues --    3.04301   3.04609   3.09771   3.12528   3.13482
 Alpha virt. eigenvalues --    3.15544   3.16695   3.18663   3.20257   3.21508
 Alpha virt. eigenvalues --    3.22088   3.25007   3.26810   3.30364   3.31643
 Alpha virt. eigenvalues --    3.33148   3.36548   3.40212   3.41899   3.45236
 Alpha virt. eigenvalues --    3.45509   3.46430   3.48816   3.49623   3.51378
 Alpha virt. eigenvalues --    3.52466   3.54325   3.54616   3.56912   3.57031
 Alpha virt. eigenvalues --    3.58259   3.60647   3.61574   3.62383   3.63641
 Alpha virt. eigenvalues --    3.66173   3.67874   3.70202   3.72303   3.74600
 Alpha virt. eigenvalues --    3.76582   3.80057   3.82496   3.83512   3.86409
 Alpha virt. eigenvalues --    3.87862   3.89883   3.90928   3.93080   3.94134
 Alpha virt. eigenvalues --    3.94736   3.97069   3.98109   4.00165   4.04297
 Alpha virt. eigenvalues --    4.06202   4.07160   4.11487   4.12047   4.12748
 Alpha virt. eigenvalues --    4.16096   4.17930   4.18840   4.20480   4.22999
 Alpha virt. eigenvalues --    4.24603   4.25362   4.28474   4.29942   4.31258
 Alpha virt. eigenvalues --    4.31747   4.32297   4.34347   4.35315   4.37118
 Alpha virt. eigenvalues --    4.38363   4.40715   4.41830   4.43496   4.44015
 Alpha virt. eigenvalues --    4.47657   4.50152   4.52583   4.55497   4.57420
 Alpha virt. eigenvalues --    4.60877   4.62511   4.63883   4.65929   4.68253
 Alpha virt. eigenvalues --    4.72332   4.75209   4.83359   4.90303   4.92237
 Alpha virt. eigenvalues --    4.94724   4.98072   5.00865   5.07002   5.10358
 Alpha virt. eigenvalues --    5.11828   5.13653   5.15715   5.16029   5.17953
 Alpha virt. eigenvalues --    5.18990   5.20257   5.23303   5.26858   5.28486
 Alpha virt. eigenvalues --    5.29264   5.37653   5.39850   5.43651   5.44094
 Alpha virt. eigenvalues --    5.45838   5.48045   5.50022   5.53326   5.53920
 Alpha virt. eigenvalues --    5.57332   5.59130   5.60246   5.61297   5.62011
 Alpha virt. eigenvalues --    5.63358   5.65082   5.67264   5.69551   5.71274
 Alpha virt. eigenvalues --    5.72621   5.75894   5.77350   5.79981   5.83276
 Alpha virt. eigenvalues --    5.85479   5.87533   5.90782   5.91631   5.92768
 Alpha virt. eigenvalues --    5.99649   6.03241   6.10044   6.11690   6.16781
 Alpha virt. eigenvalues --    6.23960   6.26576   6.65043   6.65953   6.67067
 Alpha virt. eigenvalues --    6.69723   6.74847   6.77995   6.78983   6.81533
 Alpha virt. eigenvalues --    6.81611   6.82358   6.83218   6.84280   6.84737
 Alpha virt. eigenvalues --    6.86767   6.87212   6.87829   6.89667   6.90167
 Alpha virt. eigenvalues --    6.92137   6.92727   6.95214   6.97336   6.98173
 Alpha virt. eigenvalues --    6.99556   7.01201   7.02543   7.04566   7.07700
 Alpha virt. eigenvalues --    7.11430   7.13590   7.16604   7.20899   7.25955
 Alpha virt. eigenvalues --    7.33601   7.39600   7.43497   7.45268   7.51396
 Alpha virt. eigenvalues --    7.52584   7.52896   7.55626   7.60915   7.64159
 Alpha virt. eigenvalues --    7.71633   7.73941   7.83312   7.86597   7.98446
 Alpha virt. eigenvalues --   12.39398  23.58780  23.71694  43.94018  43.97300
 Alpha virt. eigenvalues --   44.01333  44.09290  44.14517  44.36049
          Condensed to atoms (all electrons):
               1          2          3          4          5          6
     1  C    4.872946   0.422836   0.371788   0.213086  -0.064408  -0.022932
     2  H    0.422836   0.614027  -0.038478  -0.041192   0.001099   0.003451
     3  H    0.371788  -0.038478   0.650751  -0.020199   0.004647  -0.001556
     4  C    0.213086  -0.041192  -0.020199   4.954431   0.455974   0.405980
     5  H   -0.064408   0.001099   0.004647   0.455974   0.540085  -0.009002
     6  H   -0.022932   0.003451  -0.001556   0.405980  -0.009002   0.531833
     7  O    0.217949  -0.037440  -0.026720  -0.042384   0.000434   0.006474
     8  H   -0.079137   0.009243  -0.003207   0.001322   0.005530   0.001445
     9  O   -0.016563   0.002889  -0.005249   0.049127  -0.016155  -0.013765
    10  H   -0.003353  -0.000676   0.000522  -0.014114   0.005991   0.002123
    11  Si   0.012930   0.006787  -0.000534  -0.032218  -0.008894   0.000650
    12  O   -0.004183   0.003551  -0.000035   0.000598  -0.000241  -0.000051
    13  H   -0.000832   0.001099   0.000019   0.000320  -0.000062   0.000046
    14  O    0.011538  -0.002429  -0.000078  -0.008891   0.006165   0.000841
    15  H   -0.014626  -0.006708   0.002398   0.000590   0.004972   0.000104
    16  O   -0.024374  -0.004264   0.002081   0.064413  -0.037488  -0.023399
    17  O    0.000373  -0.000291  -0.000003  -0.002916   0.000963  -0.000136
    18  H   -0.000129  -0.000056  -0.000001  -0.000157   0.000555   0.000023
               7          8          9         10         11         12
     1  C    0.217949  -0.079137  -0.016563  -0.003353   0.012930  -0.004183
     2  H   -0.037440   0.009243   0.002889  -0.000676   0.006787   0.003551
     3  H   -0.026720  -0.003207  -0.005249   0.000522  -0.000534  -0.000035
     4  C   -0.042384   0.001322   0.049127  -0.014114  -0.032218   0.000598
     5  H    0.000434   0.005530  -0.016155   0.005991  -0.008894  -0.000241
     6  H    0.006474   0.001445  -0.013765   0.002123   0.000650  -0.000051
     7  O    8.072342   0.300309  -0.069372   0.004366  -0.004002   0.000066
     8  H    0.300309   0.457864   0.101883  -0.005508  -0.000639   0.000004
     9  O   -0.069372   0.101883   8.351038   0.283579  -0.001381   0.000001
    10  H    0.004366  -0.005508   0.283579   0.618595  -0.000319  -0.000000
    11  Si  -0.004002  -0.000639  -0.001381  -0.000319  11.509958   0.434261
    12  O    0.000066   0.000004   0.000001  -0.000000   0.434261   7.774479
    13  H    0.000014   0.000002  -0.000003   0.000000  -0.032286   0.327725
    14  O   -0.016580   0.000194  -0.000072  -0.000018   0.407112  -0.028407
    15  H    0.049235  -0.001121   0.000799   0.000098  -0.032708   0.000367
    16  O    0.003839  -0.001350   0.006202  -0.000768   0.541588  -0.041064
    17  O    0.000001  -0.000002   0.000004  -0.000001   0.448920  -0.025292
    18  H    0.000006   0.000007   0.000001   0.000004  -0.032237   0.002507
              13         14         15         16         17         18
     1  C   -0.000832   0.011538  -0.014626  -0.024374   0.000373  -0.000129
     2  H    0.001099  -0.002429  -0.006708  -0.004264  -0.000291  -0.000056
     3  H    0.000019  -0.000078   0.002398   0.002081  -0.000003  -0.000001
     4  C    0.000320  -0.008891   0.000590   0.064413  -0.002916  -0.000157
     5  H   -0.000062   0.006165   0.004972  -0.037488   0.000963   0.000555
     6  H    0.000046   0.000841   0.000104  -0.023399  -0.000136   0.000023
     7  O    0.000014  -0.016580   0.049235   0.003839   0.000001   0.000006
     8  H    0.000002   0.000194  -0.001121  -0.001350  -0.000002   0.000007
     9  O   -0.000003  -0.000072   0.000799   0.006202   0.000004   0.000001
    10  H    0.000000  -0.000018   0.000098  -0.000768  -0.000001   0.000004
    11  Si  -0.032286   0.407112  -0.032708   0.541588   0.448920  -0.032237
    12  O    0.327725  -0.028407   0.000367  -0.041064  -0.025292   0.002507
    13  H    0.535512   0.000145  -0.000122   0.003081   0.002089  -0.000190
    14  O    0.000145   7.844140   0.343039  -0.030691  -0.040697   0.001390
    15  H   -0.000122   0.343039   0.444930  -0.001310   0.001561  -0.000118
    16  O    0.003081  -0.030691  -0.001310   8.185272  -0.030200  -0.001304
    17  O    0.002089  -0.040697   0.001561  -0.030200   7.757053   0.330510
    18  H   -0.000190   0.001390  -0.000118  -0.001304   0.330510   0.543648
 Mulliken charges:
               1
     1  C    0.107090
     2  H    0.066552
     3  H    0.063854
     4  C    0.016230
     5  H    0.109833
     6  H    0.117872
     7  O   -0.458537
     8  H    0.213162
     9  O   -0.672964
    10  H    0.109479
    11  Si   0.783012
    12  O   -0.444285
    13  H    0.163442
    14  O   -0.486701
    15  H    0.208619
    16  O   -0.610265
    17  O   -0.441936
    18  H    0.155542
 Sum of Mulliken charges =  -1.00000
 Mulliken charges with hydrogens summed into heavy atoms:
               1
     1  C    0.237496
     4  C    0.243935
     7  O   -0.245375
     9  O   -0.563485
    11  Si   0.783012
    12  O   -0.280843
    14  O   -0.278082
    16  O   -0.610265
    17  O   -0.286394
 APT charges:
               1
     1  C   -0.466239
     2  H    0.131096
     3  H    0.501035
     4  C   -0.457904
     5  H    0.183761
     6  H    0.476367
     7  O   -0.520459
     8  H    0.374064
     9  O   -0.906361
    10  H    0.299780
    11  Si   0.343451
    12  O   -0.485273
    13  H    0.404614
    14  O   -0.496773
    15  H    0.243558
    16  O   -0.560237
    17  O   -0.518220
    18  H    0.453739
 Sum of APT charges =  -1.00000
 APT charges with hydrogens summed into heavy atoms:
               1
     1  C    0.165892
     4  C    0.202223
     7  O   -0.146395
     9  O   -0.606581
    11  Si   0.343451
    12  O   -0.080659
    14  O   -0.253215
    16  O   -0.560237
    17  O   -0.064480
 Electronic spatial extent (au):  <R**2>=           1768.3436
 Charge=             -1.0000 electrons
 Dipole moment (field-independent basis, Debye):
    X=             -1.1814    Y=             -0.2112    Z=              0.0067  Tot=              1.2001
 Quadrupole moment (field-independent basis, Debye-Ang):
   XX=           -104.6244   YY=            -66.9032   ZZ=            -63.2057
   XY=              0.6270   XZ=              0.0558   YZ=              8.4157
 Traceless Quadrupole moment (field-independent basis, Debye-Ang):
   XX=            -26.3800   YY=             11.3412   ZZ=             15.0387
   XY=              0.6270   XZ=              0.0558   YZ=              8.4157
 Octapole moment (field-independent basis, Debye-Ang**2):
  XXX=            -54.5189  YYY=             -9.3510  ZZZ=             -1.3372  XYY=              0.1319
  XXY=              8.9968  XXZ=             -3.0307  XZZ=             -4.9827  YZZ=             -1.9487
  YYZ=             -2.7541  XYZ=             -0.4349
 Hexadecapole moment (field-independent basis, Debye-Ang**3):
 XXXX=          -2063.9601 YYYY=           -348.9963 ZZZZ=           -279.9172 XXXY=             54.5699
 XXXZ=            -17.7872 YYYX=            -23.8361 YYYZ=             22.1629 ZZZX=            -12.5384
 ZZZY=             23.5027 XXYY=           -354.2286 XXZZ=           -278.5524 YYZZ=            -92.6792
 XXYZ=             26.1176 YYXZ=              1.2406 ZZXY=             -1.4425
 N-N= 6.180673048481D+02 E-N=-3.199153166816D+03  KE= 8.199947156082D+02
  Exact polarizability:       0.000       0.000       0.000       0.000       0.000       0.000
 Approx polarizability:     101.278      -4.147      76.331      -6.491       2.456      80.236
   1 Symmetry operations used in ECPInt.
 ECPInt:  NShTT=   12246 NPrTT=   33908 LenC2=   11548 LenP2D=   24988.
 LDataN:  DoStor=T MaxTD1= 8 Len=  415
 Calling FoFJK, ICntrl=    100127 FMM=F ISym2X=0 I1Cent= 0 IOpClX= 0 NMat=1 NMatS=1 NMatT=0.
 -------------------------------------------------------------------
 Center     Atomic                   Forces (Hartrees/Bohr)
 Number     Number              X              Y              Z
 -------------------------------------------------------------------
      1        6          -0.000000196   -0.000000196   -0.000000967
      2        1           0.000000159    0.000000743   -0.000001656
      3        1          -0.000000024    0.000000436   -0.000000422
      4        6          -0.000000185   -0.000000143    0.000000825
      5        1          -0.000000208   -0.000000741    0.000001617
      6        1          -0.000001095    0.000001140    0.000001732
      7        8           0.000000611   -0.000001638   -0.000000950
      8        1           0.000000411   -0.000001972    0.000000295
      9        8          -0.000000402   -0.000001553    0.000001787
     10        1          -0.000000563   -0.000001905    0.000002900
     11       14          -0.000000559    0.000001262   -0.000000458
     12        8           0.000000170    0.000002061   -0.000002047
     13        1           0.000000108    0.000002850   -0.000002377
     14        8           0.000000687   -0.000000616   -0.000001298
     15        1           0.000001960   -0.000001195   -0.000000447
     16        8          -0.000000236    0.000001456    0.000000825
     17        8          -0.000000359    0.000000539   -0.000000157
     18        1          -0.000000280   -0.000000530    0.000000798
 -------------------------------------------------------------------
 Cartesian Forces:  Max     0.000002900 RMS     0.000001195
 IRC-IRC-IRC-IRC-IRC-IRC-IRC-IRC-IRC-IRC-IRC-IRC-IRC-IRC-IRC-IRC-IRC-IRC
          ******** Start new reaction path calculation ********
 Supplied step size of   0.1000 bohr.
    Integration on MW PES will use step size of   0.2911 sqrt(amu)*bohr.
 Point Number:   0          Path Number:   1
 Calculating another point on the path.
 IRC-IRC-IRC-IRC-IRC-IRC-IRC-IRC-IRC-IRC-IRC-IRC-IRC-IRC-IRC-IRC-IRC-IRC
                          Input orientation:                          
 ---------------------------------------------------------------------
 Center     Atomic      Atomic             Coordinates (Angstroms)
 Number     Number       Type             X           Y           Z
 ---------------------------------------------------------------------
      1          6           0        1.791089    0.805712    0.594532
      2          1           0        0.938732    1.395336    0.926900
      3          1           0        2.616616    0.955969    1.298203
      4          6           0        1.439266   -0.663177    0.575258
      5          1           0        1.194384   -1.121906   -0.362747
      6          1           0        1.682868   -1.292175    1.409609
      7          8           0        2.152979    1.232507   -0.700668
      8          1           0        2.810597    0.519914   -0.904548
      9          8           0        3.373982   -0.926485   -0.107697
     10          1           0        3.332818   -1.743122   -0.603620
     11         14           0       -1.422234   -0.083839    0.019181
     12          8           0       -2.422417    1.040426    0.726454
     13          1           0       -2.103721    1.246723    1.602039
     14          8           0       -0.733800    0.532466   -1.355381
     15          1           0        0.174107    0.852292   -1.293392
     16          8           0       -0.352008   -0.593473    1.080565
     17          8           0       -2.486759   -1.200988   -0.593978
     18          1           0       -2.201012   -1.523149   -1.445004
 ---------------------------------------------------------------------
                    Distance matrix (angstroms):
                    1          2          3          4          5
     1  C    0.000000
     2  H    1.088411   0.000000
     3  H    1.095091   1.773754   0.000000
     4  C    1.510559   2.147479   2.128483   0.000000
     5  H    2.233417   2.839904   3.016466   1.072498   0.000000
     6  H    2.253263   2.830100   2.436894   1.072903   1.846308
     7  O    1.410908   2.037127   2.070488   2.393949   2.564441
     8  H    1.835298   2.761240   2.253860   2.338820   2.366700
     9  O    2.449323   3.520184   2.468561   2.068547   2.203155
    10  H    3.210771   4.233682   3.378605   2.478220   2.239829
    11  Si   3.383456   2.930200   4.362271   2.972043   2.840799
    12  O    4.222100   3.385774   5.072069   4.223473   4.352389
    13  H    4.047110   3.120002   4.739033   4.153884   4.510907
    14  O    3.201857   2.958161   4.294898   3.143111   2.727666
    15  H    2.486173   2.410238   3.562719   2.718295   2.409258
    16  O    2.605151   2.375918   3.355722   1.862487   2.180302
    17  O    4.872308   4.559381   5.854677   4.131589   3.689246
    18  H    5.051749   4.899130   6.072952   4.251192   3.586222
                    6          7          8          9         10
     6  H    0.000000
     7  O    3.323898   0.000000
     8  H    3.148137   0.990867   0.000000
     9  O    2.301264   2.550238   1.744834   0.000000
    10  H    2.641738   3.202469   2.341923   0.956310   0.000000
    11  Si   3.610405   3.877254   4.374317   4.871329   5.074606
    12  O    4.770859   4.796647   5.505955   6.177604   6.529929
    13  H    4.563035   4.839643   5.564328   6.136062   6.584836
    14  O    4.100581   3.041742   3.572976   4.534217   4.720257
    15  H    3.765808   2.100433   2.685657   3.848262   4.146012
    16  O    2.176505   3.575186   3.896457   3.925031   4.211427
    17  O    4.626928   5.240272   5.578525   5.887284   5.844783
    18  H    4.825628   5.206238   5.438972   5.764109   5.601749
                   11         12         13         14         15
    11  Si   0.000000
    12  O    1.662700   0.000000
    13  H    2.177213   0.954346   0.000000
    14  O    1.656259   2.728275   3.336642   0.000000
    15  H    2.268810   3.295013   3.705077   0.964586   0.000000
    16  O    1.591114   2.661130   2.593599   2.710597   2.828905
    17  O    1.660481   2.602232   3.310664   2.580206   3.432980
    18  H    2.195893   3.366922   4.118996   2.527112   3.362573
                   16         17         18
    16  O    0.000000
    17  O    2.780347   0.000000
    18  H    3.265212   0.953775   0.000000
 Symmetry turned off by external request.
 Stoichiometry    C2H9O6Si(1-)
 Framework group  C1[X(C2H9O6Si)]
 Deg. of freedom    48
 Full point group                 C1      NOp   1
 Rotational constants (GHZ):           2.4497058           0.7117699           0.6860954
 Standard basis: def2TZVPP (5D, 7F)
   416 basis functions,   630 primitive gaussians,   471 cartesian basis functions
    42 alpha electrons       42 beta electrons
       nuclear repulsion energy       618.3136381526 Hartrees.
 NAtoms=   18 NActive=   18 NUniq=   18 SFac= 1.00D+00 NAtFMM=   60 NAOKFM=F Big=F
 Integral buffers will be    131072 words long.
 Raffenetti 2 integral format.
 Two-electron integral symmetry is turned off.
 Nuclear repulsion after empirical dispersion term =      618.3039670095 Hartrees.
 One-electron integrals computed using PRISM.
   1 Symmetry operations used in ECPInt.
 ECPInt:  NShTT=   12246 NPrTT=   33908 LenC2=   11549 LenP2D=   24995.
 LDataN:  DoStor=T MaxTD1= 6 Len=  172
 NBasis=   416 RedAO= T EigKep=  1.78D-04  NBF=   416
 NBsUse=   416 1.00D-06 EigRej= -1.00D+00 NBFU=   416
 Initial guess from the checkpoint file:  "IRC_attackingOHDeprotonated_SiOH4Attack_forward.chk"
 B after Tr=     0.094988   -0.008038    0.007037
         Rot=    1.000000    0.000014   -0.000004    0.000013 Ang=   0.00 deg.
 ExpMin= 7.01D-02 ExpMax= 4.48D+04 ExpMxC= 1.53D+03 IAcc=3 IRadAn=         5 AccDes= 0.00D+00
 Harris functional with IExCor= 4639 and IRadAn=       5 diagonalized for initial guess.
 HarFok:  IExCor= 4639 AccDes= 0.00D+00 IRadAn=         5 IDoV= 1 UseB2=F ITyADJ=14
 ICtDFT=  3500011 ScaDFX=  1.000000  1.000000  1.000000  1.000000
 FoFCou: FMM=F IPFlag=           0 FMFlag=      100000 FMFlg1=           0
         NFxFlg=           0 DoJE=T BraDBF=F KetDBF=T FulRan=T
         wScrn=  0.000000 ICntrl=       500 IOpCl=  0 I1Cent=   200000004 NGrid=           0
         NMat0=    1 NMatS0=      1 NMatT0=    0 NMatD0=    1 NMtDS0=    0 NMtDT0=    0
 Symmetry not used in FoFCou.
 Requested convergence on RMS density matrix=1.00D-08 within 128 cycles.
 Requested convergence on MAX density matrix=1.00D-06.
 Requested convergence on             energy=1.00D-06.
 No special actions if energy rises.
 Integral accuracy reduced to 1.0D-05 until final iterations.
 Initial convergence to 1.0D-05 achieved.  Increase integral accuracy.
 SCF Done:  E(RwB97XD) =  -822.737505104     A.U. after   13 cycles
            NFock= 13  Conv=0.59D-08     -V/T= 2.0034
 DoSCS=F DFT=T ScalE2(SS,OS)=  1.000000  1.000000
 Range of M.O.s used for correlation:     1   416
 NBasis=   416 NAE=    42 NBE=    42 NFC=     0 NFV=     0
 NROrb=    416 NOA=    42 NOB=    42 NVA=   374 NVB=   374

 **** Warning!!: The largest alpha MO coefficient is  0.12250822D+02

 Symmetrizing basis deriv contribution to polar:
 IMax=3 JMax=2 DiffMx= 0.00D+00
   1 Symmetry operations used in ECPInt.
 ECPInt:  NShTT=   12246 NPrTT=   33908 LenC2=   11549 LenP2D=   24995.
 LDataN:  DoStor=T MaxTD1= 7 Len=  274
 Calling FoFJK, ICntrl=      2127 FMM=F ISym2X=0 I1Cent= 0 IOpClX= 0 NMat=1 NMatS=1 NMatT=0.
 -------------------------------------------------------------------
 Center     Atomic                   Forces (Hartrees/Bohr)
 Number     Number              X              Y              Z
 -------------------------------------------------------------------
      1        6          -0.000972454    0.000056363    0.000305493
      2        1           0.000183124    0.000317751    0.000032089
      3        1          -0.000029106   -0.000266618   -0.000037990
      4        6          -0.011298280    0.000982417    0.003026577
      5        1           0.000453630    0.000323379    0.000601007
      6        1          -0.000035963    0.000336231   -0.000452354
      7        8           0.000094323   -0.001684033    0.000311009
      8        1           0.000046593   -0.000360920    0.000220317
      9        8           0.004546376    0.000249122   -0.002379207
     10        1           0.000367249    0.000053198   -0.000200148
     11       14           0.000605061    0.000682928   -0.001526129
     12        8           0.000726569   -0.000996928    0.000609157
     13        1           0.000017438    0.000159363   -0.000051940
     14        8           0.000279269    0.000083555    0.000311887
     15        1           0.000077677   -0.000056518   -0.000047280
     16        8           0.004395485    0.000101592   -0.001498508
     17        8           0.000517206    0.000082491    0.000709549
     18        1           0.000025804   -0.000063371    0.000066469
 -------------------------------------------------------------------
 Cartesian Forces:  Max     0.011298280 RMS     0.001911709
 IRC-IRC-IRC-IRC-IRC-IRC-IRC-IRC-IRC-IRC-IRC-IRC-IRC-IRC-IRC-IRC-IRC-IRC
 Pt  1 Step number   1 out of a maximum of  20
 Modified Bulirsch-Stoer Extrapolation Cycles:
    EPS =    0.000010000000000
      PEZero:  N= 2 I= 1 D=  7.58D-04 Err=  1.86D-03
      PEZero:  N= 3 I= 2 D=  7.58D-04 Err=  1.24D-03
      PEZero:  N= 3 I= 1 D=  1.52D-03 Err=  7.66D-07
 Maximum DWI energy   std dev =  0.000002278 at pt     2
 Maximum DWI gradient std dev =  0.117080945 at pt     2
 CORRECTOR INTEGRATION CONVERGENCE:
   Recorrection delta-x convergence threshold:    0.010000
   Delta-x Convergence Met
 Point Number:   1          Path Number:   1
   CHANGE IN THE REACTION COORDINATE =    0.29105
   NET REACTION COORDINATE UP TO THIS POINT =    0.29105
  # OF POINTS ALONG THE PATH =   1
  # OF STEPS =   1

 Calculating another point on the path.
 IRC-IRC-IRC-IRC-IRC-IRC-IRC-IRC-IRC-IRC-IRC-IRC-IRC-IRC-IRC-IRC-IRC-IRC
                          Input orientation:                          
 ---------------------------------------------------------------------
 Center     Atomic      Atomic             Coordinates (Angstroms)
 Number     Number       Type             X           Y           Z
 ---------------------------------------------------------------------
      1          6           0        1.788133    0.805926    0.595393
      2          1           0        0.944039    1.408946    0.928649
      3          1           0        2.616261    0.945956    1.297574
      4          6           0        1.403055   -0.658153    0.585781
      5          1           0        1.205608   -1.121623   -0.362824
      6          1           0        1.685917   -1.290882    1.406508
      7          8           0        2.153260    1.228306   -0.699929
      8          1           0        2.810757    0.507261   -0.895162
      9          8           0        3.384960   -0.925864   -0.113469
     10          1           0        3.346878   -1.741336   -0.611608
     11         14           0       -1.421350   -0.082912    0.017115
     12          8           0       -2.420712    1.038009    0.727843
     13          1           0       -2.102359    1.253233    1.601429
     14          8           0       -0.733067    0.532693   -1.354648
     15          1           0        0.176730    0.849992   -1.295261
     16          8           0       -0.341503   -0.593193    1.076874
     17          8           0       -2.485521   -1.200799   -0.592263
     18          1           0       -2.199989   -1.525708   -1.442450
 ---------------------------------------------------------------------
                    Distance matrix (angstroms):
                    1          2          3          4          5
     1  C    0.000000
     2  H    1.089582   0.000000
     3  H    1.094742   1.773920   0.000000
     4  C    1.513904   2.145030   2.133468   0.000000
     5  H    2.230014   2.853086   3.003622   1.074077   0.000000
     6  H    2.250546   2.840388   2.425047   1.074220   1.841163
     7  O    1.410526   2.036447   2.069809   2.403037   2.556140
     8  H    1.832134   2.761151   2.244632   2.352235   2.348010
     9  O    2.459967   3.534890   2.466912   2.118625   2.202289
    10  H    3.221037   4.250918   3.376436   2.526950   2.242984
    11  Si   3.380121   2.941359   4.358950   2.937949   2.850295
    12  O    4.217320   3.391086   5.069927   4.185492   4.359331
    13  H    4.043281   3.123686   4.738366   4.119813   4.521158
    14  O    3.199026   2.965459   4.292210   3.121922   2.734764
    15  H    2.484580   2.418050   3.561364   2.704939   2.411492
    16  O    2.593205   2.383936   3.341565   1.813525   2.178422
    17  O    4.868428   4.570100   5.848779   4.099179   3.699100
    18  H    5.049202   4.911131   6.067381   4.224725   3.595409
                    6          7          8          9         10
     6  H    0.000000
     7  O    3.316896   0.000000
     8  H    3.129899   0.995149   0.000000
     9  O    2.308748   2.549798   1.730492   0.000000
    10  H    2.652262   3.201765   2.328952   0.956340   0.000000
    11  Si   3.611746   3.874440   4.369357   4.881417   5.087402
    12  O    4.769562   4.795411   5.503100   6.186311   6.540947
    13  H    4.567444   4.838095   5.561308   6.148171   6.599936
    14  O    4.098889   3.040299   3.573578   4.541592   4.729616
    15  H    3.763050   2.098622   2.686195   3.852667   4.151169
    16  O    2.169299   3.563528   3.877714   3.926082   4.215846
    17  O    4.626456   5.237407   5.573130   5.896387   5.857425
    18  H    4.824103   5.204490   5.435077   5.772146   5.612890
                   11         12         13         14         15
    11  Si   0.000000
    12  O    1.661422   0.000000
    13  H    2.181538   0.954371   0.000000
    14  O    1.653614   2.727684   3.336545   0.000000
    15  H    2.268590   3.297727   3.707784   0.965368   0.000000
    16  O    1.596730   2.665662   2.604815   2.707996   2.824602
    17  O    1.659359   2.599835   3.313815   2.580179   3.433297
    18  H    2.195055   3.366234   4.122771   2.529147   3.363690
                   16         17         18
    16  O    0.000000
    17  O    2.784244   0.000000
    18  H    3.266580   0.953893   0.000000
 Symmetry turned off by external request.
 Stoichiometry    C2H9O6Si(1-)
 Framework group  C1[X(C2H9O6Si)]
 Deg. of freedom    48
 Full point group                 C1      NOp   1
 Rotational constants (GHZ):           2.4539279           0.7122020           0.6868782
 Standard basis: def2TZVPP (5D, 7F)
   416 basis functions,   630 primitive gaussians,   471 cartesian basis functions
    42 alpha electrons       42 beta electrons
       nuclear repulsion energy       618.5933570673 Hartrees.
 NAtoms=   18 NActive=   18 NUniq=   18 SFac= 1.00D+00 NAtFMM=   60 NAOKFM=F Big=F
 Integral buffers will be    131072 words long.
 Raffenetti 2 integral format.
 Two-electron integral symmetry is turned off.
 Nuclear repulsion after empirical dispersion term =      618.5836759409 Hartrees.
 One-electron integrals computed using PRISM.
   1 Symmetry operations used in ECPInt.
 ECPInt:  NShTT=   12246 NPrTT=   33908 LenC2=   11549 LenP2D=   25001.
 LDataN:  DoStor=T MaxTD1= 6 Len=  172
 NBasis=   416 RedAO= T EigKep=  1.78D-04  NBF=   416
 NBsUse=   416 1.00D-06 EigRej= -1.00D+00 NBFU=   416
 Initial guess from the checkpoint file:  "IRC_attackingOHDeprotonated_SiOH4Attack_forward.chk"
 B after Tr=     0.000441   -0.000045   -0.000007
         Rot=    1.000000    0.000027   -0.000001    0.000013 Ang=   0.00 deg.
 ExpMin= 7.01D-02 ExpMax= 4.48D+04 ExpMxC= 1.53D+03 IAcc=3 IRadAn=         5 AccDes= 0.00D+00
 Harris functional with IExCor= 4639 and IRadAn=       5 diagonalized for initial guess.
 HarFok:  IExCor= 4639 AccDes= 0.00D+00 IRadAn=         5 IDoV= 1 UseB2=F ITyADJ=14
 ICtDFT=  3500011 ScaDFX=  1.000000  1.000000  1.000000  1.000000
 FoFCou: FMM=F IPFlag=           0 FMFlag=      100000 FMFlg1=           0
         NFxFlg=           0 DoJE=T BraDBF=F KetDBF=T FulRan=T
         wScrn=  0.000000 ICntrl=       500 IOpCl=  0 I1Cent=   200000004 NGrid=           0
         NMat0=    1 NMatS0=      1 NMatT0=    0 NMatD0=    1 NMtDS0=    0 NMtDT0=    0
 Symmetry not used in FoFCou.
 Requested convergence on RMS density matrix=1.00D-08 within 128 cycles.
 Requested convergence on MAX density matrix=1.00D-06.
 Requested convergence on             energy=1.00D-06.
 No special actions if energy rises.
 Integral accuracy reduced to 1.0D-05 until final iterations.
 Initial convergence to 1.0D-05 achieved.  Increase integral accuracy.
 SCF Done:  E(RwB97XD) =  -822.739180520     A.U. after   13 cycles
            NFock= 13  Conv=0.76D-08     -V/T= 2.0034
 DoSCS=F DFT=T ScalE2(SS,OS)=  1.000000  1.000000
 Range of M.O.s used for correlation:     1   416
 NBasis=   416 NAE=    42 NBE=    42 NFC=     0 NFV=     0
 NROrb=    416 NOA=    42 NOB=    42 NVA=   374 NVB=   374

 **** Warning!!: The largest alpha MO coefficient is  0.12349299D+02

 Symmetrizing basis deriv contribution to polar:
 IMax=3 JMax=2 DiffMx= 0.00D+00
   1 Symmetry operations used in ECPInt.
 ECPInt:  NShTT=   12246 NPrTT=   33908 LenC2=   11549 LenP2D=   25001.
 LDataN:  DoStor=T MaxTD1= 7 Len=  274
 Calling FoFJK, ICntrl=      2127 FMM=F ISym2X=0 I1Cent= 0 IOpClX= 0 NMat=1 NMatS=1 NMatT=0.
 -------------------------------------------------------------------
 Center     Atomic                   Forces (Hartrees/Bohr)
 Number     Number              X              Y              Z
 -------------------------------------------------------------------
      1        6          -0.002032665    0.000110326    0.000663916
      2        1           0.000358649    0.000591519    0.000069380
      3        1          -0.000062182   -0.000513053   -0.000074202
      4        6          -0.020986369    0.001823258    0.005577792
      5        1           0.000761927    0.000670748    0.001233815
      6        1          -0.000137589    0.000690280   -0.000877913
      7        8           0.000180853   -0.003395768    0.000627466
      8        1           0.000095747   -0.000661663    0.000390555
      9        8           0.007954697    0.000562898   -0.004357803
     10        1           0.000726463    0.000121016   -0.000398426
     11       14           0.001181233    0.001349168   -0.002957094
     12        8           0.001420496   -0.001942767    0.001211130
     13        1           0.000041384    0.000298916   -0.000113432
     14        8           0.000592991    0.000182763    0.000587510
     15        1           0.000147063   -0.000117130   -0.000083306
     16        8           0.008687205    0.000210562   -0.003024273
     17        8           0.001019618    0.000144197    0.001393629
     18        1           0.000050478   -0.000125271    0.000131257
 -------------------------------------------------------------------
 Cartesian Forces:  Max     0.020986369 RMS     0.003568529
 IRC-IRC-IRC-IRC-IRC-IRC-IRC-IRC-IRC-IRC-IRC-IRC-IRC-IRC-IRC-IRC-IRC-IRC
 Pt  2 Step number   1 out of a maximum of  20
 Modified Bulirsch-Stoer Extrapolation Cycles:
    EPS =    0.000010000000000
      PEZero:  N= 2 I= 1 D=  1.52D-03 Err=  3.78D-05
      PEZero:  N= 3 I= 2 D=  1.52D-03 Err=  2.52D-05
      PEZero:  N= 3 I= 1 D=  3.03D-03 Err=  5.63D-08
 Maximum DWI energy   std dev =  0.000006604 at pt    73
 Maximum DWI gradient std dev =  0.082964052 at pt    27
 CORRECTOR INTEGRATION CONVERGENCE:
   Recorrection delta-x convergence threshold:    0.010000
   Delta-x Convergence Met
 Point Number:   2          Path Number:   1
   CHANGE IN THE REACTION COORDINATE =    0.29094
   NET REACTION COORDINATE UP TO THIS POINT =    0.58198
  # OF POINTS ALONG THE PATH =   2
  # OF STEPS =   1

 Calculating another point on the path.
 IRC-IRC-IRC-IRC-IRC-IRC-IRC-IRC-IRC-IRC-IRC-IRC-IRC-IRC-IRC-IRC-IRC-IRC
                          Input orientation:                          
 ---------------------------------------------------------------------
 Center     Atomic      Atomic             Coordinates (Angstroms)
 Number     Number       Type             X           Y           Z
 ---------------------------------------------------------------------
      1          6           0        1.784762    0.806012    0.596438
      2          1           0        0.949561    1.422740    0.930667
      3          1           0        2.615643    0.935402    1.296863
      4          6           0        1.367008   -0.653083    0.596115
      5          1           0        1.215704   -1.119411   -0.360343
      6          1           0        1.687385   -1.287745    1.402477
      7          8           0        2.153521    1.223721   -0.699122
      8          1           0        2.811135    0.494161   -0.885579
      9          8           0        3.394898   -0.925070   -0.119047
     10          1           0        3.362398   -1.738830   -0.620492
     11         14           0       -1.420372   -0.081917    0.014947
     12          8           0       -2.418873    1.035412    0.729367
     13          1           0       -2.100630    1.260138    1.600597
     14          8           0       -0.732221    0.532970   -1.353914
     15          1           0        0.179660    0.847307   -1.297099
     16          8           0       -0.330202   -0.592840    1.072744
     17          8           0       -2.484170   -1.200624   -0.590397
     18          1           0       -2.198807   -1.528576   -1.439607
 ---------------------------------------------------------------------
                    Distance matrix (angstroms):
                    1          2          3          4          5
     1  C    0.000000
     2  H    1.090699   0.000000
     3  H    1.094394   1.774099   0.000000
     4  C    1.517721   2.143648   2.138556   0.000000
     5  H    2.224075   2.863576   2.988046   1.074787   0.000000
     6  H    2.245662   2.848459   2.411473   1.075015   1.832581
     7  O    1.410297   2.036010   2.068970   2.412184   2.546475
     8  H    1.829499   2.761605   2.235164   2.365816   2.329138
     9  O    2.470040   3.548772   2.464425   2.167434   2.201108
    10  H    3.232038   4.268887   3.374227   2.576929   2.249367
    11  Si   3.376305   2.952815   4.355188   2.904044   2.857645
    12  O    4.211988   3.396600   5.067387   4.147489   4.363586
    13  H    4.038668   3.127125   4.737187   4.085818   4.528312
    14  O    3.195877   2.973111   4.289144   3.100983   2.740795
    15  H    2.482648   2.426275   3.559552   2.691696   2.412235
    16  O    2.580063   2.391765   3.326222   1.763895   2.172749
    17  O    4.864046   4.581068   5.842298   4.066840   3.707909
    18  H    5.046247   4.923483   6.061220   4.198296   3.604319
                    6          7          8          9         10
     6  H    0.000000
     7  O    3.307788   0.000000
     8  H    3.110177   0.999740   0.000000
     9  O    2.315635   2.548491   1.715391   0.000000
    10  H    2.664873   3.200668   2.315256   0.956404   0.000000
    11  Si   3.610736   3.871343   4.364455   4.890366   5.101376
    12  O    4.765658   4.794041   5.500363   6.193806   6.552987
    13  H    4.569466   4.836096   5.558167   6.158988   6.616020
    14  O    4.094775   3.038650   3.574383   4.547954   4.739714
    15  H    3.757578   2.096519   2.686768   3.855760   4.156408
    16  O    2.159230   3.550813   3.858056   3.925189   4.220857
    17  O    4.623960   5.234257   5.567736   5.904366   5.871366
    18  H    4.820573   5.202520   5.431200   5.779068   5.625137
                   11         12         13         14         15
    11  Si   0.000000
    12  O    1.660068   0.000000
    13  H    2.185897   0.954370   0.000000
    14  O    1.650885   2.727143   3.336233   0.000000
    15  H    2.268265   3.300655   3.710362   0.966210   0.000000
    16  O    1.602637   2.670517   2.616595   2.705131   2.819598
    17  O    1.658195   2.597286   3.317063   2.580239   3.433575
    18  H    2.194200   3.365548   4.126670   2.531441   3.364853
                   16         17         18
    16  O    0.000000
    17  O    2.788372   0.000000
    18  H    3.267904   0.954014   0.000000
 Symmetry turned off by external request.
 Stoichiometry    C2H9O6Si(1-)
 Framework group  C1[X(C2H9O6Si)]
 Deg. of freedom    48
 Full point group                 C1      NOp   1
 Rotational constants (GHZ):           2.4588377           0.7127755           0.6878172
 Standard basis: def2TZVPP (5D, 7F)
   416 basis functions,   630 primitive gaussians,   471 cartesian basis functions
    42 alpha electrons       42 beta electrons
       nuclear repulsion energy       618.9738407744 Hartrees.
 NAtoms=   18 NActive=   18 NUniq=   18 SFac= 1.00D+00 NAtFMM=   60 NAOKFM=F Big=F
 Integral buffers will be    131072 words long.
 Raffenetti 2 integral format.
 Two-electron integral symmetry is turned off.
 Nuclear repulsion after empirical dispersion term =      618.9641504951 Hartrees.
 One-electron integrals computed using PRISM.
   1 Symmetry operations used in ECPInt.
 ECPInt:  NShTT=   12246 NPrTT=   33908 LenC2=   11550 LenP2D=   25004.
 LDataN:  DoStor=T MaxTD1= 6 Len=  172
 NBasis=   416 RedAO= T EigKep=  1.78D-04  NBF=   416
 NBsUse=   416 1.00D-06 EigRej= -1.00D+00 NBFU=   416
 Initial guess from the checkpoint file:  "IRC_attackingOHDeprotonated_SiOH4Attack_forward.chk"
 B after Tr=     0.000448   -0.000008    0.000008
         Rot=    1.000000    0.000033   -0.000001    0.000012 Ang=   0.00 deg.
 ExpMin= 7.01D-02 ExpMax= 4.48D+04 ExpMxC= 1.53D+03 IAcc=3 IRadAn=         5 AccDes= 0.00D+00
 Harris functional with IExCor= 4639 and IRadAn=       5 diagonalized for initial guess.
 HarFok:  IExCor= 4639 AccDes= 0.00D+00 IRadAn=         5 IDoV= 1 UseB2=F ITyADJ=14
 ICtDFT=  3500011 ScaDFX=  1.000000  1.000000  1.000000  1.000000
 FoFCou: FMM=F IPFlag=           0 FMFlag=      100000 FMFlg1=           0
         NFxFlg=           0 DoJE=T BraDBF=F KetDBF=T FulRan=T
         wScrn=  0.000000 ICntrl=       500 IOpCl=  0 I1Cent=   200000004 NGrid=           0
         NMat0=    1 NMatS0=      1 NMatT0=    0 NMatD0=    1 NMtDS0=    0 NMtDT0=    0
 Symmetry not used in FoFCou.
 Requested convergence on RMS density matrix=1.00D-08 within 128 cycles.
 Requested convergence on MAX density matrix=1.00D-06.
 Requested convergence on             energy=1.00D-06.
 No special actions if energy rises.
 Integral accuracy reduced to 1.0D-05 until final iterations.
 Initial convergence to 1.0D-05 achieved.  Increase integral accuracy.
 SCF Done:  E(RwB97XD) =  -822.741797077     A.U. after   13 cycles
            NFock= 13  Conv=0.80D-08     -V/T= 2.0034
 DoSCS=F DFT=T ScalE2(SS,OS)=  1.000000  1.000000
 Range of M.O.s used for correlation:     1   416
 NBasis=   416 NAE=    42 NBE=    42 NFC=     0 NFV=     0
 NROrb=    416 NOA=    42 NOB=    42 NVA=   374 NVB=   374

 **** Warning!!: The largest alpha MO coefficient is  0.12746556D+02

 Symmetrizing basis deriv contribution to polar:
 IMax=3 JMax=2 DiffMx= 0.00D+00
   1 Symmetry operations used in ECPInt.
 ECPInt:  NShTT=   12246 NPrTT=   33908 LenC2=   11550 LenP2D=   25004.
 LDataN:  DoStor=T MaxTD1= 7 Len=  274
 Calling FoFJK, ICntrl=      2127 FMM=F ISym2X=0 I1Cent= 0 IOpClX= 0 NMat=1 NMatS=1 NMatT=0.
 -------------------------------------------------------------------
 Center     Atomic                   Forces (Hartrees/Bohr)
 Number     Number              X              Y              Z
 -------------------------------------------------------------------
      1        6          -0.003029918    0.000122675    0.001001391
      2        1           0.000465105    0.000809814    0.000108642
      3        1          -0.000091632   -0.000698225   -0.000087345
      4        6          -0.029288662    0.003202862    0.008052510
      5        1           0.000877196    0.000685724    0.001217357
      6        1          -0.000166853    0.000746040   -0.000886196
      7        8           0.000245206   -0.005057460    0.000925551
      8        1           0.000103293   -0.000878178    0.000534197
      9        8           0.010879346    0.000780926   -0.006160998
     10        1           0.001033812    0.000226928   -0.000558772
     11       14           0.001860350    0.001922580   -0.004125489
     12        8           0.002053288   -0.002820859    0.001779959
     13        1           0.000088687    0.000421347   -0.000163372
     14        8           0.000950606    0.000319482    0.000774153
     15        1           0.000202972   -0.000182329   -0.000108360
     16        8           0.012246529    0.000405988   -0.004541450
     17        8           0.001495202    0.000177663    0.002042561
     18        1           0.000075474   -0.000184978    0.000195661
 -------------------------------------------------------------------
 Cartesian Forces:  Max     0.029288662 RMS     0.005005983
 IRC-IRC-IRC-IRC-IRC-IRC-IRC-IRC-IRC-IRC-IRC-IRC-IRC-IRC-IRC-IRC-IRC-IRC
 Pt  3 Step number   1 out of a maximum of  20
 Modified Bulirsch-Stoer Extrapolation Cycles:
    EPS =    0.000010000000000
      PEZero:  N= 2 I= 1 D=  1.52D-03 Err=  1.66D-05
      PEZero:  N= 3 I= 2 D=  1.52D-03 Err=  1.11D-05
      PEZero:  N= 3 I= 1 D=  3.03D-03 Err=  7.00D-08
 Maximum DWI energy   std dev =  0.000007165 at pt    71
 Maximum DWI gradient std dev =  0.049527441 at pt    28
 CORRECTOR INTEGRATION CONVERGENCE:
   Recorrection delta-x convergence threshold:    0.010000
   Delta-x Convergence Met
 Point Number:   3          Path Number:   1
   CHANGE IN THE REACTION COORDINATE =    0.29097
   NET REACTION COORDINATE UP TO THIS POINT =    0.87296
  # OF POINTS ALONG THE PATH =   3
  # OF STEPS =   1

 Calculating another point on the path.
 IRC-IRC-IRC-IRC-IRC-IRC-IRC-IRC-IRC-IRC-IRC-IRC-IRC-IRC-IRC-IRC-IRC-IRC
                          Input orientation:                          
 ---------------------------------------------------------------------
 Center     Atomic      Atomic             Coordinates (Angstroms)
 Number     Number       Type             X           Y           Z
 ---------------------------------------------------------------------
      1          6           0        1.781085    0.806035    0.597592
      2          1           0        0.954844    1.436109    0.932691
      3          1           0        2.614627    0.925037    1.296173
      4          6           0        1.331132   -0.647911    0.606478
      5          1           0        1.225122   -1.116252   -0.356320
      6          1           0        1.687487   -1.283443    1.398309
      7          8           0        2.153721    1.218941   -0.698269
      8          1           0        2.811728    0.481301   -0.876454
      9          8           0        3.404810   -0.924310   -0.124723
     10          1           0        3.378140   -1.736165   -0.629601
     11         14           0       -1.419356   -0.080890    0.012757
     12          8           0       -2.416977    1.032747    0.730964
     13          1           0       -2.098622    1.266923    1.599628
     14          8           0       -0.731284    0.533290   -1.353212
     15          1           0        0.182734    0.844487   -1.298786
     16          8           0       -0.318890   -0.592418    1.068446
     17          8           0       -2.482760   -1.200469   -0.588466
     18          1           0       -2.197611   -1.531479   -1.436695
 ---------------------------------------------------------------------
                    Distance matrix (angstroms):
                    1          2          3          4          5
     1  C    0.000000
     2  H    1.091769   0.000000
     3  H    1.094062   1.774315   0.000000
     4  C    1.522004   2.142696   2.144109   0.000000
     5  H    2.216806   2.872132   2.971249   1.075900   0.000000
     6  H    2.239604   2.854738   2.397374   1.076051   1.822212
     7  O    1.410179   2.035805   2.067998   2.421602   2.536208
     8  H    1.827700   2.762731   2.226221   2.380414   2.310851
     9  O    2.480386   3.562588   2.462401   2.216121   2.200345
    10  H    3.243358   4.286776   3.372471   2.627248   2.257092
    11  Si   3.372164   2.963847   4.351100   2.870401   2.863818
    12  O    4.206294   3.401848   5.064395   4.109553   4.366379
    13  H    4.033438   3.130029   4.735366   4.051685   4.533489
    14  O    3.192495   2.980513   4.285771   3.080451   2.746326
    15  H    2.480414   2.434268   3.557304   2.678825   2.412325
    16  O    2.566568   2.399114   3.310597   1.714371   2.165256
    17  O    4.859338   4.591577   5.835495   4.034722   3.716096
    18  H    5.043046   4.935437   6.054806   4.172203   3.613132
                    6          7          8          9         10
     6  H    0.000000
     7  O    3.297717   0.000000
     8  H    3.090758   1.004408   0.000000
     9  O    2.323316   2.547097   1.700761   0.000000
    10  H    2.678747   3.199464   2.301938   0.956411   0.000000
    11  Si   3.608097   3.868074   4.359911   4.899269   5.115519
    12  O    4.759907   4.792562   5.497930   6.201248   6.565165
    13  H    4.569412   4.833741   5.555152   6.169494   6.631962
    14  O    4.089235   3.036827   3.575323   4.554235   4.749885
    15  H    3.750559   2.094189   2.687355   3.858606   4.161514
    16  O    2.147528   3.537811   3.838786   3.924251   4.226057
    17  O    4.620078   5.230923   5.562633   5.912258   5.885474
    18  H    4.815886   5.200401   5.427580   5.785935   5.637579
                   11         12         13         14         15
    11  Si   0.000000
    12  O    1.658691   0.000000
    13  H    2.190014   0.954340   0.000000
    14  O    1.648190   2.726684   3.335729   0.000000
    15  H    2.267854   3.303607   3.712659   0.967075   0.000000
    16  O    1.608467   2.675261   2.628069   2.702168   2.814269
    17  O    1.657032   2.594702   3.320141   2.580392   3.433839
    18  H    2.193354   3.364837   4.130389   2.533843   3.366047
                   16         17         18
    16  O    0.000000
    17  O    2.792385   0.000000
    18  H    3.269122   0.954133   0.000000
 Symmetry turned off by external request.
 Stoichiometry    C2H9O6Si(1-)
 Framework group  C1[X(C2H9O6Si)]
 Deg. of freedom    48
 Full point group                 C1      NOp   1
 Rotational constants (GHZ):           2.4639440           0.7133447           0.6887705
 Standard basis: def2TZVPP (5D, 7F)
   416 basis functions,   630 primitive gaussians,   471 cartesian basis functions
    42 alpha electrons       42 beta electrons
       nuclear repulsion energy       619.4071460801 Hartrees.
 NAtoms=   18 NActive=   18 NUniq=   18 SFac= 1.00D+00 NAtFMM=   60 NAOKFM=F Big=F
 Integral buffers will be    131072 words long.
 Raffenetti 2 integral format.
 Two-electron integral symmetry is turned off.
 Nuclear repulsion after empirical dispersion term =      619.3974468695 Hartrees.
 One-electron integrals computed using PRISM.
   1 Symmetry operations used in ECPInt.
 ECPInt:  NShTT=   12246 NPrTT=   33908 LenC2=   11550 LenP2D=   25010.
 LDataN:  DoStor=T MaxTD1= 6 Len=  172
 NBasis=   416 RedAO= T EigKep=  1.78D-04  NBF=   416
 NBsUse=   416 1.00D-06 EigRej= -1.00D+00 NBFU=   416
 Initial guess from the checkpoint file:  "IRC_attackingOHDeprotonated_SiOH4Attack_forward.chk"
 B after Tr=     0.000425    0.000015    0.000016
         Rot=    1.000000    0.000038    0.000001    0.000010 Ang=   0.00 deg.
 ExpMin= 7.01D-02 ExpMax= 4.48D+04 ExpMxC= 1.53D+03 IAcc=3 IRadAn=         5 AccDes= 0.00D+00
 Harris functional with IExCor= 4639 and IRadAn=       5 diagonalized for initial guess.
 HarFok:  IExCor= 4639 AccDes= 0.00D+00 IRadAn=         5 IDoV= 1 UseB2=F ITyADJ=14
 ICtDFT=  3500011 ScaDFX=  1.000000  1.000000  1.000000  1.000000
 FoFCou: FMM=F IPFlag=           0 FMFlag=      100000 FMFlg1=           0
         NFxFlg=           0 DoJE=T BraDBF=F KetDBF=T FulRan=T
         wScrn=  0.000000 ICntrl=       500 IOpCl=  0 I1Cent=   200000004 NGrid=           0
         NMat0=    1 NMatS0=      1 NMatT0=    0 NMatD0=    1 NMtDS0=    0 NMtDT0=    0
 Symmetry not used in FoFCou.
 Requested convergence on RMS density matrix=1.00D-08 within 128 cycles.
 Requested convergence on MAX density matrix=1.00D-06.
 Requested convergence on             energy=1.00D-06.
 No special actions if energy rises.
 Integral accuracy reduced to 1.0D-05 until final iterations.
 Initial convergence to 1.0D-05 achieved.  Increase integral accuracy.
 SCF Done:  E(RwB97XD) =  -822.745200692     A.U. after   13 cycles
            NFock= 13  Conv=0.88D-08     -V/T= 2.0034
 DoSCS=F DFT=T ScalE2(SS,OS)=  1.000000  1.000000
 Range of M.O.s used for correlation:     1   416
 NBasis=   416 NAE=    42 NBE=    42 NFC=     0 NFV=     0
 NROrb=    416 NOA=    42 NOB=    42 NVA=   374 NVB=   374

 **** Warning!!: The largest alpha MO coefficient is  0.12563264D+02

 Symmetrizing basis deriv contribution to polar:
 IMax=3 JMax=2 DiffMx= 0.00D+00
   1 Symmetry operations used in ECPInt.
 ECPInt:  NShTT=   12246 NPrTT=   33908 LenC2=   11550 LenP2D=   25010.
 LDataN:  DoStor=T MaxTD1= 7 Len=  274
 Calling FoFJK, ICntrl=      2127 FMM=F ISym2X=0 I1Cent= 0 IOpClX= 0 NMat=1 NMatS=1 NMatT=0.
 -------------------------------------------------------------------
 Center     Atomic                   Forces (Hartrees/Bohr)
 Number     Number              X              Y              Z
 -------------------------------------------------------------------
      1        6          -0.004061764    0.000062522    0.001329591
      2        1           0.000535856    0.001038423    0.000146305
      3        1          -0.000130589   -0.000871715   -0.000087082
      4        6          -0.035489199    0.004342078    0.009908275
      5        1           0.000895107    0.000762364    0.001321628
      6        1          -0.000279954    0.000846825   -0.000866936
      7        8           0.000242123   -0.006620390    0.001203323
      8        1           0.000088033   -0.001087043    0.000709284
      9        8           0.013195897    0.001037463   -0.007705975
     10        1           0.001308852    0.000293696   -0.000735712
     11       14           0.002452427    0.002459196   -0.005153739
     12        8           0.002621444   -0.003619347    0.002295650
     13        1           0.000150483    0.000537566   -0.000189708
     14        8           0.001324749    0.000470822    0.000911693
     15        1           0.000256282   -0.000246826   -0.000133447
     16        8           0.014846499    0.000651037   -0.005849553
     17        8           0.001944955    0.000185917    0.002640314
     18        1           0.000098799   -0.000242588    0.000256091
 -------------------------------------------------------------------
 Cartesian Forces:  Max     0.035489199 RMS     0.006114243
 IRC-IRC-IRC-IRC-IRC-IRC-IRC-IRC-IRC-IRC-IRC-IRC-IRC-IRC-IRC-IRC-IRC-IRC
 Pt  4 Step number   1 out of a maximum of  20
 Modified Bulirsch-Stoer Extrapolation Cycles:
    EPS =    0.000010000000000
      PEZero:  N= 2 I= 1 D=  1.52D-03 Err=  1.85D-05
      PEZero:  N= 3 I= 2 D=  1.52D-03 Err=  1.23D-05
      PEZero:  N= 3 I= 1 D=  3.03D-03 Err=  9.64D-08
 Maximum DWI energy   std dev =  0.000008746 at pt    49
 Maximum DWI gradient std dev =  0.036251756 at pt    28
 CORRECTOR INTEGRATION CONVERGENCE:
   Recorrection delta-x convergence threshold:    0.010000
   Delta-x Convergence Met
 Point Number:   4          Path Number:   1
   CHANGE IN THE REACTION COORDINATE =    0.29098
   NET REACTION COORDINATE UP TO THIS POINT =    1.16394
  # OF POINTS ALONG THE PATH =   4
  # OF STEPS =   1

 Calculating another point on the path.
 IRC-IRC-IRC-IRC-IRC-IRC-IRC-IRC-IRC-IRC-IRC-IRC-IRC-IRC-IRC-IRC-IRC-IRC
                          Input orientation:                          
 ---------------------------------------------------------------------
 Center     Atomic      Atomic             Coordinates (Angstroms)
 Number     Number       Type             X           Y           Z
 ---------------------------------------------------------------------
      1          6           0        1.776950    0.806011    0.598916
      2          1           0        0.960133    1.449754    0.934849
      3          1           0        2.613212    0.914367    1.295562
      4          6           0        1.295594   -0.642610    0.616817
      5          1           0        1.233288   -1.112111   -0.350530
      6          1           0        1.685781   -1.277828    1.394279
      7          8           0        2.153877    1.213750   -0.697332
      8          1           0        2.812288    0.467891   -0.866987
      9          8           0        3.414730   -0.923457   -0.130600
     10          1           0        3.394566   -1.733051   -0.639441
     11         14           0       -1.418277   -0.079797    0.010497
     12          8           0       -2.414986    1.029942    0.732683
     13          1           0       -2.096100    1.273986    1.598414
     14          8           0       -0.730217    0.533679   -1.352543
     15          1           0        0.186062    0.841362   -1.300486
     16          8           0       -0.307771   -0.591870    1.063957
     17          8           0       -2.481250   -1.200341   -0.586412
     18          1           0       -2.196313   -1.534655   -1.433546
 ---------------------------------------------------------------------
                    Distance matrix (angstroms):
                    1          2          3          4          5
     1  C    0.000000
     2  H    1.092907   0.000000
     3  H    1.093797   1.774662   0.000000
     4  C    1.526606   2.142817   2.149648   0.000000
     5  H    2.208214   2.879230   2.953036   1.077068   0.000000
     6  H    2.232331   2.859606   2.382350   1.077124   1.810130
     7  O    1.410172   2.035863   2.066942   2.430990   2.525349
     8  H    1.826231   2.764262   2.217113   2.394837   2.292679
     9  O    2.491099   3.576641   2.460481   2.264563   2.200602
    10  H    3.255310   4.305241   3.370990   2.678232   2.267192
    11  Si   3.367546   2.975027   4.346569   2.837161   2.868242
    12  O    4.200043   3.407131   5.060925   4.071763   4.367109
    13  H    4.027221   3.132375   4.732722   4.017519   4.536151
    14  O    3.188767   2.988082   4.282044   3.060383   2.751001
    15  H    2.477882   2.442549   3.554694   2.666324   2.411463
    16  O    2.552723   2.406757   3.294621   1.665319   2.155524
    17  O    4.854144   4.602211   5.828152   4.002921   3.723065
    18  H    5.039488   4.947640   6.047914   4.146463   3.621275
                    6          7          8          9         10
     6  H    0.000000
     7  O    3.286627   0.000000
     8  H    3.070811   1.009254   0.000000
     9  O    2.332403   2.545307   1.685542   0.000000
    10  H    2.695031   3.197858   2.288006   0.956435   0.000000
    11  Si   3.603513   3.864528   4.355183   4.908118   5.130217
    12  O    4.751820   4.790954   5.495383   6.208591   6.577822
    13  H    4.566842   4.830775   5.551600   6.179602   6.648133
    14  O    4.082112   3.034764   3.576231   4.560370   4.760295
    15  H    3.741909   2.091593   2.687836   3.861025   4.166423
    16  O    2.133986   3.524502   3.819215   3.923509   4.232157
    17  O    4.614465   5.227288   5.557271   5.920051   5.900153
    18  H    4.809700   5.198067   5.423769   5.792671   5.650478
                   11         12         13         14         15
    11  Si   0.000000
    12  O    1.657257   0.000000
    13  H    2.194004   0.954325   0.000000
    14  O    1.645497   2.726333   3.334942   0.000000
    15  H    2.267403   3.306779   3.714707   0.967959   0.000000
    16  O    1.614070   2.679622   2.639164   2.699036   2.808668
    17  O    1.655847   2.592019   3.323266   2.580678   3.434094
    18  H    2.192535   3.364152   4.134161   2.536535   3.367324
                   16         17         18
    16  O    0.000000
    17  O    2.796062   0.000000
    18  H    3.270008   0.954248   0.000000
 Symmetry turned off by external request.
 Stoichiometry    C2H9O6Si(1-)
 Framework group  C1[X(C2H9O6Si)]
 Deg. of freedom    48
 Full point group                 C1      NOp   1
 Rotational constants (GHZ):           2.4694413           0.7139146           0.6897593
 Standard basis: def2TZVPP (5D, 7F)
   416 basis functions,   630 primitive gaussians,   471 cartesian basis functions
    42 alpha electrons       42 beta electrons
       nuclear repulsion energy       619.9065751924 Hartrees.
 NAtoms=   18 NActive=   18 NUniq=   18 SFac= 1.00D+00 NAtFMM=   60 NAOKFM=F Big=F
 Integral buffers will be    131072 words long.
 Raffenetti 2 integral format.
 Two-electron integral symmetry is turned off.
 Nuclear repulsion after empirical dispersion term =      619.8968678294 Hartrees.
 One-electron integrals computed using PRISM.
   1 Symmetry operations used in ECPInt.
 ECPInt:  NShTT=   12246 NPrTT=   33908 LenC2=   11552 LenP2D=   25014.
 LDataN:  DoStor=T MaxTD1= 6 Len=  172
 NBasis=   416 RedAO= T EigKep=  1.78D-04  NBF=   416
 NBsUse=   416 1.00D-06 EigRej= -1.00D+00 NBFU=   416
 Initial guess from the checkpoint file:  "IRC_attackingOHDeprotonated_SiOH4Attack_forward.chk"
 B after Tr=     0.000402    0.000036    0.000035
         Rot=    1.000000    0.000047    0.000003    0.000010 Ang=   0.01 deg.
 ExpMin= 7.01D-02 ExpMax= 4.48D+04 ExpMxC= 1.53D+03 IAcc=3 IRadAn=         5 AccDes= 0.00D+00
 Harris functional with IExCor= 4639 and IRadAn=       5 diagonalized for initial guess.
 HarFok:  IExCor= 4639 AccDes= 0.00D+00 IRadAn=         5 IDoV= 1 UseB2=F ITyADJ=14
 ICtDFT=  3500011 ScaDFX=  1.000000  1.000000  1.000000  1.000000
 FoFCou: FMM=F IPFlag=           0 FMFlag=      100000 FMFlg1=           0
         NFxFlg=           0 DoJE=T BraDBF=F KetDBF=T FulRan=T
         wScrn=  0.000000 ICntrl=       500 IOpCl=  0 I1Cent=   200000004 NGrid=           0
         NMat0=    1 NMatS0=      1 NMatT0=    0 NMatD0=    1 NMtDS0=    0 NMtDT0=    0
 Symmetry not used in FoFCou.
 Requested convergence on RMS density matrix=1.00D-08 within 128 cycles.
 Requested convergence on MAX density matrix=1.00D-06.
 Requested convergence on             energy=1.00D-06.
 No special actions if energy rises.
[...]
      5          1           0        1.239445   -1.135689   -0.167999
      6          1           0        1.540416   -1.174394    1.564455
      7          8           0        2.112585    1.067099   -0.666757
      8          1           0        3.052068   -0.033361   -0.605890
      9          8           0        3.577576   -0.871475   -0.269555
     10          1           0        3.610201   -1.443970   -1.046236
     11         14           0       -1.412741   -0.046864   -0.034630
     12          8           0       -2.401701    0.998664    0.762408
     13          1           0       -1.965602    1.393569    1.509376
     14          8           0       -0.672079    0.553746   -1.350670
     15          1           0        0.287404    0.791334   -1.276487
     16          8           0       -0.330532   -0.572606    1.056501
     17          8           0       -2.457521   -1.206401   -0.561407
     18          1           0       -2.170087   -1.608427   -1.377271
 ---------------------------------------------------------------------
                    Distance matrix (angstroms):
                    1          2          3          4          5
     1  C    0.000000
     2  H    1.111426   0.000000
     3  H    1.107454   1.762688   0.000000
     4  C    1.555338   2.146694   2.166171   0.000000
     5  H    2.151799   2.913184   2.846112   1.088771   0.000000
     6  H    2.210844   2.842936   2.303995   1.090310   1.758828
     7  O    1.370965   2.069251   2.067504   2.432220   2.421447
     8  H    2.013029   3.074219   2.237803   2.475005   2.166213
     9  O    2.678169   3.789319   2.629489   2.725197   2.355203
    10  H    3.396101   4.485759   3.531257   3.231057   2.546924
    11  Si   3.290470   2.984222   4.273080   2.667400   2.870090
    12  O    4.103840   3.367206   4.953239   3.823217   4.321928
    13  H    3.812706   2.938577   4.510152   3.708266   4.413962
    14  O    3.088228   2.967980   4.194974   2.974368   2.811908
    15  H    2.358025   2.436034   3.449222   2.592109   2.418377
    16  O    2.495603   2.448812   3.219143   1.431803   2.069128
    17  O    4.766655   4.603739   5.731133   3.818016   3.718511
    18  H    4.978857   4.984363   5.976560   4.013765   3.648387
                    6          7          8          9         10
     6  H    0.000000
     7  O    3.214027   0.000000
     8  H    2.880529   1.448221   0.000000
     9  O    2.757784   2.462121   1.044852   0.000000
    10  H    3.342513   2.948275   1.579631   0.965426   0.000000
    11  Si   3.542531   3.750789   4.501227   5.063442   5.310857
    12  O    4.572280   4.735607   5.716722   6.349341   6.736514
    13  H    4.346220   4.633978   5.629165   6.246747   6.758133
    14  O    4.047166   2.913009   3.843002   4.610817   4.735131
    15  H    3.674925   1.943991   2.961957   3.821529   4.011306
    16  O    2.029929   3.409849   3.807403   4.137760   4.550842
    17  O    4.528113   5.105464   5.633256   6.051426   6.091695
    18  H    4.754994   5.099466   5.508790   5.899641   5.792095
                   11         12         13         14         15
    11  Si   0.000000
    12  O    1.645126   0.000000
    13  H    2.182764   0.950838   0.000000
    14  O    1.625200   2.766703   3.249365   0.000000
    15  H    2.266116   3.381030   3.633148   0.991241   0.000000
    16  O    1.624238   2.616318   2.596997   2.679514   2.772186
    17  O    1.647296   2.572530   3.360055   2.628471   3.469423
    18  H    2.194251   3.380650   4.169715   2.630538   3.436317
                   16         17         18
    16  O    0.000000
    17  O    2.746526   0.000000
    18  H    3.221822   0.953875   0.000000
 Symmetry turned off by external request.
 Stoichiometry    C2H9O6Si(1-)
 Framework group  C1[X(C2H9O6Si)]
 Deg. of freedom    48
 Full point group                 C1      NOp   1
 Rotational constants (GHZ):           2.5415090           0.7075458           0.6960970
 Standard basis: def2TZVPP (5D, 7F)
   416 basis functions,   630 primitive gaussians,   471 cartesian basis functions
    42 alpha electrons       42 beta electrons
       nuclear repulsion energy       624.5179941425 Hartrees.
 NAtoms=   18 NActive=   18 NUniq=   18 SFac= 1.00D+00 NAtFMM=   60 NAOKFM=F Big=F
 Integral buffers will be    131072 words long.
 Raffenetti 2 integral format.
 Two-electron integral symmetry is turned off.
 Nuclear repulsion after empirical dispersion term =      624.5084598989 Hartrees.
 One-electron integrals computed using PRISM.
   1 Symmetry operations used in ECPInt.
 ECPInt:  NShTT=   12246 NPrTT=   33908 LenC2=   11557 LenP2D=   25047.
 LDataN:  DoStor=T MaxTD1= 6 Len=  172
 NBasis=   416 RedAO= T EigKep=  2.03D-04  NBF=   416
 NBsUse=   416 1.00D-06 EigRej= -1.00D+00 NBFU=   416
 Initial guess from the checkpoint file:  "IRC_attackingOHDeprotonated_SiOH4Attack_forward.chk"
 B after Tr=    -0.000291   -0.000023   -0.000585
         Rot=    1.000000   -0.000319   -0.000094   -0.000039 Ang=  -0.04 deg.
 ExpMin= 7.01D-02 ExpMax= 4.48D+04 ExpMxC= 1.53D+03 IAcc=3 IRadAn=         5 AccDes= 0.00D+00
 Harris functional with IExCor= 4639 and IRadAn=       5 diagonalized for initial guess.
 HarFok:  IExCor= 4639 AccDes= 0.00D+00 IRadAn=         5 IDoV= 1 UseB2=F ITyADJ=14
 ICtDFT=  3500011 ScaDFX=  1.000000  1.000000  1.000000  1.000000
 FoFCou: FMM=F IPFlag=           0 FMFlag=      100000 FMFlg1=           0
         NFxFlg=           0 DoJE=T BraDBF=F KetDBF=T FulRan=T
         wScrn=  0.000000 ICntrl=       500 IOpCl=  0 I1Cent=   200000004 NGrid=           0
         NMat0=    1 NMatS0=      1 NMatT0=    0 NMatD0=    1 NMtDS0=    0 NMtDT0=    0
 Symmetry not used in FoFCou.
 Requested convergence on RMS density matrix=1.00D-08 within 128 cycles.
 Requested convergence on MAX density matrix=1.00D-06.
 Requested convergence on             energy=1.00D-06.
 No special actions if energy rises.
 Integral accuracy reduced to 1.0D-05 until final iterations.
 Initial convergence to 1.0D-05 achieved.  Increase integral accuracy.
 SCF Done:  E(RwB97XD) =  -822.786743993     A.U. after   12 cycles
            NFock= 12  Conv=0.27D-08     -V/T= 2.0033
 DoSCS=F DFT=T ScalE2(SS,OS)=  1.000000  1.000000
 Range of M.O.s used for correlation:     1   416
 NBasis=   416 NAE=    42 NBE=    42 NFC=     0 NFV=     0
 NROrb=    416 NOA=    42 NOB=    42 NVA=   374 NVB=   374

 **** Warning!!: The largest alpha MO coefficient is  0.11605337D+02

 Symmetrizing basis deriv contribution to polar:
 IMax=3 JMax=2 DiffMx= 0.00D+00
   1 Symmetry operations used in ECPInt.
 ECPInt:  NShTT=   12246 NPrTT=   33908 LenC2=   11557 LenP2D=   25047.
 LDataN:  DoStor=T MaxTD1= 7 Len=  274
 Calling FoFJK, ICntrl=      2127 FMM=F ISym2X=0 I1Cent= 0 IOpClX= 0 NMat=1 NMatS=1 NMatT=0.
 -------------------------------------------------------------------
 Center     Atomic                   Forces (Hartrees/Bohr)
 Number     Number              X              Y              Z
 -------------------------------------------------------------------
      1        6          -0.003490510    0.000457505    0.000645265
      2        1           0.000008947    0.000013031    0.000328676
      3        1           0.000243753   -0.000128458   -0.000568089
      4        6          -0.001070583   -0.000480493    0.005755374
      5        1           0.000168096   -0.000199619    0.000803043
      6        1          -0.000336474    0.000505149    0.000379722
      7        8          -0.013422297    0.002790160   -0.001357681
      8        1           0.003404325   -0.003065807    0.002787607
      9        8           0.011722695   -0.009353043   -0.017415684
     10        1           0.000652218    0.005305101    0.008899391
     11       14           0.000458601    0.003126609   -0.002847903
     12        8          -0.002436660   -0.001688638   -0.003179073
     13        1           0.001837924    0.002037916    0.002662496
     14        8           0.005193719    0.000597348    0.001393409
     15        1           0.000310907    0.000188274    0.000199029
     16        8          -0.003928636   -0.000481243    0.001818854
     17        8           0.000616409    0.000391252   -0.000136041
     18        1           0.000067567   -0.000015044   -0.000168395
 -------------------------------------------------------------------
 Cartesian Forces:  Max     0.017415684 RMS     0.004312299
 IRC-IRC-IRC-IRC-IRC-IRC-IRC-IRC-IRC-IRC-IRC-IRC-IRC-IRC-IRC-IRC-IRC-IRC
 Error in corrector energy =          -0.0005445987
 Magnitude of corrector gradient =     0.0286695787
 Magnitude of analytic gradient =      0.0316887984
 Magnitude of difference =             0.0236104902
 Angle between gradients (degrees)=   45.7157
 Pt 19 Step number  19 out of a maximum of  20
 Modified Bulirsch-Stoer Extrapolation Cycles:
    EPS =    0.000010000000000
      PEZero:  N= 2 I= 1 D=  1.51D-03 Err=  2.28D-04
      PEZero:  N= 3 I= 2 D=  1.51D-03 Err=  1.51D-04
      PEZero:  N= 3 I= 1 D=  3.01D-03 Err=  3.45D-06
 Maximum DWI energy   std dev =  0.000035687 at pt    28
 Maximum DWI gradient std dev =  0.413961600 at pt    28
 CORRECTOR INTEGRATION CONVERGENCE:
   Recorrection delta-x convergence threshold:    0.010000
   Delta-x Convergence NOT Met
 IRC-IRC-IRC-IRC-IRC-IRC-IRC-IRC-IRC-IRC-IRC-IRC-IRC-IRC-IRC-IRC-IRC-IRC
                          Input orientation:                          
 ---------------------------------------------------------------------
 Center     Atomic      Atomic             Coordinates (Angstroms)
 Number     Number       Type             X           Y           Z
 ---------------------------------------------------------------------
      1          6           0        1.694286    0.816649    0.615223
      2          1           0        0.915733    1.532027    0.957964
      3          1           0        2.513188    0.903643    1.355625
      4          6           0        1.070947   -0.600327    0.766217
      5          1           0        1.239073   -1.138633   -0.164147
      6          1           0        1.537413   -1.170571    1.569402
      7          8           0        2.113447    1.065344   -0.666583
      8          1           0        3.059975   -0.044446   -0.588403
      9          8           0        3.577308   -0.868905   -0.274328
     10          1           0        3.614198   -1.451701   -1.019258
     11         14           0       -1.412773   -0.046773   -0.034724
     12          8           0       -2.402359    0.997820    0.762498
     13          1           0       -1.953569    1.408747    1.504496
     14          8           0       -0.671589    0.553846   -1.350566
     15          1           0        0.289040    0.789385   -1.275471
     16          8           0       -0.330920   -0.572593    1.056672
     17          8           0       -2.457484   -1.206350   -0.561356
     18          1           0       -2.169095   -1.610059   -1.376305
 ---------------------------------------------------------------------
                    Distance matrix (angstroms):
                    1          2          3          4          5
     1  C    0.000000
     2  H    1.111478   0.000000
     3  H    1.107413   1.762062   0.000000
     4  C    1.555368   2.146577   2.165499   0.000000
     5  H    2.153547   2.914809   2.846747   1.087942   0.000000
     6  H    2.210002   2.839785   2.302216   1.089897   1.759323
     7  O    1.371339   2.071586   2.067671   2.431909   2.423735
     8  H    2.013779   3.078035   2.230940   2.469865   2.166316
     9  O    2.679210   3.790383   2.632684   2.727034   2.356319
    10  H    3.391608   4.482606   3.521355   3.221938   2.543707
    11  Si   3.289642   2.983284   4.271947   2.667732   2.870748
    12  O    4.103293   3.366500   4.952098   3.823342   4.322399
    13  H    3.801083   2.923488   4.497689   3.705284   4.412083
    14  O    3.087192   2.967447   4.193880   2.974780   2.814730
    15  H    2.355882   2.435671   3.447108   2.590591   2.419681
    16  O    2.495262   2.448124   3.218322   1.431910   2.067772
    17  O    4.765927   4.602786   5.730137   3.818317   3.718453
    18  H    4.978032   4.983742   5.975443   4.013456   3.647900
                    6          7          8          9         10
     6  H    0.000000
     7  O    3.214150   0.000000
     8  H    2.870971   1.460706   0.000000
     9  O    2.766137   2.457250   1.022746   0.000000
    10  H    3.330650   2.951635   1.572630   0.946538   0.000000
    11  Si   3.541149   3.751037   4.506889   5.063025   5.311645
    12  O    4.568897   4.737018   5.722618   6.349496   6.736005
    13  H    4.340973   4.622999   5.623844   6.240394   6.749187
    14  O    4.047161   2.913055   3.855310   4.608214   4.743412
    15  H    3.673304   1.943028   2.974125   3.816402   4.018058
    16  O    2.027595   3.409894   3.805704   4.139277   4.543817
    17  O    4.527761   5.105397   5.638538   6.051031   6.093865
    18  H    4.754844   5.099182   5.514989   5.897865   5.796467
                   11         12         13         14         15
    11  Si   0.000000
    12  O    1.644998   0.000000
    13  H    2.186366   0.959602   0.000000
    14  O    1.625281   2.767258   3.244334   0.000000
    15  H    2.266005   3.382365   3.625068   0.991930   0.000000
    16  O    1.624203   2.616026   2.599854   2.679499   2.770961
    17  O    1.647235   2.571769   3.370521   2.628796   3.469339
    18  H    2.194476   3.380817   4.178356   2.631668   3.436557
                   16         17         18
    16  O    0.000000
    17  O    2.746259   0.000000
    18  H    3.220963   0.954092   0.000000
 Symmetry turned off by external request.
 Stoichiometry    C2H9O6Si(1-)
 Framework group  C1[X(C2H9O6Si)]
 Deg. of freedom    48
 Full point group                 C1      NOp   1
 Rotational constants (GHZ):           2.5427678           0.7075318           0.6961419
 Standard basis: def2TZVPP (5D, 7F)
   416 basis functions,   630 primitive gaussians,   471 cartesian basis functions
    42 alpha electrons       42 beta electrons
       nuclear repulsion energy       624.6466963435 Hartrees.
 NAtoms=   18 NActive=   18 NUniq=   18 SFac= 1.00D+00 NAtFMM=   60 NAOKFM=F Big=F
 Integral buffers will be    131072 words long.
 Raffenetti 2 integral format.
 Two-electron integral symmetry is turned off.
 Nuclear repulsion after empirical dispersion term =      624.6371583099 Hartrees.
 One-electron integrals computed using PRISM.
   1 Symmetry operations used in ECPInt.
 ECPInt:  NShTT=   12246 NPrTT=   33908 LenC2=   11557 LenP2D=   25048.
 LDataN:  DoStor=T MaxTD1= 6 Len=  172
 NBasis=   416 RedAO= T EigKep=  2.02D-04  NBF=   416
 NBsUse=   416 1.00D-06 EigRej= -1.00D+00 NBFU=   416
 Initial guess from the checkpoint file:  "IRC_attackingOHDeprotonated_SiOH4Attack_forward.chk"
 B after Tr=     0.000291    0.000023    0.000585
         Rot=    1.000000    0.000320    0.000094    0.000039 Ang=   0.04 deg.
 ExpMin= 7.01D-02 ExpMax= 4.48D+04 ExpMxC= 1.53D+03 IAcc=3 IRadAn=         5 AccDes= 0.00D+00
 Harris functional with IExCor= 4639 and IRadAn=       5 diagonalized for initial guess.
 HarFok:  IExCor= 4639 AccDes= 0.00D+00 IRadAn=         5 IDoV= 1 UseB2=F ITyADJ=14
 ICtDFT=  3500011 ScaDFX=  1.000000  1.000000  1.000000  1.000000
 FoFCou: FMM=F IPFlag=           0 FMFlag=      100000 FMFlg1=           0
         NFxFlg=           0 DoJE=T BraDBF=F KetDBF=T FulRan=T
         wScrn=  0.000000 ICntrl=       500 IOpCl=  0 I1Cent=   200000004 NGrid=           0
         NMat0=    1 NMatS0=      1 NMatT0=    0 NMatD0=    1 NMtDS0=    0 NMtDT0=    0
 Symmetry not used in FoFCou.
 Requested convergence on RMS density matrix=1.00D-08 within 128 cycles.
 Requested convergence on MAX density matrix=1.00D-06.
 Requested convergence on             energy=1.00D-06.
 No special actions if energy rises.
 Integral accuracy reduced to 1.0D-05 until final iterations.
 Initial convergence to 1.0D-05 achieved.  Increase integral accuracy.
 SCF Done:  E(RwB97XD) =  -822.786832096     A.U. after   12 cycles
            NFock= 12  Conv=0.31D-08     -V/T= 2.0033
 DoSCS=F DFT=T ScalE2(SS,OS)=  1.000000  1.000000
 Range of M.O.s used for correlation:     1   416
 NBasis=   416 NAE=    42 NBE=    42 NFC=     0 NFV=     0
 NROrb=    416 NOA=    42 NOB=    42 NVA=   374 NVB=   374

 **** Warning!!: The largest alpha MO coefficient is  0.11290122D+02

 Symmetrizing basis deriv contribution to polar:
 IMax=3 JMax=2 DiffMx= 0.00D+00
   1 Symmetry operations used in ECPInt.
 ECPInt:  NShTT=   12246 NPrTT=   33908 LenC2=   11557 LenP2D=   25048.
 LDataN:  DoStor=T MaxTD1= 7 Len=  274
 Calling FoFJK, ICntrl=      2127 FMM=F ISym2X=0 I1Cent= 0 IOpClX= 0 NMat=1 NMatS=1 NMatT=0.
 -------------------------------------------------------------------
 Center     Atomic                   Forces (Hartrees/Bohr)
 Number     Number              X              Y              Z
 -------------------------------------------------------------------
      1        6          -0.002974510    0.000401189   -0.000662395
      2        1          -0.000212734    0.000128253    0.000371438
      3        1           0.000370012   -0.000058720   -0.000328389
      4        6          -0.001845020   -0.000078137    0.006675957
      5        1           0.000416995   -0.000305691    0.000294326
      6        1           0.000033646    0.000197031    0.000459073
      7        8          -0.014998375    0.004058433   -0.000046912
      8        1          -0.000595742    0.002738427   -0.003586652
      9        8           0.017405992   -0.006844979    0.004249023
     10        1           0.000248297   -0.004426273   -0.007032974
     11       14           0.000616784    0.003135321   -0.002951436
     12        8           0.001547845    0.002443251    0.003950843
     13        1          -0.002388716   -0.001960821   -0.004489790
     14        8           0.005503450    0.000562324    0.001543048
     15        1           0.000195972    0.000238438    0.000120260
     16        8          -0.003895024   -0.000559774    0.001697922
     17        8           0.000575227    0.000185676   -0.000296262
     18        1          -0.000004099    0.000146052    0.000032920
 -------------------------------------------------------------------
 Cartesian Forces:  Max     0.017405992 RMS     0.004041811
 IRC-IRC-IRC-IRC-IRC-IRC-IRC-IRC-IRC-IRC-IRC-IRC-IRC-IRC-IRC-IRC-IRC-IRC
 Error in corrector energy =          -0.0004565129
 Magnitude of corrector gradient =     0.0267889872
 Magnitude of analytic gradient =      0.0297011223
 Magnitude of difference =             0.0197602479
 Angle between gradients (degrees)=   40.5396
 Pt 19 Step number  20 out of a maximum of  20
 Modified Bulirsch-Stoer Extrapolation Cycles:
    EPS =    0.000010000000000
      PEZero:  N= 2 I= 1 D=  1.51D-03 Err=  2.98D-04
      PEZero:  N= 3 I= 2 D=  1.51D-03 Err=  1.97D-04
      PEZero:  N= 3 I= 1 D=  3.01D-03 Err=  3.69D-06
 Maximum DWI energy   std dev =  0.000063245 at pt    29
 Maximum DWI gradient std dev =  0.300148998 at pt    28
 CORRECTOR INTEGRATION CONVERGENCE:
   Recorrection delta-x convergence threshold:    0.010000
   Delta-x Convergence NOT Met
 Maximum number of corrector steps exceded.
 Error termination via Lnk1e in /opt/software/gaussian/g16.c01/l123.exe at Mon Jan 15 04:00:08 2024.
 Job cpu time:       2 days 22 hours 44 minutes 23.4 seconds.
 Elapsed time:       2 days 22 hours 47 minutes 43.8 seconds.
 File lengths (MBytes):  RWF=    265 Int=      0 D2E=      0 Chk=     15 Scr=      1
