 Entering Gaussian System, Link 0=/opt/software/gaussian/g16.c01/g16
 Initial command:
 /opt/software/gaussian/g16.c01/l1.exe "/scratch/arhender/17114530/Gau-230006.inp" -scrdir="/scratch/arhender/17114530/"
 Entering Link 1 = /opt/software/gaussian/g16.c01/l1.exe PID=    230009.
  
 Copyright (c) 1988-2019, Gaussian, Inc.  All Rights Reserved.
  
 This is part of the Gaussian(R) 16 program.  It is based on
 the Gaussian(R) 09 system (copyright 2009, Gaussian, Inc.),
 the Gaussian(R) 03 system (copyright 2003, Gaussian, Inc.),
 the Gaussian(R) 98 system (copyright 1998, Gaussian, Inc.),
 the Gaussian(R) 94 system (copyright 1995, Gaussian, Inc.),
 the Gaussian 92(TM) system (copyright 1992, Gaussian, Inc.),
 the Gaussian 90(TM) system (copyright 1990, Gaussian, Inc.),
 the Gaussian 88(TM) system (copyright 1988, Gaussian, Inc.),
 the Gaussian 86(TM) system (copyright 1986, Carnegie Mellon
 University), and the Gaussian 82(TM) system (copyright 1983,
 Carnegie Mellon University). Gaussian is a federally registered
 trademark of Gaussian, Inc.
  
 This software contains proprietary and confidential information,
 including trade secrets, belonging to Gaussian, Inc.
  
 This software is provided under written license and may be
 used, copied, transmitted, or stored only in accord with that
 written license.
  
 The following legend is applicable only to US Government
 contracts under FAR:
  
                    RESTRICTED RIGHTS LEGEND
  
 Use, reproduction and disclosure by the US Government is
 subject to restrictions as set forth in subparagraphs (a)
 and (c) of the Commercial Computer Software - Restricted
 Rights clause in FAR 52.227-19.
  
 Gaussian, Inc.
 340 Quinnipiac St., Bldg. 40, Wallingford CT 06492
  
  
 ---------------------------------------------------------------
 Warning -- This program may not be used in any manner that
 competes with the business of Gaussian, Inc. or will provide
 assistance to any competitor of Gaussian, Inc.  The licensee
 of this program is prohibited from giving any competitor of
 Gaussian, Inc. access to this program.  By using this program,
 the user acknowledges that Gaussian, Inc. is engaged in the
 business of creating and licensing software in the field of
 computational chemistry and represents and warrants to the
 licensee that it is not a competitor of Gaussian, Inc. and that
 it will not use this program in any manner prohibited above.
 ---------------------------------------------------------------
  

 Cite this work as:
 Gaussian 16, Revision C.01,
 M. J. Frisch, G. W. Trucks, H. B. Schlegel, G. E. Scuseria, 
 M. A. Robb, J. R. Cheeseman, G. Scalmani, V. Barone, 
 G. A. Petersson, H. Nakatsuji, X. Li, M. Caricato, A. V. Marenich, 
 J. Bloino, B. G. Janesko, R. Gomperts, B. Mennucci, H. P. Hratchian, 
 J. V. Ortiz, A. F. Izmaylov, J. L. Sonnenberg, D. Williams-Young, 
 F. Ding, F. Lipparini, F. Egidi, J. Goings, B. Peng, A. Petrone, 
 T. Henderson, D. Ranasinghe, V. G. Zakrzewski, J. Gao, N. Rega, 
 G. Zheng, W. Liang, M. Hada, M. Ehara, K. Toyota, R. Fukuda, 
 J. Hasegawa, M. Ishida, T. Nakajima, Y. Honda, O. Kitao, H. Nakai, 
 T. Vreven, K. Throssell, J. A. Montgomery, Jr., J. E. Peralta, 
 F. Ogliaro, M. J. Bearpark, J. J. Heyd, E. N. Brothers, K. N. Kudin, 
 V. N. Staroverov, T. A. Keith, R. Kobayashi, J. Normand, 
 K. Raghavachari, A. P. Rendell, J. C. Burant, S. S. Iyengar, 
 J. Tomasi, M. Cossi, J. M. Millam, M. Klene, C. Adamo, R. Cammi, 
 J. W. Ochterski, R. L. Martin, K. Morokuma, O. Farkas, 
 J. B. Foresman, and D. J. Fox, Gaussian, Inc., Wallingford CT, 2019.
 
 ******************************************
 Gaussian 16:  ES64L-G16RevC.01  3-Jul-2019
                20-Feb-2024 
 ******************************************
 %chk=IRC_depEGattPL2_forward.chk
 %mem=1600MB
 %nprocs=4
 Will use up to    4 processors via shared memory.
 ----------------------------------------------------------------------
 # irc=(forward,calcfc,maxpoints=100,maxcycle=100) wb97xd/def2tzvpp geo
 m=connectivity
 ----------------------------------------------------------------------
 1/6=100,10=4,18=10,22=1,26=3,38=1,42=100,44=3,57=2,172=1/1,23;
 2/12=2,17=6,18=5,29=1,40=1/2;
 3/5=44,7=202,11=2,25=1,30=1,71=2,74=-58,140=1/1,2,3;
 4//1;
 5/5=2,38=5/2;
 8/6=4,10=90,11=11/1;
 11/6=1,8=1,9=11,15=111,16=1/1,2,10;
 10/6=1,13=1/2;
 6/7=2,8=2,9=2,10=2,28=1/1;
 7/10=1,25=1/1,2,3,16;
 1/6=100,10=4,18=10,22=1,26=3,42=100,44=3/23(2);
 2/29=1/2;
 99/5=20/99;
 2/29=1/2;
 3/5=44,7=202,11=2,25=1,30=1,71=2,74=-58,140=1/1,2,3;
 4/5=5,16=3,69=1/1;
 5/5=2,38=5/2;
 8/6=4,10=90,11=11/1;
 11/6=1,8=1,9=11,15=111,16=1/1,2,10;
 10/6=1,13=1/2;
 7/10=1,25=1/1,2,3,16;
 1/6=100,18=10,22=1,26=3,42=100,44=3/23(-8);
 2/29=1/2;
 6/7=2,8=2,9=2,10=2,19=2,28=1/1;
 99/5=20,9=1/99;
 ----------------------------------------------------------
 IRC for deprotonated ethylene glycol attack on PL2 complex
 ----------------------------------------------------------
 Symbolic Z-matrix:
 Charge = -2 Multiplicity = 1
 Si                   -1.02875   0.39153  -0.01603 
 O                    -0.35546   1.49182   1.19037 
 O                    -0.01419   1.14252  -1.22302 
 O                    -1.37556  -0.85563  -1.17967 
 O                    -1.55451  -0.67129   1.26594 
 O                     1.0922   -0.92095   0.41496 
 O                    -2.4923    1.29844  -0.23483 
 H                    -2.48797   1.93553   0.4761 
 C                    -2.02489  -1.94318  -0.63657 
 H                    -3.12393  -1.84763  -0.75116 
 H                    -1.721    -2.87495  -1.14368 
 C                    -1.66634  -1.9836    0.85509 
 H                    -2.44807  -2.51053   1.43155 
 H                    -0.70893  -2.50934   0.98886 
 C                     0.7858    2.13282   0.74636 
 H                     0.88754   3.12628   1.21844 
 H                     1.68255   1.54223   0.98178 
 C                     0.64396   2.26483  -0.77507 
 H                     0.06844   3.18483  -1.01286 
 H                     1.63074   2.3621   -1.25811 
 C                     1.80984  -1.29535  -0.67165 
 H                     1.37259  -0.96012  -1.62857 
 H                     1.92721  -2.41043  -0.75161 
 C                     3.24051  -0.69911  -0.53385 
 H                     3.99464  -1.28166  -1.08549 
 H                     3.24627   0.33161  -0.92644 
 O                     3.54415  -0.69806   0.84272 
 H                     2.59446  -0.72264   1.16793 
 
 IRC-IRC-IRC-IRC-IRC-IRC-IRC-IRC-IRC-IRC-IRC-IRC-IRC-IRC-IRC-IRC-IRC-IRC
 ------------------------------------------------------------------------
 INPUT DATA FOR L123
 ------------------------------------------------------------------------
 GENERAL PARAMETERS:
 Rxn path following direction = Forward
 Maximum points per path      = 100
 Step size                    =   0.100 bohr
 Integration scheme           = HPC                                 
    Redo corrector integration= Yes                                 
    DWI Weight Power          =  2
    DWI will use Hessian update vectors when possible.
    Max correction cycles     = 100
 Initial Hessian              = CalcFC
 Hessian evaluation           = All updating
 Hessian updating method      = Bofill                              
 ------------------------------------------------------------------------
 IRC-IRC-IRC-IRC-IRC-IRC-IRC-IRC-IRC-IRC-IRC-IRC-IRC-IRC-IRC-IRC-IRC-IRC
                          Input orientation:                          
 ---------------------------------------------------------------------
 Center     Atomic      Atomic             Coordinates (Angstroms)
 Number     Number       Type             X           Y           Z
 ---------------------------------------------------------------------
      1         14           0       -1.028746    0.391526   -0.016025
      2          8           0       -0.355463    1.491822    1.190372
      3          8           0       -0.014193    1.142518   -1.223019
      4          8           0       -1.375564   -0.855629   -1.179666
      5          8           0       -1.554506   -0.671285    1.265943
      6          8           0        1.092201   -0.920951    0.414957
      7          8           0       -2.492304    1.298441   -0.234828
      8          1           0       -2.487974    1.935529    0.476097
      9          6           0       -2.024886   -1.943179   -0.636570
     10          1           0       -3.123929   -1.847633   -0.751161
     11          1           0       -1.721000   -2.874946   -1.143677
     12          6           0       -1.666344   -1.983597    0.855090
     13          1           0       -2.448074   -2.510531    1.431546
     14          1           0       -0.708933   -2.509337    0.988857
     15          6           0        0.785804    2.132822    0.746356
     16          1           0        0.887542    3.126282    1.218436
     17          1           0        1.682553    1.542225    0.981775
     18          6           0        0.643960    2.264829   -0.775070
     19          1           0        0.068436    3.184831   -1.012864
     20          1           0        1.630738    2.362102   -1.258105
     21          6           0        1.809842   -1.295346   -0.671651
     22          1           0        1.372589   -0.960115   -1.628570
     23          1           0        1.927206   -2.410432   -0.751611
     24          6           0        3.240512   -0.699110   -0.533854
     25          1           0        3.994642   -1.281658   -1.085492
     26          1           0        3.246274    0.331611   -0.926438
     27          8           0        3.544154   -0.698063    0.842720
     28          1           0        2.594456   -0.722640    1.167927
 ---------------------------------------------------------------------
                    Distance matrix (angstroms):
                    1          2          3          4          5
     1  Si   0.000000
     2  O    1.766170   0.000000
     3  O    1.746465   2.462303   0.000000
     4  O    1.740614   3.488296   2.418223   0.000000
     5  O    1.746263   2.474358   3.443454   2.459066   0.000000
     6  O    2.531157   2.918642   2.857442   2.938869   2.791338
     7  O    1.735619   2.575787   2.672427   2.603813   2.647942
     8  H    2.180705   2.292306   3.104103   3.430681   2.879357
     9  C    2.613086   4.233665   3.729388   1.378164   2.336349
    10  H    3.153419   4.752464   4.339828   2.055351   2.813466
    11  H    3.524295   5.136257   4.365719   2.048966   3.269573
    12  C    2.608943   3.729525   4.101309   2.344589   1.379663
    13  H    3.540041   4.522833   5.129840   3.272217   2.051515
    14  H    3.086596   4.021793   4.325633   2.807426   2.042108
    15  C    2.627913   1.382216   2.345023   4.160759   3.689178
    16  H    3.560189   2.053609   3.272483   5.169928   4.515238
    17  H    3.109800   2.049283   2.810663   4.446753   3.931784
    18  C    2.623616   2.336525   1.376011   3.738908   4.197589
    19  H    3.162285   2.810733   2.054759   4.293981   4.764088
    20  H    3.535362   3.270691   2.048027   4.404293   5.071295
    21  C    3.366447   3.990486   3.094235   3.255494   3.932246
    22  H    3.192749   4.116381   2.551216   2.786535   4.126683
    23  H    4.138805   4.920311   4.076114   3.675450   4.383774
    24  C    4.436688   4.550184   3.802584   4.663660   5.121742
    25  H    5.401642   5.638720   4.686822   5.387901   6.057627
    26  H    4.371297   4.335837   3.372859   4.778603   5.372134
    27  O    4.778709   4.485919   4.507422   5.321513   5.116265
    28  H    3.971234   3.688681   4.000061   4.614102   4.150437
                    6          7          8          9         10
     6  O    0.000000
     7  O    4.265747   0.000000
     8  H    4.580488   0.954628   0.000000
     9  C    3.444835   3.299693   4.061632   0.000000
    10  H    4.471501   3.250128   4.027768   1.109124   0.000000
    11  H    3.763182   4.340285   5.133477   1.103492   1.782597
    12  C    2.988730   3.555546   4.022221   1.534678   2.173265
    13  H    4.011703   4.157767   4.547738   2.185882   2.379164
    14  H    2.469092   4.379154   4.815054   2.166629   3.049216
    15  C    3.086946   3.522060   3.290834   5.140647   5.776902
    16  H    4.131290   4.108082   3.655553   6.133736   6.686632
    17  H    2.595580   4.355340   4.219442   5.339680   6.131596
    18  C    3.430201   3.325946   3.388638   4.984902   5.577625
    19  H    4.465894   3.274324   3.211385   5.551584   5.965348
    20  H    3.723922   4.379263   4.489233   5.682019   6.370692
    21  C    1.354953   5.042520   5.497918   3.889223   4.965223
    22  H    2.063045   4.688389   5.264819   3.673325   4.666499
    23  H    2.068011   5.792657   6.315731   3.981280   5.082392
    24  C    2.358961   6.078224   6.385677   5.411347   6.470891
    25  H    3.287190   7.032852   7.403591   6.072385   7.148857
    26  H    2.829891   5.860406   6.117292   5.748375   6.734932
    27  O    2.498947   6.448718   6.592176   5.895152   6.951640
    28  H    1.692058   5.650453   5.777161   5.107274   6.135832
                   11         12         13         14         15
    11  H    0.000000
    12  C    2.189192   0.000000
    13  H    2.700594   1.105017   0.000000
    14  H    2.388650   1.100424   1.794599   0.000000
    15  C    5.910502   4.792678   5.699840   4.882897   0.000000
    16  H    6.956925   5.724091   6.553275   5.861880   1.104614
    17  H    5.967673   4.864420   5.804240   4.704722   1.099266
    18  C    5.669761   5.103337   6.101958   5.266348   1.533715
    19  H    6.319817   5.762930   6.689179   6.085617   2.171680
    20  H    6.218835   5.849910   6.900252   5.852676   2.187315
    21  C    3.896767   3.858561   4.902036   3.251967   3.848602
    22  H    3.670421   4.056007   5.134741   3.685613   3.943457
    23  H    3.698499   3.959454   4.890733   3.160418   4.918116
    24  C    5.451857   5.258927   6.285225   4.603660   3.960349
    25  H    5.933845   6.025391   7.025254   5.285238   5.031002
    26  H    5.916334   5.715579   6.787007   5.232877   3.478004
    27  O    6.033775   5.366753   6.287969   4.625021   3.953693
    28  H    5.347812   4.454469   5.356599   3.759884   3.406260
                   16         17         18         19         20
    16  H    0.000000
    17  H    1.788096   0.000000
    18  C    2.185292   2.165026   0.000000
    19  H    2.377617   3.046656   1.110935   0.000000
    20  H    2.696213   2.385780   1.102958   1.782642   0.000000
    21  C    4.896311   3.286614   3.747642   4.818808   3.708495
    22  H    5.003934   3.629281   3.414619   4.388677   3.352762
    23  H    5.968014   4.322960   4.848230   5.901716   4.808483
    24  C    4.820852   3.122171   3.947810   5.037511   3.533685
    25  H    5.864477   4.194480   4.888865   5.947259   4.346818
    26  H    4.239609   2.748106   3.245348   4.271649   2.615885
    27  O    4.671655   2.916125   4.450517   5.531788   4.176031
    28  H    4.210737   2.448639   4.062591   5.138575   4.041042
                   21         22         23         24         25
    21  C    0.000000
    22  H    1.104203   0.000000
    23  H    1.124093   1.783277   0.000000
    24  C    1.556053   2.180748   2.168136   0.000000
    25  H    2.223691   2.696940   2.379054   1.101081   0.000000
    26  H    2.185233   2.381647   3.047836   1.102969   1.785494
    27  O    2.378635   3.300248   2.844050   1.409665   2.064346
    28  H    2.080303   3.061005   2.641683   1.820440   2.711258
                   26         27         28
    26  H    0.000000
    27  O    2.068546   0.000000
    28  H    2.433655   1.004136   0.000000
 Symmetry turned off by external request.
 Stoichiometry    C6H14O7Si(2-)
 Framework group  C1[X(C6H14O7Si)]
 Deg. of freedom    78
 Full point group                 C1      NOp   1
 Rotational constants (GHZ):           0.8561262           0.5528639           0.4285848
 Standard basis: def2TZVPP (5D, 7F)
   641 basis functions,   970 primitive gaussians,   726 cartesian basis functions
    61 alpha electrons       61 beta electrons
       nuclear repulsion energy      1246.1735365084 Hartrees.
 NAtoms=   28 NActive=   28 NUniq=   28 SFac= 1.00D+00 NAtFMM=   60 NAOKFM=F Big=F
 Integral buffers will be    131072 words long.
 Raffenetti 2 integral format.
 Two-electron integral symmetry is turned off.
 Nuclear repulsion after empirical dispersion term =     1246.1536044602 Hartrees.
 One-electron integrals computed using PRISM.
   1 Symmetry operations used in ECPInt.
 ECPInt:  NShTT=   29161 NPrTT=   80163 LenC2=   27125 LenP2D=   56434.
 LDataN:  DoStor=T MaxTD1= 6 Len=  172
 NBasis=   641 RedAO= T EigKep=  2.13D-04  NBF=   641
 NBsUse=   641 1.00D-06 EigRej= -1.00D+00 NBFU=   641
 ExpMin= 7.01D-02 ExpMax= 4.48D+04 ExpMxC= 1.53D+03 IAcc=3 IRadAn=         5 AccDes= 0.00D+00
 Harris functional with IExCor= 4639 and IRadAn=       5 diagonalized for initial guess.
 HarFok:  IExCor= 4639 AccDes= 0.00D+00 IRadAn=         5 IDoV= 1 UseB2=F ITyADJ=14
 ICtDFT=  3500011 ScaDFX=  1.000000  1.000000  1.000000  1.000000
 FoFCou: FMM=F IPFlag=           0 FMFlag=      100000 FMFlg1=           0
         NFxFlg=           0 DoJE=T BraDBF=F KetDBF=T FulRan=T
         wScrn=  0.000000 ICntrl=       500 IOpCl=  0 I1Cent=   200000004 NGrid=           0
         NMat0=    1 NMatS0=      1 NMatT0=    0 NMatD0=    1 NMtDS0=    0 NMtDT0=    0
 Symmetry not used in FoFCou.
 Requested convergence on RMS density matrix=1.00D-08 within 128 cycles.
 Requested convergence on MAX density matrix=1.00D-06.
 Requested convergence on             energy=1.00D-06.
 No special actions if energy rises.
 Integral accuracy reduced to 1.0D-05 until final iterations.
 Initial convergence to 1.0D-05 achieved.  Increase integral accuracy.
 SCF Done:  E(RwB97XD) =  -1053.33008246     A.U. after   16 cycles
            NFock= 16  Conv=0.40D-08     -V/T= 2.0037
 DoSCS=F DFT=T ScalE2(SS,OS)=  1.000000  1.000000
 Range of M.O.s used for correlation:     1   641
 NBasis=   641 NAE=    61 NBE=    61 NFC=     0 NFV=     0
 NROrb=    641 NOA=    61 NOB=    61 NVA=   580 NVB=   580

 **** Warning!!: The largest alpha MO coefficient is  0.13044018D+02

   1 Symmetry operations used in ECPInt.
 ECPInt:  NShTT=   29161 NPrTT=   80163 LenC2=   27125 LenP2D=   56434.
 LDataN:  DoStor=T MaxTD1= 7 Len=  274
 Number of processors reduced to   2 by ecpmxn.
 Symmetrizing basis deriv contribution to polar:
 IMax=3 JMax=2 DiffMx= 0.00D+00
 G2DrvN: will do    29 centers at a time, making    1 passes.
 Calling FoFCou, ICntrl=  3107 FMM=F I1Cent=   0 AccDes= 0.00D+00.
 End of G2Drv F.D. properties file   721 does not exist.
 End of G2Drv F.D. properties file   722 does not exist.
 End of G2Drv F.D. properties file   788 does not exist.
          IDoAtm=1111111111111111111111111111
          Differentiating once with respect to nuclear coordinates.
 CalDSu exits because no D1Ps are significant.
          There are    87 degrees of freedom in the 1st order CPHF.  IDoFFX=6 NUNeed=     0.
     81 vectors produced by pass  0 Test12= 4.07D-14 1.15D-09 XBig12= 9.93D-02 4.12D-02.
 AX will form    44 AO Fock derivatives at one time.
     81 vectors produced by pass  1 Test12= 4.07D-14 1.15D-09 XBig12= 3.49D-02 2.94D-02.
     81 vectors produced by pass  2 Test12= 4.07D-14 1.15D-09 XBig12= 5.67D-04 3.10D-03.
     81 vectors produced by pass  3 Test12= 4.07D-14 1.15D-09 XBig12= 7.94D-06 3.06D-04.
     81 vectors produced by pass  4 Test12= 4.07D-14 1.15D-09 XBig12= 9.75D-08 3.19D-05.
     81 vectors produced by pass  5 Test12= 4.07D-14 1.15D-09 XBig12= 9.99D-10 3.31D-06.
     81 vectors produced by pass  6 Test12= 4.07D-14 1.15D-09 XBig12= 8.03D-12 3.00D-07.
     41 vectors produced by pass  7 Test12= 4.07D-14 1.15D-09 XBig12= 5.59D-14 1.95D-08.
      4 vectors produced by pass  8 Test12= 4.07D-14 1.15D-09 XBig12= 2.20D-15 2.70D-09.
      4 vectors produced by pass  9 Test12= 4.07D-14 1.15D-09 XBig12= 4.58D-15 4.04D-09.
      2 vectors produced by pass 10 Test12= 4.07D-14 1.15D-09 XBig12= 7.49D-16 1.72D-09.
 InvSVY:  IOpt=1 It=  1 EMax= 3.46D-16
 Solved reduced A of dimension   618 with    87 vectors.
 End of Minotr F.D. properties file   721 does not exist.
 End of Minotr F.D. properties file   722 does not exist.
 End of Minotr F.D. properties file   788 does not exist.

 **********************************************************************

            Population analysis using the SCF Density.

 **********************************************************************

 Alpha  occ. eigenvalues --  -65.99482 -18.94882 -18.91541 -18.91537 -18.91485
 Alpha  occ. eigenvalues --  -18.91010 -18.90928 -18.85599 -10.04515 -10.04416
 Alpha  occ. eigenvalues --  -10.04175 -10.03790 -10.03521 -10.01250  -5.10260
 Alpha  occ. eigenvalues --   -3.44936  -3.44783  -3.44677  -0.83700  -0.83321
 Alpha  occ. eigenvalues --   -0.81515  -0.77354  -0.76016  -0.75711  -0.72247
 Alpha  occ. eigenvalues --   -0.53585  -0.51575  -0.50927  -0.41676  -0.39378
 Alpha  occ. eigenvalues --   -0.38274  -0.32906  -0.29938  -0.29684  -0.28193
 Alpha  occ. eigenvalues --   -0.27922  -0.27697  -0.26290  -0.24714  -0.24110
 Alpha  occ. eigenvalues --   -0.22955  -0.21753  -0.20250  -0.19622  -0.18207
 Alpha  occ. eigenvalues --   -0.17074  -0.15043  -0.13805  -0.12080  -0.10356
 Alpha  occ. eigenvalues --   -0.09866  -0.09535  -0.08012  -0.07568  -0.07418
 Alpha  occ. eigenvalues --   -0.06533  -0.04666  -0.03771  -0.02305  -0.00280
 Alpha  occ. eigenvalues --    0.01291
 Alpha virt. eigenvalues --    0.35929   0.36455   0.37414   0.38925   0.39465
 Alpha virt. eigenvalues --    0.40194   0.40808   0.41210   0.42737   0.43489
 Alpha virt. eigenvalues --    0.44573   0.45765   0.46765   0.47849   0.48237
 Alpha virt. eigenvalues --    0.49344   0.50158   0.51383   0.52056   0.52164
 Alpha virt. eigenvalues --    0.52647   0.54149   0.54406   0.55333   0.55757
 Alpha virt. eigenvalues --    0.56565   0.57435   0.58054   0.59037   0.61905
 Alpha virt. eigenvalues --    0.62567   0.64454   0.64756   0.65302   0.66493
 Alpha virt. eigenvalues --    0.68198   0.68541   0.69092   0.69766   0.69970
 Alpha virt. eigenvalues --    0.70345   0.71460   0.72455   0.72880   0.73844
 Alpha virt. eigenvalues --    0.74160   0.74446   0.74695   0.75305   0.75970
 Alpha virt. eigenvalues --    0.76672   0.77298   0.77429   0.78211   0.78534
 Alpha virt. eigenvalues --    0.78736   0.79955   0.80094   0.80758   0.81390
 Alpha virt. eigenvalues --    0.81887   0.81978   0.82403   0.84680   0.85581
 Alpha virt. eigenvalues --    0.85952   0.86232   0.87243   0.88456   0.88859
 Alpha virt. eigenvalues --    0.89808   0.90980   0.91931   0.92442   0.93731
 Alpha virt. eigenvalues --    0.94372   0.95720   0.96228   0.97515   0.99108
 Alpha virt. eigenvalues --    0.99272   0.99829   1.02507   1.03434   1.03983
 Alpha virt. eigenvalues --    1.05191   1.06225   1.07589   1.07811   1.08578
 Alpha virt. eigenvalues --    1.10110   1.11098   1.12168   1.13378   1.14506
 Alpha virt. eigenvalues --    1.15623   1.16004   1.16787   1.18085   1.19470
 Alpha virt. eigenvalues --    1.19722   1.20511   1.20877   1.21603   1.23649
 Alpha virt. eigenvalues --    1.24116   1.24431   1.25485   1.27810   1.29089
 Alpha virt. eigenvalues --    1.29944   1.30884   1.31877   1.33041   1.33476
 Alpha virt. eigenvalues --    1.33655   1.34676   1.34938   1.36406   1.36743
 Alpha virt. eigenvalues --    1.36944   1.38519   1.40570   1.41226   1.41949
 Alpha virt. eigenvalues --    1.42751   1.43486   1.44146   1.44567   1.45768
 Alpha virt. eigenvalues --    1.46469   1.47309   1.48083   1.48521   1.49754
 Alpha virt. eigenvalues --    1.50542   1.51278   1.52163   1.53028   1.53533
 Alpha virt. eigenvalues --    1.54382   1.55726   1.56860   1.57439   1.58847
 Alpha virt. eigenvalues --    1.59273   1.59446   1.61452   1.61798   1.62557
 Alpha virt. eigenvalues --    1.63825   1.64586   1.66411   1.67233   1.68049
 Alpha virt. eigenvalues --    1.69085   1.70174   1.70219   1.71589   1.72545
 Alpha virt. eigenvalues --    1.72833   1.73483   1.75122   1.75429   1.76399
 Alpha virt. eigenvalues --    1.77600   1.77891   1.78409   1.79284   1.80937
 Alpha virt. eigenvalues --    1.82110   1.82470   1.83801   1.84721   1.87025
 Alpha virt. eigenvalues --    1.87403   1.88024   1.88923   1.89380   1.91452
 Alpha virt. eigenvalues --    1.92482   1.93665   1.94330   1.95554   1.97345
 Alpha virt. eigenvalues --    1.97564   2.00110   2.01635   2.03705   2.04636
 Alpha virt. eigenvalues --    2.06282   2.08424   2.11602   2.13351   2.16456
 Alpha virt. eigenvalues --    2.17708   2.22231   2.22715   2.24120   2.26458
 Alpha virt. eigenvalues --    2.27314   2.28041   2.28941   2.29465   2.31240
 Alpha virt. eigenvalues --    2.33280   2.34212   2.35696   2.36428   2.38547
 Alpha virt. eigenvalues --    2.39477   2.40322   2.42156   2.43269   2.44753
 Alpha virt. eigenvalues --    2.45275   2.46135   2.48496   2.48622   2.49621
 Alpha virt. eigenvalues --    2.50536   2.52916   2.54656   2.55791   2.57749
 Alpha virt. eigenvalues --    2.58909   2.60610   2.61532   2.62607   2.63387
 Alpha virt. eigenvalues --    2.66161   2.69145   2.69644   2.70206   2.72667
 Alpha virt. eigenvalues --    2.73465   2.74985   2.75860   2.76475   2.80522
 Alpha virt. eigenvalues --    2.81715   2.84338   2.84899   2.86144   2.90368
 Alpha virt. eigenvalues --    2.91796   2.93876   2.96460   2.97381   2.97847
 Alpha virt. eigenvalues --    2.99222   2.99868   3.00773   3.01482   3.01799
 Alpha virt. eigenvalues --    3.03185   3.04392   3.05271   3.08054   3.08953
 Alpha virt. eigenvalues --    3.10106   3.11808   3.12057   3.14767   3.16083
 Alpha virt. eigenvalues --    3.16362   3.16892   3.18813   3.20004   3.20494
 Alpha virt. eigenvalues --    3.21607   3.22728   3.24746   3.25204   3.27091
 Alpha virt. eigenvalues --    3.27486   3.29129   3.30566   3.30692   3.33246
 Alpha virt. eigenvalues --    3.33490   3.34711   3.34987   3.36547   3.36669
 Alpha virt. eigenvalues --    3.37962   3.38300   3.39003   3.40327   3.41302
 Alpha virt. eigenvalues --    3.41612   3.42670   3.44386   3.46500   3.46966
 Alpha virt. eigenvalues --    3.47429   3.48073   3.49521   3.50478   3.51177
 Alpha virt. eigenvalues --    3.51867   3.53002   3.53321   3.54657   3.55924
 Alpha virt. eigenvalues --    3.57221   3.58284   3.58612   3.59626   3.60766
 Alpha virt. eigenvalues --    3.61898   3.62380   3.63411   3.65885   3.65896
 Alpha virt. eigenvalues --    3.67654   3.69215   3.70088   3.72401   3.73417
 Alpha virt. eigenvalues --    3.74358   3.75469   3.77269   3.77872   3.78478
 Alpha virt. eigenvalues --    3.80699   3.82235   3.82881   3.84966   3.85568
 Alpha virt. eigenvalues --    3.86877   3.88505   3.89840   3.90846   3.92246
 Alpha virt. eigenvalues --    3.93058   3.93538   3.93984   3.95142   3.95774
 Alpha virt. eigenvalues --    3.96746   3.99340   4.00248   4.02230   4.02785
 Alpha virt. eigenvalues --    4.03716   4.05092   4.05492   4.06070   4.07193
 Alpha virt. eigenvalues --    4.08421   4.08959   4.09787   4.10182   4.10830
 Alpha virt. eigenvalues --    4.12082   4.13035   4.13254   4.14939   4.16104
 Alpha virt. eigenvalues --    4.16946   4.18090   4.18581   4.20336   4.20604
 Alpha virt. eigenvalues --    4.22034   4.25511   4.26228   4.27115   4.28663
 Alpha virt. eigenvalues --    4.31070   4.31352   4.32184   4.33572   4.35434
 Alpha virt. eigenvalues --    4.36240   4.36942   4.38032   4.39145   4.41599
 Alpha virt. eigenvalues --    4.42387   4.42759   4.44012   4.45021   4.46233
 Alpha virt. eigenvalues --    4.47127   4.49049   4.49679   4.51157   4.52639
 Alpha virt. eigenvalues --    4.53480   4.54502   4.55518   4.55905   4.56775
 Alpha virt. eigenvalues --    4.58882   4.59549   4.60169   4.62091   4.63200
 Alpha virt. eigenvalues --    4.65566   4.66464   4.67872   4.68049   4.68737
 Alpha virt. eigenvalues --    4.69431   4.70876   4.71635   4.73318   4.74714
 Alpha virt. eigenvalues --    4.75496   4.78048   4.78966   4.84591   4.88219
 Alpha virt. eigenvalues --    4.89833   4.91195   4.92486   4.93821   4.95172
 Alpha virt. eigenvalues --    4.95290   4.96507   4.97575   4.98507   5.01321
 Alpha virt. eigenvalues --    5.03550   5.03947   5.06578   5.08120   5.10971
 Alpha virt. eigenvalues --    5.12042   5.13863   5.14387   5.15739   5.16450
 Alpha virt. eigenvalues --    5.17546   5.18818   5.20253   5.21651   5.22925
 Alpha virt. eigenvalues --    5.24564   5.25896   5.28260   5.28531   5.29736
 Alpha virt. eigenvalues --    5.30210   5.31975   5.32061   5.33731   5.37045
 Alpha virt. eigenvalues --    5.39482   5.42171   5.43250   5.44655   5.45872
 Alpha virt. eigenvalues --    5.46307   5.48150   5.49246   5.51085   5.52231
 Alpha virt. eigenvalues --    5.53556   5.55796   5.56128   5.59379   5.60834
 Alpha virt. eigenvalues --    5.63834   5.64934   5.65946   5.67966   5.68801
 Alpha virt. eigenvalues --    5.69466   5.70873   5.71532   5.75367   5.78267
 Alpha virt. eigenvalues --    5.79653   5.80754   5.82740   5.84694   5.85202
 Alpha virt. eigenvalues --    5.85828   5.86840   5.88506   5.90501   5.90808
 Alpha virt. eigenvalues --    5.92456   5.93194   5.94098   5.94737   5.96985
 Alpha virt. eigenvalues --    5.97589   6.00049   6.00670   6.02140   6.03191
 Alpha virt. eigenvalues --    6.05097   6.05641   6.07643   6.10139   6.10758
 Alpha virt. eigenvalues --    6.11763   6.13762   6.20899   6.26142   6.31208
 Alpha virt. eigenvalues --    6.37580   6.38236   6.38658   6.41308   6.42271
 Alpha virt. eigenvalues --    6.46684   6.48767   6.49495   6.52049   6.53231
 Alpha virt. eigenvalues --    6.54422   6.55780   6.58695   6.64293   6.67211
 Alpha virt. eigenvalues --    6.69262   6.73560   6.77183   6.88326   6.93914
 Alpha virt. eigenvalues --    6.95400   6.99281   7.00513   7.01308   7.05166
 Alpha virt. eigenvalues --    7.07216   7.08635   7.09107   7.11527   7.12990
 Alpha virt. eigenvalues --    7.14238   7.17182   7.18947   7.21657   7.22838
 Alpha virt. eigenvalues --    7.23535   7.28195   7.29368   7.32084   7.36423
 Alpha virt. eigenvalues --    7.39336   7.41210   7.44263   7.46734   7.49519
 Alpha virt. eigenvalues --    7.50835   7.52024   7.53634   7.55890   7.61983
 Alpha virt. eigenvalues --    7.63337   7.65578   7.66736   7.70938   7.76942
 Alpha virt. eigenvalues --    7.78874   7.85933   7.88846   7.92620   7.95704
 Alpha virt. eigenvalues --    8.05027  12.38080  23.64180  23.68137  23.69938
 Alpha virt. eigenvalues --   23.81228  23.82569  23.86070  44.25680  44.37069
 Alpha virt. eigenvalues --   44.55244  44.56900  44.62861  44.69695  44.79792
          Condensed to atoms (all electrons):
               1          2          3          4          5          6
     1  Si  11.533406   0.329001   0.338951   0.350210   0.364270   0.067537
     2  O    0.329001   8.138082  -0.026047   0.006306  -0.047975  -0.018108
     3  O    0.338951  -0.026047   8.063190  -0.047491   0.001890  -0.015049
     4  O    0.350210   0.006306  -0.047491   8.067466  -0.033948  -0.007996
     5  O    0.364270  -0.047975   0.001890  -0.033948   8.053465  -0.023406
     6  O    0.067537  -0.018108  -0.015049  -0.007996  -0.023406   8.468742
     7  O    0.479064  -0.068677  -0.045128  -0.036160  -0.048842   0.000168
     8  H   -0.061630   0.012316   0.000558   0.004756  -0.000778   0.000040
     9  C   -0.078686  -0.002244   0.000451   0.364833  -0.111775   0.003044
    10  H    0.006265  -0.000114   0.000413  -0.061419   0.011552  -0.000127
    11  H   -0.003491   0.000099  -0.000054  -0.047795   0.007466  -0.000882
    12  C   -0.036143   0.000787  -0.001347  -0.102696   0.380857  -0.007224
    13  H   -0.011748  -0.000317  -0.000053   0.006337  -0.046303   0.001661
    14  H   -0.007748   0.001142   0.000831   0.010112  -0.053151   0.026996
    15  C   -0.062786   0.363420  -0.099067  -0.000838   0.001266   0.028800
    16  H   -0.014133  -0.046825   0.005429  -0.000012  -0.000528   0.001880
    17  H    0.000974  -0.052054   0.010774   0.000271   0.000992   0.002456
    18  C   -0.032780  -0.114289   0.368128   0.002772  -0.002845  -0.004357
    19  H   -0.001740   0.013164  -0.062795   0.000581  -0.000005  -0.000520
    20  H   -0.002282   0.008462  -0.053734   0.000033   0.000121  -0.000000
    21  C   -0.034460   0.003457  -0.010349  -0.004692   0.000709   0.351228
    22  H   -0.010076   0.000750   0.015186   0.008405   0.000538  -0.076617
    23  H    0.005067  -0.000255   0.000338   0.000047  -0.000581  -0.057451
    24  C    0.004016  -0.001297   0.001100   0.001401  -0.000171  -0.113317
    25  H    0.000218  -0.000011  -0.000063   0.000005   0.000005   0.008091
    26  H   -0.002042  -0.000287  -0.000367  -0.000006   0.000008   0.008634
    27  O    0.000038   0.000049  -0.000123  -0.000021  -0.000025  -0.067040
    28  H    0.000359   0.001231  -0.000127   0.000142   0.000219   0.121366
               7          8          9         10         11         12
     1  Si   0.479064  -0.061630  -0.078686   0.006265  -0.003491  -0.036143
     2  O   -0.068677   0.012316  -0.002244  -0.000114   0.000099   0.000787
     3  O   -0.045128   0.000558   0.000451   0.000413  -0.000054  -0.001347
     4  O   -0.036160   0.004756   0.364833  -0.061419  -0.047795  -0.102696
     5  O   -0.048842  -0.000778  -0.111775   0.011552   0.007466   0.380857
     6  O    0.000168   0.000040   0.003044  -0.000127  -0.000882  -0.007224
     7  O    7.946394   0.305499  -0.005009   0.005137  -0.000715  -0.008304
     8  H    0.305499   0.617876  -0.000166  -0.000756   0.000099   0.000057
     9  C   -0.005009  -0.000166   4.903466   0.346125   0.336109   0.197900
    10  H    0.005137  -0.000756   0.346125   0.880730  -0.112855  -0.042022
    11  H   -0.000715   0.000099   0.336109  -0.112855   0.861791  -0.011508
    12  C   -0.008304   0.000057   0.197900  -0.042022  -0.011508   4.836306
    13  H   -0.000088   0.000062   0.016636  -0.030630   0.015819   0.284559
    14  H   -0.000365  -0.000088  -0.079530   0.019479  -0.018916   0.417387
    15  C   -0.008886   0.001901  -0.002400  -0.000068   0.000102   0.002789
    16  H    0.000082  -0.000625  -0.000096   0.000002  -0.000000  -0.000039
    17  H   -0.000545   0.000551   0.000326  -0.000004   0.000001   0.000401
    18  C   -0.005730  -0.003034  -0.001858   0.000265  -0.000027  -0.001451
    19  H    0.006753   0.001727   0.000361  -0.000023   0.000000  -0.000113
    20  H   -0.000454   0.000061  -0.000034  -0.000000  -0.000002   0.000082
    21  C   -0.000320  -0.000036   0.002976  -0.000098   0.001362  -0.008898
    22  H    0.000187  -0.000047   0.001685   0.000206  -0.001661  -0.004939
    23  H    0.000002   0.000004  -0.005730   0.000083   0.001455   0.010335
    24  C    0.000007  -0.000002   0.000510   0.000035  -0.000360   0.000801
    25  H    0.000000  -0.000000  -0.000036   0.000000   0.000005   0.000066
    26  H   -0.000002   0.000000  -0.000039  -0.000000   0.000011   0.000016
    27  O    0.000000   0.000000  -0.000013  -0.000000   0.000005   0.000095
    28  H    0.000003  -0.000008   0.000022   0.000003   0.000007  -0.001028
              13         14         15         16         17         18
     1  Si  -0.011748  -0.007748  -0.062786  -0.014133   0.000974  -0.032780
     2  O   -0.000317   0.001142   0.363420  -0.046825  -0.052054  -0.114289
     3  O   -0.000053   0.000831  -0.099067   0.005429   0.010774   0.368128
     4  O    0.006337   0.010112  -0.000838  -0.000012   0.000271   0.002772
     5  O   -0.046303  -0.053151   0.001266  -0.000528   0.000992  -0.002845
     6  O    0.001661   0.026996   0.028800   0.001880   0.002456  -0.004357
     7  O   -0.000088  -0.000365  -0.008886   0.000082  -0.000545  -0.005730
     8  H    0.000062  -0.000088   0.001901  -0.000625   0.000551  -0.003034
     9  C    0.016636  -0.079530  -0.002400  -0.000096   0.000326  -0.001858
    10  H   -0.030630   0.019479  -0.000068   0.000002  -0.000004   0.000265
    11  H    0.015819  -0.018916   0.000102  -0.000000   0.000001  -0.000027
    12  C    0.284559   0.417387   0.002789  -0.000039   0.000401  -0.001451
    13  H    0.898384  -0.095935  -0.000126  -0.000010   0.000022  -0.000056
    14  H   -0.095935   0.768498  -0.000249   0.000006  -0.000168   0.000442
    15  C   -0.000126  -0.000249   4.853290   0.302896   0.394574   0.220039
    16  H   -0.000010   0.000006   0.302896   0.889113  -0.092836   0.007397
    17  H    0.000022  -0.000168   0.394574  -0.092836   0.779437  -0.074886
    18  C   -0.000056   0.000442   0.220039   0.007397  -0.074886   4.860093
    19  H    0.000001   0.000005  -0.043036  -0.030825   0.020258   0.332774
    20  H   -0.000000  -0.000002  -0.025878   0.016077  -0.018604   0.357251
    21  C    0.000618   0.002558  -0.008106   0.000615  -0.002033   0.000793
    22  H    0.000014   0.003449   0.001334  -0.000164  -0.001863  -0.002380
    23  H   -0.000448  -0.008435   0.002223   0.000046  -0.000352  -0.000762
    24  C    0.000011   0.000184  -0.001087  -0.001058   0.009891   0.001952
    25  H   -0.000001  -0.000104  -0.000865   0.000014   0.001531   0.000501
    26  H   -0.000002  -0.000095   0.017764   0.000378  -0.018273  -0.011327
    27  O   -0.000001  -0.000187  -0.013659   0.000148   0.021718   0.002407
    28  H   -0.000001   0.000991   0.002300   0.000415  -0.008115   0.000077
              19         20         21         22         23         24
     1  Si  -0.001740  -0.002282  -0.034460  -0.010076   0.005067   0.004016
     2  O    0.013164   0.008462   0.003457   0.000750  -0.000255  -0.001297
     3  O   -0.062795  -0.053734  -0.010349   0.015186   0.000338   0.001100
     4  O    0.000581   0.000033  -0.004692   0.008405   0.000047   0.001401
     5  O   -0.000005   0.000121   0.000709   0.000538  -0.000581  -0.000171
     6  O   -0.000520  -0.000000   0.351228  -0.076617  -0.057451  -0.113317
     7  O    0.006753  -0.000454  -0.000320   0.000187   0.000002   0.000007
     8  H    0.001727   0.000061  -0.000036  -0.000047   0.000004  -0.000002
     9  C    0.000361  -0.000034   0.002976   0.001685  -0.005730   0.000510
    10  H   -0.000023  -0.000000  -0.000098   0.000206   0.000083   0.000035
    11  H    0.000000  -0.000002   0.001362  -0.001661   0.001455  -0.000360
    12  C   -0.000113   0.000082  -0.008898  -0.004939   0.010335   0.000801
    13  H    0.000001  -0.000000   0.000618   0.000014  -0.000448   0.000011
    14  H    0.000005  -0.000002   0.002558   0.003449  -0.008435   0.000184
    15  C   -0.043036  -0.025878  -0.008106   0.001334   0.002223  -0.001087
    16  H   -0.030825   0.016077   0.000615  -0.000164   0.000046  -0.001058
    17  H    0.020258  -0.018604  -0.002033  -0.001863  -0.000352   0.009891
    18  C    0.332774   0.357251   0.000793  -0.002380  -0.000762   0.001952
    19  H    0.896472  -0.105368  -0.000364   0.000768  -0.000002   0.000329
    20  H   -0.105368   0.838337   0.005667  -0.002129  -0.000042  -0.003655
    21  C   -0.000364   0.005667   4.712004   0.452330   0.255291   0.282494
    22  H    0.000768  -0.002129   0.452330   0.816555  -0.109340  -0.094649
    23  H   -0.000002  -0.000042   0.255291  -0.109340   1.045958  -0.085744
    24  C    0.000329  -0.003655   0.282494  -0.094649  -0.085744   5.007235
    25  H   -0.000008  -0.000043  -0.001733   0.004002  -0.006240   0.339732
    26  H   -0.000102   0.003095  -0.071969  -0.008924   0.024450   0.383425
    27  O   -0.000029  -0.000468  -0.063676   0.003684   0.009141   0.314586
    28  H   -0.000030   0.000248  -0.007824   0.012994   0.000372  -0.137743
              25         26         27         28
     1  Si   0.000218  -0.002042   0.000038   0.000359
     2  O   -0.000011  -0.000287   0.000049   0.001231
     3  O   -0.000063  -0.000367  -0.000123  -0.000127
     4  O    0.000005  -0.000006  -0.000021   0.000142
     5  O    0.000005   0.000008  -0.000025   0.000219
     6  O    0.008091   0.008634  -0.067040   0.121366
     7  O    0.000000  -0.000002   0.000000   0.000003
     8  H   -0.000000   0.000000   0.000000  -0.000008
     9  C   -0.000036  -0.000039  -0.000013   0.000022
    10  H    0.000000  -0.000000  -0.000000   0.000003
    11  H    0.000005   0.000011   0.000005   0.000007
    12  C    0.000066   0.000016   0.000095  -0.001028
    13  H   -0.000001  -0.000002  -0.000001  -0.000001
    14  H   -0.000104  -0.000095  -0.000187   0.000991
    15  C   -0.000865   0.017764  -0.013659   0.002300
    16  H    0.000014   0.000378   0.000148   0.000415
    17  H    0.001531  -0.018273   0.021718  -0.008115
    18  C    0.000501  -0.011327   0.002407   0.000077
    19  H   -0.000008  -0.000102  -0.000029  -0.000030
    20  H   -0.000043   0.003095  -0.000468   0.000248
    21  C   -0.001733  -0.071969  -0.063676  -0.007824
    22  H    0.004002  -0.008924   0.003684   0.012994
    23  H   -0.006240   0.024450   0.009141   0.000372
    24  C    0.339732   0.383425   0.314586  -0.137743
    25  H    0.778417  -0.073352  -0.041356   0.010477
    26  H   -0.073352   0.804424  -0.065271   0.010748
    27  O   -0.041356  -0.065271   8.093275   0.318433
    28  H    0.010477   0.010748   0.318433   0.449446
 Mulliken charges:
               1
     1  Si   0.880368
     2  O   -0.499766
     3  O   -0.445449
     4  O   -0.480605
     5  O   -0.453022
     6  O   -0.698548
     7  O   -0.514068
     8  H    0.121662
     9  C    0.113173
    10  H   -0.022176
    11  H   -0.026066
    12  C    0.093272
    13  H   -0.038405
    14  H    0.012893
    15  C    0.074352
    16  H   -0.037347
    17  H    0.025554
    18  C    0.100889
    19  H   -0.028233
    20  H   -0.016738
    21  C    0.142456
    22  H   -0.009300
    23  H   -0.079433
    24  C    0.091375
    25  H   -0.019253
    26  H   -0.000895
    27  O   -0.511710
    28  H    0.225021
 Sum of Mulliken charges =  -2.00000
 Mulliken charges with hydrogens summed into heavy atoms:
               1
     1  Si   0.880368
     2  O   -0.499766
     3  O   -0.445449
     4  O   -0.480605
     5  O   -0.453022
     6  O   -0.698548
     7  O   -0.392407
     9  C    0.064931
    12  C    0.067760
    15  C    0.062559
    18  C    0.055918
    21  C    0.053723
    24  C    0.071227
    27  O   -0.286689
 APT charges:
               1
     1  Si  -0.055310
     2  O   -0.373315
     3  O   -0.358542
     4  O   -0.378450
     5  O   -0.338330
     6  O   -0.659749
     7  O   -0.549260
     8  H    0.409318
     9  C   -0.568084
    10  H    0.421965
    11  H    0.324364
    12  C   -0.502431
    13  H    0.430325
    14  H    0.174067
    15  C   -0.523700
    16  H    0.419344
    17  H    0.160511
    18  C   -0.531594
    19  H    0.373510
    20  H    0.294809
    21  C   -0.307342
    22  H    0.080366
    23  H    0.208692
    24  C   -0.741558
    25  H    0.583285
    26  H    0.146830
    27  O   -0.103795
    28  H   -0.035925
 Sum of APT charges =  -2.00000
 APT charges with hydrogens summed into heavy atoms:
               1
     1  Si  -0.055310
     2  O   -0.373315
     3  O   -0.358542
     4  O   -0.378450
     5  O   -0.338330
     6  O   -0.659749
     7  O   -0.139942
     9  C    0.178245
    12  C    0.101960
    15  C    0.056155
    18  C    0.136725
    21  C   -0.018284
    24  C   -0.011444
    27  O   -0.139720
 Electronic spatial extent (au):  <R**2>=           2945.6410
 Charge=             -2.0000 electrons
 Dipole moment (field-independent basis, Debye):
    X=             -0.6457    Y=              0.9310    Z=             -0.7227  Tot=              1.3439
 Quadrupole moment (field-independent basis, Debye-Ang):
   XX=           -146.7924   YY=           -114.1334   ZZ=           -114.7111
   XY=              7.0853   XZ=             -7.1306   YZ=              2.3883
 Traceless Quadrupole moment (field-independent basis, Debye-Ang):
   XX=            -21.5801   YY=             11.0789   ZZ=             10.5012
   XY=              7.0853   XZ=             -7.1306   YZ=              2.3883
 Octapole moment (field-independent basis, Debye-Ang**2):
  XXX=            -78.0108  YYY=              7.8914  ZZZ=              6.5690  XYY=             -6.1477
  XXY=             24.2099  XXZ=            -11.7451  XZZ=              2.5124  YZZ=              0.6514
  YYZ=              5.3104  XYZ=             -2.1817
 Hexadecapole moment (field-independent basis, Debye-Ang**3):
 XXXX=          -2715.8752 YYYY=          -1475.1628 ZZZZ=           -570.9644 XXXY=             66.4320
 XXXZ=            -95.0111 YYYX=            -39.7087 YYYZ=              2.7902 ZZZX=             21.2542
 ZZZY=             -5.7811 XXYY=           -644.3953 XXZZ=           -495.8932 YYZZ=           -351.0657
 XXYZ=             27.5748 YYXZ=             -6.2494 ZZXY=            -10.5634
 N-N= 1.246153604460D+03 E-N=-5.017284978555D+03  KE= 1.049451252400D+03
  Exact polarizability:       0.000       0.000       0.000       0.000       0.000       0.000
 Approx polarizability:     140.451       3.260     143.480      -3.625       3.041     134.239
   1 Symmetry operations used in ECPInt.
 ECPInt:  NShTT=   29161 NPrTT=   80163 LenC2=   27125 LenP2D=   56434.
 LDataN:  DoStor=T MaxTD1= 8 Len=  415
 Calling FoFJK, ICntrl=    100127 FMM=F ISym2X=0 I1Cent= 0 IOpClX= 0 NMat=1 NMatS=1 NMatT=0.
 -------------------------------------------------------------------
 Center     Atomic                   Forces (Hartrees/Bohr)
 Number     Number              X              Y              Z
 -------------------------------------------------------------------
      1       14           0.000006107   -0.000001902    0.000000119
      2        8          -0.000000000   -0.000000644   -0.000000620
      3        8           0.000001544    0.000000428   -0.000001362
      4        8          -0.000000520   -0.000001404    0.000000729
      5        8          -0.000000515   -0.000000122    0.000000722
      6        8          -0.000002803   -0.000003263   -0.000001529
      7        8          -0.000000250    0.000001601   -0.000001386
      8        1           0.000000162    0.000000738   -0.000001994
      9        6          -0.000000817    0.000000484   -0.000000347
     10        1          -0.000000079    0.000000632   -0.000000251
     11        1           0.000000022   -0.000000267    0.000000372
     12        6          -0.000000539    0.000001137   -0.000000312
     13        1          -0.000000866    0.000001226   -0.000000065
     14        1          -0.000002274    0.000001009    0.000002120
     15        6           0.000000450   -0.000001670   -0.000001588
     16        1           0.000000419    0.000000218   -0.000001130
     17        1          -0.000002474    0.000009464    0.000001971
     18        6           0.000000453   -0.000001281   -0.000002173
     19        1           0.000001037   -0.000000464   -0.000001240
     20        1           0.000001458   -0.000000882   -0.000000655
     21        6           0.000000170   -0.000000471    0.000001617
     22        1          -0.000000122    0.000000276    0.000000225
     23        1          -0.000000191   -0.000001322    0.000001727
     24        6           0.000000307   -0.000000068    0.000001971
     25        1           0.000000199   -0.000001484    0.000001702
     26        1          -0.000000103   -0.000001847    0.000000538
     27        8          -0.000000286   -0.000000056    0.000000311
     28        1          -0.000000488   -0.000000069    0.000000528
 -------------------------------------------------------------------
 Cartesian Forces:  Max     0.000009464 RMS     0.000001678
 IRC-IRC-IRC-IRC-IRC-IRC-IRC-IRC-IRC-IRC-IRC-IRC-IRC-IRC-IRC-IRC-IRC-IRC
          ******** Start new reaction path calculation ********
 Supplied step size of   0.1000 bohr.
    Integration on MW PES will use step size of   0.2952 sqrt(amu)*bohr.
 Point Number:   0          Path Number:   1
 Calculating another point on the path.
 IRC-IRC-IRC-IRC-IRC-IRC-IRC-IRC-IRC-IRC-IRC-IRC-IRC-IRC-IRC-IRC-IRC-IRC
                          Input orientation:                          
 ---------------------------------------------------------------------
 Center     Atomic      Atomic             Coordinates (Angstroms)
 Number     Number       Type             X           Y           Z
 ---------------------------------------------------------------------
      1         14           0       -0.987000    0.373848   -0.024837
      2          8           0       -0.318438    1.477745    1.181702
      3          8           0        0.019834    1.132667   -1.235240
      4          8           0       -1.340040   -0.871133   -1.190137
      5          8           0       -1.522100   -0.686217    1.257597
      6          8           0        1.106225   -0.916958    0.399177
      7          8           0       -2.453143    1.281348   -0.243889
      8          1           0       -2.452038    1.913526    0.471437
      9          6           0       -1.994603   -1.955211   -0.646725
     10          1           0       -3.093186   -1.854434   -0.761441
     11          1           0       -1.695325   -2.888994   -1.153290
     12          6           0       -1.637350   -1.997344    0.845379
     13          1           0       -2.420977   -2.523064    1.420584
     14          1           0       -0.681974   -2.527314    0.979419
     15          6           0        0.817720    2.125225    0.735067
     16          1           0        0.915113    3.119254    1.207133
     17          1           0        1.718986    1.540421    0.968594
     18          6           0        0.672429    2.257521   -0.786361
     19          1           0        0.091775    3.174963   -1.021859
     20          1           0        1.658277    2.361395   -1.270497
     21          6           0        1.828399   -1.301176   -0.681802
     22          1           0        1.396879   -0.970402   -1.642672
     23          1           0        1.940964   -2.416991   -0.753218
     24          6           0        3.260295   -0.710646   -0.542282
     25          1           0        4.012740   -1.296244   -1.092800
     26          1           0        3.270075    0.319855   -0.934974
     27          8           0        3.564559   -0.709990    0.834620
     28          1           0        2.617144   -0.725601    1.161915
 ---------------------------------------------------------------------
                    Distance matrix (angstroms):
                    1          2          3          4          5
     1  Si   0.000000
     2  O    1.766720   0.000000
     3  O    1.747740   2.464775   0.000000
     4  O    1.741418   3.490919   2.422087   0.000000
     5  O    1.747772   2.477357   3.449657   2.461450   0.000000
     6  O    2.495507   2.894237   2.837697   2.917572   2.774566
     7  O    1.738136   2.574461   2.668426   2.601452   2.644355
     8  H    2.182483   2.290552   3.103649   3.428073   2.870800
     9  C    2.612762   4.235312   3.733537   1.378033   2.336674
    10  H    3.153387   4.751679   4.340294   2.055282   2.812394
    11  H    3.524381   5.139690   4.372898   2.049231   3.270260
    12  C    2.608214   3.732142   4.107579   2.345222   1.379224
    13  H    3.540852   4.525949   5.135692   3.273097   2.051475
    14  H    3.085176   4.026608   4.335056   2.807661   2.042751
    15  C    2.627126   1.381871   2.346040   4.164192   3.694861
    16  H    3.559922   2.053496   3.273109   5.172601   4.519311
    17  H    3.109687   2.049497   2.812520   4.453465   3.942851
    18  C    2.623327   2.337335   1.375743   3.741863   4.202298
    19  H    3.162919   2.811495   2.054673   4.295265   4.765419
    20  H    3.535463   3.271317   2.048295   4.409717   5.078779
    21  C    3.341223   3.975419   3.082336   3.237646   3.919857
    22  H    3.179194   4.112520   2.546596   2.775855   4.124652
    23  H    4.110023   4.900793   4.064868   3.653158   4.362541
    24  C    4.413999   4.535251   3.791910   4.648500   5.109937
    25  H    5.378396   5.623831   4.675810   5.370517   6.044084
    26  H    4.353613   4.324170   3.363761   4.768304   5.365117
    27  O    4.757106   4.470382   4.499420   5.308550   5.104269
    28  H    3.950572   3.670527   3.993186   4.605718   4.140537
                    6          7          8          9         10
     6  O    0.000000
     7  O    4.232633   0.000000
     8  H    4.547317   0.954642   0.000000
     9  C    3.433222   3.293608   4.052981   0.000000
    10  H    4.456562   3.242012   4.016040   1.109144   0.000000
    11  H    3.761351   4.335094   5.126065   1.103687   1.782659
    12  C    2.982203   3.549907   4.012287   1.534854   2.172959
    13  H    4.007992   4.152716   4.537088   2.185867   2.379110
    14  H    2.475396   4.374863   4.807518   2.166712   3.049148
    15  C    3.074237   3.516963   3.287192   5.144752   5.776886
    16  H    4.120719   4.102258   3.651402   6.136240   6.684260
    17  H    2.595847   4.352458   4.217086   5.349714   6.138002
    18  C    3.416283   3.319095   3.385658   4.987952   5.575720
    19  H    4.448850   3.266133   3.208137   5.550891   5.958744
    20  H    3.720238   4.373123   4.486603   5.689088   6.372500
    21  C    1.355608   5.019243   5.475984   3.878703   4.953225
    22  H    2.063124   4.674360   5.253633   3.669320   4.660340
    23  H    2.067583   5.765874   6.289007   3.963996   5.065492
    24  C    2.359858   6.058090   6.367468   5.401278   6.459335
    25  H    3.289025   7.012295   7.385311   6.059818   7.135514
    26  H    2.826997   5.844424   6.104126   5.742460   6.726718
    27  O    2.505165   6.429724   6.573749   5.886360   6.941378
    28  H    1.703310   5.631336   5.756592   5.104051   6.130370
                   11         12         13         14         15
    11  H    0.000000
    12  C    2.189310   0.000000
    13  H    2.699130   1.105130   0.000000
    14  H    2.388753   1.100718   1.794095   0.000000
    15  C    5.918080   4.799491   5.706635   4.894375   0.000000
    16  H    6.963119   5.729355   6.558263   5.872501   1.104729
    17  H    5.981607   4.878109   5.818548   4.723472   1.099459
    18  C    5.676927   5.108965   6.106861   5.277028   1.534065
    19  H    6.323177   5.764478   6.689317   6.092599   2.171575
    20  H    6.231129   5.859752   6.909426   5.868422   2.187372
    21  C    3.893597   3.850760   4.895940   3.250391   3.843073
    22  H    3.671814   4.056052   5.135204   3.690660   3.946134
    23  H    3.688555   3.941567   4.874751   3.145474   4.910029
    24  C    5.447632   5.250536   6.278101   4.599711   3.954739
    25  H    5.926425   6.014283   7.015333   5.277307   5.025505
    26  H    5.916043   5.711557   6.783724   5.233542   3.473103
    27  O    6.030441   5.358848   6.281499   4.621328   3.948858
    28  H    5.351433   4.451769   5.355413   3.763463   3.398137
                   16         17         18         19         20
    16  H    0.000000
    17  H    1.787688   0.000000
    18  C    2.185291   2.165498   0.000000
    19  H    2.376846   3.046547   1.110999   0.000000
    20  H    2.695420   2.385626   1.103211   1.782594   0.000000
    21  C    4.893094   3.287924   3.743196   4.813244   3.713479
    22  H    5.007871   3.636852   3.417247   4.390074   3.362694
    23  H    5.961992   4.321460   4.843690   5.895898   4.814609
    24  C    4.819592   3.118603   3.945458   5.036613   3.540367
    25  H    5.863583   4.190146   4.886801   5.947327   4.353550
    26  H    4.239233   2.742121   3.244133   4.273264   2.622662
    27  O    4.671342   2.913492   4.449507   5.531691   4.183161
    28  H    4.204981   2.445182   4.059152   5.134273   4.045442
                   21         22         23         24         25
    21  C    0.000000
    22  H    1.104035   0.000000
    23  H    1.123750   1.783193   0.000000
    24  C    1.555158   2.179598   2.167196   0.000000
    25  H    2.222676   2.692816   2.379841   1.100985   0.000000
    26  H    2.184094   2.382113   3.047933   1.102830   1.785564
    27  O    2.379766   3.302064   2.840975   1.410120   2.063858
    28  H    2.086312   3.068336   2.643057   1.821580   2.712391
                   26         27         28
    26  H    0.000000
    27  O    2.068518   0.000000
    28  H    2.432332   1.002477   0.000000
 Symmetry turned off by external request.
 Stoichiometry    C6H14O7Si(2-)
 Framework group  C1[X(C6H14O7Si)]
 Deg. of freedom    78
 Full point group                 C1      NOp   1
 Rotational constants (GHZ):           0.8559760           0.5558669           0.4304819
 Standard basis: def2TZVPP (5D, 7F)
   641 basis functions,   970 primitive gaussians,   726 cartesian basis functions
    61 alpha electrons       61 beta electrons
       nuclear repulsion energy      1247.5396756371 Hartrees.
 NAtoms=   28 NActive=   28 NUniq=   28 SFac= 1.00D+00 NAtFMM=   60 NAOKFM=F Big=F
 Integral buffers will be    131072 words long.
 Raffenetti 2 integral format.
 Two-electron integral symmetry is turned off.
 Nuclear repulsion after empirical dispersion term =     1247.5197127578 Hartrees.
 One-electron integrals computed using PRISM.
   1 Symmetry operations used in ECPInt.
 ECPInt:  NShTT=   29161 NPrTT=   80163 LenC2=   27134 LenP2D=   56471.
 LDataN:  DoStor=T MaxTD1= 6 Len=  172
 NBasis=   641 RedAO= T EigKep=  2.13D-04  NBF=   641
 NBsUse=   641 1.00D-06 EigRej= -1.00D+00 NBFU=   641
 Initial guess from the checkpoint file:  "IRC_depEGattPL2_forward.chk"
 B after Tr=     0.056644   -0.021572   -0.018883
         Rot=    1.000000    0.000013   -0.000015   -0.000002 Ang=   0.00 deg.
 ExpMin= 7.01D-02 ExpMax= 4.48D+04 ExpMxC= 1.53D+03 IAcc=3 IRadAn=         5 AccDes= 0.00D+00
 Harris functional with IExCor= 4639 and IRadAn=       5 diagonalized for initial guess.
 HarFok:  IExCor= 4639 AccDes= 0.00D+00 IRadAn=         5 IDoV= 1 UseB2=F ITyADJ=14
 ICtDFT=  3500011 ScaDFX=  1.000000  1.000000  1.000000  1.000000
 FoFCou: FMM=F IPFlag=           0 FMFlag=      100000 FMFlg1=           0
         NFxFlg=           0 DoJE=T BraDBF=F KetDBF=T FulRan=T
         wScrn=  0.000000 ICntrl=       500 IOpCl=  0 I1Cent=   200000004 NGrid=           0
         NMat0=    1 NMatS0=      1 NMatT0=    0 NMatD0=    1 NMtDS0=    0 NMtDT0=    0
 Symmetry not used in FoFCou.
 Requested convergence on RMS density matrix=1.00D-08 within 128 cycles.
 Requested convergence on MAX density matrix=1.00D-06.
 Requested convergence on             energy=1.00D-06.
 No special actions if energy rises.
 Integral accuracy reduced to 1.0D-05 until final iterations.
 Initial convergence to 1.0D-05 achieved.  Increase integral accuracy.
 SCF Done:  E(RwB97XD) =  -1053.33010622     A.U. after   11 cycles
            NFock= 11  Conv=0.42D-08     -V/T= 2.0037
 DoSCS=F DFT=T ScalE2(SS,OS)=  1.000000  1.000000
 Range of M.O.s used for correlation:     1   641
 NBasis=   641 NAE=    61 NBE=    61 NFC=     0 NFV=     0
 NROrb=    641 NOA=    61 NOB=    61 NVA=   580 NVB=   580

 **** Warning!!: The largest alpha MO coefficient is  0.13128820D+02

 Symmetrizing basis deriv contribution to polar:
 IMax=3 JMax=2 DiffMx= 0.00D+00
   1 Symmetry operations used in ECPInt.
 ECPInt:  NShTT=   29161 NPrTT=   80163 LenC2=   27134 LenP2D=   56471.
 LDataN:  DoStor=T MaxTD1= 7 Len=  274
 Calling FoFJK, ICntrl=      2127 FMM=F ISym2X=0 I1Cent= 0 IOpClX= 0 NMat=1 NMatS=1 NMatT=0.
 -------------------------------------------------------------------
 Center     Atomic                   Forces (Hartrees/Bohr)
 Number     Number              X              Y              Z
 -------------------------------------------------------------------
      1       14           0.000396412   -0.000223581    0.000051377
      2        8           0.000113881   -0.000011014    0.000021398
      3        8           0.000065690    0.000060501   -0.000051477
      4        8           0.000056886   -0.000081644   -0.000015640
      5        8           0.000030949   -0.000058189    0.000027628
      6        8          -0.000256509    0.000239096   -0.000107731
      7        8           0.000128193   -0.000057154    0.000030552
      8        1           0.000005807   -0.000028357   -0.000018579
      9        6          -0.000000523    0.000004972   -0.000010302
     10        1           0.000006944    0.000003837    0.000000397
     11        1          -0.000006661    0.000002837    0.000002405
     12        6          -0.000015993   -0.000013865    0.000003127
     13        1          -0.000001820    0.000000250   -0.000001215
     14        1          -0.000005918   -0.000004488    0.000001394
     15        6           0.000008154    0.000031561   -0.000008081
     16        1          -0.000001497   -0.000002346   -0.000002014
     17        1          -0.000006710    0.000028279   -0.000003153
     18        6          -0.000025498    0.000036491   -0.000024312
     19        1           0.000000695   -0.000005500    0.000002213
     20        1          -0.000010033    0.000008616    0.000001017
     21        6          -0.000144770    0.000053033   -0.000011763
     22        1          -0.000002955   -0.000008281    0.000021738
     23        1          -0.000025075    0.000033933    0.000013759
     24        6          -0.000127842    0.000004240    0.000034144
     25        1          -0.000017465   -0.000003824    0.000005763
     26        1          -0.000005171   -0.000008054    0.000001075
     27        8          -0.000160413   -0.000008937    0.000036174
     28        1           0.000001240    0.000007589    0.000000106
 -------------------------------------------------------------------
 Cartesian Forces:  Max     0.000396412 RMS     0.000075806
 IRC-IRC-IRC-IRC-IRC-IRC-IRC-IRC-IRC-IRC-IRC-IRC-IRC-IRC-IRC-IRC-IRC-IRC
 Pt  1 Step number   1 out of a maximum of 100
 Modified Bulirsch-Stoer Extrapolation Cycles:
    EPS =    0.000010000000000
      PEZero:  N= 2 I= 1 D=  7.69D-04 Err=  4.68D-03
      PEZero:  N= 3 I= 2 D=  7.69D-04 Err=  7.54D-03
      PEZero:  N= 3 I= 1 D=  1.54D-03 Err=  6.63D-03
      PEZero:  N= 4 I= 3 D=  3.84D-04 Err=  1.30D-02
      PEZero:  N= 4 I= 2 D=  1.15D-03 Err=  9.75D-03
      PEZero:  N= 4 I= 1 D=  1.92D-03 Err=  7.72D-03
      PEZero:  N= 5 I= 4 D=  3.84D-04 Err=  1.96D-02
      PEZero:  N= 5 I= 3 D=  7.69D-04 Err=  1.64D-02
      PEZero:  N= 5 I= 2 D=  1.54D-03 Err=  1.15D-02
      PEZero:  N= 5 I= 1 D=  2.31D-03 Err=  8.96D-03
      PEZero:  N= 6 I= 5 D=  1.92D-04 Err=  3.35D-02
      PEZero:  N= 6 I= 4 D=  5.77D-04 Err=  2.51D-02
      PEZero:  N= 6 I= 3 D=  9.61D-04 Err=  2.02D-02
      PEZero:  N= 6 I= 2 D=  1.73D-03 Err=  1.41D-02
      PEZero:  N= 6 I= 1 D=  2.50D-03 Err=  1.10D-02
      PEZero:  N= 7 I= 6 D=  1.92D-04 Err=  3.81D-02
      PEZero:  N= 7 I= 5 D=  3.84D-04 Err=  2.37D-02
      PEZero:  N= 7 I= 4 D=  7.69D-04 Err=  1.12D-02
      PEZero:  N= 7 I= 3 D=  1.15D-03 Err=  4.42D-03
      PEZero:  N= 7 I= 2 D=  1.92D-03 Err=  7.59D-04
      PEZero:  N= 7 I= 1 D=  2.69D-03 Err=  9.84D-04
      PEZero:  N= 8 I= 7 D=  9.61D-05 Err=  1.25D-02
      PEZero:  N= 8 I= 6 D=  2.88D-04 Err=  2.15D-02
      PEZero:  N= 9 I= 8 D=  9.61D-05 Err=  2.81D-04
      PEZero:  N= 9 I= 7 D=  1.92D-04 Err=  1.21D-02
      PEZero:  N=10 I= 9 D=  4.80D-05 Err=  6.12D-05
      PEZero:  N=10 I= 8 D=  1.44D-04 Err=  1.99D-04
      PEZero:  N=11 I=10 D=  4.80D-05 Err=  4.05D-05
      PEZero:  N=11 I= 9 D=  9.61D-05 Err=  3.82D-07
      PEZero:  N=11 I= 8 D=  1.92D-04 Err=  1.18D-02
 Maximum DWI energy   std dev =  0.000000283 at pt   192
 Maximum DWI gradient std dev =  0.201134761 at pt    30
 CORRECTOR INTEGRATION CONVERGENCE:
   Recorrection delta-x convergence threshold:    0.010000
   Delta-x Convergence Met
 Point Number:   1          Path Number:   1
   CHANGE IN THE REACTION COORDINATE =    0.29512
   NET REACTION COORDINATE UP TO THIS POINT =    0.29512
  # OF POINTS ALONG THE PATH =   1
  # OF STEPS =   1

 Calculating another point on the path.
 IRC-IRC-IRC-IRC-IRC-IRC-IRC-IRC-IRC-IRC-IRC-IRC-IRC-IRC-IRC-IRC-IRC-IRC
                          Input orientation:                          
 ---------------------------------------------------------------------
 Center     Atomic      Atomic             Coordinates (Angstroms)
 Number     Number       Type             X           Y           Z
 ---------------------------------------------------------------------
      1         14           0       -0.975250    0.367570   -0.023696
      2          8           0       -0.312001    1.475690    1.182856
      3          8           0        0.023752    1.134307   -1.237596
      4          8           0       -1.335045   -0.875141   -1.190725
      5          8           0       -1.519798   -0.689531    1.259239
      6          8           0        1.089949   -0.901270    0.393684
      7          8           0       -2.444168    1.275721   -0.243246
      8          1           0       -2.445730    1.903783    0.475691
      9          6           0       -1.995000   -1.955525   -0.646846
     10          1           0       -3.093101   -1.849269   -0.761478
     11          1           0       -1.700671   -2.891427   -1.152856
     12          6           0       -1.638780   -1.999413    0.845645
     13          1           0       -2.424276   -2.523784    1.419747
     14          1           0       -0.685516   -2.533793    0.979802
     15          6           0        0.819220    2.129318    0.733812
     16          1           0        0.912205    3.124074    1.205515
     17          1           0        1.724879    1.550439    0.966044
     18          6           0        0.671175    2.261404   -0.787765
     19          1           0        0.086055    3.176518   -1.021542
     20          1           0        1.656362    2.371218   -1.272539
     21          6           0        1.816749   -1.295713   -0.681445
     22          1           0        1.391047   -0.969641   -1.646294
     23          1           0        1.924228   -2.412185   -0.743920
     24          6           0        3.249967   -0.711134   -0.540291
     25          1           0        4.000535   -1.300148   -1.089537
     26          1           0        3.264037    0.319001   -0.933391
     27          8           0        3.554954   -0.710591    0.836913
     28          1           0        2.609950   -0.716946    1.166427
 ---------------------------------------------------------------------
                    Distance matrix (angstroms):
                    1          2          3          4          5
     1  Si   0.000000
     2  O    1.767370   0.000000
     3  O    1.749127   2.467359   0.000000
     4  O    1.742337   3.493838   2.426192   0.000000
     5  O    1.749262   2.480481   3.455882   2.463921   0.000000
     6  O    2.459514   2.870225   2.818053   2.896831   2.757680
     7  O    1.740879   2.572914   2.664463   2.598861   2.640858
     8  H    2.184411   2.288263   3.102546   3.425344   2.862966
     9  C    2.612465   4.237160   3.737835   1.377888   2.337032
    10  H    3.153409   4.750821   4.340874   2.055222   2.811330
    11  H    3.524528   5.143507   4.380337   2.049518   3.270973
    12  C    2.607419   3.735022   4.113892   2.345857   1.378770
    13  H    3.541628   4.529195   5.141590   3.273990   2.051421
    14  H    3.083644   4.031959   4.344523   2.807882   2.043384
    15  C    2.626347   1.381497   2.347182   4.167910   3.700404
    16  H    3.559742   2.053380   3.273731   5.175502   4.523396
    17  H    3.109576   2.049751   2.814787   4.460743   3.953651
    18  C    2.623189   2.338232   1.375446   3.745024   4.206970
    19  H    3.164215   2.812586   2.054552   4.296986   4.767291
    20  H    3.535476   3.271909   2.048556   4.415207   5.085870
    21  C    3.315781   3.960791   3.070690   3.220257   3.907206
    22  H    3.165489   4.109028   2.542268   2.765511   4.122330
    23  H    4.080776   4.881471   4.053780   3.631115   4.340679
    24  C    4.391234   4.520958   3.781581   4.633821   5.097984
    25  H    5.354973   5.609547   4.665114   5.353436   6.030230
    26  H    4.336065   4.313292   3.355102   4.758545   5.358157
    27  O    4.735591   4.455653   4.491839   5.296270   5.092338
    28  H    3.930169   3.653180   3.986839   4.598280   4.130882
                    6          7          8          9         10
     6  O    0.000000
     7  O    4.199399   0.000000
     8  H    4.513987   0.954638   0.000000
     9  C    3.422144   3.287186   4.044441   0.000000
    10  H    4.441960   3.233457   4.004382   1.109169   0.000000
    11  H    3.760329   4.329584   5.118722   1.103897   1.782731
    12  C    2.975929   3.544126   4.002870   1.535040   2.172657
    13  H    4.004390   4.147550   4.527146   2.185865   2.379084
    14  H    2.482125   4.370480   4.800476   2.166824   3.049114
    15  C    3.061608   3.511833   3.282894   5.148980   5.776790
    16  H    4.110238   4.096408   3.646572   6.138844   6.681743
    17  H    2.596461   4.349575   4.214176   5.360102   6.144533
    18  C    3.402014   3.312617   3.382205   4.991075   5.573876
    19  H    4.431594   3.258958   3.204918   5.550590   5.952580
    20  H    3.715683   4.367368   4.483521   5.696019   6.374252
    21  C    1.356365   4.995969   5.453849   3.868589   4.941605
    22  H    2.063212   4.660372   5.242161   3.665539   4.654485
    23  H    2.067130   5.738833   6.261914   3.946936   5.048838
    24  C    2.360962   6.038129   6.349093   5.391618   6.448162
    25  H    3.290981   6.991817   7.366780   6.047473   7.122417
    26  H    2.824331   5.828826   6.090853   5.736989   6.718940
    27  O    2.511784   6.411056   6.555428   5.878213   6.931672
    28  H    1.715083   5.612665   5.736309   5.101725   6.125664
                   11         12         13         14         15
    11  H    0.000000
    12  C    2.189413   0.000000
    13  H    2.697602   1.105243   0.000000
    14  H    2.388864   1.101033   1.793583   0.000000
    15  C    5.925981   4.806318   5.713329   4.906052   0.000000
    16  H    6.969598   5.734732   6.563254   5.883462   1.104849
    17  H    5.996191   4.891845   5.832721   4.742484   1.099659
    18  C    5.684242   5.114536   6.111706   5.287610   1.534457
    19  H    6.326894   5.766429   6.689925   6.099865   2.171503
    20  H    6.243350   5.869163   6.918168   5.883584   2.187411
    21  C    3.891116   3.842900   4.889731   3.248679   3.837819
    22  H    3.673617   4.055866   5.135432   3.695276   3.949106
    23  H    3.679238   3.923280   4.858333   3.129978   4.902039
    24  C    5.444055   5.242169   6.270924   4.595737   3.949689
    25  H    5.919454   6.002981   7.005140   5.269071   5.020618
    26  H    5.916362   5.707682   6.780531   5.234282   3.468998
    27  O    6.028003   5.351263   6.275234   4.618015   3.944610
    28  H    5.356202   4.449644   5.354650   3.767739   3.390441
                   16         17         18         19         20
    16  H    0.000000
    17  H    1.787208   0.000000
    18  C    2.185283   2.166012   0.000000
    19  H    2.375934   3.046371   1.111058   0.000000
    20  H    2.694683   2.385294   1.103476   1.782518   0.000000
    21  C    4.890126   3.289869   3.738546   4.807475   3.717727
    22  H    5.012047   3.645073   3.419787   4.391350   3.372154
    23  H    5.956060   4.320429   4.838853   5.889784   4.819973
    24  C    4.818900   3.116032   3.943019   5.035453   3.546359
    25  H    5.863343   4.186869   4.884706   5.947126   4.359767
    26  H    4.239631   2.737389   3.243004   4.274663   2.628923
    27  O    4.671685   2.911719   4.448428   5.531431   4.189509
    28  H    4.199679   2.442241   4.055648   5.129943   4.049030
                   21         22         23         24         25
    21  C    0.000000
    22  H    1.103847   0.000000
    23  H    1.123372   1.783113   0.000000
    24  C    1.554275   2.178452   2.166247   0.000000
    25  H    2.221594   2.688613   2.380574   1.100890   0.000000
    26  H    2.182984   2.382629   3.048010   1.102680   1.785624
    27  O    2.380994   3.303924   2.837909   1.410570   2.063330
    28  H    2.092551   3.075870   2.644518   1.822784   2.713526
                   26         27         28
    26  H    0.000000
    27  O    2.068494   0.000000
    28  H    2.431101   1.000825   0.000000
 Symmetry turned off by external request.
 Stoichiometry    C6H14O7Si(2-)
 Framework group  C1[X(C6H14O7Si)]
 Deg. of freedom    78
 Full point group                 C1      NOp   1
 Rotational constants (GHZ):           0.8558375           0.5588179           0.4323503
 Standard basis: def2TZVPP (5D, 7F)
   641 basis functions,   970 primitive gaussians,   726 cartesian basis functions
    61 alpha electrons       61 beta electrons
       nuclear repulsion energy      1248.8926190360 Hartrees.
 NAtoms=   28 NActive=   28 NUniq=   28 SFac= 1.00D+00 NAtFMM=   60 NAOKFM=F Big=F
 Integral buffers will be    131072 words long.
 Raffenetti 2 integral format.
 Two-electron integral symmetry is turned off.
 Nuclear repulsion after empirical dispersion term =     1248.8726266993 Hartrees.
 One-electron integrals computed using PRISM.
   1 Symmetry operations used in ECPInt.
 ECPInt:  NShTT=   29161 NPrTT=   80163 LenC2=   27142 LenP2D=   56496.
 LDataN:  DoStor=T MaxTD1= 6 Len=  172
 NBasis=   641 RedAO= T EigKep=  2.13D-04  NBF=   641
 NBsUse=   641 1.00D-06 EigRej= -1.00D+00 NBFU=   641
 Initial guess from the checkpoint file:  "IRC_depEGattPL2_forward.chk"
 B after Tr=    -0.000461    0.000177    0.000098
         Rot=    1.000000    0.000072    0.000034    0.000037 Ang=   0.01 deg.
 ExpMin= 7.01D-02 ExpMax= 4.48D+04 ExpMxC= 1.53D+03 IAcc=3 IRadAn=         5 AccDes= 0.00D+00
 Harris functional with IExCor= 4639 and IRadAn=       5 diagonalized for initial guess.
 HarFok:  IExCor= 4639 AccDes= 0.00D+00 IRadAn=         5 IDoV= 1 UseB2=F ITyADJ=14
 ICtDFT=  3500011 ScaDFX=  1.000000  1.000000  1.000000  1.000000
 FoFCou: FMM=F IPFlag=           0 FMFlag=      100000 FMFlg1=           0
         NFxFlg=           0 DoJE=T BraDBF=F KetDBF=T FulRan=T
         wScrn=  0.000000 ICntrl=       500 IOpCl=  0 I1Cent=   200000004 NGrid=           0
         NMat0=    1 NMatS0=      1 NMatT0=    0 NMatD0=    1 NMtDS0=    0 NMtDT0=    0
 Symmetry not used in FoFCou.
 Requested convergence on RMS density matrix=1.00D-08 within 128 cycles.
 Requested convergence on MAX density matrix=1.00D-06.
 Requested convergence on             energy=1.00D-06.
 No special actions if energy rises.
 Integral accuracy reduced to 1.0D-05 until final iterations.
 Initial convergence to 1.0D-05 achieved.  Increase integral accuracy.
 SCF Done:  E(RwB97XD) =  -1053.33017656     A.U. after   11 cycles
            NFock= 11  Conv=0.42D-08     -V/T= 2.0037
 DoSCS=F DFT=T ScalE2(SS,OS)=  1.000000  1.000000
 Range of M.O.s used for correlation:     1   641
 NBasis=   641 NAE=    61 NBE=    61 NFC=     0 NFV=     0
 NROrb=    641 NOA=    61 NOB=    61 NVA=   580 NVB=   580

 **** Warning!!: The largest alpha MO coefficient is  0.13236169D+02

 Symmetrizing basis deriv contribution to polar:
 IMax=3 JMax=2 DiffMx= 0.00D+00
   1 Symmetry operations used in ECPInt.
 ECPInt:  NShTT=   29161 NPrTT=   80163 LenC2=   27142 LenP2D=   56496.
 LDataN:  DoStor=T MaxTD1= 7 Len=  274
 Calling FoFJK, ICntrl=      2127 FMM=F ISym2X=0 I1Cent= 0 IOpClX= 0 NMat=1 NMatS=1 NMatT=0.
 -------------------------------------------------------------------
 Center     Atomic                   Forces (Hartrees/Bohr)
 Number     Number              X              Y              Z
 -------------------------------------------------------------------
      1       14           0.000685941   -0.000376091    0.000083366
      2        8           0.000241705   -0.000013846    0.000051855
      3        8           0.000136801    0.000115011   -0.000109167
      4        8           0.000135452   -0.000175761   -0.000031652
      5        8           0.000059886   -0.000132216    0.000070129
      6        8          -0.000410174    0.000439946   -0.000233489
      7        8           0.000279466   -0.000148593    0.000050716
      8        1           0.000012583   -0.000048636   -0.000017941
      9        6          -0.000003570    0.000004775   -0.000018421
     10        1           0.000016605    0.000008375    0.000002176
     11        1          -0.000014961    0.000008235    0.000004193
     12        6          -0.000030519   -0.000030035    0.000008338
     13        1          -0.000001270   -0.000003077   -0.000002668
     14        1          -0.000005735   -0.000011284   -0.000002301
     15        6           0.000019365    0.000073708   -0.000017976
     16        1          -0.000005468   -0.000004539   -0.000001968
     17        1          -0.000006325    0.000035222   -0.000010327
     18        6          -0.000048045    0.000081392   -0.000048232
     19        1          -0.000005688   -0.000006638    0.000007303
     20        1          -0.000020689    0.000021549    0.000002509
     21        6          -0.000316259    0.000116657   -0.000013745
     22        1          -0.000007300   -0.000017321    0.000043212
     23        1          -0.000052392    0.000074283    0.000023248
     24        6          -0.000277189    0.000005134    0.000069446
     25        1          -0.000039233   -0.000003096    0.000007932
     26        1          -0.000011928   -0.000012600    0.000002378
     27        8          -0.000345278   -0.000017179    0.000078200
     28        1           0.000014218    0.000016625    0.000002887
 -------------------------------------------------------------------
 Cartesian Forces:  Max     0.000685941 RMS     0.000141411
 IRC-IRC-IRC-IRC-IRC-IRC-IRC-IRC-IRC-IRC-IRC-IRC-IRC-IRC-IRC-IRC-IRC-IRC
 Pt  2 Step number   1 out of a maximum of 100
 Modified Bulirsch-Stoer Extrapolation Cycles:
    EPS =    0.000010000000000
      PEZero:  N= 2 I= 1 D=  1.54D-03 Err=  5.63D-03
      PEZero:  N= 3 I= 2 D=  1.54D-03 Err=  1.04D-02
      PEZero:  N= 3 I= 1 D=  3.07D-03 Err=  9.94D-03
      PEZero:  N= 4 I= 3 D=  7.68D-04 Err=  2.23D-02
      PEZero:  N= 4 I= 2 D=  2.31D-03 Err=  1.94D-02
      PEZero:  N= 4 I= 1 D=  3.84D-03 Err=  1.73D-02
      PEZero:  N= 5 I= 4 D=  7.68D-04 Err=  3.59D-02
      PEZero:  N= 5 I= 3 D=  1.54D-03 Err=  3.16D-02
      PEZero:  N= 5 I= 2 D=  3.07D-03 Err=  2.19D-02
      PEZero:  N= 5 I= 1 D=  4.61D-03 Err=  1.62D-02
[...]
 Symmetry not used in FoFCou.
 Requested convergence on RMS density matrix=1.00D-08 within 128 cycles.
 Requested convergence on MAX density matrix=1.00D-06.
 Requested convergence on             energy=1.00D-06.
 No special actions if energy rises.
 Integral accuracy reduced to 1.0D-05 until final iterations.
 Initial convergence to 1.0D-05 achieved.  Increase integral accuracy.
 SCF Done:  E(RwB97XD) =  -1053.33491262     A.U. after    9 cycles
            NFock=  9  Conv=0.99D-08     -V/T= 2.0037
 DoSCS=F DFT=T ScalE2(SS,OS)=  1.000000  1.000000
 Range of M.O.s used for correlation:     1   641
 NBasis=   641 NAE=    61 NBE=    61 NFC=     0 NFV=     0
 NROrb=    641 NOA=    61 NOB=    61 NVA=   580 NVB=   580

 **** Warning!!: The largest alpha MO coefficient is  0.12466950D+02

 Symmetrizing basis deriv contribution to polar:
 IMax=3 JMax=2 DiffMx= 0.00D+00
   1 Symmetry operations used in ECPInt.
 ECPInt:  NShTT=   29161 NPrTT=   80163 LenC2=   27242 LenP2D=   56886.
 LDataN:  DoStor=T MaxTD1= 7 Len=  274
 Calling FoFJK, ICntrl=      2127 FMM=F ISym2X=0 I1Cent= 0 IOpClX= 0 NMat=1 NMatS=1 NMatT=0.
 -------------------------------------------------------------------
 Center     Atomic                   Forces (Hartrees/Bohr)
 Number     Number              X              Y              Z
 -------------------------------------------------------------------
      1       14           0.003269612   -0.001585401    0.000340828
      2        8           0.001054736   -0.000090318    0.000262992
      3        8           0.000889244    0.000248155   -0.000338073
      4        8           0.000944664   -0.000843083   -0.000121965
      5        8           0.000347228   -0.000507672    0.000318555
      6        8          -0.001867198    0.001442181   -0.000403665
      7        8           0.001514405   -0.000464611    0.000687022
      8        1           0.000097665   -0.000632935   -0.000686383
      9        6          -0.000246801    0.000124246    0.000004061
     10        1          -0.000016265    0.000102939    0.000011126
     11        1          -0.000106540   -0.000020469    0.000000364
     12        6          -0.000266758   -0.000207066   -0.000009060
     13        1          -0.000036491   -0.000006340   -0.000007157
     14        1          -0.000042656   -0.000061797   -0.000012940
     15        6           0.000091929    0.000615351   -0.000201565
     16        1          -0.000018219    0.000053451   -0.000009829
     17        1           0.000057914    0.000101580   -0.000057030
     18        6          -0.000530245    0.000712605   -0.000112573
     19        1          -0.000142038    0.000011567    0.000028408
     20        1          -0.000057571    0.000173559   -0.000036780
     21        6          -0.001310261    0.000514666   -0.000080546
     22        1          -0.000093053    0.000023079   -0.000018184
     23        1          -0.000145926    0.000038994    0.000040878
     24        6          -0.001417179    0.000286814    0.000150119
     25        1          -0.000124955    0.000030788    0.000000900
     26        1          -0.000116897    0.000030366    0.000036719
     27        8          -0.001627877   -0.000148382    0.000165715
     28        1          -0.000100467    0.000057731    0.000048065
 -------------------------------------------------------------------
 Cartesian Forces:  Max     0.003269612 RMS     0.000650779
 IRC-IRC-IRC-IRC-IRC-IRC-IRC-IRC-IRC-IRC-IRC-IRC-IRC-IRC-IRC-IRC-IRC-IRC
 Error in corrector energy =          -0.0000019831
 Magnitude of corrector gradient =     0.0059185488
 Magnitude of analytic gradient =      0.0059644858
 Magnitude of difference =             0.0012688982
 Angle between gradients (degrees)=   12.2518
 Pt 15 Step number  99 out of a maximum of 100
 Modified Bulirsch-Stoer Extrapolation Cycles:
    EPS =    0.000010000000000
      PEZero:  N= 2 I= 1 D=  1.54D-03 Err=  1.94D-02
      PEZero:  N= 3 I= 2 D=  1.54D-03 Err=  6.06D-05
      PEZero:  N= 3 I= 1 D=  3.07D-03 Err=  1.94D-02
      PEZero:  N= 4 I= 3 D=  7.68D-04 Err=  4.54D-05
      PEZero:  N= 4 I= 2 D=  2.31D-03 Err=  9.31D-08
      PEZero:  N= 4 I= 1 D=  3.84D-03 Err=  3.65D-05
 Maximum DWI energy   std dev =  0.000001496 at pt    35
 Maximum DWI gradient std dev =  0.338380489 at pt    29
 CORRECTOR INTEGRATION CONVERGENCE:
   Recorrection delta-x convergence threshold:    0.010000
   Delta-x Convergence NOT Met
 IRC-IRC-IRC-IRC-IRC-IRC-IRC-IRC-IRC-IRC-IRC-IRC-IRC-IRC-IRC-IRC-IRC-IRC
                          Input orientation:                          
 ---------------------------------------------------------------------
 Center     Atomic      Atomic             Coordinates (Angstroms)
 Number     Number       Type             X           Y           Z
 ---------------------------------------------------------------------
      1         14           0       -0.812613    0.281727   -0.007846
      2          8           0       -0.229872    1.462059    1.202099
      3          8           0        0.081156    1.161166   -1.270110
      4          8           0       -1.270347   -0.935189   -1.201869
      5          8           0       -1.492577   -0.734563    1.283952
      6          8           0        0.892759   -0.728753    0.335034
      7          8           0       -2.319655    1.198151   -0.236915
      8          1           0       -2.369105    1.751637    0.538177
      9          6           0       -2.009048   -1.954864   -0.647673
     10          1           0       -3.096807   -1.763738   -0.752812
     11          1           0       -1.796399   -2.919410   -1.147454
     12          6           0       -1.658641   -2.025830    0.847421
     13          1           0       -2.461870   -2.539277    1.410103
     14          1           0       -0.730638   -2.616001    0.972600
     15          6           0        0.835935    2.185011    0.716585
     16          1           0        0.890406    3.182612    1.192017
     17          1           0        1.794397    1.673076    0.913611
     18          6           0        0.638098    2.324535   -0.802635
     19          1           0       -0.025828    3.194599   -0.997633
     20          1           0        1.603509    2.538001   -1.301063
     21          6           0        1.661908   -1.224895   -0.681960
     22          1           0        1.290181   -0.947526   -1.677848
     23          1           0        1.707952   -2.338620   -0.649090
     24          6           0        3.099713   -0.696415   -0.518164
     25          1           0        3.826938   -1.306528   -1.072340
     26          1           0        3.147011    0.335296   -0.897628
     27          8           0        3.434172   -0.720679    0.857566
     28          1           0        2.533378   -0.620333    1.235415
 ---------------------------------------------------------------------
                    Distance matrix (angstroms):
                    1          2          3          4          5
     1  Si   0.000000
     2  O    1.787943   0.000000
     3  O    1.779198   2.509799   0.000000
     4  O    1.765246   3.550838   2.495179   0.000000
     5  O    1.778746   2.535010   3.548754   2.503786   0.000000
     6  O    2.011699   2.609935   2.609019   2.661525   2.567160
     7  O    1.778617   2.551000   2.613954   2.565798   2.594701
     8  H    2.209399   2.258532   3.101989   3.384385   2.739648
     9  C    2.615946   4.273464   3.803422   1.375700   2.342446
    10  H    3.155383   4.737801   4.349955   2.055262   2.789473
    11  H    3.537488   5.212646   4.493479   2.053491   3.282925
    12  C    2.602319   3.785835   4.203305   2.353691   1.373137
    13  H    3.562119   4.586478   5.229130   3.288651   2.052422
    14  H    3.060199   4.115096   4.467185   2.800844   2.053606
    15  C    2.620115   1.376345   2.359006   4.225226   3.777272
    16  H    3.571425   2.053150   3.286822   5.230280   4.585992
    17  H    3.095390   2.055582   2.822389   4.546532   4.091220
    18  C    2.628558   2.348658   1.371913   3.798335   4.272201
    19  H    3.175458   2.807516   2.054395   4.318065   4.774442
    20  H    3.549764   3.284015   2.052849   4.509094   5.194009
    21  C    2.974491   3.787906   2.921982   2.992049   3.749135
    22  H    2.953255   4.051019   2.464665   2.604422   4.069565
    23  H    3.691973   4.650508   3.909045   3.338480   4.068542
    24  C    4.064909   4.324864   3.623219   4.429661   4.933377
    25  H    5.018081   5.412564   4.489934   5.112434   5.846067
    26  H    4.058720   4.133012   3.196916   4.606490   5.237334
    27  O    4.448477   4.278816   4.394436   5.140018   4.945185
    28  H    3.681720   3.460204   3.932529   4.528555   4.027867
                    6          7          8          9         10
     6  O    0.000000
     7  O    3.789418   0.000000
     8  H    4.102848   0.953708   0.000000
     9  C    3.299931   3.194793   3.908200   0.000000
    10  H    4.262774   3.105302   3.814979   1.109415   0.000000
    11  H    3.772044   4.249375   4.998803   1.106955   1.783923
    12  C    2.907678   3.465079   3.856118   1.537247   2.167431
    13  H    3.960721   4.086718   4.379590   2.186557   2.383864
    14  H    2.569750   4.305305   4.685036   2.167192   3.049943
    15  C    2.939189   3.441047   3.239124   5.205160   5.763523
    16  H    4.004148   4.035396   3.619338   6.179397   6.644291
    17  H    2.629921   4.298219   4.181132   5.483224   6.205846
    18  C    3.268289   3.215134   3.342044   5.034347   5.537687
    19  H    4.244113   3.134667   3.151475   5.529249   5.837461
    20  H    3.722050   4.280049   4.447789   5.802010   6.395193
    21  C    1.368219   4.682100   5.157281   3.742987   4.789649
    22  H    2.063371   4.439722   5.058322   3.600126   4.557144
    23  H    2.055410   5.375896   5.895948   3.736758   4.840140
    24  C    2.366355   5.747872   6.084142   5.263071   6.292146
    25  H    3.305137   6.689690   7.094864   5.887225   6.946177
    26  H    2.780882   5.573643   5.873252   5.647323   6.588792
    27  O    2.594587   6.163305   6.316042   5.780796   6.806980
    28  H    1.874585   5.387630   5.490603   5.095157   6.079424
                   11         12         13         14         15
    11  H    0.000000
    12  C    2.190203   0.000000
    13  H    2.669916   1.106985   0.000000
    14  H    2.392181   1.106870   1.787304   0.000000
    15  C    6.038124   4.896040   5.803049   5.056620   0.000000
    16  H    7.065884   5.808981   6.635159   6.024935   1.106440
    17  H    6.183262   5.060609   6.008846   4.977496   1.104330
    18  C    5.791773   5.188774   6.177595   5.425292   1.538388
    19  H    6.366983   5.772623   6.678984   6.175892   2.168052
    20  H    6.431664   6.007175   7.046735   6.097665   2.187390
    21  C    3.879169   3.742533   4.807273   3.224442   3.776985
    22  H    3.700895   4.029302   5.113414   3.727250   3.968934
    23  H    3.586942   3.697476   4.654885   2.941690   4.805072
    24  C    5.413837   5.125827   6.168108   4.536384   3.866770
    25  H    5.850551   5.856147   6.872503   5.164107   4.933274
    26  H    5.923920   5.631555   6.711806   5.219585   3.371676
    27  O    6.017757   5.257401   6.194829   4.577239   3.900480
    28  H    5.450760   4.438354   5.354004   3.834783   3.319706
                   16         17         18         19         20
    16  H    0.000000
    17  H    1.781406   0.000000
    18  C    2.185999   2.169545   0.000000
    19  H    2.373646   3.046490   1.111680   0.000000
    20  H    2.671982   2.385228   1.107256   1.782674   0.000000
    21  C    4.851095   3.310836   3.696106   4.741310   3.813933
    22  H    5.045194   3.719872   3.449289   4.399065   3.519806
    23  H    5.877249   4.306183   4.786771   5.808957   4.921119
    24  C    4.780440   3.060771   3.907251   5.013869   3.648699
    25  H    5.822621   4.117435   4.840048   5.925330   4.447062
    26  H    4.191192   2.626748   3.203239   4.272297   2.719755
    27  O    4.671005   2.902080   4.455068   5.544616   4.316249
    28  H    4.142901   2.430921   4.051910   5.107811   4.156134
                   21         22         23         24         25
    21  C    0.000000
    22  H    1.098593   0.000000
    23  H    1.115161   1.779893   0.000000
    24  C    1.540585   2.163869   2.156613   0.000000
    25  H    2.201457   2.632614   2.394673   1.099184   0.000000
    26  H    2.164772   2.387926   3.046718   1.100299   1.785613
    27  O    2.401103   3.328135   2.804921   1.416010   2.054756
    28  H    2.191183   3.184288   2.680522   1.844333   2.733111
                   26         27         28
    26  H    0.000000
    27  O    2.068394   0.000000
    28  H    2.416536   0.981972   0.000000
 Symmetry turned off by external request.
 Stoichiometry    C6H14O7Si(2-)
 Framework group  C1[X(C6H14O7Si)]
 Deg. of freedom    78
 Full point group                 C1      NOp   1
 Rotational constants (GHZ):           0.8536072           0.5965331           0.4563504
 Standard basis: def2TZVPP (5D, 7F)
   641 basis functions,   970 primitive gaussians,   726 cartesian basis functions
    61 alpha electrons       61 beta electrons
       nuclear repulsion energy      1266.4031214851 Hartrees.
 NAtoms=   28 NActive=   28 NUniq=   28 SFac= 1.00D+00 NAtFMM=   60 NAOKFM=F Big=F
 Integral buffers will be    131072 words long.
 Raffenetti 2 integral format.
 Two-electron integral symmetry is turned off.
 Nuclear repulsion after empirical dispersion term =     1266.3827003865 Hartrees.
 One-electron integrals computed using PRISM.
   1 Symmetry operations used in ECPInt.
 ECPInt:  NShTT=   29161 NPrTT=   80163 LenC2=   27242 LenP2D=   56887.
 LDataN:  DoStor=T MaxTD1= 6 Len=  172
 NBasis=   641 RedAO= T EigKep=  1.97D-04  NBF=   641
 NBsUse=   641 1.00D-06 EigRej= -1.00D+00 NBFU=   641
 Initial guess from the checkpoint file:  "IRC_depEGattPL2_forward.chk"
 B after Tr=    -0.000003    0.000042   -0.000033
         Rot=    1.000000    0.000012    0.000002    0.000006 Ang=   0.00 deg.
 ExpMin= 7.01D-02 ExpMax= 4.48D+04 ExpMxC= 1.53D+03 IAcc=3 IRadAn=         5 AccDes= 0.00D+00
 Harris functional with IExCor= 4639 and IRadAn=       5 diagonalized for initial guess.
 HarFok:  IExCor= 4639 AccDes= 0.00D+00 IRadAn=         5 IDoV= 1 UseB2=F ITyADJ=14
 ICtDFT=  3500011 ScaDFX=  1.000000  1.000000  1.000000  1.000000
 FoFCou: FMM=F IPFlag=           0 FMFlag=      100000 FMFlg1=           0
         NFxFlg=           0 DoJE=T BraDBF=F KetDBF=T FulRan=T
         wScrn=  0.000000 ICntrl=       500 IOpCl=  0 I1Cent=   200000004 NGrid=           0
         NMat0=    1 NMatS0=      1 NMatT0=    0 NMatD0=    1 NMtDS0=    0 NMtDT0=    0
 Symmetry not used in FoFCou.
 Requested convergence on RMS density matrix=1.00D-08 within 128 cycles.
 Requested convergence on MAX density matrix=1.00D-06.
 Requested convergence on             energy=1.00D-06.
 No special actions if energy rises.
 Integral accuracy reduced to 1.0D-05 until final iterations.
 Initial convergence to 1.0D-05 achieved.  Increase integral accuracy.
 SCF Done:  E(RwB97XD) =  -1053.33491287     A.U. after    9 cycles
            NFock=  9  Conv=0.83D-08     -V/T= 2.0037
 DoSCS=F DFT=T ScalE2(SS,OS)=  1.000000  1.000000
 Range of M.O.s used for correlation:     1   641
 NBasis=   641 NAE=    61 NBE=    61 NFC=     0 NFV=     0
 NROrb=    641 NOA=    61 NOB=    61 NVA=   580 NVB=   580

 **** Warning!!: The largest alpha MO coefficient is  0.12438477D+02

 Symmetrizing basis deriv contribution to polar:
 IMax=3 JMax=2 DiffMx= 0.00D+00
   1 Symmetry operations used in ECPInt.
 ECPInt:  NShTT=   29161 NPrTT=   80163 LenC2=   27242 LenP2D=   56887.
 LDataN:  DoStor=T MaxTD1= 7 Len=  274
 Calling FoFJK, ICntrl=      2127 FMM=F ISym2X=0 I1Cent= 0 IOpClX= 0 NMat=1 NMatS=1 NMatT=0.
 -------------------------------------------------------------------
 Center     Atomic                   Forces (Hartrees/Bohr)
 Number     Number              X              Y              Z
 -------------------------------------------------------------------
      1       14           0.003226579   -0.001634351    0.000346243
      2        8           0.001030640   -0.000057985    0.000249479
      3        8           0.000924634    0.000286594   -0.000334542
      4        8           0.000925095   -0.000842407   -0.000112976
      5        8           0.000362910   -0.000540987    0.000321401
      6        8          -0.001850356    0.001443974   -0.000407725
      7        8           0.001662981   -0.001423381   -0.000727958
      8        1          -0.000013007    0.000348016    0.000730823
      9        6          -0.000265654    0.000125375   -0.000002254
     10        1           0.000001738    0.000092799    0.000012683
     11        1          -0.000104052   -0.000004050    0.000005112
     12        6          -0.000267194   -0.000204689   -0.000004527
     13        1          -0.000033874   -0.000005532   -0.000006759
     14        1          -0.000042773   -0.000060088   -0.000014760
     15        6           0.000112030    0.000627279   -0.000210577
     16        1          -0.000015863    0.000046745   -0.000009076
     17        1           0.000039558    0.000100771   -0.000056720
     18        6          -0.000537969    0.000718963   -0.000136886
     19        1          -0.000120661   -0.000008099    0.000031646
     20        1          -0.000089658    0.000159186   -0.000019968
     21        6          -0.001325889    0.000502405   -0.000080650
     22        1          -0.000088391    0.000019639   -0.000008875
     23        1          -0.000139567    0.000054884    0.000037187
     24        6          -0.001431302    0.000287537    0.000154092
     25        1          -0.000118330    0.000029553   -0.000000232
     26        1          -0.000110816    0.000030339    0.000034040
     27        8          -0.001680979   -0.000138995    0.000184681
     28        1          -0.000049826    0.000046504    0.000027096
 -------------------------------------------------------------------
 Cartesian Forces:  Max     0.003226579 RMS     0.000671022
 IRC-IRC-IRC-IRC-IRC-IRC-IRC-IRC-IRC-IRC-IRC-IRC-IRC-IRC-IRC-IRC-IRC-IRC
 Error in corrector energy =          -0.0000019364
 Magnitude of corrector gradient =     0.0059782943
 Magnitude of analytic gradient =      0.0061500159
 Magnitude of difference =             0.0012149936
 Angle between gradients (degrees)=   11.3842
 Pt 15 Step number 100 out of a maximum of 100
 Modified Bulirsch-Stoer Extrapolation Cycles:
    EPS =    0.000010000000000
      PEZero:  N= 2 I= 1 D=  1.54D-03 Err=  1.98D-02
      PEZero:  N= 3 I= 2 D=  1.54D-03 Err=  4.60D-05
      PEZero:  N= 3 I= 1 D=  3.07D-03 Err=  1.98D-02
      PEZero:  N= 4 I= 3 D=  7.68D-04 Err=  3.45D-05
      PEZero:  N= 4 I= 2 D=  2.31D-03 Err=  3.72D-08
      PEZero:  N= 4 I= 1 D=  3.84D-03 Err=  2.76D-05
 Maximum DWI energy   std dev =  0.000001399 at pt    35
 Maximum DWI gradient std dev =  0.194400952 at pt    29
 CORRECTOR INTEGRATION CONVERGENCE:
   Recorrection delta-x convergence threshold:    0.010000
   Delta-x Convergence NOT Met
 Maximum number of corrector steps exceded.
 Error termination via Lnk1e in /opt/software/gaussian/g16.c01/l123.exe at Thu Feb 22 07:54:56 2024.
 Job cpu time:       6 days 21 hours 33 minutes 41.1 seconds.
 Elapsed time:       1 days 17 hours 36 minutes 59.2 seconds.
 File lengths (MBytes):  RWF=    782 Int=      0 D2E=      0 Chk=     32 Scr=      1
