 Entering Gaussian System, Link 0=/opt/software/gaussian/g16.c01/g16
 Initial command:
 /opt/software/gaussian/g16.c01/l1.exe "/scratch/arhender/18119225/Gau-145601.inp" -scrdir="/scratch/arhender/18119225/"
 Entering Link 1 = /opt/software/gaussian/g16.c01/l1.exe PID=    145606.
  
 Copyright (c) 1988-2019, Gaussian, Inc.  All Rights Reserved.
  
 This is part of the Gaussian(R) 16 program.  It is based on
 the Gaussian(R) 09 system (copyright 2009, Gaussian, Inc.),
 the Gaussian(R) 03 system (copyright 2003, Gaussian, Inc.),
 the Gaussian(R) 98 system (copyright 1998, Gaussian, Inc.),
 the Gaussian(R) 94 system (copyright 1995, Gaussian, Inc.),
 the Gaussian 92(TM) system (copyright 1992, Gaussian, Inc.),
 the Gaussian 90(TM) system (copyright 1990, Gaussian, Inc.),
 the Gaussian 88(TM) system (copyright 1988, Gaussian, Inc.),
 the Gaussian 86(TM) system (copyright 1986, Carnegie Mellon
 University), and the Gaussian 82(TM) system (copyright 1983,
 Carnegie Mellon University). Gaussian is a federally registered
 trademark of Gaussian, Inc.
  
 This software contains proprietary and confidential information,
 including trade secrets, belonging to Gaussian, Inc.
  
 This software is provided under written license and may be
 used, copied, transmitted, or stored only in accord with that
 written license.
  
 The following legend is applicable only to US Government
 contracts under FAR:
  
                    RESTRICTED RIGHTS LEGEND
  
 Use, reproduction and disclosure by the US Government is
 subject to restrictions as set forth in subparagraphs (a)
 and (c) of the Commercial Computer Software - Restricted
 Rights clause in FAR 52.227-19.
  
 Gaussian, Inc.
 340 Quinnipiac St., Bldg. 40, Wallingford CT 06492
  
  
 ---------------------------------------------------------------
 Warning -- This program may not be used in any manner that
 competes with the business of Gaussian, Inc. or will provide
 assistance to any competitor of Gaussian, Inc.  The licensee
 of this program is prohibited from giving any competitor of
 Gaussian, Inc. access to this program.  By using this program,
 the user acknowledges that Gaussian, Inc. is engaged in the
 business of creating and licensing software in the field of
 computational chemistry and represents and warrants to the
 licensee that it is not a competitor of Gaussian, Inc. and that
 it will not use this program in any manner prohibited above.
 ---------------------------------------------------------------
  

 Cite this work as:
 Gaussian 16, Revision C.01,
 M. J. Frisch, G. W. Trucks, H. B. Schlegel, G. E. Scuseria, 
 M. A. Robb, J. R. Cheeseman, G. Scalmani, V. Barone, 
 G. A. Petersson, H. Nakatsuji, X. Li, M. Caricato, A. V. Marenich, 
 J. Bloino, B. G. Janesko, R. Gomperts, B. Mennucci, H. P. Hratchian, 
 J. V. Ortiz, A. F. Izmaylov, J. L. Sonnenberg, D. Williams-Young, 
 F. Ding, F. Lipparini, F. Egidi, J. Goings, B. Peng, A. Petrone, 
 T. Henderson, D. Ranasinghe, V. G. Zakrzewski, J. Gao, N. Rega, 
 G. Zheng, W. Liang, M. Hada, M. Ehara, K. Toyota, R. Fukuda, 
 J. Hasegawa, M. Ishida, T. Nakajima, Y. Honda, O. Kitao, H. Nakai, 
 T. Vreven, K. Throssell, J. A. Montgomery, Jr., J. E. Peralta, 
 F. Ogliaro, M. J. Bearpark, J. J. Heyd, E. N. Brothers, K. N. Kudin, 
 V. N. Staroverov, T. A. Keith, R. Kobayashi, J. Normand, 
 K. Raghavachari, A. P. Rendell, J. C. Burant, S. S. Iyengar, 
 J. Tomasi, M. Cossi, J. M. Millam, M. Klene, C. Adamo, R. Cammi, 
 J. W. Ochterski, R. L. Martin, K. Morokuma, O. Farkas, 
 J. B. Foresman, and D. J. Fox, Gaussian, Inc., Wallingford CT, 2019.
 
 ******************************************
 Gaussian 16:  ES64L-G16RevC.01  3-Jul-2019
                26-Mar-2024 
 ******************************************
 %chk=IRCReverse_HBiL2toPBiL2.chk
 %mem=1600MB
 %nprocs=4
 Will use up to    4 processors via shared memory.
 ----------------------------------------------------------------------
 # irc=(reverse,calcfc,maxpoints=100,maxcycle=100) wb97xd/def2tzvpp geo
 m=connectivity
 ----------------------------------------------------------------------
 1/6=100,10=4,18=10,22=2,26=3,38=1,42=100,44=3,57=2,172=1/1,23;
 2/12=2,17=6,18=5,29=1,40=1/2;
 3/5=44,7=202,11=2,25=1,30=1,71=2,74=-58,140=1/1,2,3;
 4//1;
 5/5=2,38=5/2;
 8/6=4,10=90,11=11/1;
 11/6=1,8=1,9=11,15=111,16=1/1,2,10;
 10/6=1,13=1/2;
 6/7=2,8=2,9=2,10=2,28=1/1;
 7/10=1,25=1/1,2,3,16;
 1/6=100,10=4,18=10,22=2,26=3,42=100,44=3/23(2);
 2/29=1/2;
 99/5=20/99;
 2/29=1/2;
 3/5=44,7=202,11=2,25=1,30=1,71=2,74=-58,140=1/1,2,3;
 4/5=5,16=3,69=1/1;
 5/5=2,38=5/2;
 8/6=4,10=90,11=11/1;
 11/6=1,8=1,9=11,15=111,16=1/1,2,10;
 10/6=1,13=1/2;
 7/10=1,25=1/1,2,3,16;
 1/6=100,18=10,22=2,26=3,42=100,44=3/23(-8);
 2/29=1/2;
 6/7=2,8=2,9=2,10=2,19=2,28=1/1;
 99/5=20,9=1/99;
 ----------------------------------------------------------------------
 Take TS opt from hydroxyl loss of HbiL2moL collapse deprotonated and r
 eprotonate free ligand hydroxyl
 ----------------------------------------------------------------------
 Symbolic Z-matrix:
 Charge = -2 Multiplicity = 1
 Si                   -0.02214  -0.44014  -0.02834 
 O                    -1.20175  -0.04593  -1.24034 
 O                     1.15148  -0.14066   1.23343 
 O                     1.28426  -0.26784  -1.21196 
 O                    -0.02515  -2.16782  -0.11943 
 O                    -1.26037  -0.29175   1.19625 
 C                    -2.51097  -0.01337   0.68691 
 H                    -3.12121  -0.93805   0.60024 
 H                    -3.05971   0.67953   1.34938 
 C                    -2.2992    0.60554  -0.69948 
 H                    -3.19017   0.46189  -1.33801 
 H                    -2.06899   1.67424  -0.58375 
 C                     2.32561   0.4912   -0.69777 
 H                     3.26941   0.27232  -1.23129 
 H                     2.07927   1.55995  -0.76016 
 C                     2.42982   0.10456   0.78239 
 H                     3.06812  -0.8006    0.89196 
 H                     2.90542   0.91184   1.3659 
 O                     0.04892   2.34162   0.07003 
 H                     0.12094   2.15366   1.00665 
 H                     0.65621  -2.36122  -0.76026 
 
 IRC-IRC-IRC-IRC-IRC-IRC-IRC-IRC-IRC-IRC-IRC-IRC-IRC-IRC-IRC-IRC-IRC-IRC
 ------------------------------------------------------------------------
 INPUT DATA FOR L123
 ------------------------------------------------------------------------
 GENERAL PARAMETERS:
 Rxn path following direction = Reverse
 Maximum points per path      = 100
 Step size                    =   0.100 bohr
 Integration scheme           = HPC                                 
    Redo corrector integration= Yes                                 
    DWI Weight Power          =  2
    DWI will use Hessian update vectors when possible.
    Max correction cycles     = 100
 Initial Hessian              = CalcFC
 Hessian evaluation           = All updating
 Hessian updating method      = Bofill                              
 ------------------------------------------------------------------------
 IRC-IRC-IRC-IRC-IRC-IRC-IRC-IRC-IRC-IRC-IRC-IRC-IRC-IRC-IRC-IRC-IRC-IRC
                          Input orientation:                          
 ---------------------------------------------------------------------
 Center     Atomic      Atomic             Coordinates (Angstroms)
 Number     Number       Type             X           Y           Z
 ---------------------------------------------------------------------
      1         14           0       -0.022144   -0.440142   -0.028338
      2          8           0       -1.201746   -0.045934   -1.240344
      3          8           0        1.151481   -0.140660    1.233426
      4          8           0        1.284262   -0.267837   -1.211961
      5          8           0       -0.025153   -2.167821   -0.119427
      6          8           0       -1.260366   -0.291751    1.196250
      7          6           0       -2.510971   -0.013372    0.686909
      8          1           0       -3.121210   -0.938054    0.600241
      9          1           0       -3.059712    0.679531    1.349380
     10          6           0       -2.299200    0.605544   -0.699479
     11          1           0       -3.190173    0.461890   -1.338014
     12          1           0       -2.068992    1.674237   -0.583753
     13          6           0        2.325615    0.491195   -0.697769
     14          1           0        3.269409    0.272316   -1.231286
     15          1           0        2.079269    1.559948   -0.760155
     16          6           0        2.429818    0.104555    0.782394
     17          1           0        3.068116   -0.800602    0.891959
     18          1           0        2.905417    0.911835    1.365896
     19          8           0        0.048918    2.341616    0.070026
     20          1           0        0.120944    2.153661    1.006650
     21          1           0        0.656209   -2.361218   -0.760257
 ---------------------------------------------------------------------
                    Distance matrix (angstroms):
                    1          2          3          4          5
     1  Si   0.000000
     2  O    1.736611   0.000000
     3  O    1.749038   3.415580   0.000000
     4  O    1.771256   2.496053   2.452289   0.000000
     5  O    1.730081   2.672682   2.706300   2.553064   0.000000
     6  O    1.747807   2.449664   2.416861   3.503596   2.603151
     7  C    2.624494   2.330115   3.705191   4.251383   3.386904
     8  H    3.201131   2.804991   4.392340   4.810556   3.408199
     9  H    3.518323   3.268793   4.291888   5.131090   4.412863
    10  C    2.594007   1.386133   4.024940   3.723793   3.633085
    11  H    3.544760   2.054572   5.081863   4.535301   4.291583
    12  H    2.994774   2.035243   4.119155   3.925635   4.376561
    13  C    2.612948   3.609040   2.346773   1.387422   3.595964
    14  H    3.576171   4.482476   3.275816   2.057413   4.247898
    15  H    2.991965   3.684359   2.779788   2.043762   4.328439
    16  C    2.639337   4.159612   1.377572   2.329898   3.464658
    17  H    3.244470   4.831973   2.055630   2.809351   3.529944
    18  H    3.513167   4.957681   2.049777   3.265749   4.503188
    19  O    2.784404   2.996936   2.954799   3.158926   4.514023
    20  H    2.796335   3.411262   2.525340   3.484135   4.468176
    21  H    2.164810   3.007162   3.025053   2.231755   0.955154
                    6          7          8          9         10
     6  O    0.000000
     7  C    1.378744   0.000000
     8  H    2.058075   1.111278   0.000000
     9  H    2.050484   1.104581   1.783696   0.000000
    10  C    2.340535   1.532963   2.178914   2.186704   0.000000
    11  H    3.273320   2.188036   2.391951   2.699347   1.105530
    12  H    2.772615   2.158229   3.055007   2.389136   1.099315
    13  C    4.130323   5.056133   5.778883   5.764376   4.626229
    14  H    5.170103   6.097039   6.757181   6.847148   5.603862
    15  H    4.290626   5.063559   5.927535   5.624446   4.481692
    16  C    3.734407   4.943118   5.651029   5.548604   4.981019
    17  H    4.368899   5.638084   6.197721   6.320625   5.772175
    18  H    4.339487   5.536632   6.350476   5.969674   5.607818
    19  O    3.149163   3.532640   4.592067   3.750047   3.019891
    20  H    2.814961   3.424214   4.498381   3.522371   3.341353
    21  H    3.432765   4.199726   4.259724   5.244501   4.188056
                   11         12         13         14         15
    11  H    0.000000
    12  H    1.815418   0.000000
    13  C    5.552899   4.552489   0.000000
    14  H    6.463244   5.557266   1.106027   0.000000
    15  H    5.413564   4.153583   1.098550   1.815597   0.000000
    16  C    6.017318   4.956768   1.533373   2.188142   2.149537
    17  H    6.762607   5.890028   2.178826   2.387434   3.046226
    18  H    6.683547   5.396956   2.184450   2.699413   2.371216
    19  O    4.000957   2.314814   3.032642   4.043140   2.328633
    20  H    4.395797   2.748645   3.244905   4.296586   2.703541
    21  H    4.806079   4.872655   3.305614   3.739811   4.171408
                   16         17         18         19         20
    16  C    0.000000
    17  H    1.112986   0.000000
    18  H    1.103798   1.784244   0.000000
    19  O    3.343740   4.434486   3.447193   0.000000
    20  H    3.095162   4.174524   3.069931   0.958008   0.000000
    21  H    3.406684   3.314006   4.504702   4.814023   4.877766
                   21
    21  H    0.000000
 Symmetry turned off by external request.
 Stoichiometry    C4H10O6Si(2-)
 Framework group  C1[X(C4H10O6Si)]
 Deg. of freedom    57
 Full point group                 C1      NOp   1
 Rotational constants (GHZ):           1.5393095           0.8874488           0.7950594
 Standard basis: def2TZVPP (5D, 7F)
   492 basis functions,   749 primitive gaussians,   558 cartesian basis functions
    49 alpha electrons       49 beta electrons
       nuclear repulsion energy       871.9383682683 Hartrees.
 NAtoms=   21 NActive=   21 NUniq=   21 SFac= 1.00D+00 NAtFMM=   60 NAOKFM=F Big=F
 Integral buffers will be    131072 words long.
 Raffenetti 2 integral format.
 Two-electron integral symmetry is turned off.
 Nuclear repulsion after empirical dispersion term =      871.9257035870 Hartrees.
 One-electron integrals computed using PRISM.
   1 Symmetry operations used in ECPInt.
 ECPInt:  NShTT=   17020 NPrTT=   47563 LenC2=   16262 LenP2D=   35269.
 LDataN:  DoStor=T MaxTD1= 6 Len=  172
 NBasis=   492 RedAO= T EigKep=  2.54D-04  NBF=   492
 NBsUse=   492 1.00D-06 EigRej= -1.00D+00 NBFU=   492
 ExpMin= 7.01D-02 ExpMax= 4.48D+04 ExpMxC= 1.53D+03 IAcc=3 IRadAn=         5 AccDes= 0.00D+00
 Harris functional with IExCor= 4639 and IRadAn=       5 diagonalized for initial guess.
 HarFok:  IExCor= 4639 AccDes= 0.00D+00 IRadAn=         5 IDoV= 1 UseB2=F ITyADJ=14
 ICtDFT=  3500011 ScaDFX=  1.000000  1.000000  1.000000  1.000000
 FoFCou: FMM=F IPFlag=           0 FMFlag=      100000 FMFlg1=           0
         NFxFlg=           0 DoJE=T BraDBF=F KetDBF=T FulRan=T
         wScrn=  0.000000 ICntrl=       500 IOpCl=  0 I1Cent=   200000004 NGrid=           0
         NMat0=    1 NMatS0=      1 NMatT0=    0 NMatD0=    1 NMtDS0=    0 NMtDT0=    0
 Symmetry not used in FoFCou.
 Requested convergence on RMS density matrix=1.00D-08 within 128 cycles.
 Requested convergence on MAX density matrix=1.00D-06.
 Requested convergence on             energy=1.00D-06.
 No special actions if energy rises.
 Integral accuracy reduced to 1.0D-05 until final iterations.
 Initial convergence to 1.0D-05 achieved.  Increase integral accuracy.
 SCF Done:  E(RwB97XD) =  -899.436348708     A.U. after   16 cycles
            NFock= 16  Conv=0.41D-08     -V/T= 2.0035
 DoSCS=F DFT=T ScalE2(SS,OS)=  1.000000  1.000000
 Range of M.O.s used for correlation:     1   492
 NBasis=   492 NAE=    49 NBE=    49 NFC=     0 NFV=     0
 NROrb=    492 NOA=    49 NOB=    49 NVA=   443 NVB=   443

 **** Warning!!: The largest alpha MO coefficient is  0.12171235D+02

   1 Symmetry operations used in ECPInt.
 ECPInt:  NShTT=   17020 NPrTT=   47563 LenC2=   16262 LenP2D=   35269.
 LDataN:  DoStor=T MaxTD1= 7 Len=  274
 Symmetrizing basis deriv contribution to polar:
 IMax=3 JMax=2 DiffMx= 0.00D+00
 G2DrvN: will do    22 centers at a time, making    1 passes.
 Calling FoFCou, ICntrl=  3107 FMM=F I1Cent=   0 AccDes= 0.00D+00.
 End of G2Drv F.D. properties file   721 does not exist.
 End of G2Drv F.D. properties file   722 does not exist.
 End of G2Drv F.D. properties file   788 does not exist.
          IDoAtm=111111111111111111111
          Differentiating once with respect to nuclear coordinates.
 CalDSu exits because no D1Ps are significant.
          There are    66 degrees of freedom in the 1st order CPHF.  IDoFFX=6 NUNeed=     0.
     60 vectors produced by pass  0 Test12= 3.29D-14 1.52D-09 XBig12= 9.91D-02 4.66D-02.
 AX will form    60 AO Fock derivatives at one time.
     60 vectors produced by pass  1 Test12= 3.29D-14 1.52D-09 XBig12= 3.45D-02 2.42D-02.
     60 vectors produced by pass  2 Test12= 3.29D-14 1.52D-09 XBig12= 5.84D-04 3.52D-03.
     60 vectors produced by pass  3 Test12= 3.29D-14 1.52D-09 XBig12= 8.92D-06 4.39D-04.
     60 vectors produced by pass  4 Test12= 3.29D-14 1.52D-09 XBig12= 1.06D-07 4.85D-05.
     60 vectors produced by pass  5 Test12= 3.29D-14 1.52D-09 XBig12= 1.16D-09 3.75D-06.
     60 vectors produced by pass  6 Test12= 3.29D-14 1.52D-09 XBig12= 1.03D-11 3.16D-07.
     34 vectors produced by pass  7 Test12= 3.29D-14 1.52D-09 XBig12= 8.01D-14 2.94D-08.
      3 vectors produced by pass  8 Test12= 3.29D-14 1.52D-09 XBig12= 1.05D-15 2.26D-09.
 InvSVY:  IOpt=1 It=  1 EMax= 2.50D-16
 Solved reduced A of dimension   457 with    66 vectors.
 End of Minotr F.D. properties file   721 does not exist.
 End of Minotr F.D. properties file   722 does not exist.
 End of Minotr F.D. properties file   788 does not exist.

 **********************************************************************

            Population analysis using the SCF Density.

 **********************************************************************

 Alpha  occ. eigenvalues --  -65.98085 -18.90233 -18.90075 -18.89995 -18.89973
 Alpha  occ. eigenvalues --  -18.89504 -18.78112 -10.03149 -10.02953 -10.01645
 Alpha  occ. eigenvalues --  -10.01283  -5.08887  -3.43571  -3.43403  -3.43299
 Alpha  occ. eigenvalues --   -0.82075  -0.79913  -0.75791  -0.74922  -0.74106
 Alpha  occ. eigenvalues --   -0.59809  -0.51857  -0.49899  -0.39865  -0.37640
 Alpha  occ. eigenvalues --   -0.31286  -0.27930  -0.26929  -0.26289  -0.25973
 Alpha  occ. eigenvalues --   -0.23515  -0.21402  -0.20185  -0.18610  -0.17767
 Alpha  occ. eigenvalues --   -0.15705  -0.12562  -0.09292  -0.08827  -0.08003
 Alpha  occ. eigenvalues --   -0.07972  -0.06445  -0.06178  -0.05351  -0.03176
 Alpha  occ. eigenvalues --   -0.02355  -0.00877   0.05437   0.06034
 Alpha virt. eigenvalues --    0.37308   0.38010   0.40368   0.41314   0.42082
 Alpha virt. eigenvalues --    0.42751   0.43073   0.45417   0.47402   0.48335
 Alpha virt. eigenvalues --    0.49412   0.50386   0.52107   0.52931   0.53031
 Alpha virt. eigenvalues --    0.54905   0.55469   0.56406   0.56805   0.57338
 Alpha virt. eigenvalues --    0.57564   0.62395   0.63526   0.66081   0.67455
 Alpha virt. eigenvalues --    0.67795   0.68843   0.69824   0.70416   0.70800
 Alpha virt. eigenvalues --    0.71992   0.73012   0.74565   0.75013   0.75208
 Alpha virt. eigenvalues --    0.75679   0.76363   0.77027   0.77753   0.78722
 Alpha virt. eigenvalues --    0.79354   0.79714   0.81097   0.82177   0.82918
 Alpha virt. eigenvalues --    0.83896   0.84575   0.85180   0.86644   0.87549
 Alpha virt. eigenvalues --    0.87821   0.89112   0.90309   0.91639   0.94060
 Alpha virt. eigenvalues --    0.95194   0.95567   0.96564   0.98536   0.99918
 Alpha virt. eigenvalues --    0.99957   1.01731   1.04075   1.04960   1.06047
 Alpha virt. eigenvalues --    1.08168   1.08316   1.09121   1.09573   1.12347
 Alpha virt. eigenvalues --    1.12616   1.14699   1.15029   1.17053   1.17404
 Alpha virt. eigenvalues --    1.18171   1.19486   1.20123   1.20875   1.22065
 Alpha virt. eigenvalues --    1.23395   1.24100   1.25954   1.27080   1.28087
 Alpha virt. eigenvalues --    1.31484   1.32838   1.34554   1.35837   1.36087
 Alpha virt. eigenvalues --    1.37116   1.38367   1.38716   1.39476   1.41627
 Alpha virt. eigenvalues --    1.43373   1.43444   1.45166   1.45948   1.47584
 Alpha virt. eigenvalues --    1.48715   1.49748   1.50480   1.51402   1.52241
 Alpha virt. eigenvalues --    1.53574   1.54938   1.56573   1.56797   1.58240
 Alpha virt. eigenvalues --    1.58784   1.60731   1.61293   1.62694   1.64297
 Alpha virt. eigenvalues --    1.65460   1.66526   1.66918   1.68483   1.69376
 Alpha virt. eigenvalues --    1.70792   1.72871   1.73166   1.74354   1.77099
 Alpha virt. eigenvalues --    1.77901   1.78280   1.79562   1.81142   1.81604
 Alpha virt. eigenvalues --    1.83979   1.85364   1.85451   1.89464   1.91127
 Alpha virt. eigenvalues --    1.91709   1.92557   1.94421   1.95073   1.96996
 Alpha virt. eigenvalues --    1.97965   1.99224   2.04818   2.05687   2.06426
 Alpha virt. eigenvalues --    2.15184   2.15363   2.17301   2.21101   2.23638
 Alpha virt. eigenvalues --    2.24521   2.25842   2.27687   2.29409   2.30452
 Alpha virt. eigenvalues --    2.31181   2.32961   2.34976   2.37118   2.38425
 Alpha virt. eigenvalues --    2.39973   2.40479   2.42232   2.44092   2.45893
 Alpha virt. eigenvalues --    2.47337   2.48598   2.49109   2.50048   2.52423
 Alpha virt. eigenvalues --    2.52694   2.55026   2.55316   2.60949   2.61772
 Alpha virt. eigenvalues --    2.62223   2.64688   2.68857   2.71574   2.72199
 Alpha virt. eigenvalues --    2.72482   2.74575   2.76871   2.79392   2.80336
 Alpha virt. eigenvalues --    2.85758   2.87556   2.90434   2.90823   2.97186
 Alpha virt. eigenvalues --    2.98290   2.99109   3.00443   3.01529   3.02237
 Alpha virt. eigenvalues --    3.02654   3.04543   3.05334   3.13871   3.16044
 Alpha virt. eigenvalues --    3.16555   3.17316   3.19009   3.21402   3.22013
 Alpha virt. eigenvalues --    3.23297   3.23798   3.24213   3.25884   3.26299
 Alpha virt. eigenvalues --    3.30945   3.32170   3.34285   3.34866   3.35289
 Alpha virt. eigenvalues --    3.36176   3.37063   3.38026   3.39345   3.40897
 Alpha virt. eigenvalues --    3.42514   3.44248   3.45567   3.45953   3.48651
 Alpha virt. eigenvalues --    3.50007   3.51891   3.53247   3.53642   3.54764
 Alpha virt. eigenvalues --    3.55760   3.58571   3.58642   3.59780   3.61124
 Alpha virt. eigenvalues --    3.62891   3.65888   3.66148   3.69020   3.69773
 Alpha virt. eigenvalues --    3.71640   3.73016   3.74860   3.74939   3.77805
 Alpha virt. eigenvalues --    3.78862   3.82728   3.83453   3.84369   3.86191
 Alpha virt. eigenvalues --    3.86651   3.89014   3.91419   3.91867   3.93103
 Alpha virt. eigenvalues --    3.94124   3.95660   3.96645   3.98420   4.01097
 Alpha virt. eigenvalues --    4.02856   4.03605   4.04963   4.06126   4.07131
 Alpha virt. eigenvalues --    4.09310   4.11209   4.12302   4.13675   4.14418
 Alpha virt. eigenvalues --    4.15118   4.16032   4.16642   4.20438   4.21574
 Alpha virt. eigenvalues --    4.22150   4.23608   4.25896   4.28084   4.29376
 Alpha virt. eigenvalues --    4.32639   4.33242   4.35552   4.37682   4.38108
 Alpha virt. eigenvalues --    4.39158   4.41288   4.43722   4.44014   4.47762
 Alpha virt. eigenvalues --    4.48854   4.49430   4.50092   4.51038   4.51587
 Alpha virt. eigenvalues --    4.54981   4.55211   4.56832   4.58005   4.60037
 Alpha virt. eigenvalues --    4.62529   4.62846   4.64158   4.66849   4.68979
 Alpha virt. eigenvalues --    4.70517   4.71372   4.72677   4.74091   4.75958
 Alpha virt. eigenvalues --    4.76468   4.79658   4.88001   4.91372   4.93502
 Alpha virt. eigenvalues --    4.94076   4.96555   4.98105   5.00119   5.02596
 Alpha virt. eigenvalues --    5.05427   5.06810   5.11301   5.12758   5.14279
 Alpha virt. eigenvalues --    5.14757   5.16526   5.18598   5.21350   5.23270
 Alpha virt. eigenvalues --    5.25405   5.28899   5.30045   5.30252   5.31717
 Alpha virt. eigenvalues --    5.33954   5.37525   5.42121   5.43713   5.44494
 Alpha virt. eigenvalues --    5.46587   5.47796   5.50010   5.52351   5.53482
 Alpha virt. eigenvalues --    5.55369   5.56152   5.60588   5.63940   5.66013
 Alpha virt. eigenvalues --    5.67106   5.68121   5.69405   5.69866   5.73780
 Alpha virt. eigenvalues --    5.75322   5.76667   5.81051   5.82831   5.84501
 Alpha virt. eigenvalues --    5.85002   5.87146   5.88023   5.88223   5.90936
 Alpha virt. eigenvalues --    5.93000   5.93552   5.95685   5.96873   5.98124
 Alpha virt. eigenvalues --    5.98770   6.00713   6.01415   6.02713   6.04638
 Alpha virt. eigenvalues --    6.06160   6.08570   6.11566   6.13004   6.20167
 Alpha virt. eigenvalues --    6.37719   6.38230   6.39015   6.43191   6.47009
 Alpha virt. eigenvalues --    6.50014   6.52059   6.53133   6.54662   6.57300
 Alpha virt. eigenvalues --    6.60494   6.66039   6.73565   6.87870   6.93460
 Alpha virt. eigenvalues --    6.95440   6.95974   6.96457   7.00342   7.01363
 Alpha virt. eigenvalues --    7.02947   7.04345   7.06613   7.07606   7.08791
 Alpha virt. eigenvalues --    7.12905   7.14134   7.15919   7.20371   7.21987
 Alpha virt. eigenvalues --    7.22095   7.23942   7.25129   7.27278   7.36533
 Alpha virt. eigenvalues --    7.39671   7.42295   7.45576   7.49360   7.50540
 Alpha virt. eigenvalues --    7.54669   7.60459   7.65241   7.66173   7.68577
 Alpha virt. eigenvalues --    7.75636   7.80472   7.87240   7.90111   7.95218
 Alpha virt. eigenvalues --    7.98469   8.06943  12.33884  23.66779  23.67173
 Alpha virt. eigenvalues --   23.80680  23.82104  44.17631  44.25441  44.53738
 Alpha virt. eigenvalues --   44.60416  44.67360  44.78658
          Condensed to atoms (all electrons):
               1          2          3          4          5          6
     1  Si  11.634207   0.348496   0.333224   0.312393   0.471324   0.337457
     2  O    0.348496   8.070248   0.001135  -0.044503  -0.043229  -0.040748
     3  O    0.333224   0.001135   8.081175  -0.030914  -0.045583  -0.045823
     4  O    0.312393  -0.044503  -0.030914   8.180590  -0.070823   0.006998
     5  O    0.471324  -0.043229  -0.045583  -0.070823   7.927792  -0.036289
     6  O    0.337457  -0.040748  -0.045823   0.006998  -0.036289   8.089849
     7  C   -0.069430  -0.122390  -0.000175  -0.003468   0.002493   0.371641
     8  H    0.014137   0.013447  -0.000018  -0.000119   0.002582  -0.068823
     9  H   -0.007050   0.007585   0.000254   0.000133  -0.000617  -0.045382
    10  C   -0.075104   0.364672  -0.002101   0.003029  -0.010428  -0.100904
    11  H   -0.007379  -0.045521  -0.000116  -0.000400  -0.000197   0.007396
    12  H    0.007569  -0.042711   0.001130   0.000584  -0.000292   0.008360
    13  C   -0.070089   0.001008  -0.088356   0.345038  -0.008382  -0.002356
    14  H   -0.008025  -0.000683   0.005924  -0.044517  -0.000151  -0.000033
    15  H   -0.001485   0.002521   0.007363  -0.033694  -0.000645   0.000754
    16  C   -0.018596  -0.005140   0.354505  -0.134033  -0.000200   0.000935
    17  H   -0.002257  -0.000006  -0.070901   0.016818   0.002056   0.000284
    18  H   -0.004104   0.000175  -0.045971   0.009166  -0.000492   0.000267
    19  O    0.130823  -0.024768  -0.024867  -0.010115   0.000152  -0.013907
    20  H   -0.066198   0.004860   0.011268   0.003751  -0.000004   0.008291
    21  H   -0.064344  -0.000141  -0.001163   0.019799   0.304734   0.004971
               7          8          9         10         11         12
     1  Si  -0.069430   0.014137  -0.007050  -0.075104  -0.007379   0.007569
     2  O   -0.122390   0.013447   0.007585   0.364672  -0.045521  -0.042711
     3  O   -0.000175  -0.000018   0.000254  -0.002101  -0.000116   0.001130
     4  O   -0.003468  -0.000119   0.000133   0.003029  -0.000400   0.000584
     5  O    0.002493   0.002582  -0.000617  -0.010428  -0.000197  -0.000292
     6  O    0.371641  -0.068823  -0.045382  -0.100904   0.007396   0.008360
     7  C    5.035780   0.320155   0.312189   0.019672   0.026805  -0.031669
     8  H    0.320155   0.944254  -0.124947  -0.046308  -0.031403   0.021023
     9  H    0.312189  -0.124947   0.889230   0.007250   0.016250  -0.020752
    10  C    0.019672  -0.046308   0.007250   5.307682   0.222849   0.259313
    11  H    0.026805  -0.031403   0.016250   0.222849   0.934793  -0.072370
    12  H   -0.031669   0.021023  -0.020752   0.259313  -0.072370   0.785071
    13  C    0.003943  -0.000173   0.000101  -0.013702   0.000282   0.006698
    14  H   -0.000193  -0.000001   0.000001   0.000308  -0.000012  -0.000067
    15  H   -0.001586  -0.000009   0.000019   0.007082  -0.000072  -0.003640
    16  C   -0.006307   0.000258   0.000053   0.007324  -0.000210  -0.002830
    17  H    0.000210  -0.000018   0.000003  -0.000090  -0.000001  -0.000024
    18  H   -0.000020   0.000003  -0.000007   0.000235   0.000001   0.000002
    19  O    0.036159   0.000186  -0.001644  -0.102825   0.002792   0.087143
    20  H    0.001441   0.000216   0.000405   0.000397  -0.000245  -0.001877
    21  H    0.000514  -0.000516   0.000082  -0.000264   0.000104  -0.000037
              13         14         15         16         17         18
     1  Si  -0.070089  -0.008025  -0.001485  -0.018596  -0.002257  -0.004104
     2  O    0.001008  -0.000683   0.002521  -0.005140  -0.000006   0.000175
     3  O   -0.088356   0.005924   0.007363   0.354505  -0.070901  -0.045971
     4  O    0.345038  -0.044517  -0.033694  -0.134033   0.016818   0.009166
     5  O   -0.008382  -0.000151  -0.000645  -0.000200   0.002056  -0.000492
     6  O   -0.002356  -0.000033   0.000754   0.000935   0.000284   0.000267
     7  C    0.003943  -0.000193  -0.001586  -0.006307   0.000210  -0.000020
     8  H   -0.000173  -0.000001  -0.000009   0.000258  -0.000018   0.000003
     9  H    0.000101   0.000001   0.000019   0.000053   0.000003  -0.000007
    10  C   -0.013702   0.000308   0.007082   0.007324  -0.000090   0.000235
    11  H    0.000282  -0.000012  -0.000072  -0.000210  -0.000001   0.000001
    12  H    0.006698  -0.000067  -0.003640  -0.002830  -0.000024   0.000002
    13  C    5.394110   0.208557   0.240311  -0.015143  -0.045514  -0.007112
    14  H    0.208557   0.947006  -0.070125   0.031770  -0.033427   0.016166
    15  H    0.240311  -0.070125   0.782821  -0.024119   0.023556  -0.017122
    16  C   -0.015143   0.031770  -0.024119   5.040443   0.311688   0.334137
    17  H   -0.045514  -0.033427   0.023556   0.311688   0.961740  -0.119204
    18  H   -0.007112   0.016166  -0.017122   0.334137  -0.119204   0.856667
    19  O   -0.115346   0.003570   0.089685   0.068345   0.000172  -0.000584
    20  H    0.007052  -0.000642  -0.004836  -0.009955   0.000532   0.001517
    21  H    0.004792  -0.000988   0.000116  -0.004534   0.002613  -0.000056
              19         20         21
     1  Si   0.130823  -0.066198  -0.064344
     2  O   -0.024768   0.004860  -0.000141
     3  O   -0.024867   0.011268  -0.001163
     4  O   -0.010115   0.003751   0.019799
     5  O    0.000152  -0.000004   0.304734
     6  O   -0.013907   0.008291   0.004971
     7  C    0.036159   0.001441   0.000514
     8  H    0.000186   0.000216  -0.000516
     9  H   -0.001644   0.000405   0.000082
    10  C   -0.102825   0.000397  -0.000264
    11  H    0.002792  -0.000245   0.000104
    12  H    0.087143  -0.001877  -0.000037
    13  C   -0.115346   0.007052   0.004792
    14  H    0.003570  -0.000642  -0.000988
    15  H    0.089685  -0.004836   0.000116
    16  C    0.068345  -0.009955  -0.004534
    17  H    0.000172   0.000532   0.002613
    18  H   -0.000584   0.001517  -0.000056
    19  O    8.499916   0.257017   0.000413
    20  H    0.257017   0.668134  -0.000222
    21  H    0.000413  -0.000222   0.616351
 Mulliken charges:
               1
     1  Si   0.804433
     2  O   -0.444308
     3  O   -0.439990
     4  O   -0.525711
     5  O   -0.493800
     6  O   -0.482936
     7  C    0.104235
     8  H   -0.043927
     9  H   -0.033156
    10  C    0.151914
    11  H   -0.053344
    12  H   -0.000623
    13  C    0.154282
    14  H   -0.054440
    15  H    0.003102
    16  C    0.071609
    17  H   -0.048229
    18  H   -0.023663
    19  O   -0.882318
    20  H    0.119096
    21  H    0.117774
 Sum of Mulliken charges =  -2.00000
 Mulliken charges with hydrogens summed into heavy atoms:
               1
     1  Si   0.804433
     2  O   -0.444308
     3  O   -0.439990
     4  O   -0.525711
     5  O   -0.376026
     6  O   -0.482936
     7  C    0.027152
    10  C    0.097947
    13  C    0.102944
    16  C   -0.000283
    19  O   -0.763222
 APT charges:
               1
     1  Si   0.002738
     2  O   -0.335922
     3  O   -0.343124
     4  O   -0.403995
     5  O   -0.582512
     6  O   -0.361987
     7  C   -0.535386
     8  H    0.323312
     9  H    0.348551
    10  C   -0.412501
    11  H    0.363835
    12  H    0.174123
    13  C   -0.425080
    14  H    0.371302
    15  H    0.166227
    16  C   -0.566168
    17  H    0.314540
    18  H    0.340940
    19  O   -0.856408
    20  H    0.042249
    21  H    0.375265
 Sum of APT charges =  -2.00000
 APT charges with hydrogens summed into heavy atoms:
               1
     1  Si   0.002738
     2  O   -0.335922
     3  O   -0.343124
     4  O   -0.403995
     5  O   -0.207247
     6  O   -0.361987
     7  C    0.136478
    10  C    0.125457
    13  C    0.112450
    16  C    0.089311
    19  O   -0.814159
 Electronic spatial extent (au):  <R**2>=           1760.7383
 Charge=             -2.0000 electrons
 Dipole moment (field-independent basis, Debye):
    X=              0.6687    Y=             -3.7805    Z=              0.0262  Tot=              3.8393
 Quadrupole moment (field-independent basis, Debye-Ang):
   XX=            -95.4461   YY=           -109.6694   ZZ=            -92.3701
   XY=             -2.4055   XZ=             -0.3226   YZ=              3.3739
 Traceless Quadrupole moment (field-independent basis, Debye-Ang):
   XX=              3.7158   YY=            -10.5076   ZZ=              6.7918
   XY=             -2.4055   XZ=             -0.3226   YZ=              3.3739
 Octapole moment (field-independent basis, Debye-Ang**2):
  XXX=             -0.4040  YYY=            -51.7640  ZZZ=              0.1677  XYY=              5.7302
  XXY=             -2.7939  XXZ=             -0.6292  XZZ=              0.3646  YZZ=              0.8974
  YYZ=             -3.3920  XYZ=              1.2322
 Hexadecapole moment (field-independent basis, Debye-Ang**3):
 XXXX=          -1574.6865 YYYY=           -827.6924 ZZZZ=           -455.7569 XXXY=             -1.0967
 XXXZ=              0.4836 YYYX=            -19.8496 YYYZ=             18.0767 ZZZX=             -1.1961
 ZZZY=              7.8662 XXYY=           -347.8449 XXZZ=           -343.9199 YYZZ=           -165.5804
 XXYZ=              7.8390 YYXZ=             -5.0863 ZZXY=             -0.9305
 N-N= 8.719257035870D+02 E-N=-3.903600403533D+03  KE= 8.963149855620D+02
  Exact polarizability:       0.000       0.000       0.000       0.000       0.000       0.000
 Approx polarizability:     118.720      -0.620     104.242      -0.577       1.904     103.191
   1 Symmetry operations used in ECPInt.
 ECPInt:  NShTT=   17020 NPrTT=   47563 LenC2=   16262 LenP2D=   35269.
 LDataN:  DoStor=T MaxTD1= 8 Len=  415
 Calling FoFJK, ICntrl=    100127 FMM=F ISym2X=0 I1Cent= 0 IOpClX= 0 NMat=1 NMatS=1 NMatT=0.
 -------------------------------------------------------------------
 Center     Atomic                   Forces (Hartrees/Bohr)
 Number     Number              X              Y              Z
 -------------------------------------------------------------------
      1       14          -0.000051193   -0.000004230   -0.000038453
      2        8           0.000012950    0.000020833   -0.000000129
      3        8          -0.000003185    0.000003020   -0.000016092
      4        8           0.000023713   -0.000006495    0.000028109
      5        8          -0.000008109   -0.000008874    0.000012686
      6        8           0.000035121   -0.000000259    0.000026714
      7        6          -0.000002199    0.000000982    0.000008894
      8        1          -0.000002986    0.000005249    0.000005073
      9        1           0.000005659    0.000005329    0.000005331
     10        6           0.000011755   -0.000009269    0.000005346
     11        1           0.000001251   -0.000001854    0.000002793
     12        1           0.000000423    0.000002883   -0.000006086
     13        6           0.000000752   -0.000013598   -0.000000657
     14        1          -0.000000109   -0.000007806   -0.000000609
     15        1           0.000000953    0.000002846   -0.000005047
     16        6          -0.000005272    0.000000400   -0.000007730
     17        1          -0.000002436   -0.000001014   -0.000000588
     18        1           0.000000176   -0.000000751   -0.000005762
     19        8          -0.000010729    0.000003085   -0.000009853
     20        1           0.000001841   -0.000001882   -0.000004801
     21        1          -0.000008375    0.000011404    0.000000861
 -------------------------------------------------------------------
 Cartesian Forces:  Max     0.000051193 RMS     0.000012633
 IRC-IRC-IRC-IRC-IRC-IRC-IRC-IRC-IRC-IRC-IRC-IRC-IRC-IRC-IRC-IRC-IRC-IRC
          ******** Start new reaction path calculation ********
 Supplied step size of   0.1000 bohr.
    Integration on MW PES will use step size of   0.3422 sqrt(amu)*bohr.
 Point Number:   0          Path Number:   1
 Calculating another point on the path.
 IRC-IRC-IRC-IRC-IRC-IRC-IRC-IRC-IRC-IRC-IRC-IRC-IRC-IRC-IRC-IRC-IRC-IRC
                          Input orientation:                          
 ---------------------------------------------------------------------
 Center     Atomic      Atomic             Coordinates (Angstroms)
 Number     Number       Type             X           Y           Z
 ---------------------------------------------------------------------
      1         14           0       -0.018717   -0.433353   -0.025916
      2          8           0       -1.194436   -0.026858   -1.235305
      3          8           0        1.151047   -0.120069    1.233893
      4          8           0        1.287529   -0.255435   -1.208363
      5          8           0       -0.021245   -2.157809   -0.116944
      6          8           0       -1.256034   -0.277738    1.198164
      7          6           0       -2.506053    0.006134    0.689455
      8          1           0       -3.119117   -0.916343    0.599727
      9          1           0       -3.052047    0.698675    1.354135
     10          6           0       -2.290117    0.628895   -0.694101
     11          1           0       -3.180253    0.491690   -1.334885
     12          1           0       -2.052462    1.695729   -0.574435
     13          6           0        2.324139    0.512181   -0.695287
     14          1           0        3.268939    0.299985   -1.229375
     15          1           0        2.068419    1.579056   -0.756700
     16          6           0        2.430253    0.126590    0.784261
     17          1           0        3.069264   -0.777763    0.894809
     18          1           0        2.902874    0.934865    1.368098
     19          8           0        0.053689    2.398752    0.074685
     20          1           0        0.123720    2.178455    1.005058
     21          1           0        0.661548   -2.351755   -0.756132
 ---------------------------------------------------------------------
                    Distance matrix (angstroms):
                    1          2          3          4          5
     1  Si   0.000000
     2  O    1.734986   0.000000
     3  O    1.747459   3.406893   0.000000
     4  O    1.770907   2.492614   2.449809   0.000000
     5  O    1.726859   2.677323   2.711349   2.554038   0.000000
     6  O    1.747439   2.447142   2.412504   3.501654   2.605547
     7  C    2.625214   2.329406   3.699557   4.249870   3.392226
     8  H    3.199561   2.804090   4.389820   4.808795   3.413453
     9  H    3.519534   3.268381   4.283783   5.129194   4.416937
    10  C    2.595015   1.386879   4.014937   3.721029   3.639589
    11  H    3.544632   2.054819   5.072773   4.531587   4.299135
    12  H    2.994993   2.034764   4.102394   3.919751   4.380057
    13  C    2.613630   3.600354   2.344700   1.388179   3.600576
    14  H    3.576979   4.475329   3.275607   2.057891   4.254829
    15  H    2.989978   3.668003   2.773275   2.044296   4.328989
    16  C    2.639579   4.152176   1.378179   2.328585   3.469941
    17  H    3.240676   4.824975   2.055991   2.805483   3.532622
    18  H    3.514397   4.948795   2.049340   3.265624   4.507822
    19  O    2.834816   3.026132   2.982015   3.195823   4.561204
    20  H    2.811536   3.408836   2.528038   3.489627   4.481415
    21  H    2.162462   3.013208   3.029890   2.234037   0.955188
                    6          7          8          9         10
     6  O    0.000000
     7  C    1.379099   0.000000
     8  H    2.058402   1.111243   0.000000
     9  H    2.050212   1.104319   1.783792   0.000000
    10  C    2.339225   1.532542   2.179217   2.186475   0.000000
    11  H    3.272762   2.188210   2.393536   2.700019   1.105338
    12  H    2.769653   2.158216   3.056032   2.390119   1.099516
    13  C    4.126350   5.050183   5.774666   5.756586   4.615732
    14  H    5.167407   6.092519   6.755170   6.840200   5.594444
    15  H    4.280323   5.048885   5.914172   5.608017   4.461341
    16  C    3.731422   4.938686   5.649537   5.541448   4.971897
    17  H    4.364660   5.633900   6.196962   6.313580   5.764225
    18  H    4.335413   5.529882   6.346790   5.959619   5.595841
    19  O    3.184522   3.557365   4.618681   3.764684   3.035927
    20  H    2.823809   3.425535   4.500895   3.520951   3.333899
    21  H    3.434813   4.205123   4.265230   5.248727   4.195289
                   11         12         13         14         15
    11  H    0.000000
    12  H    1.816565   0.000000
    13  C    5.541465   4.535419   0.000000
    14  H    6.452903   5.540248   1.105859   0.000000
    15  H    5.391217   4.126559   1.098812   1.816781   0.000000
    16  C    6.008482   4.939938   1.532645   2.188194   2.148288
    17  H    6.755703   5.874429   2.178892   2.390308   3.046928
    18  H    6.671354   5.376588   2.184297   2.698878   2.371932
    19  O    4.010256   2.313324   3.050730   4.055025   2.328570
    20  H    4.385972   2.731957   3.241833   4.291123   2.691639
    21  H    4.814516   4.876575   3.312104   3.748889   4.174992
                   16         17         18         19         20
    16  C    0.000000
    17  H    1.112839   0.000000
    18  H    1.103424   1.784597   0.000000
    19  O    3.363670   4.456069   3.454524   0.000000
    20  H    3.094995   4.174639   3.066269   0.958660   0.000000
    21  H    3.412231   3.316648   4.509741   4.860768   4.890178
                   21
    21  H    0.000000
 Symmetry turned off by external request.
 Stoichiometry    C4H10O6Si(2-)
 Framework group  C1[X(C4H10O6Si)]
 Deg. of freedom    57
 Full point group                 C1      NOp   1
 Rotational constants (GHZ):           1.5218027           0.8901543           0.7917504
 Standard basis: def2TZVPP (5D, 7F)
   492 basis functions,   749 primitive gaussians,   558 cartesian basis functions
    49 alpha electrons       49 beta electrons
       nuclear repulsion energy       871.0411546846 Hartrees.
 NAtoms=   21 NActive=   21 NUniq=   21 SFac= 1.00D+00 NAtFMM=   60 NAOKFM=F Big=F
 Integral buffers will be    131072 words long.
 Raffenetti 2 integral format.
 Two-electron integral symmetry is turned off.
 Nuclear repulsion after empirical dispersion term =      871.0284679844 Hartrees.
 One-electron integrals computed using PRISM.
   1 Symmetry operations used in ECPInt.
 ECPInt:  NShTT=   17020 NPrTT=   47563 LenC2=   16260 LenP2D=   35255.
 LDataN:  DoStor=T MaxTD1= 6 Len=  172
 NBasis=   492 RedAO= T EigKep=  2.55D-04  NBF=   492
 NBsUse=   492 1.00D-06 EigRej= -1.00D+00 NBFU=   492
 Initial guess from the checkpoint file:  "IRCReverse_HBiL2toPBiL2.chk"
 B after Tr=     0.006743    0.037306    0.005560
         Rot=    1.000000   -0.000008   -0.000004   -0.000001 Ang=  -0.00 deg.
 ExpMin= 7.01D-02 ExpMax= 4.48D+04 ExpMxC= 1.53D+03 IAcc=3 IRadAn=         5 AccDes= 0.00D+00
 Harris functional with IExCor= 4639 and IRadAn=       5 diagonalized for initial guess.
 HarFok:  IExCor= 4639 AccDes= 0.00D+00 IRadAn=         5 IDoV= 1 UseB2=F ITyADJ=14
 ICtDFT=  3500011 ScaDFX=  1.000000  1.000000  1.000000  1.000000
 FoFCou: FMM=F IPFlag=           0 FMFlag=      100000 FMFlg1=           0
         NFxFlg=           0 DoJE=T BraDBF=F KetDBF=T FulRan=T
         wScrn=  0.000000 ICntrl=       500 IOpCl=  0 I1Cent=   200000004 NGrid=           0
         NMat0=    1 NMatS0=      1 NMatT0=    0 NMatD0=    1 NMtDS0=    0 NMtDT0=    0
 Symmetry not used in FoFCou.
 Requested convergence on RMS density matrix=1.00D-08 within 128 cycles.
 Requested convergence on MAX density matrix=1.00D-06.
 Requested convergence on             energy=1.00D-06.
 No special actions if energy rises.
 Integral accuracy reduced to 1.0D-05 until final iterations.
 Initial convergence to 1.0D-05 achieved.  Increase integral accuracy.
 SCF Done:  E(RwB97XD) =  -899.436408874     A.U. after   13 cycles
            NFock= 13  Conv=0.51D-08     -V/T= 2.0035
 DoSCS=F DFT=T ScalE2(SS,OS)=  1.000000  1.000000
 Range of M.O.s used for correlation:     1   492
 NBasis=   492 NAE=    49 NBE=    49 NFC=     0 NFV=     0
 NROrb=    492 NOA=    49 NOB=    49 NVA=   443 NVB=   443

 **** Warning!!: The largest alpha MO coefficient is  0.12219427D+02

 Symmetrizing basis deriv contribution to polar:
 IMax=3 JMax=2 DiffMx= 0.00D+00
   1 Symmetry operations used in ECPInt.
 ECPInt:  NShTT=   17020 NPrTT=   47563 LenC2=   16260 LenP2D=   35255.
 LDataN:  DoStor=T MaxTD1= 7 Len=  274
 Calling FoFJK, ICntrl=      2127 FMM=F ISym2X=0 I1Cent= 0 IOpClX= 0 NMat=1 NMatS=1 NMatT=0.
 -------------------------------------------------------------------
 Center     Atomic                   Forces (Hartrees/Bohr)
 Number     Number              X              Y              Z
 -------------------------------------------------------------------
      1       14          -0.000060026   -0.000586793   -0.000042875
      2        8           0.000105220   -0.000001527    0.000047708
      3        8          -0.000105207    0.000034872   -0.000084240
      4        8           0.000051092   -0.000233488    0.000036899
      5        8           0.000005350   -0.000327550   -0.000000968
      6        8           0.000024541   -0.000192190    0.000007371
      7        6           0.000040191   -0.000008185    0.000005669
      8        1          -0.000003968    0.000015217   -0.000002692
      9        1           0.000012131    0.000001990    0.000008664
     10        6           0.000161969    0.000071568    0.000065813
     11        1           0.000023583    0.000022985    0.000010677
     12        1           0.000001901   -0.000012839   -0.000005467
     13        6          -0.000150904    0.000014428   -0.000017528
     14        1          -0.000021793    0.000013542   -0.000000616
     15        1          -0.000010098   -0.000013827   -0.000009029
     16        6          -0.000094776    0.000055689   -0.000029386
     17        1          -0.000004914    0.000006356   -0.000002500
     18        1          -0.000008901    0.000007145   -0.000007540
     19        8           0.000080420    0.001034807    0.000596516
     20        1          -0.000039187    0.000106460   -0.000581305
     21        1          -0.000006624   -0.000008662    0.000004830
 -------------------------------------------------------------------
 Cartesian Forces:  Max     0.001034807 RMS     0.000197072
 IRC-IRC-IRC-IRC-IRC-IRC-IRC-IRC-IRC-IRC-IRC-IRC-IRC-IRC-IRC-IRC-IRC-IRC
 Pt  1 Step number   1 out of a maximum of 100
 Modified Bulirsch-Stoer Extrapolation Cycles:
    EPS =    0.000010000000000
      PEZero:  N= 2 I= 1 D=  8.91D-04 Err=  2.86D-02
      PEZero:  N= 3 I= 2 D=  8.91D-04 Err=  4.16D-02
      PEZero:  N= 3 I= 1 D=  1.78D-03 Err=  3.38D-02
      PEZero:  N= 4 I= 3 D=  4.46D-04 Err=  6.92D-02
      PEZero:  N= 4 I= 2 D=  1.34D-03 Err=  5.07D-02
      PEZero:  N= 4 I= 1 D=  2.23D-03 Err=  4.05D-02
      PEZero:  N= 5 I= 4 D=  4.46D-04 Err=  9.23D-02
      PEZero:  N= 5 I= 3 D=  8.91D-04 Err=  6.93D-02
      PEZero:  N= 5 I= 2 D=  1.78D-03 Err=  4.40D-02
      PEZero:  N= 5 I= 1 D=  2.67D-03 Err=  3.05D-02
      PEZero:  N= 6 I= 5 D=  2.23D-04 Err=  3.65D-02
      PEZero:  N= 6 I= 4 D=  6.68D-04 Err=  4.36D-02
      PEZero:  N= 7 I= 6 D=  2.23D-04 Err=  1.28D-03
      PEZero:  N= 7 I= 5 D=  4.46D-04 Err=  3.46D-02
      PEZero:  N= 8 I= 7 D=  1.11D-04 Err=  3.31D-04
      PEZero:  N= 8 I= 6 D=  3.34D-04 Err=  8.37D-04
      PEZero:  N= 9 I= 8 D=  1.11D-04 Err=  2.05D-04
      PEZero:  N= 9 I= 7 D=  2.23D-04 Err=  2.27D-05
      PEZero:  N= 9 I= 6 D=  4.46D-04 Err=  3.47D-02
      PEZero:  N=10 I= 9 D=  5.57D-05 Err=  1.51D-04
      PEZero:  N=10 I= 8 D=  1.67D-04 Err=  4.35D-06
      PEZero:  N=10 I= 7 D=  2.78D-04 Err=  8.38D-06
 Maximum DWI energy   std dev =  0.000001131 at pt     2
 Maximum DWI gradient std dev =  0.719270219 at pt     4
 CORRECTOR INTEGRATION CONVERGENCE:
   Recorrection delta-x convergence threshold:    0.010000
   Delta-x Convergence Met
 Point Number:   1          Path Number:   1
   CHANGE IN THE REACTION COORDINATE =    0.34206
   NET REACTION COORDINATE UP TO THIS POINT =    0.34206
  # OF POINTS ALONG THE PATH =   1
  # OF STEPS =   1

 Calculating another point on the path.
 IRC-IRC-IRC-IRC-IRC-IRC-IRC-IRC-IRC-IRC-IRC-IRC-IRC-IRC-IRC-IRC-IRC-IRC
                          Input orientation:                          
 ---------------------------------------------------------------------
 Center     Atomic      Atomic             Coordinates (Angstroms)
 Number     Number       Type             X           Y           Z
 ---------------------------------------------------------------------
      1         14           0       -0.018991   -0.445899   -0.026385
      2          8           0       -1.190776   -0.027269   -1.233095
      3          8           0        1.147036   -0.118447    1.231266
      4          8           0        1.287272   -0.263464   -1.207799
      5          8           0       -0.021190   -2.167393   -0.116979
      6          8           0       -1.255212   -0.283528    1.197461
      7          6           0       -2.504558    0.006486    0.689698
      8          1           0       -3.121198   -0.913326    0.597685
      9          1           0       -3.047053    0.699431    1.356427
     10          6           0       -2.284780    0.632382   -0.691481
     11          1           0       -3.174173    0.500883   -1.334153
     12          1           0       -2.040545    1.697546   -0.568729
     13          6           0        2.319142    0.512828   -0.696349
     14          1           0        3.264877    0.306642   -1.230804
     15          1           0        2.054634    1.577850   -0.757774
     16          6           0        2.427078    0.129294    0.782853
     17          1           0        3.066732   -0.774229    0.894916
     18          1           0        2.896852    0.938920    1.366423
     19          8           0        0.055074    2.436292    0.075973
     20          1           0        0.125099    2.182389    0.998538
     21          1           0        0.662653   -2.361946   -0.754896
 ---------------------------------------------------------------------
                    Distance matrix (angstroms):
                    1          2          3          4          5
     1  Si   0.000000
     2  O    1.733343   0.000000
     3  O    1.746004   3.398051   0.000000
     4  O    1.770690   2.489408   2.447393   0.000000
     5  O    1.723877   2.682121   2.716743   2.554781   0.000000
     6  O    1.747114   2.444876   2.408151   3.499986   2.607586
     7  C    2.625923   2.329011   3.693649   4.248687   3.397586
     8  H    3.198694   2.804172   4.387605   4.807983   3.419572
     9  H    3.520385   3.267947   4.274924   5.127260   4.421023
    10  C    2.595928   1.387563   4.004755   3.718694   3.645906
    11  H    3.544267   2.054999   5.063377   4.528210   4.306101
    12  H    2.995860   2.034325   4.086378   3.915142   4.384019
    13  C    2.614359   3.591563   2.342656   1.388872   3.605053
    14  H    3.577811   4.468148   3.275323   2.058269   4.261419
    15  H    2.988379   3.651715   2.767207   2.044947   4.329724
    16  C    2.639881   4.144566   1.378752   2.327254   3.475412
    17  H    3.237017   4.817961   2.056310   2.801564   3.535548
    18  H    3.515648   4.939607   2.048939   3.265440   4.512719
    19  O    2.884959   3.055313   3.008949   3.233429   4.608357
    20  H    2.824736   3.405041   2.528313   3.492960   4.492926
    21  H    2.160232   3.019038   3.035252   2.235821   0.955212
                    6          7          8          9         10
     6  O    0.000000
     7  C    1.379419   0.000000
     8  H    2.058709   1.111200   0.000000
     9  H    2.049920   1.104084   1.783864   0.000000
    10  C    2.338162   1.532222   2.179623   2.186202   0.000000
    11  H    3.272122   2.188329   2.394743   2.700889   1.105142
    12  H    2.767821   2.158387   3.056958   2.390715   1.099679
    13  C    4.122706   5.044362   5.771112   5.748457   4.605476
    14  H    5.164879   6.088087   6.753788   6.832899   5.585309
    15  H    4.271153   5.034937   5.901903   5.591840   4.441713
    16  C    3.728483   4.934045   5.648426   5.533548   4.962698
    17  H    4.360220   5.629467   6.196626   6.305793   5.756204
    18  H    4.331578   5.522918   6.343399   5.948737   5.583749
    19  O    3.220560   3.582225   4.645517   3.778815   3.052539
    20  H    2.832945   3.427103   4.503619   3.519914   3.326590
    21  H    3.436528   4.210409   4.271475   5.252773   4.202069
                   11         12         13         14         15
    11  H    0.000000
    12  H    1.817413   0.000000
    13  C    5.530230   4.519592   0.000000
    14  H    6.442808   5.524533   1.105699   0.000000
    15  H    5.369589   4.101286   1.099095   1.817806   0.000000
    16  C    5.999484   4.924007   1.531923   2.188190   2.147221
    17  H    6.748596   5.859710   2.178883   2.392954   3.047622
    18  H    6.659004   5.357072   2.184109   2.698297   2.372715
    19  O    4.020237   2.313656   3.069560   4.067667   2.330299
    20  H    4.376541   2.716875   3.236341   4.283294   2.678284
    21  H    4.822091   4.880719   3.318390   3.757582   4.178471
                   16         17         18         19         20
    16  C    0.000000
    17  H    1.112685   0.000000
    18  H    1.103058   1.784953   0.000000
    19  O    3.383537   4.477521   3.461659   0.000000
    20  H    3.092059   4.171994   3.060094   0.959425   0.000000
    21  H    3.418208   3.319988   4.515237   4.907401   4.900457
                   21
    21  H    0.000000
 Symmetry turned off by external request.
 Stoichiometry    C4H10O6Si(2-)
 Framework group  C1[X(C4H10O6Si)]
 Deg. of freedom    57
 Full point group                 C1      NOp   1
 Rotational constants (GHZ):           1.5044522           0.8928358           0.7883979
 Standard basis: def2TZVPP (5D, 7F)
   492 basis functions,   749 primitive gaussians,   558 cartesian basis functions
    49 alpha electrons       49 beta electrons
       nuclear repulsion energy       870.1525910231 Hartrees.
 NAtoms=   21 NActive=   21 NUniq=   21 SFac= 1.00D+00 NAtFMM=   60 NAOKFM=F Big=F
 Integral buffers will be    131072 words long.
 Raffenetti 2 integral format.
 Two-electron integral symmetry is turned off.
 Nuclear repulsion after empirical dispersion term =      870.1398831937 Hartrees.
 One-electron integrals computed using PRISM.
   1 Symmetry operations used in ECPInt.
 ECPInt:  NShTT=   17020 NPrTT=   47563 LenC2=   16257 LenP2D=   35253.
 LDataN:  DoStor=T MaxTD1= 6 Len=  172
 NBasis=   492 RedAO= T EigKep=  2.56D-04  NBF=   492
 NBsUse=   492 1.00D-06 EigRej= -1.00D+00 NBFU=   492
 Initial guess from the checkpoint file:  "IRCReverse_HBiL2toPBiL2.chk"
 B after Tr=    -0.000037    0.000232   -0.000014
         Rot=    1.000000    0.000134   -0.000084    0.000045 Ang=   0.02 deg.
 ExpMin= 7.01D-02 ExpMax= 4.48D+04 ExpMxC= 1.53D+03 IAcc=3 IRadAn=         5 AccDes= 0.00D+00
 Harris functional with IExCor= 4639 and IRadAn=       5 diagonalized for initial guess.
 HarFok:  IExCor= 4639 AccDes= 0.00D+00 IRadAn=         5 IDoV= 1 UseB2=F ITyADJ=14
 ICtDFT=  3500011 ScaDFX=  1.000000  1.000000  1.000000  1.000000
 FoFCou: FMM=F IPFlag=           0 FMFlag=      100000 FMFlg1=           0
         NFxFlg=           0 DoJE=T BraDBF=F KetDBF=T FulRan=T
         wScrn=  0.000000 ICntrl=       500 IOpCl=  0 I1Cent=   200000004 NGrid=           0
         NMat0=    1 NMatS0=      1 NMatT0=    0 NMatD0=    1 NMtDS0=    0 NMtDT0=    0
 Symmetry not used in FoFCou.
 Requested convergence on RMS density matrix=1.00D-08 within 128 cycles.
 Requested convergence on MAX density matrix=1.00D-06.
 Requested convergence on             energy=1.00D-06.
 No special actions if energy rises.
 Integral accuracy reduced to 1.0D-05 until final iterations.
 Initial convergence to 1.0D-05 achieved.  Increase integral accuracy.
 SCF Done:  E(RwB97XD) =  -899.436567572     A.U. after   13 cycles
            NFock= 13  Conv=0.53D-08     -V/T= 2.0035
 DoSCS=F DFT=T ScalE2(SS,OS)=  1.000000  1.000000
 Range of M.O.s used for correlation:     1   492
 NBasis=   492 NAE=    49 NBE=    49 NFC=     0 NFV=     0
 NROrb=    492 NOA=    49 NOB=    49 NVA=   443 NVB=   443

 **** Warning!!: The largest alpha MO coefficient is  0.12142741D+02

 Symmetrizing basis deriv contribution to polar:
 IMax=3 JMax=2 DiffMx= 0.00D+00
   1 Symmetry operations used in ECPInt.
 ECPInt:  NShTT=   17020 NPrTT=   47563 LenC2=   16257 LenP2D=   35253.
 LDataN:  DoStor=T MaxTD1= 7 Len=  274
 Calling FoFJK, ICntrl=      2127 FMM=F ISym2X=0 I1Cent= 0 IOpClX= 0 NMat=1 NMatS=1 NMatT=0.
 -------------------------------------------------------------------
 Center     Atomic                   Forces (Hartrees/Bohr)
 Number     Number              X              Y              Z
 -------------------------------------------------------------------
      1       14          -0.000077272   -0.000756164   -0.000059357
      2        8           0.000199994   -0.000017221    0.000118441
      3        8          -0.000149668    0.000012344   -0.000096656
      4        8           0.000063144   -0.000477039    0.000005257
      5        8           0.000010275   -0.000604774   -0.000011477
      6        8          -0.000037526   -0.000385005   -0.000027920
      7        6           0.000090060   -0.000005675    0.000010966
      8        1          -0.000003058    0.000018745   -0.000016565
      9        1           0.000013034   -0.000010156    0.000004160
     10        6           0.000279778    0.000151418    0.000123700
     11        1           0.000039515    0.000045411    0.000010934
     12        1          -0.000006803   -0.000037548   -0.000006206
     13        6          -0.000290304    0.000029887   -0.000051946
     14        1          -0.000039216    0.000044105   -0.000000018
     15        1          -0.000024946   -0.000015009   -0.000006902
     16        6          -0.000178899    0.000101664   -0.000045413
     17        1           0.000001614    0.000015172   -0.000004328
     18        1          -0.000016365    0.000016444   -0.000001094
     19        8           0.000222614    0.001614518    0.001319856
     20        1          -0.000103792    0.000293125   -0.001269008
     21        1           0.000007823   -0.000034241    0.000003574
 -------------------------------------------------------------------
 Cartesian Forces:  Max     0.001614518 RMS     0.000351650
 IRC-IRC-IRC-IRC-IRC-IRC-IRC-IRC-IRC-IRC-IRC-IRC-IRC-IRC-IRC-IRC-IRC-IRC
 Pt  2 Step number   1 out of a maximum of 100
 Modified Bulirsch-Stoer Extrapolation Cycles:
    EPS =    0.000010000000000
      PEZero:  N= 2 I= 1 D=  1.78D-03 Err=  4.01D-02
      PEZero:  N= 3 I= 2 D=  1.78D-03 Err=  6.77D-02
      PEZero:  N= 3 I= 1 D=  3.56D-03 Err=  6.15D-02
      PEZero:  N= 4 I= 3 D=  8.91D-04 Err=  1.16D-01
      PEZero:  N= 4 I= 2 D=  2.67D-03 Err=  8.73D-02
      PEZero:  N= 4 I= 1 D=  4.45D-03 Err=  6.78D-02
      PEZero:  N= 5 I= 4 D=  8.91D-04 Err=  1.68D-01
      PEZero:  N= 5 I= 3 D=  1.78D-03 Err=  1.36D-01
      PEZero:  N= 5 I= 2 D=  3.56D-03 Err=  9.23D-02
      PEZero:  N= 5 I= 1 D=  5.34D-03 Err=  6.97D-02
      PEZero:  N= 6 I= 5 D=  4.45D-04 Err=  8.16D-02
      PEZero:  N= 6 I= 4 D=  1.34D-03 Err=  5.93D-02
      PEZero:  N= 6 I= 3 D=  2.23D-03 Err=  1.53D-01
      PEZero:  N= 7 I= 6 D=  4.45D-04 Err=  8.90D-06
      PEZero:  N= 7 I= 5 D=  8.91D-04 Err=  8.16D-02
 Maximum DWI energy   std dev =  0.000001721 at pt   162
 Maximum DWI gradient std dev =  0.617880221 at pt   139
 CORRECTOR INTEGRATION CONVERGENCE:
   Recorrection delta-x convergence threshold:    0.010000
   Delta-x Convergence NOT Met
 IRC-IRC-IRC-IRC-IRC-IRC-IRC-IRC-IRC-IRC-IRC-IRC-IRC-IRC-IRC-IRC-IRC-IRC
                          Input orientation:                          
 ---------------------------------------------------------------------
 Center     Atomic      Atomic             Coordinates (Angstroms)
 Number     Number       Type             X           Y           Z
 ---------------------------------------------------------------------
      1         14           0       -0.019026   -0.445464   -0.026350
      2          8           0       -1.190624   -0.026983   -1.233015
      3          8           0        1.147105   -0.118619    1.231325
      4          8           0        1.287408   -0.264062   -1.207867
      5          8           0       -0.021333   -2.167472   -0.116884
      6          8           0       -1.255391   -0.283959    1.197559
      7          6           0       -2.504546    0.006438    0.689739
      8          1           0       -3.121397   -0.913185    0.597377
      9          1           0       -3.047040    0.699310    1.356545
     10          6           0       -2.284599    0.632540   -0.691327
     11          1           0       -3.173907    0.501226   -1.334089
     12          1           0       -2.040640    1.697676   -0.568619
     13          6           0        2.318721    0.512942   -0.696529
     14          1           0        3.264547    0.307447   -1.231020
     15          1           0        2.053660    1.577803   -0.758001
     16          6           0        2.426945    0.129601    0.782722
     17          1           0        3.067024   -0.773622    0.894782
     18          1           0        2.896478    0.939516    1.366129
     19          8           0        0.055444    2.436093    0.075820
     20          1           0        0.124769    2.184475    0.997587
     21          1           0        0.662803   -2.362092   -0.754473
 ---------------------------------------------------------------------
                    Distance matrix (angstroms):
                    1          2          3          4          5
     1  Si   0.000000
     2  O    1.733150   0.000000
     3  O    1.745977   3.397992   0.000000
     4  O    1.770779   2.489474   2.447549   0.000000
     5  O    1.724388   2.682291   2.716747   2.554607   0.000000
     6  O    1.747180   2.444979   2.408415   3.500328   2.607351
     7  C    2.625797   2.329054   3.693712   4.248881   3.397480
     8  H    3.198829   2.804206   4.387862   4.808100   3.419620
     9  H    3.520196   3.267966   4.274990   5.127546   4.420897
    10  C    2.595595   1.387508   4.004675   3.718863   3.645878
    11  H    3.543964   2.054905   5.063270   4.528237   4.306073
    12  H    2.995669   2.034306   4.086618   3.915732   4.384180
    13  C    2.613951   3.590939   2.342685   1.388816   3.605061
    14  H    3.577702   4.467706   3.275399   2.058212   4.261870
    15  H    2.987466   3.650529   2.767148   2.044991   4.329401
    16  C    2.639710   4.144216   1.378713   2.327221   3.475615
    17  H    3.237263   4.817941   2.056303   2.801395   3.536132
    18  H    3.515299   4.939036   2.048933   3.265449   4.512906
    19  O    2.884330   3.054911   3.008898   3.233639   4.608237
    20  H    2.825899   3.405348   2.530621   3.494437   4.494757
    21  H    2.160675   3.019425   3.034982   2.235493   0.955217
                    6          7          8          9         10
     6  O    0.000000
     7  C    1.379348   0.000000
     8  H    2.058671   1.111190   0.000000
     9  H    2.049903   1.104084   1.783817   0.000000
    10  C    2.338190   1.532228   2.179507   2.186219   0.000000
    11  H    3.272074   2.188319   2.394551   2.700897   1.105104
    12  H    2.768191   2.158462   3.056824   2.390780   1.099585
    13  C    4.122729   5.044025   5.770868   5.748151   4.604877
    14  H    5.165036   6.087886   6.753759   6.832656   5.584799
    15  H    4.270854   5.034122   5.901126   5.591082   4.440548
    16  C    3.728635   4.933905   5.648527   5.533385   4.962299
    17  H    4.360586   5.629647   6.197135   6.305912   5.756119
    18  H    4.331665   5.522608   6.343367   5.948378   5.583092
    19  O    3.221067   3.582411   4.645643   3.779164   3.052396
    20  H    2.835137   3.428107   4.504804   3.520645   3.326558
    21  H    3.436354   4.210437   4.271651   5.252763   4.202260
                   11         12         13         14         15
    11  H    0.000000
    12  H    1.817066   0.000000
    13  C    5.529520   4.519291   0.000000
    14  H    6.442194   5.524176   1.105665   0.000000
    15  H    5.368273   4.100431   1.099075   1.817636   0.000000
    16  C    5.999045   4.923850   1.531941   2.188233   2.147198
    17  H    6.748505   5.859786   2.178870   2.393065   3.047589
    18  H    6.658292   5.356603   2.184107   2.698178   2.372695
    19  O    4.019983   2.313899   3.068788   4.066609   2.329117
    20  H    4.376221   2.716427   3.236893   4.283472   2.677827
    21  H    4.822333   4.881072   3.318319   3.758006   4.178190
                   16         17         18         19         20
    16  C    0.000000
    17  H    1.112686   0.000000
    18  H    1.103080   1.784964   0.000000
    19  O    3.382844   4.476895   3.460653   0.000000
    20  H    3.093329   4.173460   3.060738   0.958004   0.000000
    21  H    3.418143   3.320174   4.515182   4.907225   4.902088
                   21
    21  H    0.000000
 Symmetry turned off by external request.
 Stoichiometry    C4H10O6Si(2-)
 Framework group  C1[X(C4H10O6Si)]
 Deg. of freedom    57
 Full point group                 C1      NOp   1
 Rotational constants (GHZ):           1.5044336           0.8928959           0.7884389
 Standard basis: def2TZVPP (5D, 7F)
   492 basis functions,   749 primitive gaussians,   558 cartesian basis functions
    49 alpha electrons       49 beta electrons
       nuclear repulsion energy       870.1639365962 Hartrees.
 NAtoms=   21 NActive=   21 NUniq=   21 SFac= 1.00D+00 NAtFMM=   60 NAOKFM=F Big=F
 Integral buffers will be    131072 words long.
 Raffenetti 2 integral format.
 Two-electron integral symmetry is turned off.
 Nuclear repulsion after empirical dispersion term =      870.1512293305 Hartrees.
 One-electron integrals computed using PRISM.
   1 Symmetry operations used in ECPInt.
 ECPInt:  NShTT=   17020 NPrTT=   47563 LenC2=   16257 LenP2D=   35253.
 LDataN:  DoStor=T MaxTD1= 6 Len=  172
 NBasis=   492 RedAO= T EigKep=  2.56D-04  NBF=   492
 NBsUse=   492 1.00D-06 EigRej= -1.00D+00 NBFU=   492
 Initial guess from the checkpoint file:  "IRCReverse_HBiL2toPBiL2.chk"
 B after Tr=    -0.000020    0.000081   -0.000013
         Rot=    1.000000    0.000020   -0.000013    0.000004 Ang=   0.00 deg.
 ExpMin= 7.01D-02 ExpMax= 4.48D+04 ExpMxC= 1.53D+03 IAcc=3 IRadAn=         5 AccDes= 0.00D+00
 Harris functional with IExCor= 4639 and IRadAn=       5 diagonalized for initial guess.
 HarFok:  IExCor= 4639 AccDes= 0.00D+00 IRadAn=         5 IDoV= 1 UseB2=F ITyADJ=14
 ICtDFT=  3500011 ScaDFX=  1.000000  1.000000  1.000000  1.000000
 FoFCou: FMM=F IPFlag=           0 FMFlag=      100000 FMFlg1=           0
         NFxFlg=           0 DoJE=T BraDBF=F KetDBF=T FulRan=T
         wScrn=  0.000000 ICntrl=       500 IOpCl=  0 I1Cent=   200000004 NGrid=           0
         NMat0=    1 NMatS0=      1 NMatT0=    0 NMatD0=    1 NMtDS0=    0 NMtDT0=    0
 Symmetry not used in FoFCou.
 Requested convergence on RMS density matrix=1.00D-08 within 128 cycles.
 Requested convergence on MAX density matrix=1.00D-06.
 Requested convergence on             energy=1.00D-06.
 No special actions if energy rises.
 Integral accuracy reduced to 1.0D-05 until final iterations.
 Initial convergence to 1.0D-05 achieved.  Increase integral accuracy.
 SCF Done:  E(RwB97XD) =  -899.436569142     A.U. after   10 cycles
            NFock= 10  Conv=0.61D-08     -V/T= 2.0035
 DoSCS=F DFT=T ScalE2(SS,OS)=  1.000000  1.000000
 Range of M.O.s used for correlation:     1   492
 NBasis=   492 NAE=    49 NBE=    49 NFC=     0 NFV=     0
 NROrb=    492 NOA=    49 NOB=    49 NVA=   443 NVB=   443

 **** Warning!!: The largest alpha MO coefficient is  0.12178843D+02

 Symmetrizing basis deriv contribution to polar:
 IMax=3 JMax=2 DiffMx= 0.00D+00
   1 Symmetry operations used in ECPInt.
 ECPInt:  NShTT=   17020 NPrTT=   47563 LenC2=   16257 LenP2D=   35253.
 LDataN:  DoStor=T MaxTD1= 7 Len=  274
 Calling FoFJK, ICntrl=      2127 FMM=F ISym2X=0 I1Cent= 0 IOpClX= 0 NMat=1 NMatS=1 NMatT=0.
 -------------------------------------------------------------------
 Center     Atomic                   Forces (Hartrees/Bohr)
 Number     Number              X              Y              Z
 -------------------------------------------------------------------
      1       14          -0.000019344   -0.001087285   -0.000037006
      2        8           0.000199794    0.000016596    0.000114677
      3        8          -0.000196865    0.000051811   -0.000120639
      4        8           0.000004322   -0.000427868    0.000029590
      5        8          -0.000004030   -0.000465305   -0.000007896
      6        8           0.000013014   -0.000331663   -0.000040908
      7        6           0.000045719   -0.000004924   -0.000007638
      8        1          -0.000003819    0.000007104   -0.000008292
      9        1           0.000008925   -0.000001838    0.000004494
     10        6           0.000210675    0.000153692    0.000104910
     11        1           0.000014727    0.000023341    0.000001476
     12        1           0.000027180    0.000005902    0.000015492
     13        6          -0.000219869    0.000055255   -0.000044040
     14        1          -0.000014473    0.000021159   -0.000002256
     15        1          -0.000036001   -0.000007248   -0.000000493
     16        6          -0.000124402    0.000129498   -0.000055628
     17        1          -0.000003990    0.000012501   -0.000000399
     18        1          -0.000016408    0.000010965   -0.000004869
     19        8           0.000100182    0.001970994   -0.000071491
     20        1           0.000011414   -0.000112490    0.000123683
     21        1           0.000003250   -0.000020195    0.000007230
 -------------------------------------------------------------------
 Cartesian Forces:  Max     0.001970994 RMS     0.000306249
 IRC-IRC-IRC-IRC-IRC-IRC-IRC-IRC-IRC-IRC-IRC-IRC-IRC-IRC-IRC-IRC-IRC-IRC
 Error in corrector energy =          -0.0000004848
 Magnitude of corrector gradient =     0.0023448267
 Magnitude of analytic gradient =      0.0024307721
 Magnitude of difference =             0.0002673002
 Angle between gradients (degrees)=    6.0772
 Pt  2 Step number   2 out of a maximum of 100
 Modified Bulirsch-Stoer Extrapolation Cycles:
    EPS =    0.000010000000000
      PEZero:  N= 2 I= 1 D=  1.78D-03 Err=  3.97D-02
      PEZero:  N= 3 I= 2 D=  1.78D-03 Err=  6.74D-02
      PEZero:  N= 3 I= 1 D=  3.56D-03 Err=  6.14D-02
      PEZero:  N= 4 I= 3 D=  8.91D-04 Err=  1.16D-01
      PEZero:  N= 4 I= 2 D=  2.67D-03 Err=  8.79D-02
      PEZero:  N= 4 I= 1 D=  4.45D-03 Err=  6.87D-02
      PEZero:  N= 5 I= 4 D=  8.91D-04 Err=  1.71D-01
      PEZero:  N= 5 I= 3 D=  1.78D-03 Err=  1.39D-01
      PEZero:  N= 5 I= 2 D=  3.56D-03 Err=  9.53D-02
      PEZero:  N= 5 I= 1 D=  5.34D-03 Err=  7.25D-02
      PEZero:  N= 6 I= 5 D=  4.45D-04 Err=  8.42D-02
      PEZero:  N= 6 I= 4 D=  1.34D-03 Err=  5.82D-02
      PEZero:  N= 6 I= 3 D=  2.23D-03 Err=  1.53D-01
      PEZero:  N= 7 I= 6 D=  4.45D-04 Err=  1.18D-05
      PEZero:  N= 7 I= 5 D=  8.91D-04 Err=  8.43D-02
      PEZero:  N= 8 I= 7 D=  2.23D-04 Err=  8.83D-06
      PEZero:  N= 8 I= 6 D=  6.68D-04 Err=  8.45D-09
      PEZero:  N= 8 I= 5 D=  1.11D-03 Err=  3.49D-02
 Maximum DWI energy   std dev =  0.000001876 at pt   158
 Maximum DWI gradient std dev =  0.549649476 at pt   209
 CORRECTOR INTEGRATION CONVERGENCE:
   Recorrection delta-x convergence threshold:    0.010000
   Delta-x Convergence NOT Met
 IRC-IRC-IRC-IRC-IRC-IRC-IRC-IRC-IRC-IRC-IRC-IRC-IRC-IRC-IRC-IRC-IRC-IRC
                          Input orientation:                          
 ---------------------------------------------------------------------
 Center     Atomic      Atomic             Coordinates (Angstroms)
 Number     Number       Type             X           Y           Z
 ---------------------------------------------------------------------
      1         14           0       -0.019038   -0.445507   -0.026444
      2          8           0       -1.190683   -0.027043   -1.233056
      3          8           0        1.147073   -0.118500    1.231298
      4          8           0        1.287412   -0.263940   -1.207875
      5          8           0       -0.021288   -2.167394   -0.116911
      6          8           0       -1.255326   -0.283768    1.197533
      7          6           0       -2.504559    0.006410    0.689746
      8          1           0       -3.121255   -0.913325    0.597603
      9          1           0       -3.047110    0.699312    1.356457
     10          6           0       -2.284811    0.632288   -0.691456
     11          1           0       -3.174132    0.500472   -1.334107
     12          1           0       -2.041252    1.697537   -0.569049
     13          6           0        2.318920    0.512775   -0.696518
     14          1           0        3.264700    0.306893   -1.230932
     15          1           0        2.054285    1.577718   -0.758065
     16          6           0        2.427013    0.129425    0.782736
     17          1           0        3.066833   -0.773977    0.894790
     18          1           0        2.896738    0.939169    1.366192
     19          8           0        0.055457    2.436318    0.076255
     20          1           0        0.124705    2.179080    0.997103
     21          1           0        0.662659   -2.361859   -0.754748
 ---------------------------------------------------------------------
                    Distance matrix (angstroms):
                    1          2          3          4          5
     1  Si   0.000000
     2  O    1.733141   0.000000
     3  O    1.746042   3.398016   0.000000
     4  O    1.770750   2.489520   2.447532   0.000000
     5  O    1.724264   2.682232   2.716745   2.554610   0.000000
     6  O    1.747194   2.444964   2.408313   3.500271   2.607425
     7  C    2.625828   2.329068   3.693683   4.248894   3.397463
     8  H    3.198756   2.804267   4.387703   4.808096   3.419505
     9  H    3.520263   3.267949   4.275003   5.127546   4.420907
    10  C    2.595691   1.387503   4.004808   3.718963   3.645800
    11  H    3.543936   2.054885   5.063323   4.528314   4.305753
    12  H    2.996066   2.034343   4.087133   3.916056   4.384334
    13  C    2.614068   3.591183   2.342693   1.388807   3.604973
    14  H    3.577686   4.467881   3.275345   2.058168   4.261556
    15  H    2.987872   3.651123   2.767266   2.045026   4.329544
    16  C    2.639789   4.144349   1.378740   2.327222   3.475474
    17  H    3.237154   4.817892   2.056300   2.801371   3.535766
    18  H    3.515468   4.939299   2.048949   3.265459   4.512783
    19  O    2.884616   3.055374   3.008795   3.233898   4.608402
    20  H    2.820774   3.401594   2.525660   3.490295   4.489341
    21  H    2.160450   3.019109   3.035078   2.235375   0.955215
                    6          7          8          9         10
     6  O    0.000000
     7  C    1.379360   0.000000
     8  H    2.058628   1.111178   0.000000
     9  H    2.049925   1.104074   1.783804   0.000000
    10  C    2.338220   1.532231   2.179502   2.186216   0.000000
    11  H    3.272010   2.188243   2.394394   2.700891   1.105110
    12  H    2.768404   2.158502   3.056810   2.390769   1.099573
    13  C    4.122760   5.044213   5.770963   5.748372   4.605285
    14  H    5.164975   6.087992   6.753732   6.832827   5.585158
    15  H    4.271185   5.034703   5.901640   5.591694   4.441400
    16  C    3.728593   4.933983   5.648441   5.533530   4.962600
    17  H    4.360392   5.629517   6.196787   6.305872   5.756201
    18  H    4.331704   5.522828   6.343399   5.948694   5.583596
    19  O    3.220914   3.582529   4.645796   3.779158   3.052992
    20  H    2.830244   3.424616   4.500981   3.518418   3.324088
    21  H    3.436355   4.210289   4.271429   5.252651   4.201964
                   11         12         13         14         15
    11  H    0.000000
    12  H    1.817057   0.000000
    13  C    5.529945   4.520068   0.000000
    14  H    6.442568   5.524954   1.105661   0.000000
    15  H    5.369230   4.101648   1.099056   1.817609   0.000000
    16  C    5.999294   4.924601   1.531937   2.188167   2.147219
    17  H    6.748470   5.860354   2.178845   2.392932   3.047565
    18  H    6.658794   5.357614   2.184137   2.698188   2.372749
    19  O    4.020804   2.314823   3.069277   4.067238   2.329935
    20  H    4.374311   2.715895   3.234115   4.281214   2.676851
    21  H    4.821780   4.881016   3.318149   3.757607   4.178146
                   16         17         18         19         20
    16  C    0.000000
    17  H    1.112682   0.000000
    18  H    1.103063   1.784943   0.000000
    19  O    3.383068   4.477095   3.460964   0.000000
    20  H    3.089929   4.169788   3.059047   0.958607   0.000000
    21  H    3.418085   3.320000   4.515117   4.907317   4.896785
                   21
    21  H    0.000000
 Symmetry turned off by external request.
 Stoichiometry    C4H10O6Si(2-)
 Framework group  C1[X(C4H10O6Si)]
 Deg. of freedom    57
 Full point group                 C1      NOp   1
 Rotational constants (GHZ):           1.5045198           0.8928367           0.7884270
 Standard basis: def2TZVPP (5D, 7F)
   492 basis functions,   749 primitive gaussians,   558 cartesian basis functions
    49 alpha electrons       49 beta electrons
[...]
    12  H    2.761677   2.159351   3.059712   2.394200   1.100373
    13  C    4.112728   5.024253   5.757142   5.723207   4.568207
    14  H    5.159891   6.073330   6.748188   6.810524   5.551947
    15  H    4.239461   4.983832   5.854758   5.536518   4.368319
    16  C    3.722592   4.920162   5.646516   5.510750   4.930925
    17  H    4.352529   5.619838   6.201662   6.286092   5.731998
    18  H    4.321183   5.499191   6.332573   5.913986   5.538812
    19  O    3.332941   3.659426   4.726668   3.828740   3.099503
    20  H    2.886868   3.447298   4.528712   3.530678   3.306742
    21  H    3.440499   4.226982   4.290430   5.265225   4.226706
                   11         12         13         14         15
    11  H    0.000000
    12  H    1.818626   0.000000
    13  C    5.488890   4.463809   0.000000
    14  H    6.405363   5.468358   1.105042   0.000000
    15  H    5.287738   4.009478   1.100298   1.820177   0.000000
    16  C    5.968466   4.868350   1.530018   2.189299   2.143829
    17  H    6.728331   5.810837   2.179231   2.403501   3.049814
    18  H    6.612714   5.285051   2.183179   2.696081   2.374068
    19  O    4.043567   2.312606   3.119068   4.094336   2.325957
    20  H    4.345486   2.662260   3.227999   4.263144   2.633927
    21  H    4.852820   4.895881   3.337813   3.789886   4.186773
                   16         17         18         19         20
    16  C    0.000000
    17  H    1.112075   0.000000
    18  H    1.102182   1.786371   0.000000
    19  O    3.436350   4.535052   3.472188   0.000000
    20  H    3.098374   4.181065   3.046954   0.952561   0.000000
    21  H    3.436237   3.333564   4.531782   5.044691   4.953105
                   21
    21  H    0.000000
 Symmetry turned off by external request.
 Stoichiometry    C4H10O6Si(2-)
 Framework group  C1[X(C4H10O6Si)]
 Deg. of freedom    57
 Full point group                 C1      NOp   1
 Rotational constants (GHZ):           1.4537364           0.9015018           0.7784666
 Standard basis: def2TZVPP (5D, 7F)
   492 basis functions,   749 primitive gaussians,   558 cartesian basis functions
    49 alpha electrons       49 beta electrons
       nuclear repulsion energy       867.6422622624 Hartrees.
 NAtoms=   21 NActive=   21 NUniq=   21 SFac= 1.00D+00 NAtFMM=   60 NAOKFM=F Big=F
 Integral buffers will be    131072 words long.
 Raffenetti 2 integral format.
 Two-electron integral symmetry is turned off.
 Nuclear repulsion after empirical dispersion term =      867.6295106569 Hartrees.
 One-electron integrals computed using PRISM.
   1 Symmetry operations used in ECPInt.
 ECPInt:  NShTT=   17020 NPrTT=   47563 LenC2=   16259 LenP2D=   35229.
 LDataN:  DoStor=T MaxTD1= 6 Len=  172
 NBasis=   492 RedAO= T EigKep=  2.57D-04  NBF=   492
 NBsUse=   492 1.00D-06 EigRej= -1.00D+00 NBFU=   492
 Initial guess from the checkpoint file:  "IRCReverse_HBiL2toPBiL2.chk"
 B after Tr=    -0.000022    0.000468    0.000009
         Rot=    1.000000    0.000116   -0.000013   -0.000011 Ang=   0.01 deg.
 ExpMin= 7.01D-02 ExpMax= 4.48D+04 ExpMxC= 1.53D+03 IAcc=3 IRadAn=         5 AccDes= 0.00D+00
 Harris functional with IExCor= 4639 and IRadAn=       5 diagonalized for initial guess.
 HarFok:  IExCor= 4639 AccDes= 0.00D+00 IRadAn=         5 IDoV= 1 UseB2=F ITyADJ=14
 ICtDFT=  3500011 ScaDFX=  1.000000  1.000000  1.000000  1.000000
 FoFCou: FMM=F IPFlag=           0 FMFlag=      100000 FMFlg1=           0
         NFxFlg=           0 DoJE=T BraDBF=F KetDBF=T FulRan=T
         wScrn=  0.000000 ICntrl=       500 IOpCl=  0 I1Cent=   200000004 NGrid=           0
         NMat0=    1 NMatS0=      1 NMatT0=    0 NMatD0=    1 NMtDS0=    0 NMtDT0=    0
 Symmetry not used in FoFCou.
 Requested convergence on RMS density matrix=1.00D-08 within 128 cycles.
 Requested convergence on MAX density matrix=1.00D-06.
 Requested convergence on             energy=1.00D-06.
 No special actions if energy rises.
 Integral accuracy reduced to 1.0D-05 until final iterations.
 Initial convergence to 1.0D-05 achieved.  Increase integral accuracy.
 SCF Done:  E(RwB97XD) =  -899.437414347     A.U. after   12 cycles
            NFock= 12  Conv=0.53D-08     -V/T= 2.0034
 DoSCS=F DFT=T ScalE2(SS,OS)=  1.000000  1.000000
 Range of M.O.s used for correlation:     1   492
 NBasis=   492 NAE=    49 NBE=    49 NFC=     0 NFV=     0
 NROrb=    492 NOA=    49 NOB=    49 NVA=   443 NVB=   443

 **** Warning!!: The largest alpha MO coefficient is  0.12520351D+02

 Symmetrizing basis deriv contribution to polar:
 IMax=3 JMax=2 DiffMx= 0.00D+00
   1 Symmetry operations used in ECPInt.
 ECPInt:  NShTT=   17020 NPrTT=   47563 LenC2=   16259 LenP2D=   35229.
 LDataN:  DoStor=T MaxTD1= 7 Len=  274
 Calling FoFJK, ICntrl=      2127 FMM=F ISym2X=0 I1Cent= 0 IOpClX= 0 NMat=1 NMatS=1 NMatT=0.
 -------------------------------------------------------------------
 Center     Atomic                   Forces (Hartrees/Bohr)
 Number     Number              X              Y              Z
 -------------------------------------------------------------------
      1       14          -0.000027090   -0.002085006   -0.000112686
      2        8           0.000368623    0.000025529    0.000215485
      3        8          -0.000359276    0.000034997   -0.000169591
      4        8           0.000112188   -0.001059702    0.000057307
      5        8          -0.000036356   -0.000927065    0.000039049
      6        8          -0.000074383   -0.000877735   -0.000066017
      7        6           0.000043969   -0.000043360   -0.000097628
      8        1           0.000029771   -0.000005529    0.000026413
      9        1          -0.000041828   -0.000002819   -0.000018402
     10        6           0.000681288    0.000638275    0.000349881
     11        1          -0.000025706   -0.000046915    0.000019282
     12        1          -0.000084687   -0.000063481   -0.000025545
     13        6          -0.000691457    0.000360519   -0.000148213
     14        1           0.000010269   -0.000044667    0.000019349
     15        1           0.000130523   -0.000039298    0.000035545
     16        6          -0.000294672    0.000579683   -0.000131700
     17        1           0.000029801   -0.000016714    0.000004418
     18        1           0.000050034   -0.000041654    0.000005529
     19        8          -0.000166903    0.005932377   -0.005470252
     20        1           0.000372149   -0.002423401    0.005442863
     21        1          -0.000026258    0.000105965    0.000024912
 -------------------------------------------------------------------
 Cartesian Forces:  Max     0.005932377 RMS     0.001323785
 IRC-IRC-IRC-IRC-IRC-IRC-IRC-IRC-IRC-IRC-IRC-IRC-IRC-IRC-IRC-IRC-IRC-IRC
 Error in corrector energy =          -0.0000916911
 Magnitude of corrector gradient =     0.0052104703
 Magnitude of analytic gradient =      0.0105072154
 Magnitude of difference =             0.0084346127
 Angle between gradients (degrees)=   52.6637
 Pt  5 Step number  99 out of a maximum of 100
 Modified Bulirsch-Stoer Extrapolation Cycles:
    EPS =    0.000010000000000
      PEZero:  N= 2 I= 1 D=  1.78D-03 Err=  1.44D-01
      PEZero:  N= 3 I= 2 D=  1.78D-03 Err=  1.16D-01
      PEZero:  N= 3 I= 1 D=  3.56D-03 Err=  3.04D-02
      PEZero:  N= 4 I= 3 D=  8.91D-04 Err=  5.27D-05
      PEZero:  N= 4 I= 2 D=  2.67D-03 Err=  1.16D-01
      PEZero:  N= 5 I= 4 D=  8.91D-04 Err=  3.52D-05
      PEZero:  N= 5 I= 3 D=  1.78D-03 Err=  1.85D-07
      PEZero:  N= 5 I= 2 D=  3.56D-03 Err=  1.52D-02
 Maximum DWI energy   std dev =  0.000009404 at pt    -1
 Maximum DWI gradient std dev =  0.469134703 at pt    54
 CORRECTOR INTEGRATION CONVERGENCE:
   Recorrection delta-x convergence threshold:    0.010000
   Delta-x Convergence NOT Met
 IRC-IRC-IRC-IRC-IRC-IRC-IRC-IRC-IRC-IRC-IRC-IRC-IRC-IRC-IRC-IRC-IRC-IRC
                          Input orientation:                          
 ---------------------------------------------------------------------
 Center     Atomic      Atomic             Coordinates (Angstroms)
 Number     Number       Type             X           Y           Z
 ---------------------------------------------------------------------
      1         14           0       -0.019438   -0.480505   -0.027314
      2          8           0       -1.178616   -0.025990   -1.226501
      3          8           0        1.135578   -0.115268    1.224370
      4          8           0        1.288394   -0.290907   -1.206179
      5          8           0       -0.021559   -2.195450   -0.117425
      6          8           0       -1.255366   -0.305146    1.195264
      7          6           0       -2.501220    0.004698    0.688555
      8          1           0       -3.127886   -0.906771    0.583879
      9          1           0       -3.035812    0.695509    1.362742
     10          6           0       -2.267216    0.644681   -0.682723
     11          1           0       -3.153290    0.534618   -1.332728
     12          1           0       -2.003299    1.704122   -0.547461
     13          6           0        2.300879    0.517407   -0.700216
     14          1           0        3.250060    0.335885   -1.236160
     15          1           0        2.004394    1.575056   -0.761530
     16          6           0        2.416690    0.141526    0.778392
     17          1           0        3.062765   -0.756032    0.895483
     18          1           0        2.874056    0.958299    1.360002
     19          8           0        0.061621    2.546879    0.080465
     20          1           0        0.123139    2.185960    0.971879
     21          1           0        0.669229   -2.392488   -0.747184
 ---------------------------------------------------------------------
                    Distance matrix (angstroms):
                    1          2          3          4          5
     1  Si   0.000000
     2  O    1.728678   0.000000
     3  O    1.741888   3.371978   0.000000
     4  O    1.770902   2.481276   2.441674   0.000000
     5  O    1.717312   2.697292   2.732496   2.555122   0.000000
     6  O    1.747274   2.439009   2.398649   3.498264   2.611261
     7  C    2.628142   2.327588   3.678015   4.247184   3.411594
     8  H    3.196515   2.802304   4.383359   4.804906   3.435373
     9  H    3.523319   3.267097   4.251706   5.125537   4.431056
    10  C    2.597712   1.389440   3.974108   3.713716   3.664543
    11  H    3.543390   2.055457   5.035424   4.519520   4.328738
    12  H    2.996474   2.033344   4.037588   3.905034   4.395325
    13  C    2.613904   3.560779   2.337143   1.390862   3.618419
    14  H    3.580143   4.443447   3.275483   2.059588   4.285174
    15  H    2.976625   3.593202   2.748789   2.047483   4.328518
    16  C    2.640227   4.119937   1.380611   2.323483   3.494138
    17  H    3.229155   4.798447   2.057375   2.789573   3.551192
    18  H    3.516690   4.907441   2.047742   3.264985   4.529184
    19  O    3.030386   3.141019   3.090134   3.348649   4.747184
    20  H    2.851096   3.379373   2.526744   3.498089   4.517109
    21  H    2.155958   3.040491   3.047989   2.238456   0.955306
                    6          7          8          9         10
     6  O    0.000000
     7  C    1.380184   0.000000
     8  H    2.059630   1.111055   0.000000
     9  H    2.049231   1.103421   1.783930   0.000000
    10  C    2.335133   1.531254   2.179917   2.185692   0.000000
    11  H    3.270789   2.188971   2.398256   2.702822   1.104422
    12  H    2.762906   2.159561   3.059639   2.394214   1.100166
    13  C    4.112946   5.025108   5.757489   5.724316   4.569901
    14  H    5.159614   6.073833   6.747958   6.811448   5.553556
    15  H    4.241490   4.986916   5.857465   5.539839   4.372466
    16  C    3.722539   4.920633   5.646156   5.511637   4.932240
    17  H    4.351945   5.619560   6.200321   6.286330   5.732488
    18  H    4.321523   5.500344   6.332785   5.915709   5.541097
    19  O    3.333358   3.660684   4.728010   3.829608   3.102305
    20  H    2.855833   3.424242   4.503853   3.514711   3.290447
    21  H    3.440083   4.226061   4.289192   5.264489   4.225075
                   11         12         13         14         15
    11  H    0.000000
    12  H    1.818479   0.000000
    13  C    5.490750   4.467391   0.000000
    14  H    6.407162   5.472126   1.105048   0.000000
    15  H    5.292493   4.015481   1.100129   1.820028   0.000000
    16  C    5.969592   4.871950   1.530026   2.188768   2.143912
    17  H    6.728302   5.813730   2.179075   2.402346   3.049559
    18  H    6.615074   5.289921   2.183441   2.696078   2.374363
    19  O    4.047464   2.316986   3.121298   4.097334   2.329756
    20  H    4.332797   2.657499   3.212869   4.251571   2.630025
    21  H    4.849996   4.895356   3.336462   3.787322   4.186201
                   16         17         18         19         20
    16  C    0.000000
    17  H    1.112085   0.000000
    18  H    1.102077   1.786147   0.000000
    19  O    3.437903   4.536556   3.474275   0.000000
    20  H    3.078559   4.159634   3.037324   0.963673   0.000000
    21  H    3.435437   3.332470   4.530924   5.044951   4.920933
                   21
    21  H    0.000000
 Symmetry turned off by external request.
 Stoichiometry    C4H10O6Si(2-)
 Framework group  C1[X(C4H10O6Si)]
 Deg. of freedom    57
 Full point group                 C1      NOp   1
 Rotational constants (GHZ):           1.4540062           0.9012154           0.7783773
 Standard basis: def2TZVPP (5D, 7F)
   492 basis functions,   749 primitive gaussians,   558 cartesian basis functions
    49 alpha electrons       49 beta electrons
       nuclear repulsion energy       867.6283032787 Hartrees.
 NAtoms=   21 NActive=   21 NUniq=   21 SFac= 1.00D+00 NAtFMM=   60 NAOKFM=F Big=F
 Integral buffers will be    131072 words long.
 Raffenetti 2 integral format.
 Two-electron integral symmetry is turned off.
 Nuclear repulsion after empirical dispersion term =      867.6155366400 Hartrees.
 One-electron integrals computed using PRISM.
   1 Symmetry operations used in ECPInt.
 ECPInt:  NShTT=   17020 NPrTT=   47563 LenC2=   16260 LenP2D=   35228.
 LDataN:  DoStor=T MaxTD1= 6 Len=  172
 NBasis=   492 RedAO= T EigKep=  2.56D-04  NBF=   492
 NBsUse=   492 1.00D-06 EigRej= -1.00D+00 NBFU=   492
 Initial guess from the checkpoint file:  "IRCReverse_HBiL2toPBiL2.chk"
 B after Tr=     0.000022   -0.000468   -0.000010
         Rot=    1.000000   -0.000116    0.000013    0.000011 Ang=  -0.01 deg.
 ExpMin= 7.01D-02 ExpMax= 4.48D+04 ExpMxC= 1.53D+03 IAcc=3 IRadAn=         5 AccDes= 0.00D+00
 Harris functional with IExCor= 4639 and IRadAn=       5 diagonalized for initial guess.
 HarFok:  IExCor= 4639 AccDes= 0.00D+00 IRadAn=         5 IDoV= 1 UseB2=F ITyADJ=14
 ICtDFT=  3500011 ScaDFX=  1.000000  1.000000  1.000000  1.000000
 FoFCou: FMM=F IPFlag=           0 FMFlag=      100000 FMFlg1=           0
         NFxFlg=           0 DoJE=T BraDBF=F KetDBF=T FulRan=T
         wScrn=  0.000000 ICntrl=       500 IOpCl=  0 I1Cent=   200000004 NGrid=           0
         NMat0=    1 NMatS0=      1 NMatT0=    0 NMatD0=    1 NMtDS0=    0 NMtDT0=    0
 Symmetry not used in FoFCou.
 Requested convergence on RMS density matrix=1.00D-08 within 128 cycles.
 Requested convergence on MAX density matrix=1.00D-06.
 Requested convergence on             energy=1.00D-06.
 No special actions if energy rises.
 Integral accuracy reduced to 1.0D-05 until final iterations.
 Initial convergence to 1.0D-05 achieved.  Increase integral accuracy.
 SCF Done:  E(RwB97XD) =  -899.437439201     A.U. after   12 cycles
            NFock= 12  Conv=0.91D-08     -V/T= 2.0035
 DoSCS=F DFT=T ScalE2(SS,OS)=  1.000000  1.000000
 Range of M.O.s used for correlation:     1   492
 NBasis=   492 NAE=    49 NBE=    49 NFC=     0 NFV=     0
 NROrb=    492 NOA=    49 NOB=    49 NVA=   443 NVB=   443

 **** Warning!!: The largest alpha MO coefficient is  0.11826280D+02

 Symmetrizing basis deriv contribution to polar:
 IMax=3 JMax=2 DiffMx= 0.00D+00
   1 Symmetry operations used in ECPInt.
 ECPInt:  NShTT=   17020 NPrTT=   47563 LenC2=   16260 LenP2D=   35228.
 LDataN:  DoStor=T MaxTD1= 7 Len=  274
 Calling FoFJK, ICntrl=      2127 FMM=F ISym2X=0 I1Cent= 0 IOpClX= 0 NMat=1 NMatS=1 NMatT=0.
 -------------------------------------------------------------------
 Center     Atomic                   Forces (Hartrees/Bohr)
 Number     Number              X              Y              Z
 -------------------------------------------------------------------
      1       14          -0.000051087   -0.002186917   -0.000089543
      2        8           0.000424295    0.000022090    0.000203075
      3        8          -0.000402916    0.000180954   -0.000300449
      4        8           0.000072802   -0.001003442    0.000050597
      5        8          -0.000017398   -0.000997676    0.000003931
      6        8          -0.000047568   -0.000786038   -0.000103900
      7        6           0.000094362   -0.000078616   -0.000055644
      8        1           0.000000104   -0.000003732   -0.000004688
      9        1          -0.000000654   -0.000000056   -0.000000102
     10        6           0.000533092    0.000424004    0.000308605
     11        1           0.000002570    0.000011293   -0.000002068
     12        1           0.000005254    0.000023800   -0.000008503
     13        6          -0.000553097    0.000174081   -0.000091481
     14        1          -0.000004196    0.000007358   -0.000004168
     15        1           0.000000538    0.000003165   -0.000016313
     16        6          -0.000297964    0.000439189   -0.000109200
     17        1          -0.000003363   -0.000003098   -0.000001056
     18        1          -0.000003097    0.000004563    0.000000014
     19        8           0.000565271    0.001789602    0.005213573
     20        1          -0.000327923    0.001995308   -0.004990805
     21        1           0.000010975   -0.000015833   -0.000001875
 -------------------------------------------------------------------
 Cartesian Forces:  Max     0.005213573 RMS     0.001045469
 IRC-IRC-IRC-IRC-IRC-IRC-IRC-IRC-IRC-IRC-IRC-IRC-IRC-IRC-IRC-IRC-IRC-IRC
 Error in corrector energy =          -0.0000600221
 Magnitude of corrector gradient =     0.0055633739
 Magnitude of analytic gradient =      0.0082981537
 Magnitude of difference =             0.0077824000
 Angle between gradients (degrees)=   64.8467
 Pt  5 Step number 100 out of a maximum of 100
 Modified Bulirsch-Stoer Extrapolation Cycles:
    EPS =    0.000010000000000
      PEZero:  N= 2 I= 1 D=  1.78D-03 Err=  1.34D-01
      PEZero:  N= 3 I= 2 D=  1.78D-03 Err=  9.11D-02
      PEZero:  N= 3 I= 1 D=  3.56D-03 Err=  4.98D-03
      PEZero:  N= 4 I= 3 D=  8.91D-04 Err=  1.18D-04
      PEZero:  N= 4 I= 2 D=  2.67D-03 Err=  9.13D-02
      PEZero:  N= 5 I= 4 D=  8.91D-04 Err=  7.88D-05
      PEZero:  N= 5 I= 3 D=  1.78D-03 Err=  6.33D-08
      PEZero:  N= 5 I= 2 D=  3.56D-03 Err=  2.49D-03
 Maximum DWI energy   std dev =  0.000011910 at pt    47
 Maximum DWI gradient std dev =  0.699882638 at pt   107
 CORRECTOR INTEGRATION CONVERGENCE:
   Recorrection delta-x convergence threshold:    0.010000
   Delta-x Convergence NOT Met
 Maximum number of corrector steps exceded.
 Error termination via Lnk1e in /opt/software/gaussian/g16.c01/l123.exe at Wed Mar 27 00:19:24 2024.
 Job cpu time:       3 days  2 hours 44 minutes 51.8 seconds.
 Elapsed time:       0 days 19 hours 25 minutes  6.0 seconds.
 File lengths (MBytes):  RWF=    405 Int=      0 D2E=      0 Chk=     20 Scr=      1
