 Entering Gaussian System, Link 0=/opt/software/gaussian/g16.c01/g16
 Initial command:
 /opt/software/gaussian/g16.c01/l1.exe "/scratch/arhender/18403620/Gau-161898.inp" -scrdir="/scratch/arhender/18403620/"
 Entering Link 1 = /opt/software/gaussian/g16.c01/l1.exe PID=    161922.
  
 Copyright (c) 1988-2019, Gaussian, Inc.  All Rights Reserved.
  
 This is part of the Gaussian(R) 16 program.  It is based on
 the Gaussian(R) 09 system (copyright 2009, Gaussian, Inc.),
 the Gaussian(R) 03 system (copyright 2003, Gaussian, Inc.),
 the Gaussian(R) 98 system (copyright 1998, Gaussian, Inc.),
 the Gaussian(R) 94 system (copyright 1995, Gaussian, Inc.),
 the Gaussian 92(TM) system (copyright 1992, Gaussian, Inc.),
 the Gaussian 90(TM) system (copyright 1990, Gaussian, Inc.),
 the Gaussian 88(TM) system (copyright 1988, Gaussian, Inc.),
 the Gaussian 86(TM) system (copyright 1986, Carnegie Mellon
 University), and the Gaussian 82(TM) system (copyright 1983,
 Carnegie Mellon University). Gaussian is a federally registered
 trademark of Gaussian, Inc.
  
 This software contains proprietary and confidential information,
 including trade secrets, belonging to Gaussian, Inc.
  
 This software is provided under written license and may be
 used, copied, transmitted, or stored only in accord with that
 written license.
  
 The following legend is applicable only to US Government
 contracts under FAR:
  
                    RESTRICTED RIGHTS LEGEND
  
 Use, reproduction and disclosure by the US Government is
 subject to restrictions as set forth in subparagraphs (a)
 and (c) of the Commercial Computer Software - Restricted
 Rights clause in FAR 52.227-19.
  
 Gaussian, Inc.
 340 Quinnipiac St., Bldg. 40, Wallingford CT 06492
  
  
 ---------------------------------------------------------------
 Warning -- This program may not be used in any manner that
 competes with the business of Gaussian, Inc. or will provide
 assistance to any competitor of Gaussian, Inc.  The licensee
 of this program is prohibited from giving any competitor of
 Gaussian, Inc. access to this program.  By using this program,
 the user acknowledges that Gaussian, Inc. is engaged in the
 business of creating and licensing software in the field of
 computational chemistry and represents and warrants to the
 licensee that it is not a competitor of Gaussian, Inc. and that
 it will not use this program in any manner prohibited above.
 ---------------------------------------------------------------
  

 Cite this work as:
 Gaussian 16, Revision C.01,
 M. J. Frisch, G. W. Trucks, H. B. Schlegel, G. E. Scuseria, 
 M. A. Robb, J. R. Cheeseman, G. Scalmani, V. Barone, 
 G. A. Petersson, H. Nakatsuji, X. Li, M. Caricato, A. V. Marenich, 
 J. Bloino, B. G. Janesko, R. Gomperts, B. Mennucci, H. P. Hratchian, 
 J. V. Ortiz, A. F. Izmaylov, J. L. Sonnenberg, D. Williams-Young, 
 F. Ding, F. Lipparini, F. Egidi, J. Goings, B. Peng, A. Petrone, 
 T. Henderson, D. Ranasinghe, V. G. Zakrzewski, J. Gao, N. Rega, 
 G. Zheng, W. Liang, M. Hada, M. Ehara, K. Toyota, R. Fukuda, 
 J. Hasegawa, M. Ishida, T. Nakajima, Y. Honda, O. Kitao, H. Nakai, 
 T. Vreven, K. Throssell, J. A. Montgomery, Jr., J. E. Peralta, 
 F. Ogliaro, M. J. Bearpark, J. J. Heyd, E. N. Brothers, K. N. Kudin, 
 V. N. Staroverov, T. A. Keith, R. Kobayashi, J. Normand, 
 K. Raghavachari, A. P. Rendell, J. C. Burant, S. S. Iyengar, 
 J. Tomasi, M. Cossi, J. M. Millam, M. Klene, C. Adamo, R. Cammi, 
 J. W. Ochterski, R. L. Martin, K. Morokuma, O. Farkas, 
 J. B. Foresman, and D. J. Fox, Gaussian, Inc., Wallingford CT, 2019.
 
 ******************************************
 Gaussian 16:  ES64L-G16RevC.01  3-Jul-2019
                14-Nov-2023 
 ******************************************
 %chk=NewBondScan_WeirdPES_moreRefined.chk
 %mem=8GB
 %nprocs=16
 Will use up to   16 processors via shared memory.
 -----------------------------------------------------
 # opt=modredundant wb97xd/def2tzvpp geom=connectivity
 -----------------------------------------------------
 1/18=120,19=15,26=3,38=1,57=2/1,3;
 2/9=110,12=2,17=6,18=5,40=1/2;
 3/5=44,7=202,11=2,25=1,30=1,71=1,74=-58/1,2,3;
 4//1;
 5/5=2,38=5/2;
 6/7=2,8=2,9=2,10=2,28=1/1;
 7//1,2,3,16;
 1/18=20,19=15,26=3/3(2);
 2/9=110/2;
 99//99;
 2/9=110/2;
 3/5=44,7=202,11=2,25=1,30=1,71=1,74=-58/1,2,3;
 4/5=5,16=3,69=1/1;
 5/5=2,38=5/2;
 7//1,2,3,16;
 1/18=20,19=15,26=3/3(-5);
 2/9=110/2;
 6/7=2,8=2,9=2,10=2,19=2,28=1/1;
 99/9=1/99;
 ------------------------------------------
 Even more refined scan of weird dip in PES
 ------------------------------------------
 Symbolic Z-matrix:
 Charge = -1 Multiplicity = 1
 Si                    0.71894  -0.80179  -0.26012 
 O                     0.45379  -2.22997  -0.84912 
 O                     2.33515   2.12882   0.35255 
 H                     3.12317   2.03181  -0.17889 
 O                     0.62276   0.6046   -0.9597 
 H                     1.63537   1.66861  -0.19061 
 O                     1.81483  -0.75296   0.97884 
 H                     2.12058   0.15102   1.11086 
 C                    -2.19227  -0.43377   0.43959 
 H                    -2.8694   -0.78365   1.22435 
 H                    -2.57818  -0.74638  -0.53403 
 C                    -2.10535   1.08586   0.46525 
 H                    -1.42638   1.3738    1.28206 
 H                    -3.10115   1.46239   0.72399 
 O                    -0.92935  -1.06471   0.67453 
 O                    -1.74145   1.65743  -0.74832 
 H                    -0.81927   1.33349  -0.94857 
 H                    -0.79239  -1.92159   0.12311 
 
 Add virtual bond connecting atoms H18        and O15        Dist= 1.94D+00.
 Add virtual bond connecting atoms H6         and O5         Dist= 3.13D+00.
 The following ModRedundant input section has been read:
 B       1      15 S  12 -0.000                                                
 

 GradGradGradGradGradGradGradGradGradGradGradGradGradGradGradGradGradGrad
 Berny optimization.
 Initialization pass.
                           ----------------------------
                           !    Initial Parameters    !
                           ! (Angstroms and Degrees)  !
 --------------------------                            --------------------------
 ! Name  Definition              Value          Derivative Info.                !
 --------------------------------------------------------------------------------
 ! R1    R(1,2)                  1.5675         estimate D2E/DX2                !
 ! R2    R(1,5)                  1.5737         estimate D2E/DX2                !
 ! R3    R(1,7)                  1.6548         estimate D2E/DX2                !
 ! R4    R(1,15)                 1.913          Scan                            !
 ! R5    R(3,4)                  0.9554         estimate D2E/DX2                !
 ! R6    R(3,6)                  0.9983         estimate D2E/DX2                !
 ! R7    R(5,6)                  1.658          estimate D2E/DX2                !
 ! R8    R(7,8)                  0.9634         estimate D2E/DX2                !
 ! R9    R(9,10)                 1.094          estimate D2E/DX2                !
 ! R10   R(9,11)                 1.093          estimate D2E/DX2                !
 ! R11   R(9,12)                 1.5223         estimate D2E/DX2                !
 ! R12   R(9,15)                 1.4312         estimate D2E/DX2                !
 ! R13   R(12,13)                1.1005         estimate D2E/DX2                !
 ! R14   R(12,14)                1.0956         estimate D2E/DX2                !
 ! R15   R(12,16)                1.3899         estimate D2E/DX2                !
 ! R16   R(15,18)                1.0281         estimate D2E/DX2                !
 ! R17   R(16,17)                0.9977         estimate D2E/DX2                !
 ! A1    A(2,1,5)              129.5597         estimate D2E/DX2                !
 ! A2    A(2,1,7)              114.8503         estimate D2E/DX2                !
 ! A3    A(2,1,15)              84.9864         estimate D2E/DX2                !
 ! A4    A(5,1,7)              110.2999         estimate D2E/DX2                !
 ! A5    A(5,1,15)             106.7            estimate D2E/DX2                !
 ! A6    A(7,1,15)             102.0558         estimate D2E/DX2                !
 ! A7    A(4,3,6)              103.2214         estimate D2E/DX2                !
 ! A8    A(1,5,6)              109.2673         estimate D2E/DX2                !
 ! A9    A(1,7,8)              109.9056         estimate D2E/DX2                !
 ! A10   A(10,9,11)            109.2071         estimate D2E/DX2                !
 ! A11   A(10,9,12)            110.0296         estimate D2E/DX2                !
 ! A12   A(10,9,15)            106.7047         estimate D2E/DX2                !
 ! A13   A(11,9,12)            108.7047         estimate D2E/DX2                !
 ! A14   A(11,9,15)            109.3732         estimate D2E/DX2                !
 ! A15   A(12,9,15)            112.7634         estimate D2E/DX2                !
 ! A16   A(9,12,13)            107.9938         estimate D2E/DX2                !
 ! A17   A(9,12,14)            107.1667         estimate D2E/DX2                !
 ! A18   A(9,12,16)            114.2502         estimate D2E/DX2                !
 ! A19   A(13,12,14)           107.1918         estimate D2E/DX2                !
 ! A20   A(13,12,16)           112.2674         estimate D2E/DX2                !
 ! A21   A(14,12,16)           107.6278         estimate D2E/DX2                !
 ! A22   A(1,15,9)             128.282          estimate D2E/DX2                !
 ! A23   A(1,15,18)             74.7948         estimate D2E/DX2                !
 ! A24   A(9,15,18)            113.3864         estimate D2E/DX2                !
 ! A25   A(12,16,17)           106.482          estimate D2E/DX2                !
 ! A26   L(3,6,5,7,-1)         168.001          estimate D2E/DX2                !
 ! A27   L(3,6,5,7,-2)         183.5354         estimate D2E/DX2                !
 ! D1    D(2,1,5,6)           -153.6533         estimate D2E/DX2                !
 ! D2    D(7,1,5,6)             -1.1826         estimate D2E/DX2                !
 ! D3    D(15,1,5,6)           108.9065         estimate D2E/DX2                !
 ! D4    D(2,1,7,8)            163.2669         estimate D2E/DX2                !
 ! D5    D(5,1,7,8)              6.3896         estimate D2E/DX2                !
 ! D6    D(15,1,7,8)          -106.7083         estimate D2E/DX2                !
 ! D7    D(2,1,15,9)          -108.2486         estimate D2E/DX2                !
 ! D8    D(2,1,15,18)           -0.2197         estimate D2E/DX2                !
 ! D9    D(5,1,15,9)            21.6299         estimate D2E/DX2                !
 ! D10   D(5,1,15,18)          129.6588         estimate D2E/DX2                !
 ! D11   D(7,1,15,9)           137.3805         estimate D2E/DX2                !
 ! D12   D(7,1,15,18)         -114.5905         estimate D2E/DX2                !
 ! D13   D(4,3,5,1)             93.3366         estimate D2E/DX2                !
 ! D14   D(10,9,12,13)          78.8581         estimate D2E/DX2                !
 ! D15   D(10,9,12,14)         -36.3304         estimate D2E/DX2                !
 ! D16   D(10,9,12,16)        -155.4598         estimate D2E/DX2                !
 ! D17   D(11,9,12,13)        -161.5962         estimate D2E/DX2                !
 ! D18   D(11,9,12,14)          83.2153         estimate D2E/DX2                !
 ! D19   D(11,9,12,16)         -35.9141         estimate D2E/DX2                !
 ! D20   D(15,9,12,13)         -40.1386         estimate D2E/DX2                !
 ! D21   D(15,9,12,14)        -155.327          estimate D2E/DX2                !
 ! D22   D(15,9,12,16)          85.5436         estimate D2E/DX2                !
 ! D23   D(10,9,15,1)         -175.6516         estimate D2E/DX2                !
 ! D24   D(10,9,15,18)          95.65           estimate D2E/DX2                !
 ! D25   D(11,9,15,1)           66.3387         estimate D2E/DX2                !
 ! D26   D(11,9,15,18)         -22.3597         estimate D2E/DX2                !
 ! D27   D(12,9,15,1)          -54.739          estimate D2E/DX2                !
 ! D28   D(12,9,15,18)        -143.4374         estimate D2E/DX2                !
 ! D29   D(9,12,16,17)         -63.4173         estimate D2E/DX2                !
 ! D30   D(13,12,16,17)         59.9885         estimate D2E/DX2                !
 ! D31   D(14,12,16,17)        177.714          estimate D2E/DX2                !
 --------------------------------------------------------------------------------
 Trust Radius=3.00D-01 FncErr=1.00D-07 GrdErr=1.00D-06 EigMax=2.50D+02 EigMin=1.00D-04
 Number of optimizations in scan=  13
 Number of steps in this run=     85 maximum allowed number of steps=    108.
 GradGradGradGradGradGradGradGradGradGradGradGradGradGradGradGradGradGrad

                          Input orientation:                          
 ---------------------------------------------------------------------
 Center     Atomic      Atomic             Coordinates (Angstroms)
 Number     Number       Type             X           Y           Z
 ---------------------------------------------------------------------
      1         14           0        0.718941   -0.801785   -0.260117
      2          8           0        0.453786   -2.229968   -0.849116
      3          8           0        2.335153    2.128822    0.352551
      4          1           0        3.123168    2.031810   -0.178892
      5          8           0        0.622761    0.604603   -0.959698
      6          1           0        1.635366    1.668614   -0.190614
      7          8           0        1.814829   -0.752958    0.978839
      8          1           0        2.120583    0.151024    1.110860
      9          6           0       -2.192266   -0.433768    0.439590
     10          1           0       -2.869403   -0.783651    1.224352
     11          1           0       -2.578183   -0.746380   -0.534025
     12          6           0       -2.105349    1.085861    0.465254
     13          1           0       -1.426377    1.373795    1.282065
     14          1           0       -3.101152    1.462391    0.723987
     15          8           0       -0.929351   -1.064711    0.674535
     16          8           0       -1.741451    1.657427   -0.748322
     17          1           0       -0.819268    1.333492   -0.948566
     18          1           0       -0.792386   -1.921593    0.123105
 ---------------------------------------------------------------------
                    Distance matrix (angstroms):
                    1          2          3          4          5
     1  Si   0.000000
     2  O    1.567461   0.000000
     3  O    3.402346   4.897203   0.000000
     4  H    3.717010   5.073219   0.955411   0.000000
     5  O    1.573719   2.841755   2.641501   2.983054   0.000000
     6  H    2.635818   4.126584   0.998259   1.531536   1.658004
     7  O    1.654801   2.715772   2.994600   3.287404   2.649891
     8  H    2.179914   3.505544   2.129027   2.491183   2.595460
     9  C    3.016646   3.447998   5.203073   5.891981   3.310680
    10  H    3.883321   4.175486   6.027432   6.768073   4.346554
    11  H    3.308945   3.390155   5.761395   6.352154   3.500342
    12  C    3.473613   4.389928   4.562733   5.352302   3.115234
    13  H    3.422552   4.589559   3.947552   4.823457   3.133069
    14  H    4.548414   5.361507   5.489582   6.315188   4.175898
    15  O    1.913000   2.364826   4.578134   5.171043   2.804706
    16  O    3.512776   4.465542   4.248862   4.912120   2.596655
    17  H    2.720194   3.785341   3.503687   4.077112   1.615812
    18  H    1.919619   1.610358   5.122500   5.572447   3.091403
                    6          7          8          9         10
     6  H    0.000000
     7  O    2.695151   0.000000
     8  H    2.057267   0.963379   0.000000
     9  C    4.412248   4.055797   4.403777   0.000000
    10  H    5.320589   4.690761   5.078036   1.093976   0.000000
    11  H    4.868687   4.646219   5.058594   1.092970   1.782719
    12  C    3.842228   4.360370   4.375984   1.522329   2.157564
    13  H    3.410274   3.888501   3.755716   2.136267   2.596195
    14  H    4.828419   5.398110   5.397766   2.121880   2.312742
    15  O    3.846728   2.778545   3.312172   1.431169   2.035951
    16  O    3.422580   4.630353   4.543249   2.446930   3.335053
    17  H    2.590757   3.873839   3.779178   2.633498   3.661546
    18  H    4.345341   2.982542   3.709015   2.067233   2.611830
                   11         12         13         14         15
    11  H    0.000000
    12  C    2.139915   0.000000
    13  H    3.019931   1.100496   0.000000
    14  H    2.595142   1.095601   1.767534   0.000000
    15  O    2.068961   2.460027   2.561726   3.332479   0.000000
    16  O    2.554277   1.389920   2.074172   2.013584   3.177116
    17  H    2.755267   1.927230   2.312125   2.832145   2.897922
    18  H    2.236519   3.299351   3.550312   4.140388   1.028145
                   16         17         18
    16  O    0.000000
    17  H    0.997724   0.000000
    18  H    3.803879   3.427066   0.000000
 Stoichiometry    C2H9O6Si(1-)
 Framework group  C1[X(C2H9O6Si)]
 Deg. of freedom    48
 Full point group                 C1      NOp   1
 Largest Abelian subgroup         C1      NOp   1
 Largest concise Abelian subgroup C1      NOp   1
                         Standard orientation:                         
 ---------------------------------------------------------------------
 Center     Atomic      Atomic             Coordinates (Angstroms)
 Number     Number       Type             X           Y           Z
 ---------------------------------------------------------------------
      1         14           0        0.718715   -0.801831   -0.259997
      2          8           0        0.453535   -2.230009   -0.848996
      3          8           0        2.334977    2.128749    0.352671
      4          1           0        3.122990    2.031723   -0.178772
      5          8           0        0.622559    0.604559   -0.959578
      6          1           0        1.635182    1.668552   -0.190494
      7          8           0        1.814604   -0.753023    0.978959
      8          1           0        2.120373    0.150954    1.110980
      9          6           0       -2.192487   -0.433764    0.439710
     10          1           0       -2.869629   -0.783636    1.224472
     11          1           0       -2.578408   -0.746370   -0.533905
     12          6           0       -2.105544    1.085863    0.465374
     13          1           0       -1.426566    1.373786    1.282185
     14          1           0       -3.101340    1.462410    0.724107
     15          8           0       -0.929581   -1.064729    0.674655
     16          8           0       -1.741635    1.657423   -0.748202
     17          1           0       -0.819457    1.333473   -0.948446
     18          1           0       -0.792631   -1.921613    0.123225
 ---------------------------------------------------------------------
 Rotational constants (GHZ):           1.4307330           1.1099181           0.7621685
 Standard basis: def2TZVPP (5D, 7F)
 There are   471 symmetry adapted cartesian basis functions of A   symmetry.
 There are   416 symmetry adapted basis functions of A   symmetry.
   416 basis functions,   630 primitive gaussians,   471 cartesian basis functions
    42 alpha electrons       42 beta electrons
       nuclear repulsion energy       626.9459886329 Hartrees.
 NAtoms=   18 NActive=   18 NUniq=   18 SFac= 1.00D+00 NAtFMM=   60 NAOKFM=F Big=F
 Integral buffers will be    131072 words long.
 Raffenetti 2 integral format.
 Two-electron integral symmetry is turned on.
 Nuclear repulsion after empirical dispersion term =      626.9364692193 Hartrees.
 One-electron integrals computed using PRISM.
   1 Symmetry operations used in ECPInt.
 ECPInt:  NShTT=   12246 NPrTT=   33908 LenC2=   11646 LenP2D=   25156.
 LDataN:  DoStor=T MaxTD1= 6 Len=  172
 NBasis=   416 RedAO= T EigKep=  3.15D-04  NBF=   416
 NBsUse=   416 1.00D-06 EigRej= -1.00D+00 NBFU=   416
 ExpMin= 7.01D-02 ExpMax= 4.48D+04 ExpMxC= 1.53D+03 IAcc=3 IRadAn=         5 AccDes= 0.00D+00
 Harris functional with IExCor= 4639 and IRadAn=       5 diagonalized for initial guess.
 HarFok:  IExCor= 4639 AccDes= 0.00D+00 IRadAn=         5 IDoV= 1 UseB2=F ITyADJ=14
 ICtDFT=  3500011 ScaDFX=  1.000000  1.000000  1.000000  1.000000
 FoFCou: FMM=F IPFlag=           0 FMFlag=      100000 FMFlg1=           0
         NFxFlg=           0 DoJE=T BraDBF=F KetDBF=T FulRan=T
         wScrn=  0.000000 ICntrl=       500 IOpCl=  0 I1Cent=   200000004 NGrid=           0
         NMat0=    1 NMatS0=      1 NMatT0=    0 NMatD0=    1 NMtDS0=    0 NMtDT0=    0
 Petite list used in FoFCou.
 Requested convergence on RMS density matrix=1.00D-08 within 128 cycles.
 Requested convergence on MAX density matrix=1.00D-06.
 Requested convergence on             energy=1.00D-06.
 No special actions if energy rises.
 Integral accuracy reduced to 1.0D-05 until final iterations.
 Initial convergence to 1.0D-05 achieved.  Increase integral accuracy.
 SCF Done:  E(RwB97XD) =  -822.758075574     A.U. after   14 cycles
            NFock= 14  Conv=0.55D-08     -V/T= 2.0033

 **********************************************************************

            Population analysis using the SCF Density.

 **********************************************************************

 Orbital symmetries:
       Occupied  (A) (A) (A) (A) (A) (A) (A) (A) (A) (A) (A) (A)
                 (A) (A) (A) (A) (A) (A) (A) (A) (A) (A) (A) (A)
                 (A) (A) (A) (A) (A) (A) (A) (A) (A) (A) (A) (A)
                 (A) (A) (A) (A) (A) (A)
       Virtual   (A) (A) (A) (A) (A) (A) (A) (A) (A) (A) (A) (A)
                 (A) (A) (A) (A) (A) (A) (A) (A) (A) (A) (A) (A)
                 (A) (A) (A) (A) (A) (A) (A) (A) (A) (A) (A) (A)
                 (A) (A) (A) (A) (A) (A) (A) (A) (A) (A) (A) (A)
                 (A) (A) (A) (A) (A) (A) (A) (A) (A) (A) (A) (A)
                 (A) (A) (A) (A) (A) (A) (A) (A) (A) (A) (A) (A)
                 (A) (A) (A) (A) (A) (A) (A) (A) (A) (A) (A) (A)
                 (A) (A) (A) (A) (A) (A) (A) (A) (A) (A) (A) (A)
                 (A) (A) (A) (A) (A) (A) (A) (A) (A) (A) (A) (A)
                 (A) (A) (A) (A) (A) (A) (A) (A) (A) (A) (A) (A)
                 (A) (A) (A) (A) (A) (A) (A) (A) (A) (A) (A) (A)
                 (A) (A) (A) (A) (A) (A) (A) (A) (A) (A) (A) (A)
                 (A) (A) (A) (A) (A) (A) (A) (A) (A) (A) (A) (A)
                 (A) (A) (A) (A) (A) (A) (A) (A) (A) (A) (A) (A)
                 (A) (A) (A) (A) (A) (A) (A) (A) (A) (A) (A) (A)
                 (A) (A) (A) (A) (A) (A) (A) (A) (A) (A) (A) (A)
                 (A) (A) (A) (A) (A) (A) (A) (A) (A) (A) (A) (A)
                 (A) (A) (A) (A) (A) (A) (A) (A) (A) (A) (A) (A)
                 (A) (A) (A) (A) (A) (A) (A) (A) (A) (A) (A) (A)
                 (A) (A) (A) (A) (A) (A) (A) (A) (A) (A) (A) (A)
                 (A) (A) (A) (A) (A) (A) (A) (A) (A) (A) (A) (A)
                 (A) (A) (A) (A) (A) (A) (A) (A) (A) (A) (A) (A)
                 (A) (A) (A) (A) (A) (A) (A) (A) (A) (A) (A) (A)
                 (A) (A) (A) (A) (A) (A) (A) (A) (A) (A) (A) (A)
                 (A) (A) (A) (A) (A) (A) (A) (A) (A) (A) (A) (A)
                 (A) (A) (A) (A) (A) (A) (A) (A) (A) (A) (A) (A)
                 (A) (A) (A) (A) (A) (A) (A) (A) (A) (A) (A) (A)
                 (A) (A) (A) (A) (A) (A) (A) (A) (A) (A) (A) (A)
                 (A) (A) (A) (A) (A) (A) (A) (A) (A) (A) (A) (A)
                 (A) (A) (A) (A) (A) (A) (A) (A) (A) (A) (A) (A)
                 (A) (A) (A) (A) (A) (A) (A) (A) (A) (A) (A) (A)
                 (A) (A)
 The electronic state is 1-A.
 Alpha  occ. eigenvalues --  -66.10515 -19.15804 -19.08780 -19.08433 -19.07781
 Alpha  occ. eigenvalues --  -19.01851 -19.00038 -10.22264 -10.20460  -5.22502
 Alpha  occ. eigenvalues --   -3.57380  -3.56889  -3.56618  -1.03647  -0.97103
 Alpha  occ. eigenvalues --   -0.95327  -0.93363  -0.84481  -0.81963  -0.72061
 Alpha  occ. eigenvalues --   -0.59743  -0.51178  -0.46806  -0.45585  -0.45373
 Alpha  occ. eigenvalues --   -0.44478  -0.40903  -0.36756  -0.35987  -0.33530
 Alpha  occ. eigenvalues --   -0.32947  -0.30762  -0.28736  -0.27697  -0.25955
 Alpha  occ. eigenvalues --   -0.24768  -0.24215  -0.21534  -0.21009  -0.19904
 Alpha  occ. eigenvalues --   -0.18425  -0.17713
 Alpha virt. eigenvalues --    0.22799   0.24092   0.26134   0.28258   0.28991
 Alpha virt. eigenvalues --    0.29899   0.31039   0.32111   0.32519   0.34161
 Alpha virt. eigenvalues --    0.37105   0.38038   0.39459   0.41820   0.41890
 Alpha virt. eigenvalues --    0.44122   0.45280   0.45346   0.46139   0.48874
 Alpha virt. eigenvalues --    0.50946   0.52265   0.53942   0.55005   0.55326
 Alpha virt. eigenvalues --    0.56692   0.57263   0.58320   0.58670   0.58872
 Alpha virt. eigenvalues --    0.60781   0.61029   0.62954   0.64273   0.64635
 Alpha virt. eigenvalues --    0.65325   0.65920   0.67427   0.67846   0.68296
 Alpha virt. eigenvalues --    0.69471   0.71162   0.72102   0.72432   0.75049
 Alpha virt. eigenvalues --    0.76637   0.78800   0.79516   0.81716   0.82883
 Alpha virt. eigenvalues --    0.83808   0.85516   0.86393   0.87370   0.88753
 Alpha virt. eigenvalues --    0.89468   0.92266   0.92638   0.93531   0.94662
 Alpha virt. eigenvalues --    0.97334   0.98123   0.99138   0.99723   1.01995
 Alpha virt. eigenvalues --    1.04365   1.05017   1.06533   1.07510   1.08073
 Alpha virt. eigenvalues --    1.08690   1.10874   1.12447   1.15339   1.16844
 Alpha virt. eigenvalues --    1.17887   1.19825   1.21170   1.21667   1.23802
 Alpha virt. eigenvalues --    1.25681   1.27075   1.27771   1.28090   1.31363
 Alpha virt. eigenvalues --    1.32690   1.33843   1.34223   1.35753   1.36353
 Alpha virt. eigenvalues --    1.39639   1.40833   1.43167   1.43478   1.44191
 Alpha virt. eigenvalues --    1.45219   1.47528   1.48443   1.51267   1.53818
 Alpha virt. eigenvalues --    1.56622   1.57456   1.58816   1.59446   1.60298
 Alpha virt. eigenvalues --    1.64484   1.65337   1.68308   1.69216   1.70708
 Alpha virt. eigenvalues --    1.73341   1.74047   1.76009   1.77510   1.79820
 Alpha virt. eigenvalues --    1.83838   1.85154   1.88731   1.90059   1.96205
 Alpha virt. eigenvalues --    1.98312   2.00867   2.01405   2.03354   2.05485
 Alpha virt. eigenvalues --    2.08295   2.10334   2.11343   2.12576   2.14163
 Alpha virt. eigenvalues --    2.15463   2.17106   2.17575   2.20419   2.21034
 Alpha virt. eigenvalues --    2.23011   2.23489   2.26457   2.29233   2.30200
 Alpha virt. eigenvalues --    2.33393   2.35657   2.38826   2.39751   2.41254
 Alpha virt. eigenvalues --    2.43222   2.44676   2.46735   2.50438   2.52388
 Alpha virt. eigenvalues --    2.54256   2.56682   2.57501   2.59232   2.60679
 Alpha virt. eigenvalues --    2.62921   2.72371   2.75656   2.79504   2.79874
 Alpha virt. eigenvalues --    2.82217   2.83091   2.87372   2.90958   2.94398
 Alpha virt. eigenvalues --    2.95142   2.96228   2.96636   2.99656   3.01020
 Alpha virt. eigenvalues --    3.03170   3.07048   3.08546   3.11397   3.12812
 Alpha virt. eigenvalues --    3.15980   3.18658   3.20494   3.21110   3.22037
 Alpha virt. eigenvalues --    3.24385   3.25790   3.27838   3.29182   3.31114
 Alpha virt. eigenvalues --    3.32669   3.33655   3.35568   3.37207   3.38934
 Alpha virt. eigenvalues --    3.41192   3.42276   3.42991   3.44798   3.50102
 Alpha virt. eigenvalues --    3.50796   3.52803   3.53586   3.54424   3.55781
 Alpha virt. eigenvalues --    3.58010   3.60124   3.63528   3.64287   3.65698
 Alpha virt. eigenvalues --    3.68648   3.70574   3.70949   3.74647   3.78186
 Alpha virt. eigenvalues --    3.78526   3.79784   3.81004   3.82044   3.84848
 Alpha virt. eigenvalues --    3.86041   3.87153   3.89109   3.89609   3.91489
 Alpha virt. eigenvalues --    3.94616   3.96651   3.97036   3.99078   4.01479
 Alpha virt. eigenvalues --    4.04282   4.07029   4.08489   4.09454   4.12749
 Alpha virt. eigenvalues --    4.13133   4.15982   4.18043   4.21235   4.21554
 Alpha virt. eigenvalues --    4.22343   4.25803   4.28311   4.28574   4.28856
 Alpha virt. eigenvalues --    4.31106   4.32918   4.35982   4.36755   4.38334
 Alpha virt. eigenvalues --    4.40333   4.41479   4.43964   4.45038   4.48320
 Alpha virt. eigenvalues --    4.49327   4.53938   4.54985   4.59167   4.60201
 Alpha virt. eigenvalues --    4.60518   4.64897   4.67778   4.71670   4.76492
 Alpha virt. eigenvalues --    4.79011   4.82424   4.87559   4.88500   4.90215
 Alpha virt. eigenvalues --    4.91120   4.94750   4.97465   4.99330   5.01361
 Alpha virt. eigenvalues --    5.02937   5.05882   5.07836   5.13399   5.14689
 Alpha virt. eigenvalues --    5.17150   5.18301   5.18748   5.21779   5.22332
 Alpha virt. eigenvalues --    5.23732   5.32393   5.36379   5.44599   5.47465
 Alpha virt. eigenvalues --    5.49088   5.50885   5.51149   5.53391   5.53838
 Alpha virt. eigenvalues --    5.53945   5.57892   5.59802   5.61422   5.61916
 Alpha virt. eigenvalues --    5.65566   5.66589   5.68910   5.70061   5.71948
 Alpha virt. eigenvalues --    5.76826   5.77505   5.80995   5.82490   5.82927
 Alpha virt. eigenvalues --    5.87711   5.88159   5.91287   5.93921   5.96865
 Alpha virt. eigenvalues --    6.02471   6.06982   6.12950   6.17469   6.28091
 Alpha virt. eigenvalues --    6.30721   6.36931   6.38389   6.56139   6.59205
 Alpha virt. eigenvalues --    6.64072   6.66218   6.67678   6.70238   6.73248
 Alpha virt. eigenvalues --    6.74857   6.76811   6.79852   6.83010   6.84596
 Alpha virt. eigenvalues --    6.86551   6.87064   6.89071   6.90326   6.92043
 Alpha virt. eigenvalues --    6.92302   6.94764   6.95622   6.98852   6.99711
 Alpha virt. eigenvalues --    7.00736   7.02718   7.08286   7.10204   7.14127
 Alpha virt. eigenvalues --    7.16031   7.18212   7.24334   7.27048   7.29007
 Alpha virt. eigenvalues --    7.32781   7.34918   7.38546   7.50795   7.52760
 Alpha virt. eigenvalues --    7.59285   7.63421   7.65315   7.70588   7.75589
 Alpha virt. eigenvalues --    7.79625   7.79990   7.88197   7.92533   7.94421
 Alpha virt. eigenvalues --   12.72746  23.44195  23.63050  43.95895  44.00717
 Alpha virt. eigenvalues --   44.05383  44.17383  44.26821  44.44362
          Condensed to atoms (all electrons):
               1          2          3          4          5          6
     1  Si  11.560914   0.649302   0.002894   0.004091   0.512021  -0.003827
     2  O    0.649302   8.143826  -0.000051  -0.000003  -0.031433  -0.000028
     3  O    0.002894  -0.000051   7.868544   0.324786  -0.059065   0.328081
     4  H    0.004091  -0.000003   0.324786   0.546539   0.005548  -0.038769
     5  O    0.512021  -0.031433  -0.059065   0.005548   8.228636   0.081200
     6  H   -0.003827  -0.000028   0.328081  -0.038769   0.081200   0.373822
     7  O    0.411505  -0.034746  -0.018063   0.000788  -0.036431   0.001298
     8  H   -0.025479   0.000982   0.046100  -0.003831  -0.001931  -0.009599
     9  C   -0.022015  -0.002353   0.000122  -0.000016  -0.009637   0.000077
    10  H    0.004037  -0.000411   0.000002   0.000000  -0.000062  -0.000034
    11  H    0.003918   0.006794   0.000004   0.000002  -0.000724  -0.000111
    12  C   -0.005881  -0.003333  -0.000360   0.000017   0.030091   0.000444
    13  H    0.003767  -0.000124   0.000628  -0.000011   0.000125  -0.001734
    14  H    0.000370  -0.000021  -0.000006  -0.000001   0.000117   0.000084
    15  O    0.185323  -0.111371  -0.000063   0.000022  -0.017318   0.000683
    16  O    0.005666   0.000072  -0.000260  -0.000017  -0.064208   0.002222
    17  H   -0.009352  -0.000644   0.000414  -0.000025   0.086867   0.000430
    18  H   -0.016146   0.121004   0.000057   0.000007  -0.000274  -0.000065
               7          8          9         10         11         12
     1  Si   0.411505  -0.025479  -0.022015   0.004037   0.003918  -0.005881
     2  O   -0.034746   0.000982  -0.002353  -0.000411   0.006794  -0.003333
     3  O   -0.018063   0.046100   0.000122   0.000002   0.000004  -0.000360
     4  H    0.000788  -0.003831  -0.000016   0.000000   0.000002   0.000017
     5  O   -0.036431  -0.001931  -0.009637  -0.000062  -0.000724   0.030091
     6  H    0.001298  -0.009599   0.000077  -0.000034  -0.000111   0.000444
     7  O    7.840602   0.322203  -0.000219  -0.000125  -0.000094  -0.001349
     8  H    0.322203   0.483632  -0.000107   0.000023  -0.000006   0.000004
     9  C   -0.000219  -0.000107   4.944881   0.355696   0.396813   0.261486
    10  H   -0.000125   0.000023   0.355696   0.682438  -0.039685  -0.012778
    11  H   -0.000094  -0.000006   0.396813  -0.039685   0.623172  -0.035409
    12  C   -0.001349   0.000004   0.261486  -0.012778  -0.035409   4.663278
    13  H    0.000728   0.000361  -0.090249   0.003732   0.013192   0.432660
    14  H   -0.000027   0.000005  -0.023370  -0.002883  -0.005369   0.386347
    15  O   -0.017735   0.001005   0.246950  -0.040172  -0.042362  -0.043470
    16  O   -0.000037  -0.000077  -0.086783   0.007746   0.010825   0.325021
    17  H    0.000302  -0.000054   0.004969   0.000077  -0.000777  -0.042323
    18  H    0.001906  -0.000192  -0.015844  -0.004594  -0.004684   0.004895
              13         14         15         16         17         18
     1  Si   0.003767   0.000370   0.185323   0.005666  -0.009352  -0.016146
     2  O   -0.000124  -0.000021  -0.111371   0.000072  -0.000644   0.121004
     3  O    0.000628  -0.000006  -0.000063  -0.000260   0.000414   0.000057
     4  H   -0.000011  -0.000001   0.000022  -0.000017  -0.000025   0.000007
     5  O    0.000125   0.000117  -0.017318  -0.064208   0.086867  -0.000274
     6  H   -0.001734   0.000084   0.000683   0.002222   0.000430  -0.000065
     7  O    0.000728  -0.000027  -0.017735  -0.000037   0.000302   0.001906
     8  H    0.000361   0.000005   0.001005  -0.000077  -0.000054  -0.000192
     9  C   -0.090249  -0.023370   0.246950  -0.086783   0.004969  -0.015844
    10  H    0.003732  -0.002883  -0.040172   0.007746   0.000077  -0.004594
    11  H    0.013192  -0.005369  -0.042362   0.010825  -0.000777  -0.004684
    12  C    0.432660   0.386347  -0.043470   0.325021  -0.042323   0.004895
    13  H    0.687163  -0.047932   0.001194  -0.050739  -0.003573  -0.001308
    14  H   -0.047932   0.684334   0.004691  -0.041225   0.005987  -0.000426
    15  O    0.001194   0.004691   7.822379   0.003567   0.000453   0.241148
    16  O   -0.050739  -0.041225   0.003567   8.003513   0.338060  -0.000382
    17  H   -0.003573   0.005987   0.000453   0.338060   0.366372  -0.000083
    18  H   -0.001308  -0.000426   0.241148  -0.000382  -0.000083   0.460488
 Mulliken charges:
               1
     1  Si   0.738894
     2  O   -0.737460
     3  O   -0.493764
     4  H    0.160872
     5  O   -0.723522
     6  H    0.265826
     7  O   -0.470505
     8  H    0.186959
     9  C    0.039598
    10  H    0.046992
    11  H    0.074501
    12  C    0.040661
    13  H    0.052121
    14  H    0.039323
    15  O   -0.234925
    16  O   -0.452964
    17  H    0.252900
    18  H    0.214494
 Sum of Mulliken charges =  -1.00000
 Mulliken charges with hydrogens summed into heavy atoms:
               1
     1  Si   0.738894
     2  O   -0.737460
     3  O   -0.067067
     5  O   -0.723522
     7  O   -0.283546
     9  C    0.161091
    12  C    0.132105
    15  O   -0.020431
    16  O   -0.200065
 Electronic spatial extent (au):  <R**2>=           1603.7926
 Charge=             -1.0000 electrons
 Dipole moment (field-independent basis, Debye):
    X=             -3.3259    Y=              0.9248    Z=              2.6591  Tot=              4.3574
 Quadrupole moment (field-independent basis, Debye-Ang):
   XX=            -65.4812   YY=            -88.7110   ZZ=            -71.3237
   XY=              7.4826   XZ=             -6.5332   YZ=             -2.4293
 Traceless Quadrupole moment (field-independent basis, Debye-Ang):
   XX=              9.6908   YY=            -13.5391   ZZ=              3.8483
   XY=              7.4826   XZ=             -6.5332   YZ=             -2.4293
 Octapole moment (field-independent basis, Debye-Ang**2):
  XXX=             16.9045  YYY=              8.4405  ZZZ=              4.7091  XYY=            -13.1790
  XXY=             -4.9162  XXZ=             -5.7002  XZZ=             -0.4337  YZZ=              6.3628
  YYZ=             11.6415  XYZ=            -11.8472
 Hexadecapole moment (field-independent basis, Debye-Ang**3):
 XXXX=           -960.4994 YYYY=           -893.2397 ZZZZ=           -254.0932 XXXY=             59.8895
 XXXZ=            -42.6846 YYYX=             22.5110 YYYZ=            -50.8663 ZZZX=              5.3826
 ZZZY=             -6.5970 XXYY=           -334.0075 XXZZ=           -223.5530 YYZZ=           -188.2468
 XXYZ=             -2.2837 YYXZ=            -22.6926 ZZXY=             11.7721
 N-N= 6.269364692193D+02 E-N=-3.216595762578D+03  KE= 8.200422613739D+02
   1 Symmetry operations used in ECPInt.
 ECPInt:  NShTT=   12246 NPrTT=   33908 LenC2=   11646 LenP2D=   25156.
 LDataN:  DoStor=T MaxTD1= 7 Len=  274
 Calling FoFJK, ICntrl=      2127 FMM=F ISym2X=0 I1Cent= 0 IOpClX= 0 NMat=1 NMatS=1 NMatT=0.
 ***** Axes restored to original set *****
 -------------------------------------------------------------------
 Center     Atomic                   Forces (Hartrees/Bohr)
 Number     Number              X              Y              Z
 -------------------------------------------------------------------
      1       14           0.009973823    0.001597100   -0.005632932
      2        8           0.000039942   -0.000049144   -0.000056707
      3        8          -0.000003552    0.000005209    0.000002057
      4        1          -0.000002866    0.000005337    0.000001682
      5        8           0.000064341   -0.000002811   -0.000030968
      6        1          -0.000007800    0.000005706    0.000007286
      7        8           0.000027953    0.000000955   -0.000014937
      8        1          -0.000001921    0.000002077    0.000004018
      9        6           0.000001664    0.000021411    0.000019214
     10        1           0.000000115   -0.000003775   -0.000003542
     11        1           0.000009221   -0.000006779   -0.000001521
     12        6          -0.000011709    0.000008889   -0.000016778
     13        1           0.000000687   -0.000001826   -0.000001054
     14        1          -0.000005063   -0.000009338    0.000007262
     15        8          -0.010118135   -0.001464307    0.005780566
     16        8          -0.000063787    0.000030576    0.000018722
     17        1           0.000016106   -0.000023980   -0.000001263
     18        1           0.000080980   -0.000115301   -0.000081106
 -------------------------------------------------------------------
 Cartesian Forces:  Max     0.010118135 RMS     0.002243268

 GradGradGradGradGradGradGradGradGradGradGradGradGradGradGradGradGradGrad
 Berny optimization.
 FormGI is forming the generalized inverse of G from B-inverse, IUseBI=4.
 Internal  Forces:  Max     0.011701981 RMS     0.001351895
 Search for a local minimum.
 Step number   1 out of a maximum of   85 on scan point     1 out of    13
 All quantities printed in internal units (Hartrees-Bohrs-Radians)
 Mixed Optimization -- En-DIIS/RFO-DIIS
 Second derivative matrix not updated -- first step.
 ITU=  0
     Eigenvalues ---    0.00230   0.00230   0.00230   0.00230   0.00471
     Eigenvalues ---    0.01279   0.01825   0.02818   0.03614   0.04414
     Eigenvalues ---    0.04687   0.04775   0.05591   0.06170   0.08061
     Eigenvalues ---    0.09228   0.09593   0.10935   0.11765   0.11778
     Eigenvalues ---    0.12895   0.14128   0.14428   0.16000   0.16000
     Eigenvalues ---    0.16000   0.16000   0.20208   0.20826   0.22047
     Eigenvalues ---    0.22090   0.23514   0.30143   0.33627   0.34173
     Eigenvalues ---    0.34357   0.34472   0.40822   0.41930   0.43064
     Eigenvalues ---    0.47333   0.47996   0.48091   0.54753   0.56472
     Eigenvalues ---    0.56655   0.580631000.000001000.000001000.00000
     Eigenvalues --- 1000.000001000.000001000.000001000.000001000.00000
     Eigenvalues --- 1000.000001000.000001000.000001000.000001000.00000
     Eigenvalues --- 1000.000001000.000001000.000001000.000001000.00000
     Eigenvalues --- 1000.000001000.000001000.000001000.000001000.00000
     Eigenvalues --- 1000.000001000.000001000.000001000.000001000.00000
 RFO step:  Lambda=-1.03898922D-06 EMin= 2.30000000D-03
 Linear search not attempted -- first point.
 Iteration  1 RMS(Cart)=  0.00371198 RMS(Int)=  0.00000338
 Iteration  2 RMS(Cart)=  0.00000519 RMS(Int)=  0.00000006
 Iteration  3 RMS(Cart)=  0.00000000 RMS(Int)=  0.00000006
 Iteration  1 RMS(Cart)=  0.00000000 RMS(Int)=  0.00000000
 Variable       Old X    -DE/DX   Delta X   Delta X   Delta X     New X
                                 (Linear)    (Quad)   (Total)
    R1        2.96207   0.00006   0.00000   0.00011   0.00011   2.96218
    R2        2.97390   0.00000   0.00000   0.00001   0.00001   2.97391
    R3        3.12712   0.00001   0.00000   0.00002   0.00002   3.12714
    R4        3.61505   0.01170   0.00000   0.00000  -0.00000   3.61505
    R5        1.80547   0.00000   0.00000   0.00000   0.00000   1.80547
    R6        1.88644  -0.00000   0.00000  -0.00000  -0.00000   1.88644
    R7        3.13317   0.00000   0.00000   0.00001   0.00001   3.13318
    R8        1.82052  -0.00000   0.00000  -0.00000  -0.00000   1.82052
    R9        2.06731  -0.00000   0.00000  -0.00000  -0.00000   2.06731
   R10        2.06541  -0.00000   0.00000  -0.00000  -0.00000   2.06541
   R11        2.87678   0.00001   0.00000   0.00005   0.00005   2.87683
   R12        2.70452   0.00006   0.00000   0.00014   0.00014   2.70466
   R13        2.07964   0.00000   0.00000   0.00000   0.00000   2.07964
   R14        2.07039   0.00000   0.00000   0.00001   0.00001   2.07039
   R15        2.62657  -0.00002   0.00000  -0.00005  -0.00005   2.62652
   R16        1.94291   0.00015   0.00000   0.00034   0.00034   1.94326
   R17        1.88542   0.00002   0.00000   0.00005   0.00005   1.88548
    A1        2.26124  -0.00002   0.00000  -0.00015  -0.00016   2.26109
    A2        2.00452  -0.00001   0.00000  -0.00014  -0.00014   2.00438
    A3        1.48329   0.00004   0.00000   0.00041   0.00041   1.48370
    A4        1.92510  -0.00002   0.00000  -0.00016  -0.00016   1.92494
    A5        1.86227   0.00006   0.00000   0.00047   0.00047   1.86273
    A6        1.78121  -0.00001   0.00000   0.00006   0.00006   1.78127
    A7        1.80155  -0.00000   0.00000  -0.00001  -0.00001   1.80155
    A8        1.90707  -0.00000   0.00000  -0.00001  -0.00001   1.90706
    A9        1.91821   0.00000   0.00000   0.00002   0.00002   1.91824
   A10        1.90602   0.00002   0.00000  -0.00009  -0.00009   1.90594
   A11        1.92038  -0.00004   0.00000  -0.00030  -0.00030   1.92008
   A12        1.86235  -0.00005   0.00000  -0.00037  -0.00036   1.86198
   A13        1.89725  -0.00003   0.00000   0.00005   0.00005   1.89730
   A14        1.90892  -0.00003   0.00000   0.00006   0.00006   1.90898
   A15        1.96809   0.00013   0.00000   0.00063   0.00063   1.96872
   A16        1.88485  -0.00001   0.00000   0.00004   0.00004   1.88489
   A17        1.87041  -0.00001   0.00000  -0.00012  -0.00012   1.87029
   A18        1.99404   0.00002   0.00000   0.00011   0.00011   1.99415
   A19        1.87085   0.00000   0.00000  -0.00002  -0.00002   1.87083
   A20        1.95944   0.00000   0.00000   0.00015   0.00015   1.95958
   A21        1.87846  -0.00001   0.00000  -0.00017  -0.00017   1.87829
   A22        2.23894   0.00022   0.00000   0.00090   0.00090   2.23984
   A23        1.30542  -0.00009   0.00000  -0.00057  -0.00057   1.30484
   A24        1.97897   0.00005   0.00000   0.00019   0.00019   1.97916
   A25        1.85846  -0.00002   0.00000  -0.00013  -0.00013   1.85833
   A26        2.93217   0.00000   0.00000   0.00001   0.00001   2.93218
   A27        3.20330   0.00000   0.00000   0.00008   0.00008   3.20338
    D1       -2.68176   0.00006   0.00000   0.00050   0.00050  -2.68126
    D2       -0.02064  -0.00005   0.00000  -0.00064  -0.00064  -0.02128
    D3        1.90078  -0.00004   0.00000  -0.00040  -0.00040   1.90037
    D4        2.84955  -0.00004   0.00000  -0.00041  -0.00041   2.84913
    D5        0.11152   0.00005   0.00000   0.00054   0.00054   0.11206
    D6       -1.86241  -0.00000   0.00000   0.00005   0.00005  -1.86236
    D7       -1.88929   0.00001   0.00000   0.00268   0.00268  -1.88661
    D8       -0.00383  -0.00000   0.00000   0.00248   0.00248  -0.00135
    D9        0.37751   0.00001   0.00000   0.00272   0.00272   0.38023
   D10        2.26297   0.00000   0.00000   0.00251   0.00251   2.26548
   D11        2.39774   0.00001   0.00000   0.00274   0.00274   2.40049
   D12       -1.99998  -0.00000   0.00000   0.00254   0.00254  -1.99744
   D13        1.62903  -0.00000   0.00000  -0.00049  -0.00049   1.62854
   D14        1.37633   0.00001   0.00000   0.00238   0.00238   1.37871
   D15       -0.63408   0.00001   0.00000   0.00245   0.00245  -0.63164
   D16       -2.71328   0.00002   0.00000   0.00268   0.00268  -2.71061
   D17       -2.82039  -0.00001   0.00000   0.00212   0.00212  -2.81826
   D18        1.45238  -0.00000   0.00000   0.00219   0.00219   1.45457
   D19       -0.62682   0.00001   0.00000   0.00242   0.00242  -0.62440
   D20       -0.70055   0.00002   0.00000   0.00264   0.00264  -0.69791
   D21       -2.71097   0.00002   0.00000   0.00271   0.00271  -2.70826
   D22        1.49302   0.00003   0.00000   0.00294   0.00294   1.49596
   D23       -3.06570  -0.00001   0.00000  -0.00048  -0.00048  -3.06618
   D24        1.66941  -0.00001   0.00000  -0.00024  -0.00024   1.66917
   D25        1.15783   0.00002   0.00000  -0.00021  -0.00021   1.15762
   D26       -0.39025   0.00001   0.00000   0.00004   0.00004  -0.39021
   D27       -0.95538  -0.00001   0.00000  -0.00072  -0.00072  -0.95610
   D28       -2.50346  -0.00002   0.00000  -0.00048  -0.00048  -2.50394
   D29       -1.10684   0.00000   0.00000   0.00028   0.00028  -1.10656
   D30        1.04700   0.00001   0.00000   0.00053   0.00053   1.04753
   D31        3.10169   0.00001   0.00000   0.00048   0.00048   3.10218
         Item               Value     Threshold  Converged?
 Maximum Force            0.000219     0.000450     YES
 RMS     Force            0.000043     0.000300     YES
 Maximum Displacement     0.014725     0.001800     NO 
 RMS     Displacement     0.003712     0.001200     NO 
 Predicted change in Energy=-5.194975D-07
 GradGradGradGradGradGradGradGradGradGradGradGradGradGradGradGradGradGrad

                          Input orientation:                          
 ---------------------------------------------------------------------
 Center     Atomic      Atomic             Coordinates (Angstroms)
 Number     Number       Type             X           Y           Z
 ---------------------------------------------------------------------
      1         14           0        0.719685   -0.800988   -0.260096
      2          8           0        0.453577   -2.228524   -0.850380
      3          8           0        2.339125    2.127447    0.354468
      4          1           0        3.127134    2.029398   -0.176793
      5          8           0        0.625163    0.605922   -0.958864
      6          1           0        1.638816    1.668353   -0.188967
      7          8           0        1.816192   -0.754103    0.978401
      8          1           0        2.122807    0.149499    1.111018
      9          6           0       -2.192244   -0.433746    0.440049
     10          1           0       -2.868340   -0.783841    1.225609
     11          1           0       -2.578457   -0.747879   -0.532957
     12          6           0       -2.107958    1.086077    0.464394
     13          1           0       -1.427067    1.375834    1.278961
     14          1           0       -3.103685    1.460888    0.725922
     15          8           0       -0.928472   -1.063134    0.675012
     16          8           0       -1.749090    1.657586   -0.750679
     17          1           0       -0.827059    1.334922   -0.953789
     18          1           0       -0.790724   -1.920685    0.124478
 ---------------------------------------------------------------------
                    Distance matrix (angstroms):
                    1          2          3          4          5
     1  Si   0.000000
     2  O    1.567517   0.000000
     3  O    3.402353   4.897084   0.000000
     4  H    3.716697   5.072626   0.955411   0.000000
     5  O    1.573723   2.841706   2.641505   2.982915   0.000000
     6  H    2.635812   4.126489   0.998259   1.531533   1.658009
     7  O    1.654811   2.715710   2.994341   3.286476   2.649757
     8  H    2.179938   3.505482   2.128718   2.490211   2.595317
     9  C    3.017349   3.447724   5.205798   5.894350   3.312951
    10  H    3.883496   4.175162   6.029277   6.769547   4.348325
    11  H    3.309836   3.389144   5.765209   6.355619   3.503906
    12  C    3.475841   4.390521   4.568707   5.357907   3.118680
    13  H    3.422834   4.589370   3.950166   4.825673   3.132455
    14  H    4.550436   5.361959   5.496040   6.321488   4.180165
    15  O    1.913000   2.365378   4.578181   5.170809   2.805188
    16  O    3.518538   4.468057   4.260942   4.923937   2.605076
    17  H    2.726855   3.787990   3.516299   4.089214   1.624936
    18  H    1.919102   1.610403   5.122130   5.571673   3.092266
                    6          7          8          9         10
     6  H    0.000000
     7  O    2.694903   0.000000
     8  H    2.056970   0.963377   0.000000
     9  C    4.414918   4.057093   4.405683   0.000000
    10  H    5.322475   4.691144   5.078957   1.093974   0.000000
    11  H    4.872566   4.647277   5.060615   1.092968   1.782661
    12  C    3.847628   4.364564   4.381174   1.522354   2.157365
    13  H    3.411747   3.891747   3.759483   2.136317   2.596981
    14  H    4.834395   5.401399   5.402246   2.121813   2.311684
    15  O    3.846875   2.778619   3.312233   1.431242   2.035743
    16  O    3.434173   4.638663   4.553222   2.447016   3.334517
    17  H    2.603204   3.883833   3.790827   2.633382   3.661388
    18  H    4.345355   2.980958   3.707774   2.067566   2.611780
                   11         12         13         14         15
    11  H    0.000000
    12  C    2.139970   0.000000
    13  H    3.019752   1.100497   0.000000
    14  H    2.596014   1.095605   1.767522   0.000000
    15  O    2.069064   2.460621   2.561623   3.332391   0.000000
    16  O    2.553725   1.389895   2.074252   2.013446   3.179359
    17  H    2.753643   1.927140   2.312327   2.832017   2.900681
    18  H    2.236892   3.300192   3.550324   4.140840   1.028327
                   16         17         18
    16  O    0.000000
    17  H    0.997751   0.000000
    18  H    3.806362   3.429717   0.000000
 Stoichiometry    C2H9O6Si(1-)
 Framework group  C1[X(C2H9O6Si)]
 Deg. of freedom    48
 Full point group                 C1      NOp   1
 Largest Abelian subgroup         C1      NOp   1
 Largest concise Abelian subgroup C1      NOp   1
                         Standard orientation:                         
 ---------------------------------------------------------------------
 Center     Atomic      Atomic             Coordinates (Angstroms)
 Number     Number       Type             X           Y           Z
 ---------------------------------------------------------------------
      1         14           0        0.720590   -0.800069   -0.260595
      2          8           0        0.456417   -2.227964   -0.850881
      3          8           0        2.335571    2.131010    0.353097
      4          1           0        3.123312    2.034377   -0.178823
      5          8           0        0.623116    0.606785   -0.959070
      6          1           0        1.635597    1.670814   -0.189837
      7          8           0        1.818027   -0.751516    0.977013
      8          1           0        2.123221    0.152583    1.109518
      9          6           0       -2.191383   -0.437865    0.441984
     10          1           0       -2.866244   -0.789223    1.228042
     11          1           0       -2.577859   -0.752502   -0.530754
     12          6           0       -2.109651    1.082096    0.466493
     13          1           0       -1.428586    1.372881    1.280549
     14          1           0       -3.105797    1.455181    0.728892
     15          8           0       -0.926356   -1.065147    0.675818
     16          8           0       -1.752744    1.654397   -0.748784
     17          1           0       -0.830334    1.333325   -0.952697
     18          1           0       -0.787607   -1.922380    0.125040
 ---------------------------------------------------------------------
 Rotational constants (GHZ):           1.4314176           1.1071001           0.7612108
 Standard basis: def2TZVPP (5D, 7F)
 There are   471 symmetry adapted cartesian basis functions of A   symmetry.
 There are   416 symmetry adapted basis functions of A   symmetry.
   416 basis functions,   630 primitive gaussians,   471 cartesian basis functions
    42 alpha electrons       42 beta electrons
       nuclear repulsion energy       626.7252707082 Hartrees.
 NAtoms=   18 NActive=   18 NUniq=   18 SFac= 1.00D+00 NAtFMM=   60 NAOKFM=F Big=F
 Integral buffers will be    131072 words long.
 Raffenetti 2 integral format.
 Two-electron integral symmetry is turned on.
 Nuclear repulsion after empirical dispersion term =      626.7157576359 Hartrees.
 One-electron integrals computed using PRISM.
   1 Symmetry operations used in ECPInt.
 ECPInt:  NShTT=   12246 NPrTT=   33908 LenC2=   11643 LenP2D=   25146.
 LDataN:  DoStor=T MaxTD1= 6 Len=  172
 NBasis=   416 RedAO= T EigKep=  3.15D-04  NBF=   416
 NBsUse=   416 1.00D-06 EigRej= -1.00D+00 NBFU=   416
 Initial guess from the checkpoint file:  "NewBondScan_WeirdPES_moreRefined.chk"
 B after Tr=     0.000000    0.000000    0.000000
         Rot=    1.000000   -0.000187   -0.000378   -0.000879 Ang=  -0.11 deg.
 Requested convergence on RMS density matrix=1.00D-08 within 128 cycles.
 Requested convergence on MAX density matrix=1.00D-06.
 Requested convergence on             energy=1.00D-06.
 No special actions if energy rises.
 SCF Done:  E(RwB97XD) =  -822.758071143     A.U. after    8 cycles
            NFock=  8  Conv=0.88D-08     -V/T= 2.0033
   1 Symmetry operations used in ECPInt.
 ECPInt:  NShTT=   12246 NPrTT=   33908 LenC2=   11643 LenP2D=   25146.
 LDataN:  DoStor=T MaxTD1= 7 Len=  274
 Calling FoFJK, ICntrl=      2127 FMM=F ISym2X=0 I1Cent= 0 IOpClX= 0 NMat=1 NMatS=1 NMatT=0.
 ***** Axes restored to original set *****
 -------------------------------------------------------------------
 Center     Atomic                   Forces (Hartrees/Bohr)
 Number     Number              X              Y              Z
 -------------------------------------------------------------------
      1       14           0.010061891    0.001820232   -0.005838283
      2        8          -0.000050662   -0.000060229    0.000102546
      3        8           0.000025359    0.000027052    0.000022322
      4        1          -0.000004602    0.000005825   -0.000001266
      5        8          -0.000445439    0.000141726   -0.000021518
      6        1          -0.000073464   -0.000027695   -0.000028077
      7        8           0.000010978   -0.000038505    0.000043340
      8        1          -0.000015990    0.000005266   -0.000001172
      9        6           0.000037164   -0.000081467    0.000050901
     10        1          -0.000010039   -0.000002793   -0.000016541
     11        1           0.000017113   -0.000006527   -0.000003573
     12        6          -0.000000611   -0.000114625    0.000186078
     13        1          -0.000003379    0.000003600   -0.000052669
     14        1           0.000020044    0.000004568   -0.000035158
     15        8          -0.010078564   -0.001504454    0.005825200
     16        8           0.000756408   -0.000258455   -0.000338859
     17        1          -0.000233218    0.000163469    0.000272436
     18        1          -0.000012990   -0.000076986   -0.000165707
 -------------------------------------------------------------------
 Cartesian Forces:  Max     0.010078564 RMS     0.002267601

 GradGradGradGradGradGradGradGradGradGradGradGradGradGradGradGradGradGrad
 Berny optimization.
 Using GEDIIS/GDIIS optimizer.
 FormGI is forming the generalized inverse of G from B-inverse, IUseBI=4.
 Internal  Forces:  Max     0.011243661 RMS     0.001360292
 Search for a local minimum.
 Step number   2 out of a maximum of   85 on scan point     1 out of    13
 All quantities printed in internal units (Hartrees-Bohrs-Radians)
 Mixed Optimization -- En-DIIS/RFO-DIIS
 Swapping is turned off.
 Update second derivatives using D2CorX and points    1    2
 DE=  4.43D-06 DEPred=-5.19D-07 R=-8.53D+00
 Trust test=-8.53D+00 RLast= 1.02D-02 DXMaxT set to 1.50D-01
 ITU= -1  0
     Eigenvalues ---    0.00230   0.00230   0.00230   0.00262   0.00842
     Eigenvalues ---    0.01264   0.01874   0.02797   0.03612   0.04571
     Eigenvalues ---    0.04649   0.05144   0.05777   0.06173   0.08059
     Eigenvalues ---    0.08637   0.09599   0.10827   0.11779   0.11798
     Eigenvalues ---    0.12916   0.14150   0.14405   0.15887   0.16000
     Eigenvalues ---    0.16000   0.16002   0.20158   0.20885   0.22083
     Eigenvalues ---    0.22505   0.30125   0.33625   0.34172   0.34357
     Eigenvalues ---    0.34471   0.39971   0.40830   0.41940   0.47241
     Eigenvalues ---    0.47852   0.47997   0.54753   0.56472   0.56529
     Eigenvalues ---    0.57771   1.344761000.000001000.000001000.00000
     Eigenvalues --- 1000.000001000.000001000.000001000.000001000.00000
     Eigenvalues --- 1000.000001000.000001000.000001000.000001000.00000
     Eigenvalues --- 1000.000001000.000001000.000001000.000001000.00000
     Eigenvalues --- 1000.000001000.000001000.000001000.000001000.00000
     Eigenvalues --- 1000.000001000.000001000.000001000.000001000.00000
 En-DIIS/RFO-DIIS/Sim-DIIS IScMMF=       -3 using points:     2    1
 RFO step:  Lambda=-1.04735796D-05.
 DidBck=T Rises=T En-DIIS coefs:    0.31600    0.68400
 Iteration  1 RMS(Cart)=  0.00423887 RMS(Int)=  0.00000463
 Iteration  2 RMS(Cart)=  0.00000697 RMS(Int)=  0.00000005
 Iteration  3 RMS(Cart)=  0.00000000 RMS(Int)=  0.00000005
 Iteration  1 RMS(Cart)=  0.00000000 RMS(Int)=  0.00000000
 Variable       Old X    -DE/DX   Delta X   Delta X   Delta X     New X
                                 (Linear)    (Quad)   (Total)
    R1        2.96218   0.00003  -0.00007   0.00011   0.00003   2.96221
    R2        2.97391   0.00016  -0.00001   0.00003   0.00003   2.97393
    R3        3.12714   0.00003  -0.00001   0.00002   0.00001   3.12715
    R4        3.61505   0.01124   0.00000   0.00000   0.00000   3.61505
    R5        1.80547   0.00000  -0.00000   0.00000   0.00000   1.80547
    R6        1.88644   0.00004   0.00000   0.00001   0.00001   1.88644
    R7        3.13318  -0.00004  -0.00001  -0.00003  -0.00004   3.13315
    R8        1.82052  -0.00000   0.00000  -0.00000  -0.00000   1.82052
    R9        2.06731  -0.00000   0.00000  -0.00000  -0.00000   2.06731
   R10        2.06541  -0.00000   0.00000  -0.00000  -0.00000   2.06541
   R11        2.87683  -0.00016  -0.00003   0.00000  -0.00003   2.87680
   R12        2.70466  -0.00065  -0.00009  -0.00000  -0.00010   2.70456
   R13        2.07964  -0.00004  -0.00000  -0.00001  -0.00001   2.07963
   R14        2.07039  -0.00003  -0.00001   0.00000  -0.00000   2.07039
   R15        2.62652   0.00016   0.00003  -0.00002   0.00002   2.62654
   R16        1.94326   0.00015  -0.00024   0.00036   0.00013   1.94338
   R17        1.88548  -0.00032  -0.00004  -0.00001  -0.00004   1.88543
    A1        2.26109   0.00001   0.00011  -0.00013  -0.00002   2.26106
    A2        2.00438  -0.00009   0.00009  -0.00013  -0.00004   2.00434
    A3        1.48370   0.00012  -0.00028   0.00038   0.00010   1.48380
    A4        1.92494   0.00026   0.00011  -0.00002   0.00009   1.92503
    A5        1.86273  -0.00070  -0.00032   0.00010  -0.00022   1.86251
    A6        1.78127   0.00022  -0.00004   0.00011   0.00007   1.78134
    A7        1.80155  -0.00001   0.00000  -0.00001  -0.00000   1.80154
    A8        1.90706   0.00005   0.00001   0.00002   0.00003   1.90709
    A9        1.91824  -0.00002  -0.00002   0.00001  -0.00000   1.91823
   A10        1.90594  -0.00018   0.00006   0.00001   0.00007   1.90601
   A11        1.92008   0.00038   0.00021   0.00000   0.00021   1.92028
   A12        1.86198   0.00066   0.00025   0.00012   0.00037   1.86235
   A13        1.89730   0.00037  -0.00003   0.00002  -0.00001   1.89729
   A14        1.90898   0.00020  -0.00004  -0.00016  -0.00020   1.90879
   A15        1.96872  -0.00141  -0.00043   0.00001  -0.00042   1.96830
   A16        1.88489   0.00012  -0.00003  -0.00002  -0.00005   1.88484
   A17        1.87029   0.00009   0.00008   0.00004   0.00012   1.87041
   A18        1.99415  -0.00031  -0.00007  -0.00004  -0.00011   1.99404
   A19        1.87083  -0.00002   0.00002   0.00002   0.00004   1.87087
   A20        1.95958  -0.00013  -0.00010  -0.00013  -0.00024   1.95935
   A21        1.87829   0.00029   0.00011   0.00015   0.00026   1.87855
   A22        2.23984  -0.00247  -0.00061  -0.00007  -0.00068   2.23916
   A23        1.30484   0.00048   0.00039  -0.00049  -0.00010   1.30474
   A24        1.97916  -0.00005  -0.00013   0.00030   0.00016   1.97932
   A25        1.85833  -0.00027   0.00009  -0.00027  -0.00018   1.85815
   A26        2.93218   0.00001  -0.00001   0.00045   0.00044   2.93262
   A27        3.20338   0.00001  -0.00005   0.00035   0.00030   3.20367
    D1       -2.68126  -0.00031  -0.00034   0.00021  -0.00013  -2.68139
    D2       -0.02128   0.00011   0.00043  -0.00051  -0.00007  -0.02135
    D3        1.90037   0.00014   0.00028  -0.00034  -0.00006   1.90031
    D4        2.84913   0.00006   0.00028  -0.00028   0.00001   2.84914
    D5        0.11206  -0.00031  -0.00037   0.00033  -0.00004   0.11202
    D6       -1.86236   0.00027  -0.00003   0.00017   0.00014  -1.86223
    D7       -1.88661  -0.00030  -0.00184  -0.00164  -0.00348  -1.89009
    D8       -0.00135   0.00007  -0.00170  -0.00163  -0.00333  -0.00468
    D9        0.38023  -0.00035  -0.00186  -0.00165  -0.00350   0.37672
   D10        2.26548   0.00002  -0.00172  -0.00163  -0.00335   2.26213
   D11        2.40049  -0.00023  -0.00188  -0.00158  -0.00346   2.39703
   D12       -1.99744   0.00014  -0.00174  -0.00157  -0.00331  -2.00075
   D13        1.62854   0.00000   0.00034  -0.00037  -0.00003   1.62850
   D14        1.37871  -0.00006  -0.00163  -0.00064  -0.00227   1.37644
   D15       -0.63164  -0.00014  -0.00168  -0.00068  -0.00235  -0.63399
   D16       -2.71061  -0.00037  -0.00183  -0.00087  -0.00270  -2.71330
   D17       -2.81826   0.00017  -0.00145  -0.00062  -0.00207  -2.82034
   D18        1.45457   0.00009  -0.00150  -0.00066  -0.00215   1.45242
   D19       -0.62440  -0.00014  -0.00166  -0.00084  -0.00250  -0.62690
   D20       -0.69791  -0.00024  -0.00180  -0.00080  -0.00260  -0.70051
   D21       -2.70826  -0.00032  -0.00185  -0.00083  -0.00268  -2.71094
   D22        1.49596  -0.00055  -0.00201  -0.00102  -0.00303   1.49293
   D23       -3.06618  -0.00015   0.00033  -0.00062  -0.00029  -3.06647
   D24        1.66917   0.00027   0.00016  -0.00016   0.00000   1.66917
   D25        1.15762  -0.00040   0.00014  -0.00061  -0.00047   1.15715
   D26       -0.39021   0.00001  -0.00003  -0.00016  -0.00018  -0.39039
   D27       -0.95610  -0.00008   0.00050  -0.00054  -0.00004  -0.95614
   D28       -2.50394   0.00033   0.00033  -0.00008   0.00025  -2.50369
   D29       -1.10656   0.00000  -0.00019   0.00003  -0.00016  -1.10673
   D30        1.04753  -0.00019  -0.00037  -0.00014  -0.00051   1.04702
   D31        3.10218  -0.00012  -0.00033  -0.00010  -0.00043   3.10175
         Item               Value     Threshold  Converged?
 Maximum Force            0.002468     0.000450     NO 
 RMS     Force            0.000409     0.000300     NO 
 Maximum Displacement     0.015474     0.001800     NO 
 RMS     Displacement     0.004239     0.001200     NO 
 Predicted change in Energy=-5.174180D-06
 GradGradGradGradGradGradGradGradGradGradGradGradGradGradGradGradGradGrad

                          Input orientation:                          
 ---------------------------------------------------------------------
 Center     Atomic      Atomic             Coordinates (Angstroms)
 Number     Number       Type             X           Y           Z
 ---------------------------------------------------------------------
      1         14           0        0.719117   -0.802358   -0.259829
      2          8           0        0.455001   -2.231040   -0.848278
      3          8           0        2.334705    2.129224    0.351325
      4          1           0        3.123073    2.031186   -0.179405
      5          8           0        0.623458    0.603453   -0.960682
      6          1           0        1.635225    1.668207   -0.191556
      7          8           0        1.814667   -0.752572    0.979409
      8          1           0        2.120217    0.151541    1.110987
      9          6           0       -2.192336   -0.433561    0.439183
     10          1           0       -2.869867   -0.783928    1.223384
     11          1           0       -2.577708   -0.745690   -0.534800
     12          6           0       -2.105687    1.086075    0.465805
     13          1           0       -1.427132    1.373615    1.283097
     14          1           0       -3.101676    1.462279    0.724304
     15          8           0       -0.929538   -1.064710    0.674342
     16          8           0       -1.741185    1.658417   -0.747206
     17          1           0       -0.818871    1.334502   -0.946899
     18          1           0       -0.792060   -1.921613    0.122607
 ---------------------------------------------------------------------
                    Distance matrix (angstroms):
                    1          2          3          4          5
     1  Si   0.000000
     2  O    1.567535   0.000000
     3  O    3.402617   4.897371   0.000000
     4  H    3.716778   5.072729   0.955412   0.000000
     5  O    1.573738   2.841719   2.641535   2.982766   0.000000
     6  H    2.635831   4.126542   0.998263   1.531533   1.657989
     7  O    1.654817   2.715696   2.994942   3.286957   2.649857
     8  H    2.179940   3.505476   2.129394   2.490762   2.595443
     9  C    3.016818   3.449185   5.202854   5.891622   3.311151
    10  H    3.883435   4.176203   6.027811   6.768162   4.347216
    11  H    3.308757   3.391439   5.760394   6.351082   3.499861
    12  C    3.474513   4.391718   4.562712   5.352519   3.117053
    13  H    3.423720   4.591157   3.948488   4.824487   3.135699
    14  H    4.549237   5.363168   5.489824   6.315683   4.177725
    15  O    1.913000   2.365512   4.578301   5.170794   2.804972
    16  O    3.513692   4.467810   4.247506   4.911452   2.598087
    17  H    2.720964   3.787555   3.501715   4.075947   1.617076
    18  H    1.919022   1.610442   5.122329   5.571723   3.090820
                    6          7          8          9         10
     6  H    0.000000
     7  O    2.695094   0.000000
     8  H    2.057209   0.963377   0.000000
     9  C    4.411971   4.055822   4.403610   0.000000
    10  H    5.320796   4.690988   5.078255   1.093973   0.000000
    11  H    4.867599   4.646056   5.058076   1.092967   1.782703
    12  C    3.842580   4.360457   4.375828   1.522337   2.157500
    13  H    3.411659   3.888722   3.755897   2.136262   2.596159
    14  H    4.829020   5.398248   5.397751   2.121887   2.312630
    15  O    3.846638   2.778698   3.312239   1.431191   2.035967
    16  O    3.421840   4.630135   4.542464   2.446922   3.334995
    17  H    2.589303   3.873250   3.777900   2.633188   3.661210
    18  H    4.344792   2.982582   3.708938   2.067678   2.612149
                   11         12         13         14         15
    11  H    0.000000
    12  C    2.139947   0.000000
    13  H    3.019938   1.100491   0.000000
    14  H    2.595190   1.095603   1.767543   0.000000
    15  O    2.068879   2.460221   2.561954   3.332619   0.000000
    16  O    2.554332   1.389904   2.074095   2.013640   3.177261
    17  H    2.755092   1.927004   2.311794   2.832039   2.897739
    18  H    2.236855   3.299937   3.550856   4.140905   1.028394
                   16         17         18
    16  O    0.000000
    17  H    0.997728   0.000000
    18  H    3.804475   3.427368   0.000000
 Stoichiometry    C2H9O6Si(1-)
 Framework group  C1[X(C2H9O6Si)]
 Deg. of freedom    48
 Full point group                 C1      NOp   1
 Largest Abelian subgroup         C1      NOp   1
 Largest concise Abelian subgroup C1      NOp   1
                         Standard orientation:                         
 ---------------------------------------------------------------------
 Center     Atomic      Atomic             Coordinates (Angstroms)
 Number     Number       Type             X           Y           Z
 ---------------------------------------------------------------------
      1         14           0        0.719454   -0.801714   -0.259700
      2          8           0        0.456552   -2.230552   -0.848315
      3          8           0        2.332662    2.131065    0.351998
      4          1           0        3.121207    2.033678   -0.178590
      5          8           0        0.622843    0.604080   -0.960458
      6          1           0        1.633641    1.669552   -0.191054
      7          8           0        1.814729   -0.751183    0.979751
      8          1           0        2.119555    0.153156    1.111460
      9          6           0       -2.192417   -0.435221    0.438786
     10          1           0       -2.869827   -0.786173    1.222830
     11          1           0       -2.577362   -0.747568   -0.535295
     12          6           0       -2.106945    1.084479    0.465547
     13          1           0       -1.428768    1.372478    1.282991
     14          1           0       -3.103274    1.459894    0.723887
     15          8           0       -0.929177   -1.065413    0.674136
     16          8           0       -1.742654    1.657201   -0.747348
     17          1           0       -0.820053    1.334014   -0.946892
     18          1           0       -0.790932   -1.922166    0.122358
 ---------------------------------------------------------------------
 Rotational constants (GHZ):           1.4302603           1.1099179           0.7619895
 Standard basis: def2TZVPP (5D, 7F)
 There are   471 symmetry adapted cartesian basis functions of A   symmetry.
 There are   416 symmetry adapted basis functions of A   symmetry.
   416 basis functions,   630 primitive gaussians,   471 cartesian basis functions
    42 alpha electrons       42 beta electrons
       nuclear repulsion energy       626.9003032017 Hartrees.
 NAtoms=   18 NActive=   18 NUniq=   18 SFac= 1.00D+00 NAtFMM=   60 NAOKFM=F Big=F
 Integral buffers will be    131072 words long.
 Raffenetti 2 integral format.
 Two-electron integral symmetry is turned on.
 Nuclear repulsion after empirical dispersion term =      626.8907833391 Hartrees.
 One-electron integrals computed using PRISM.
   1 Symmetry operations used in ECPInt.
 ECPInt:  NShTT=   12246 NPrTT=   33908 LenC2=   11646 LenP2D=   25155.
 LDataN:  DoStor=T MaxTD1= 6 Len=  172
 NBasis=   416 RedAO= T EigKep=  3.15D-04  NBF=   416
 NBsUse=   416 1.00D-06 EigRej= -1.00D+00 NBFU=   416
 Initial guess from the checkpoint file:  "NewBondScan_WeirdPES_moreRefined.chk"
 B after Tr=    -0.000000   -0.000000    0.000000
         Rot=    1.000000    0.000249    0.000458    0.000482 Ang=   0.08 deg.
 Requested convergence on RMS density matrix=1.00D-08 within 128 cycles.
 Requested convergence on MAX density matrix=1.00D-06.
 Requested convergence on             energy=1.00D-06.
 No special actions if energy rises.
 SCF Done:  E(RwB97XD) =  -822.758075715     A.U. after    8 cycles
            NFock=  8  Conv=0.88D-08     -V/T= 2.0033
   1 Symmetry operations used in ECPInt.
 ECPInt:  NShTT=   12246 NPrTT=   33908 LenC2=   11646 LenP2D=   25155.
 LDataN:  DoStor=T MaxTD1= 7 Len=  274
 Calling FoFJK, ICntrl=      2127 FMM=F ISym2X=0 I1Cent= 0 IOpClX= 0 NMat=1 NMatS=1 NMatT=0.
 ***** Axes restored to original set *****
 -------------------------------------------------------------------
 Center     Atomic                   Forces (Hartrees/Bohr)
 Number     Number              X              Y              Z
 -------------------------------------------------------------------
      1       14           0.010093514    0.001622925   -0.005697465
      2        8          -0.000090616    0.000051580    0.000050009
      3        8          -0.000005884   -0.000002518    0.000018972
      4        1          -0.000006641    0.000006354   -0.000003994
      5        8          -0.000052077    0.000034467    0.000034906
      6        1           0.000005845    0.000010412   -0.000012925
      7        8           0.000015199    0.000002082    0.000010139
      8        1          -0.000007843   -0.000003321    0.000004314
      9        6          -0.000006760   -0.000017286   -0.000011995
     10        1           0.000006703   -0.000010146   -0.000001736
     11        1          -0.000004334    0.000003762   -0.000001213
     12        6           0.000000449   -0.000018930    0.000024077
     13        1          -0.000006481   -0.000001739    0.000009386
     14        1          -0.000000425   -0.000010439    0.000000231
     15        8          -0.010030234   -0.001531883    0.005667582
     16        8           0.000087237   -0.000003998    0.000033179
     17        1          -0.000036035   -0.000024115   -0.000096655
     18        1           0.000038383   -0.000107205   -0.000026812
 -------------------------------------------------------------------
 Cartesian Forces:  Max     0.010093514 RMS     0.002244759

 GradGradGradGradGradGradGradGradGradGradGradGradGradGradGradGradGradGrad
 Berny optimization.
 Using GEDIIS/GDIIS optimizer.
 FormGI is forming the generalized inverse of G from B-inverse, IUseBI=4.
 Internal  Forces:  Max     0.011543334 RMS     0.001333923
 Search for a local minimum.
 Step number   3 out of a maximum of   85 on scan point     1 out of    13
 All quantities printed in internal units (Hartrees-Bohrs-Radians)
 Mixed Optimization -- En-DIIS/RFO-DIIS
 Swapping is turned off.
 Update second derivatives using D2CorX and points    1    2    3
 DE= -4.57D-06 DEPred=-5.17D-06 R= 8.84D-01
 TightC=F SS=  1.41D+00  RLast= 1.13D-02 DXNew= 2.5227D-01 3.3981D-02
 Trust test= 8.84D-01 RLast= 1.13D-02 DXMaxT set to 1.50D-01
 ITU=  1 -1  0
     Eigenvalues ---    0.00229   0.00230   0.00232   0.00337   0.00950
     Eigenvalues ---    0.01521   0.01991   0.03051   0.03599   0.04557
     Eigenvalues ---    0.04635   0.05339   0.05765   0.06166   0.08062
     Eigenvalues ---    0.08787   0.09594   0.10466   0.11779   0.12155
     Eigenvalues ---    0.13416   0.14334   0.14460   0.15990   0.16000
     Eigenvalues ---    0.16001   0.18149   0.20642   0.21104   0.22208
     Eigenvalues ---    0.27939   0.30677   0.33617   0.34172   0.34355
     Eigenvalues ---    0.34467   0.35566   0.40018   0.41942   0.47423
     Eigenvalues ---    0.47997   0.48240   0.54757   0.56472   0.56513
     Eigenvalues ---    0.58462   1.415471000.000001000.000001000.00000
     Eigenvalues --- 1000.000001000.000001000.000001000.000001000.00000
     Eigenvalues --- 1000.000001000.000001000.000001000.000001000.00000
     Eigenvalues --- 1000.000001000.000001000.000001000.000001000.00000
     Eigenvalues --- 1000.000001000.000001000.000001000.000001000.00000
     Eigenvalues --- 1000.000001000.000001000.000001000.000001000.00000
 En-DIIS/RFO-DIIS/Sim-DIIS IScMMF=       -3 using points:     3    2    1
 RFO step:  Lambda=-9.15214595D-07.
 DidBck=T Rises=F RFO-DIIS coefs:   -0.18025    0.23790    0.94235
 Iteration  1 RMS(Cart)=  0.00206850 RMS(Int)=  0.00000143
 Iteration  2 RMS(Cart)=  0.00000252 RMS(Int)=  0.00000003
 Iteration  3 RMS(Cart)=  0.00000000 RMS(Int)=  0.00000003
 Iteration  1 RMS(Cart)=  0.00000000 RMS(Int)=  0.00000000
 Variable       Old X    -DE/DX   Delta X   Delta X   Delta X     New X
                                 (Linear)    (Quad)   (Total)
    R1        2.96221  -0.00005  -0.00014   0.00025   0.00011   2.96232
    R2        2.97393   0.00002  -0.00004   0.00009   0.00005   2.97398
    R3        3.12715   0.00001  -0.00003   0.00007   0.00004   3.12719
    R4        3.61505   0.01154  -0.00000   0.00000  -0.00000   3.61505
    R5        1.80547   0.00000  -0.00000   0.00000   0.00000   1.80547
    R6        1.88644  -0.00000  -0.00001   0.00002   0.00001   1.88645
    R7        3.13315   0.00000   0.00004  -0.00007  -0.00004   3.13311
    R8        1.82052  -0.00001   0.00000  -0.00001  -0.00001   1.82051
    R9        2.06731  -0.00000   0.00001  -0.00001  -0.00001   2.06730
   R10        2.06541   0.00000   0.00001  -0.00001  -0.00000   2.06540
   R11        2.87680  -0.00004  -0.00001  -0.00003  -0.00004   2.87676
   R12        2.70456  -0.00006  -0.00002  -0.00002  -0.00004   2.70452
   R13        2.07963   0.00000   0.00001  -0.00002  -0.00001   2.07962
   R14        2.07039  -0.00000  -0.00000   0.00000  -0.00000   2.07039
   R15        2.62654   0.00006   0.00002  -0.00001   0.00002   2.62656
   R16        1.94338   0.00011  -0.00048   0.00101   0.00053   1.94392
   R17        1.88543  -0.00000   0.00000  -0.00001  -0.00001   1.88542
    A1        2.26106   0.00003   0.00017  -0.00028  -0.00010   2.26096
    A2        2.00434   0.00002   0.00017  -0.00027  -0.00009   2.00425
    A3        1.48380  -0.00010  -0.00050   0.00072   0.00022   1.48402
    A4        1.92503  -0.00000   0.00004  -0.00003   0.00001   1.92504
    A5        1.86251  -0.00005  -0.00018   0.00019   0.00002   1.86253
    A6        1.78134   0.00005  -0.00013   0.00030   0.00016   1.78150
[...]
 Framework group  C1[X(C2H9O6Si)]
 Deg. of freedom    48
 Full point group                 C1      NOp   1
 Largest Abelian subgroup         C1      NOp   1
 Largest concise Abelian subgroup C1      NOp   1
                         Standard orientation:                         
 ---------------------------------------------------------------------
 Center     Atomic      Atomic             Coordinates (Angstroms)
 Number     Number       Type             X           Y           Z
 ---------------------------------------------------------------------
      1         14           0        0.611526   -0.628456   -0.166488
      2          8           0        0.435431   -1.905521   -1.204061
      3          8           0        2.759945    1.874431    0.395529
      4          1           0        3.431021    1.702534   -0.262586
      5          8           0        0.650402    0.792702   -0.808867
      6          1           0        1.919059    1.616157   -0.070404
      7          8           0        1.870652   -0.963854    0.839741
      8          1           0        2.334943   -0.148453    1.057728
      9          6           0       -2.164252   -0.544556    0.501600
     10          1           0       -2.900801   -0.956531    1.208414
     11          1           0       -2.377779   -0.992276   -0.483281
     12          6           0       -2.428747    0.957503    0.390065
     13          1           0       -2.033231    1.430020    1.302379
     14          1           0       -3.514750    1.112199    0.382352
     15          8           0       -0.897099   -0.888796    0.976607
     16          8           0       -1.929533    1.567170   -0.767012
     17          1           0       -0.963850    1.381076   -0.826751
     18          1           0       -0.016374   -2.633087   -0.782504
 ---------------------------------------------------------------------
 Rotational constants (GHZ):           1.5794429           0.9462512           0.7360236

 **********************************************************************

            Population analysis using the SCF Density.

 **********************************************************************

 Orbital symmetries:
       Occupied  (A) (A) (A) (A) (A) (A) (A) (A) (A) (A) (A) (A)
                 (A) (A) (A) (A) (A) (A) (A) (A) (A) (A) (A) (A)
                 (A) (A) (A) (A) (A) (A) (A) (A) (A) (A) (A) (A)
                 (A) (A) (A) (A) (A) (A)
       Virtual   (A) (A) (A) (A) (A) (A) (A) (A) (A) (A) (A) (A)
                 (A) (A) (A) (A) (A) (A) (A) (A) (A) (A) (A) (A)
                 (A) (A) (A) (A) (A) (A) (A) (A) (A) (A) (A) (A)
                 (A) (A) (A) (A) (A) (A) (A) (A) (A) (A) (A) (A)
                 (A) (A) (A) (A) (A) (A) (A) (A) (A) (A) (A) (A)
                 (A) (A) (A) (A) (A) (A) (A) (A) (A) (A) (A) (A)
                 (A) (A) (A) (A) (A) (A) (A) (A) (A) (A) (A) (A)
                 (A) (A) (A) (A) (A) (A) (A) (A) (A) (A) (A) (A)
                 (A) (A) (A) (A) (A) (A) (A) (A) (A) (A) (A) (A)
                 (A) (A) (A) (A) (A) (A) (A) (A) (A) (A) (A) (A)
                 (A) (A) (A) (A) (A) (A) (A) (A) (A) (A) (A) (A)
                 (A) (A) (A) (A) (A) (A) (A) (A) (A) (A) (A) (A)
                 (A) (A) (A) (A) (A) (A) (A) (A) (A) (A) (A) (A)
                 (A) (A) (A) (A) (A) (A) (A) (A) (A) (A) (A) (A)
                 (A) (A) (A) (A) (A) (A) (A) (A) (A) (A) (A) (A)
                 (A) (A) (A) (A) (A) (A) (A) (A) (A) (A) (A) (A)
                 (A) (A) (A) (A) (A) (A) (A) (A) (A) (A) (A) (A)
                 (A) (A) (A) (A) (A) (A) (A) (A) (A) (A) (A) (A)
                 (A) (A) (A) (A) (A) (A) (A) (A) (A) (A) (A) (A)
                 (A) (A) (A) (A) (A) (A) (A) (A) (A) (A) (A) (A)
                 (A) (A) (A) (A) (A) (A) (A) (A) (A) (A) (A) (A)
                 (A) (A) (A) (A) (A) (A) (A) (A) (A) (A) (A) (A)
                 (A) (A) (A) (A) (A) (A) (A) (A) (A) (A) (A) (A)
                 (A) (A) (A) (A) (A) (A) (A) (A) (A) (A) (A) (A)
                 (A) (A) (A) (A) (A) (A) (A) (A) (A) (A) (A) (A)
                 (A) (A) (A) (A) (A) (A) (A) (A) (A) (A) (A) (A)
                 (A) (A) (A) (A) (A) (A) (A) (A) (A) (A) (A) (A)
                 (A) (A) (A) (A) (A) (A) (A) (A) (A) (A) (A) (A)
                 (A) (A) (A) (A) (A) (A) (A) (A) (A) (A) (A) (A)
                 (A) (A) (A) (A) (A) (A) (A) (A) (A) (A) (A) (A)
                 (A) (A) (A) (A) (A) (A) (A) (A) (A) (A) (A) (A)
                 (A) (A)
 The electronic state is 1-A.
 Alpha  occ. eigenvalues --  -66.13433 -19.09885 -19.08998 -19.08751 -19.07163
 Alpha  occ. eigenvalues --  -19.06907 -19.01996 -10.17822 -10.17609  -5.25046
 Alpha  occ. eigenvalues --   -3.59670  -3.59540  -3.59370  -0.96741  -0.95593
 Alpha  occ. eigenvalues --   -0.95380  -0.93831  -0.91715  -0.84185  -0.67019
 Alpha  occ. eigenvalues --   -0.55225  -0.48733  -0.45728  -0.44353  -0.44015
 Alpha  occ. eigenvalues --   -0.41566  -0.39189  -0.35246  -0.34484  -0.33667
 Alpha  occ. eigenvalues --   -0.32555  -0.31527  -0.29192  -0.27616  -0.26718
 Alpha  occ. eigenvalues --   -0.25555  -0.24971  -0.23520  -0.20656  -0.20180
 Alpha  occ. eigenvalues --   -0.20055  -0.17332
 Alpha virt. eigenvalues --    0.23033   0.24932   0.26166   0.29178   0.31331
 Alpha virt. eigenvalues --    0.31725   0.31831   0.32445   0.33846   0.33946
 Alpha virt. eigenvalues --    0.36854   0.38208   0.40067   0.41522   0.43011
 Alpha virt. eigenvalues --    0.44217   0.45174   0.46664   0.46998   0.48963
 Alpha virt. eigenvalues --    0.51659   0.53166   0.54833   0.55985   0.56396
 Alpha virt. eigenvalues --    0.57259   0.57754   0.58348   0.59178   0.60263
 Alpha virt. eigenvalues --    0.60667   0.61792   0.62671   0.64017   0.64406
 Alpha virt. eigenvalues --    0.65582   0.67384   0.67885   0.68969   0.69867
 Alpha virt. eigenvalues --    0.70866   0.72382   0.72711   0.72938   0.74721
 Alpha virt. eigenvalues --    0.75700   0.76559   0.78560   0.80498   0.83459
 Alpha virt. eigenvalues --    0.83979   0.84492   0.85776   0.86632   0.87991
 Alpha virt. eigenvalues --    0.89318   0.90175   0.91061   0.92724   0.94406
 Alpha virt. eigenvalues --    0.96576   0.98062   0.99698   1.00083   1.01542
 Alpha virt. eigenvalues --    1.03088   1.03799   1.05207   1.06117   1.09336
 Alpha virt. eigenvalues --    1.09555   1.10447   1.12080   1.13929   1.15637
 Alpha virt. eigenvalues --    1.16233   1.18009   1.21681   1.22066   1.22962
 Alpha virt. eigenvalues --    1.25198   1.26293   1.26970   1.27826   1.31357
 Alpha virt. eigenvalues --    1.32058   1.32606   1.33779   1.36235   1.37629
 Alpha virt. eigenvalues --    1.38303   1.40479   1.42843   1.43328   1.44158
 Alpha virt. eigenvalues --    1.45788   1.47636   1.49118   1.49984   1.51125
 Alpha virt. eigenvalues --    1.52305   1.57028   1.58039   1.59804   1.61903
 Alpha virt. eigenvalues --    1.64809   1.65527   1.66030   1.68358   1.69632
 Alpha virt. eigenvalues --    1.72239   1.74144   1.74625   1.76296   1.79069
 Alpha virt. eigenvalues --    1.81037   1.85034   1.91853   1.96267   1.97744
 Alpha virt. eigenvalues --    1.98567   1.99532   2.00021   2.04180   2.06546
 Alpha virt. eigenvalues --    2.08708   2.09726   2.12029   2.12896   2.13553
 Alpha virt. eigenvalues --    2.15933   2.16495   2.17019   2.18673   2.20704
 Alpha virt. eigenvalues --    2.21459   2.23849   2.24804   2.26815   2.27928
 Alpha virt. eigenvalues --    2.32219   2.33875   2.35607   2.37457   2.39883
 Alpha virt. eigenvalues --    2.41887   2.43148   2.46125   2.47331   2.50443
 Alpha virt. eigenvalues --    2.52924   2.53411   2.55609   2.58649   2.60535
 Alpha virt. eigenvalues --    2.62297   2.73311   2.73891   2.76497   2.78739
 Alpha virt. eigenvalues --    2.82998   2.83600   2.85732   2.87439   2.93902
 Alpha virt. eigenvalues --    2.95614   2.96877   2.97987   2.99557   3.01741
 Alpha virt. eigenvalues --    3.03049   3.05470   3.07746   3.12344   3.13332
 Alpha virt. eigenvalues --    3.17136   3.17829   3.18965   3.19670   3.23824
 Alpha virt. eigenvalues --    3.25158   3.26496   3.28521   3.29869   3.31114
 Alpha virt. eigenvalues --    3.32327   3.33035   3.34532   3.36836   3.38686
 Alpha virt. eigenvalues --    3.40144   3.42155   3.43633   3.45526   3.48032
 Alpha virt. eigenvalues --    3.49041   3.50709   3.52532   3.53079   3.55551
 Alpha virt. eigenvalues --    3.57453   3.58417   3.59767   3.61860   3.62889
 Alpha virt. eigenvalues --    3.64769   3.69051   3.71391   3.73961   3.76756
 Alpha virt. eigenvalues --    3.77211   3.78857   3.81255   3.81770   3.83295
 Alpha virt. eigenvalues --    3.87232   3.87400   3.88541   3.89399   3.90007
 Alpha virt. eigenvalues --    3.92403   3.94174   3.96035   3.97803   3.99452
 Alpha virt. eigenvalues --    4.00068   4.04778   4.06767   4.08553   4.11449
 Alpha virt. eigenvalues --    4.13413   4.15125   4.16108   4.18134   4.19762
 Alpha virt. eigenvalues --    4.23083   4.23548   4.25999   4.28742   4.29644
 Alpha virt. eigenvalues --    4.31503   4.32296   4.33960   4.34857   4.35571
 Alpha virt. eigenvalues --    4.37638   4.39186   4.39775   4.43430   4.46400
 Alpha virt. eigenvalues --    4.48892   4.49670   4.52533   4.53996   4.54440
 Alpha virt. eigenvalues --    4.56595   4.61166   4.66416   4.70083   4.74472
 Alpha virt. eigenvalues --    4.76313   4.81338   4.83056   4.86373   4.89168
 Alpha virt. eigenvalues --    4.89836   4.91956   4.95439   4.97993   5.01253
 Alpha virt. eigenvalues --    5.02484   5.05584   5.08457   5.12911   5.13166
 Alpha virt. eigenvalues --    5.14492   5.16728   5.17475   5.18554   5.21402
 Alpha virt. eigenvalues --    5.24094   5.27671   5.35563   5.39454   5.43728
 Alpha virt. eigenvalues --    5.46235   5.46516   5.50879   5.53137   5.54826
 Alpha virt. eigenvalues --    5.56331   5.57559   5.60052   5.60869   5.61889
 Alpha virt. eigenvalues --    5.65092   5.66583   5.68254   5.70382   5.72081
 Alpha virt. eigenvalues --    5.75046   5.78200   5.82572   5.83062   5.83725
 Alpha virt. eigenvalues --    5.85212   5.86999   5.90649   5.95673   6.00429
 Alpha virt. eigenvalues --    6.01932   6.05548   6.17088   6.22827   6.33438
 Alpha virt. eigenvalues --    6.37014   6.37480   6.41111   6.58927   6.64780
 Alpha virt. eigenvalues --    6.66111   6.67290   6.68843   6.73434   6.76750
 Alpha virt. eigenvalues --    6.78124   6.79948   6.81798   6.83044   6.83748
 Alpha virt. eigenvalues --    6.85158   6.86476   6.86967   6.90450   6.91022
 Alpha virt. eigenvalues --    6.92093   6.93132   6.96060   6.97898   6.98175
 Alpha virt. eigenvalues --    6.99362   6.99897   7.02785   7.06076   7.08326
 Alpha virt. eigenvalues --    7.09421   7.15916   7.17133   7.21057   7.24106
 Alpha virt. eigenvalues --    7.35041   7.35401   7.37433   7.44239   7.46654
 Alpha virt. eigenvalues --    7.52096   7.54586   7.62231   7.65474   7.71001
 Alpha virt. eigenvalues --    7.77094   7.78957   7.83568   7.88728   7.91583
 Alpha virt. eigenvalues --   12.29370  23.50025  23.62647  43.92615  43.97405
 Alpha virt. eigenvalues --   44.01843  44.12241  44.18288  44.39436
          Condensed to atoms (all electrons):
               1          2          3          4          5          6
     1  Si  11.554850   0.434334   0.007524   0.004016   0.547016  -0.012627
     2  O    0.434334   7.751639  -0.000029  -0.000008  -0.021939   0.000467
     3  O    0.007524  -0.000029   7.859680   0.322950  -0.054545   0.331015
     4  H    0.004016  -0.000008   0.322950   0.547313   0.005572  -0.038830
     5  O    0.547016  -0.021939  -0.054545   0.005572   8.174059   0.083320
     6  H   -0.012627   0.000467   0.331015  -0.038830   0.083320   0.373105
     7  O    0.432061  -0.029955  -0.018261   0.000922  -0.037534   0.001557
     8  H   -0.027285   0.001033   0.042599  -0.003573  -0.001687  -0.007852
     9  C   -0.044022  -0.000528   0.000099   0.000002  -0.004779  -0.000231
    10  H    0.006861  -0.000083   0.000000   0.000000  -0.000203  -0.000010
    11  H   -0.010210   0.007552   0.000003   0.000001  -0.000899  -0.000084
    12  C   -0.001475  -0.000939  -0.000100  -0.000001   0.013415   0.000616
    13  H    0.003249  -0.000027   0.000036   0.000003   0.000007  -0.000272
    14  H    0.000029   0.000025  -0.000001   0.000000  -0.000288  -0.000001
    15  O    0.329595  -0.031418  -0.000036   0.000019  -0.019570  -0.000137
    16  O    0.008757  -0.000270  -0.000028   0.000005  -0.044498  -0.000068
    17  H   -0.006532  -0.000061  -0.000033  -0.000003   0.066256   0.001241
    18  H   -0.033423   0.326391   0.000030   0.000002   0.001731  -0.000102
               7          8          9         10         11         12
     1  Si   0.432061  -0.027285  -0.044022   0.006861  -0.010210  -0.001475
     2  O   -0.029955   0.001033  -0.000528  -0.000083   0.007552  -0.000939
     3  O   -0.018261   0.042599   0.000099   0.000000   0.000003  -0.000100
     4  H    0.000922  -0.003573   0.000002   0.000000   0.000001  -0.000001
     5  O   -0.037534  -0.001687  -0.004779  -0.000203  -0.000899   0.013415
     6  H    0.001557  -0.007852  -0.000231  -0.000010  -0.000084   0.000616
     7  O    7.797327   0.333810  -0.000113  -0.000157  -0.000098  -0.000315
     8  H    0.333810   0.470521  -0.000233   0.000025  -0.000030   0.000061
     9  C   -0.000113  -0.000233   4.825662   0.345246   0.399097   0.271042
    10  H   -0.000157   0.000025   0.345246   0.744114  -0.045848  -0.029310
    11  H   -0.000098  -0.000030   0.399097  -0.045848   0.751839  -0.091926
    12  C   -0.000315   0.000061   0.271042  -0.029310  -0.091926   4.825436
    13  H   -0.000083   0.000030  -0.081929   0.002339   0.019440   0.398975
    14  H   -0.000016  -0.000003  -0.013859  -0.001929   0.000523   0.349734
    15  O   -0.020185   0.000621   0.316724  -0.046787  -0.061499  -0.088982
    16  O   -0.000046  -0.000025  -0.087905   0.008141   0.013042   0.315210
    17  H    0.000080  -0.000099   0.003281  -0.000405  -0.000985  -0.038594
    18  H   -0.000040  -0.000111   0.002580  -0.000167  -0.000683   0.000003
              13         14         15         16         17         18
     1  Si   0.003249   0.000029   0.329595   0.008757  -0.006532  -0.033423
     2  O   -0.000027   0.000025  -0.031418  -0.000270  -0.000061   0.326391
     3  O    0.000036  -0.000001  -0.000036  -0.000028  -0.000033   0.000030
     4  H    0.000003   0.000000   0.000019   0.000005  -0.000003   0.000002
     5  O    0.000007  -0.000288  -0.019570  -0.044498   0.066256   0.001731
     6  H   -0.000272  -0.000001  -0.000137  -0.000068   0.001241  -0.000102
     7  O   -0.000083  -0.000016  -0.020185  -0.000046   0.000080  -0.000040
     8  H    0.000030  -0.000003   0.000621  -0.000025  -0.000099  -0.000111
     9  C   -0.081929  -0.013859   0.316724  -0.087905   0.003281   0.002580
    10  H    0.002339  -0.001929  -0.046787   0.008141  -0.000405  -0.000167
    11  H    0.019440   0.000523  -0.061499   0.013042  -0.000985  -0.000683
    12  C    0.398975   0.349734  -0.088982   0.315210  -0.038594   0.000003
    13  H    0.727055  -0.053439   0.011684  -0.051707  -0.005337  -0.000066
    14  H   -0.053439   0.727250   0.007283  -0.043247   0.007451  -0.000005
    15  O    0.011684   0.007283   8.120476   0.004587   0.000794   0.001454
    16  O   -0.051707  -0.043247   0.004587   7.987500   0.346384  -0.000045
    17  H   -0.005337   0.007451   0.000794   0.346384   0.382031  -0.000107
    18  H   -0.000066  -0.000005   0.001454  -0.000045  -0.000107   0.541792
 Mulliken charges:
               1
     1  Si   0.807283
     2  O   -0.436184
     3  O   -0.490902
     4  H    0.161610
     5  O   -0.705433
     6  H    0.268894
     7  O   -0.458955
     8  H    0.192198
     9  C    0.069867
    10  H    0.018173
    11  H    0.020765
    12  C    0.077152
    13  H    0.030043
    14  H    0.020494
    15  O   -0.524623
    16  O   -0.455787
    17  H    0.244638
    18  H    0.160767
 Sum of Mulliken charges =  -1.00000
 Mulliken charges with hydrogens summed into heavy atoms:
               1
     1  Si   0.807283
     2  O   -0.275417
     3  O   -0.060398
     5  O   -0.705433
     7  O   -0.266757
     9  C    0.108805
    12  C    0.127690
    15  O   -0.524623
    16  O   -0.211150
 Electronic spatial extent (au):  <R**2>=           1679.0119
 Charge=             -1.0000 electrons
 Dipole moment (field-independent basis, Debye):
    X=             -0.7570    Y=             -2.4249    Z=              0.4898  Tot=              2.5871
 Quadrupole moment (field-independent basis, Debye-Ang):
   XX=            -73.2829   YY=            -75.3585   ZZ=            -73.0064
   XY=              3.4964   XZ=             -5.3888   YZ=              2.1816
 Traceless Quadrupole moment (field-independent basis, Debye-Ang):
   XX=              0.5997   YY=             -1.4759   ZZ=              0.8762
   XY=              3.4964   XZ=             -5.3888   YZ=              2.1816
 Octapole moment (field-independent basis, Debye-Ang**2):
  XXX=             27.8326  YYY=            -31.0155  ZZZ=              1.7407  XYY=             -7.2520
  XXY=            -11.5943  XXZ=             -9.7856  XZZ=              5.9417  YZZ=              5.7116
  YYZ=             -2.2646  XYZ=            -14.9163
 Hexadecapole moment (field-independent basis, Debye-Ang**3):
 XXXX=          -1188.7794 YYYY=           -633.0679 ZZZZ=           -281.4668 XXXY=             29.4741
 XXXZ=            -54.7199 YYYX=              3.8795 YYYZ=             -2.1085 ZZZX=              9.8258
 ZZZY=             -2.6574 XXYY=           -380.2595 XXZZ=           -261.5026 YYZZ=           -171.3896
 XXYZ=            -10.8178 YYXZ=            -21.5378 ZZXY=              9.1352
 N-N= 6.178328334490D+02 E-N=-3.198470085874D+03  KE= 8.198373895487D+02
 Unable to Open any file for archive entry.
 1\1\GINC-CDR1248\Scan\RwB97XD\def2TZVPP\C2H9O6Si1(1-)\ARHENDER\14-Nov-
 2023\0\\# opt=modredundant wb97xd/def2tzvpp geom=connectivity\\Even mo
 re refined scan of weird dip in PES\\-1,1\Si,0.5635939569,-0.554219681
 6,-0.0584580321\O,0.3505008091,-1.9003961356,-0.9970008317\O,2.7693976
 07,1.9363704922,0.298470724\H,3.430147637,1.7018316603,-0.3506881179\O
 ,0.6258030394,0.8143849779,-0.8047178585\H,1.9186973303,1.6625820234,-
 0.1399767188\O,1.825378038,-0.8414310784,0.9592845047\H,2.3087738379,-
 0.0223656807,1.1123326028\C,-2.2030345302,-0.3612124899,0.6247964253\H
 ,-2.9409728873,-0.7037968584,1.366347815\H,-2.4356730501,-0.8758031522
 ,-0.3223638623\C,-2.4371405926,1.1338529946,0.4044456187\H,-2.02276583
 81,1.6638698858,1.2758790267\H,-3.5196924598,1.310979696,0.3943815937\
 O,-0.9386974409,-0.6966855117,1.1133851357\O,-1.9368189264,1.645380000
 4,-0.798780777\H,-0.9758829717,1.4345603964,-0.8526470132\H,-0.1122110
 584,-2.5848741983,-0.5189030452\\Version=ES64L-G16RevC.01\State=1-A\HF
 =-822.7580758,-822.8098784,-822.8099005,-822.8099225,-822.8099445,-822
 .8099665,-822.8099885,-822.8100105,-822.8100325,-822.8100545,-822.8100
 765,-822.8100984,-822.8101204\RMSD=7.067e-09,6.713e-09,6.172e-09,5.203
 e-09,9.458e-09,3.706e-09,8.658e-09,8.684e-09,8.095e-09,8.218e-09,7.806
 e-09,7.926e-09,7.681e-09\PG=C01 [X(C2H9O6Si1)]\\@
 The archive entry for this job was punched.


 SEEN ON A WALL AT THE UNIVERSITY OF ILLINOIS AT CHICAGO CIRCLE:

 TO DO IS TO BE  -- SOCRATES
 TO BE IS TO DO  -- SARTRE
 OO BE DO BE DO  -- SINATRA
 Job cpu time:       3 days  2 hours 44 minutes 55.1 seconds.
 Elapsed time:       0 days  5 hours  5 minutes  6.5 seconds.
 File lengths (MBytes):  RWF=    113 Int=      0 D2E=      0 Chk=     15 Scr=      1
 Normal termination of Gaussian 16 at Tue Nov 14 23:01:02 2023.
