 Entering Gaussian System, Link 0=/opt/software/gaussian/g16.c01/g16
 Initial command:
 /opt/software/gaussian/g16.c01/l1.exe "/scratch/arhender/17114655/Gau-255562.inp" -scrdir="/scratch/arhender/17114655/"
 Entering Link 1 = /opt/software/gaussian/g16.c01/l1.exe PID=    255563.
  
 Copyright (c) 1988-2019, Gaussian, Inc.  All Rights Reserved.
  
 This is part of the Gaussian(R) 16 program.  It is based on
 the Gaussian(R) 09 system (copyright 2009, Gaussian, Inc.),
 the Gaussian(R) 03 system (copyright 2003, Gaussian, Inc.),
 the Gaussian(R) 98 system (copyright 1998, Gaussian, Inc.),
 the Gaussian(R) 94 system (copyright 1995, Gaussian, Inc.),
 the Gaussian 92(TM) system (copyright 1992, Gaussian, Inc.),
 the Gaussian 90(TM) system (copyright 1990, Gaussian, Inc.),
 the Gaussian 88(TM) system (copyright 1988, Gaussian, Inc.),
 the Gaussian 86(TM) system (copyright 1986, Carnegie Mellon
 University), and the Gaussian 82(TM) system (copyright 1983,
 Carnegie Mellon University). Gaussian is a federally registered
 trademark of Gaussian, Inc.
  
 This software contains proprietary and confidential information,
 including trade secrets, belonging to Gaussian, Inc.
  
 This software is provided under written license and may be
 used, copied, transmitted, or stored only in accord with that
 written license.
  
 The following legend is applicable only to US Government
 contracts under FAR:
  
                    RESTRICTED RIGHTS LEGEND
  
 Use, reproduction and disclosure by the US Government is
 subject to restrictions as set forth in subparagraphs (a)
 and (c) of the Commercial Computer Software - Restricted
 Rights clause in FAR 52.227-19.
  
 Gaussian, Inc.
 340 Quinnipiac St., Bldg. 40, Wallingford CT 06492
  
  
 ---------------------------------------------------------------
 Warning -- This program may not be used in any manner that
 competes with the business of Gaussian, Inc. or will provide
 assistance to any competitor of Gaussian, Inc.  The licensee
 of this program is prohibited from giving any competitor of
 Gaussian, Inc. access to this program.  By using this program,
 the user acknowledges that Gaussian, Inc. is engaged in the
 business of creating and licensing software in the field of
 computational chemistry and represents and warrants to the
 licensee that it is not a competitor of Gaussian, Inc. and that
 it will not use this program in any manner prohibited above.
 ---------------------------------------------------------------
  

 Cite this work as:
 Gaussian 16, Revision C.01,
 M. J. Frisch, G. W. Trucks, H. B. Schlegel, G. E. Scuseria, 
 M. A. Robb, J. R. Cheeseman, G. Scalmani, V. Barone, 
 G. A. Petersson, H. Nakatsuji, X. Li, M. Caricato, A. V. Marenich, 
 J. Bloino, B. G. Janesko, R. Gomperts, B. Mennucci, H. P. Hratchian, 
 J. V. Ortiz, A. F. Izmaylov, J. L. Sonnenberg, D. Williams-Young, 
 F. Ding, F. Lipparini, F. Egidi, J. Goings, B. Peng, A. Petrone, 
 T. Henderson, D. Ranasinghe, V. G. Zakrzewski, J. Gao, N. Rega, 
 G. Zheng, W. Liang, M. Hada, M. Ehara, K. Toyota, R. Fukuda, 
 J. Hasegawa, M. Ishida, T. Nakajima, Y. Honda, O. Kitao, H. Nakai, 
 T. Vreven, K. Throssell, J. A. Montgomery, Jr., J. E. Peralta, 
 F. Ogliaro, M. J. Bearpark, J. J. Heyd, E. N. Brothers, K. N. Kudin, 
 V. N. Staroverov, T. A. Keith, R. Kobayashi, J. Normand, 
 K. Raghavachari, A. P. Rendell, J. C. Burant, S. S. Iyengar, 
 J. Tomasi, M. Cossi, J. M. Millam, M. Klene, C. Adamo, R. Cammi, 
 J. W. Ochterski, R. L. Martin, K. Morokuma, O. Farkas, 
 J. B. Foresman, and D. J. Fox, Gaussian, Inc., Wallingford CT, 2019.
 
 ******************************************
 Gaussian 16:  ES64L-G16RevC.01  3-Jul-2019
                20-Feb-2024 
 ******************************************
 %chk=IRC_PL2attDep_OHLG_reverse_optEndpoint.chk
 %mem=1600MB
 %nprocs=4
 Will use up to    4 processors via shared memory.
 ---------------------------------------------
 # opt freq wb97xd/def2tzvpp geom=connectivity
 ---------------------------------------------
 1/18=20,19=15,26=3,38=1,57=2/1,3;
 2/9=110,12=2,17=6,18=5,40=1/2;
 3/5=44,7=202,11=2,25=1,30=1,71=1,74=-58/1,2,3;
 4//1;
 5/5=2,38=5/2;
 6/7=2,8=2,9=2,10=2,28=1/1;
 7//1,2,3,16;
 1/18=20,19=15,26=3/3(2);
 2/9=110/2;
 99//99;
 2/9=110/2;
 3/5=44,7=202,11=2,25=1,30=1,71=1,74=-58/1,2,3;
 4/5=5,16=3,69=1/1;
 5/5=2,38=5/2;
 7//1,2,3,16;
 1/18=20,19=15,26=3/3(-5);
 2/9=110/2;
 6/7=2,8=2,9=2,10=2,19=2,28=1/1;
 99/9=1/99;
 ----------------------------------------------------------------------
 PL2 OH attack IRC atacking group deprotonated hydroxyl LG optimize rev
 erse endpoint reactant
 ----------------------------------------------------------------------
 Symbolic Z-matrix:
 Charge = -2 Multiplicity = 1
 C                     2.79509  -0.96309   0.87521 
 H                     2.04896  -1.70645   1.14767 
 H                     3.80194  -1.32866   1.12412 
 C                     2.75406  -0.7735   -0.64363 
 H                     2.10279   0.06123  -0.8996 
 H                     2.35739  -1.65643  -1.13586 
 O                     2.60824   0.22958   1.61252 
 O                     4.08782  -0.55172  -1.19908 
 H                     4.41608   0.22907  -0.75183 
 Si                   -0.77514  -0.18528  -0.12613 
 O                    -1.91587  -0.19108   1.20022 
 H                     1.69807   0.54486   1.39062 
 O                     0.39327  -1.20813  -0.24101 
 O                    -1.98714  -1.14165  -1.07063 
 C                    -3.05239  -0.94279   0.97426 
 H                    -3.92891  -0.48515   1.4686 
 H                    -2.9411   -1.96608   1.38181 
 C                    -3.23691  -1.0237   -0.54622 
 H                    -3.8848   -1.88108  -0.81743 
 H                    -3.7635   -0.1033   -0.89088 
 O                     0.16719   1.08928   0.89435 
 C                    -0.16549   2.37084   0.55126 
 H                     0.63674   3.08929   0.80071 
 H                    -1.08596   2.71356   1.07038 
 C                    -0.42556   2.33984  -0.95726 
 O                    -1.0591    1.14529  -1.23645 
 H                    -1.04492   3.19565  -1.28131 
 H                     0.54108   2.41416  -1.49153 
 
 Add virtual bond connecting atoms O21        and H12        Dist= 3.21D+00.

 GradGradGradGradGradGradGradGradGradGradGradGradGradGradGradGradGradGrad
 Berny optimization.
 Initialization pass.
                           ----------------------------
                           !    Initial Parameters    !
                           ! (Angstroms and Degrees)  !
 --------------------------                            --------------------------
 ! Name  Definition              Value          Derivative Info.                !
 --------------------------------------------------------------------------------
 ! R1    R(1,2)                  1.0879         estimate D2E/DX2                !
 ! R2    R(1,3)                  1.0997         estimate D2E/DX2                !
 ! R3    R(1,4)                  1.5312         estimate D2E/DX2                !
 ! R4    R(1,7)                  1.4146         estimate D2E/DX2                !
 ! R5    R(4,5)                  1.0892         estimate D2E/DX2                !
 ! R6    R(4,6)                  1.0859         estimate D2E/DX2                !
 ! R7    R(4,8)                  1.4617         estimate D2E/DX2                !
 ! R8    R(7,12)                 0.9885         estimate D2E/DX2                !
 ! R9    R(8,9)                  0.9578         estimate D2E/DX2                !
 ! R10   R(10,11)                1.7494         estimate D2E/DX2                !
 ! R11   R(10,13)                1.5571         estimate D2E/DX2                !
 ! R12   R(10,14)                1.8099         estimate D2E/DX2                !
 ! R13   R(10,21)                1.8852         estimate D2E/DX2                !
 ! R14   R(10,26)                1.7561         estimate D2E/DX2                !
 ! R15   R(11,15)                1.3812         estimate D2E/DX2                !
 ! R16   R(12,21)                1.6989         estimate D2E/DX2                !
 ! R17   R(14,18)                1.3605         estimate D2E/DX2                !
 ! R18   R(15,16)                1.1055         estimate D2E/DX2                !
 ! R19   R(15,17)                1.1071         estimate D2E/DX2                !
 ! R20   R(15,18)                1.5338         estimate D2E/DX2                !
 ! R21   R(18,19)                1.1083         estimate D2E/DX2                !
 ! R22   R(18,20)                1.115          estimate D2E/DX2                !
 ! R23   R(21,22)                1.3678         estimate D2E/DX2                !
 ! R24   R(22,23)                1.1054         estimate D2E/DX2                !
 ! R25   R(22,24)                1.1109         estimate D2E/DX2                !
 ! R26   R(22,25)                1.5311         estimate D2E/DX2                !
 ! R27   R(25,26)                1.3807         estimate D2E/DX2                !
 ! R28   R(25,27)                1.105          estimate D2E/DX2                !
 ! R29   R(25,28)                1.107          estimate D2E/DX2                !
 ! A1    A(2,1,3)              110.1267         estimate D2E/DX2                !
 ! A2    A(2,1,4)              108.3401         estimate D2E/DX2                !
 ! A3    A(2,1,7)              110.7921         estimate D2E/DX2                !
 ! A4    A(3,1,4)              106.8713         estimate D2E/DX2                !
 ! A5    A(3,1,7)              106.4537         estimate D2E/DX2                !
 ! A6    A(4,1,7)              114.1476         estimate D2E/DX2                !
 ! A7    A(1,4,5)              110.1221         estimate D2E/DX2                !
 ! A8    A(1,4,6)              111.0231         estimate D2E/DX2                !
 ! A9    A(1,4,8)              111.7944         estimate D2E/DX2                !
 ! A10   A(5,4,6)              107.3469         estimate D2E/DX2                !
 ! A11   A(5,4,8)              109.8768         estimate D2E/DX2                !
 ! A12   A(6,4,8)              106.5244         estimate D2E/DX2                !
 ! A13   A(1,7,12)             105.8753         estimate D2E/DX2                !
 ! A14   A(4,8,9)              105.0079         estimate D2E/DX2                !
 ! A15   A(11,10,13)           122.8912         estimate D2E/DX2                !
 ! A16   A(11,10,14)            87.5495         estimate D2E/DX2                !
 ! A17   A(11,10,21)            85.2835         estimate D2E/DX2                !
 ! A18   A(11,10,26)           112.1129         estimate D2E/DX2                !
 ! A19   A(13,10,14)            96.7121         estimate D2E/DX2                !
 ! A20   A(13,10,21)            96.2562         estimate D2E/DX2                !
 ! A21   A(13,10,26)           124.918          estimate D2E/DX2                !
 ! A22   A(14,10,26)            87.8301         estimate D2E/DX2                !
 ! A23   A(21,10,26)            84.8832         estimate D2E/DX2                !
 ! A24   A(10,11,15)           114.4759         estimate D2E/DX2                !
 ! A25   A(10,14,18)           111.6047         estimate D2E/DX2                !
 ! A26   A(11,15,16)           110.7296         estimate D2E/DX2                !
 ! A27   A(11,15,17)           111.1071         estimate D2E/DX2                !
 ! A28   A(11,15,18)           106.8502         estimate D2E/DX2                !
 ! A29   A(16,15,17)           107.322          estimate D2E/DX2                !
 ! A30   A(16,15,18)           111.6995         estimate D2E/DX2                !
 ! A31   A(17,15,18)           109.164          estimate D2E/DX2                !
 ! A32   A(14,18,15)           106.0326         estimate D2E/DX2                !
 ! A33   A(14,18,19)           112.0619         estimate D2E/DX2                !
 ! A34   A(14,18,20)           112.7223         estimate D2E/DX2                !
 ! A35   A(15,18,19)           110.7146         estimate D2E/DX2                !
 ! A36   A(15,18,20)           108.6454         estimate D2E/DX2                !
 ! A37   A(19,18,20)           106.6691         estimate D2E/DX2                !
 ! A38   A(10,21,12)           113.0724         estimate D2E/DX2                !
 ! A39   A(10,21,22)           112.0933         estimate D2E/DX2                !
 ! A40   A(12,21,22)           126.3496         estimate D2E/DX2                !
 ! A41   A(21,22,23)           112.0764         estimate D2E/DX2                !
 ! A42   A(21,22,24)           111.9232         estimate D2E/DX2                !
 ! A43   A(21,22,25)           105.6338         estimate D2E/DX2                !
 ! A44   A(23,22,24)           107.1782         estimate D2E/DX2                !
 ! A45   A(23,22,25)           111.0245         estimate D2E/DX2                !
 ! A46   A(24,22,25)           109.0201         estimate D2E/DX2                !
 ! A47   A(22,25,26)           107.1394         estimate D2E/DX2                !
 ! A48   A(22,25,27)           111.6209         estimate D2E/DX2                !
 ! A49   A(22,25,28)           109.0167         estimate D2E/DX2                !
 ! A50   A(26,25,27)           110.707          estimate D2E/DX2                !
 ! A51   A(26,25,28)           111.1728         estimate D2E/DX2                !
 ! A52   A(27,25,28)           107.2122         estimate D2E/DX2                !
 ! A53   A(10,26,25)           116.968          estimate D2E/DX2                !
 ! A54   L(14,10,21,11,-1)     172.8331         estimate D2E/DX2                !
 ! A55   L(7,12,21,4,-1)       176.4165         estimate D2E/DX2                !
 ! A56   L(14,10,21,11,-2)     190.8183         estimate D2E/DX2                !
 ! A57   L(7,12,21,4,-2)       181.9665         estimate D2E/DX2                !
 ! D1    D(2,1,4,5)             94.1287         estimate D2E/DX2                !
 ! D2    D(2,1,4,6)            -24.6216         estimate D2E/DX2                !
 ! D3    D(2,1,4,8)           -143.4271         estimate D2E/DX2                !
 ! D4    D(3,1,4,5)           -147.2284         estimate D2E/DX2                !
 ! D5    D(3,1,4,6)             94.0213         estimate D2E/DX2                !
 ! D6    D(3,1,4,8)            -24.7842         estimate D2E/DX2                !
 ! D7    D(7,1,4,5)            -29.8201         estimate D2E/DX2                !
 ! D8    D(7,1,4,6)           -148.5704         estimate D2E/DX2                !
 ! D9    D(7,1,4,8)             92.624          estimate D2E/DX2                !
 ! D10   D(2,1,7,12)           -59.6425         estimate D2E/DX2                !
 ! D11   D(3,1,7,12)          -179.3733         estimate D2E/DX2                !
 ! D12   D(4,1,7,12)            62.9786         estimate D2E/DX2                !
 ! D13   D(1,4,8,9)            -58.5771         estimate D2E/DX2                !
 ! D14   D(5,4,8,9)             64.0071         estimate D2E/DX2                !
 ! D15   D(6,4,8,9)            179.981          estimate D2E/DX2                !
 ! D16   D(1,7,21,10)            9.5462         estimate D2E/DX2                !
 ! D17   D(1,7,21,22)         -134.0102         estimate D2E/DX2                !
 ! D18   D(13,10,11,15)        -91.7145         estimate D2E/DX2                !
 ! D19   D(14,10,11,15)          4.6956         estimate D2E/DX2                !
 ! D20   D(21,10,11,15)        173.8773         estimate D2E/DX2                !
 ! D21   D(26,10,11,15)         91.3537         estimate D2E/DX2                !
 ! D22   D(11,10,14,18)         19.5723         estimate D2E/DX2                !
 ! D23   D(13,10,14,18)        142.4097         estimate D2E/DX2                !
 ! D24   D(26,10,14,18)        -92.679          estimate D2E/DX2                !
 ! D25   D(11,10,21,12)        115.6753         estimate D2E/DX2                !
 ! D26   D(11,10,21,22)        -94.0741         estimate D2E/DX2                !
 ! D27   D(13,10,21,12)         -6.9478         estimate D2E/DX2                !
 ! D28   D(13,10,21,22)        143.3029         estimate D2E/DX2                !
 ! D29   D(26,10,21,12)       -131.5809         estimate D2E/DX2                !
 ! D30   D(26,10,21,22)         18.6697         estimate D2E/DX2                !
 ! D31   D(11,10,26,25)         88.4765         estimate D2E/DX2                !
 ! D32   D(13,10,26,25)        -88.3814         estimate D2E/DX2                !
 ! D33   D(14,10,26,25)        174.9461         estimate D2E/DX2                !
 ! D34   D(21,10,26,25)          5.6856         estimate D2E/DX2                !
 ! D35   D(10,11,15,16)       -146.2806         estimate D2E/DX2                !
 ! D36   D(10,11,15,17)         94.554          estimate D2E/DX2                !
 ! D37   D(10,11,15,18)        -24.4309         estimate D2E/DX2                !
 ! D38   D(10,14,18,15)        -35.5017         estimate D2E/DX2                !
 ! D39   D(10,14,18,19)       -156.4033         estimate D2E/DX2                !
 ! D40   D(10,14,18,20)         83.2475         estimate D2E/DX2                !
 ! D41   D(11,15,18,14)         37.9136         estimate D2E/DX2                !
 ! D42   D(11,15,18,19)        159.682          estimate D2E/DX2                !
 ! D43   D(11,15,18,20)        -83.4938         estimate D2E/DX2                !
 ! D44   D(16,15,18,14)        159.1499         estimate D2E/DX2                !
 ! D45   D(16,15,18,19)        -79.0817         estimate D2E/DX2                !
 ! D46   D(16,15,18,20)         37.7425         estimate D2E/DX2                !
 ! D47   D(17,15,18,14)        -82.3248         estimate D2E/DX2                !
 ! D48   D(17,15,18,19)         39.4436         estimate D2E/DX2                !
 ! D49   D(17,15,18,20)        156.2677         estimate D2E/DX2                !
 ! D50   D(10,21,22,23)       -155.7659         estimate D2E/DX2                !
 ! D51   D(10,21,22,24)         83.7839         estimate D2E/DX2                !
 ! D52   D(10,21,22,25)        -34.7335         estimate D2E/DX2                !
 ! D53   D(12,21,22,23)        -10.2938         estimate D2E/DX2                !
 ! D54   D(12,21,22,24)       -130.7439         estimate D2E/DX2                !
 ! D55   D(12,21,22,25)        110.7386         estimate D2E/DX2                !
 ! D56   D(21,22,25,26)         37.7377         estimate D2E/DX2                !
 ! D57   D(21,22,25,27)        159.0872         estimate D2E/DX2                !
 ! D58   D(21,22,25,28)        -82.665          estimate D2E/DX2                !
 ! D59   D(23,22,25,26)        159.4514         estimate D2E/DX2                !
 ! D60   D(23,22,25,27)        -79.199          estimate D2E/DX2                !
 ! D61   D(23,22,25,28)         39.0487         estimate D2E/DX2                !
 ! D62   D(24,22,25,26)        -82.6974         estimate D2E/DX2                !
 ! D63   D(24,22,25,27)         38.6521         estimate D2E/DX2                !
 ! D64   D(24,22,25,28)        156.8998         estimate D2E/DX2                !
 ! D65   D(22,25,26,10)        -25.4997         estimate D2E/DX2                !
 ! D66   D(27,25,26,10)       -147.4235         estimate D2E/DX2                !
 ! D67   D(28,25,26,10)         93.5207         estimate D2E/DX2                !
 --------------------------------------------------------------------------------
 Trust Radius=3.00D-01 FncErr=1.00D-07 GrdErr=1.00D-06 EigMax=2.50D+02 EigMin=1.00D-04
 Number of steps in this run=    163 maximum allowed number of steps=    168.
 GradGradGradGradGradGradGradGradGradGradGradGradGradGradGradGradGradGrad

                          Input orientation:                          
 ---------------------------------------------------------------------
 Center     Atomic      Atomic             Coordinates (Angstroms)
 Number     Number       Type             X           Y           Z
 ---------------------------------------------------------------------
      1          6           0        2.795093   -0.963091    0.875206
      2          1           0        2.048963   -1.706452    1.147665
      3          1           0        3.801935   -1.328663    1.124121
      4          6           0        2.754061   -0.773495   -0.643626
      5          1           0        2.102793    0.061227   -0.899598
      6          1           0        2.357385   -1.656428   -1.135857
      7          8           0        2.608241    0.229579    1.612519
      8          8           0        4.087816   -0.551721   -1.199084
      9          1           0        4.416077    0.229068   -0.751832
     10         14           0       -0.775140   -0.185282   -0.126132
     11          8           0       -1.915873   -0.191078    1.200216
     12          1           0        1.698070    0.544858    1.390620
     13          8           0        0.393269   -1.208130   -0.241012
     14          8           0       -1.987139   -1.141649   -1.070632
     15          6           0       -3.052386   -0.942790    0.974264
     16          1           0       -3.928909   -0.485145    1.468598
     17          1           0       -2.941096   -1.966077    1.381806
     18          6           0       -3.236907   -1.023698   -0.546220
     19          1           0       -3.884802   -1.881081   -0.817433
     20          1           0       -3.763495   -0.103299   -0.890884
     21          8           0        0.167193    1.089282    0.894350
     22          6           0       -0.165493    2.370838    0.551257
     23          1           0        0.636739    3.089294    0.800711
     24          1           0       -1.085964    2.713555    1.070378
     25          6           0       -0.425563    2.339835   -0.957256
     26          8           0       -1.059097    1.145290   -1.236452
     27          1           0       -1.044916    3.195646   -1.281310
     28          1           0        0.541083    2.414155   -1.491530
 ---------------------------------------------------------------------
                    Distance matrix (angstroms):
                    1          2          3          4          5
     1  C    0.000000
     2  H    1.087901   0.000000
     3  H    1.099696   1.793374   0.000000
     4  C    1.531170   2.139228   2.128657   0.000000
     5  H    2.162969   2.705341   2.985685   1.089235   0.000000
     6  H    2.171792   2.304799   2.702158   1.085916   1.752419
     7  O    1.414569   2.068114   2.022760   2.473381   2.567986
     8  O    2.478515   3.316256   2.466303   1.461718   2.098979
     9  H    2.587679   3.599660   2.514537   1.944001   2.324067
    10  Si   3.788697   3.451387   4.880581   3.615115   2.990237
    11  O    4.784855   4.244885   5.830370   5.054428   4.541206
    12  H    1.934689   2.291408   2.829726   2.644112   2.375457
    13  O    2.659839   2.217672   3.673843   2.433998   2.228783
    14  O    5.166034   4.640039   6.193972   4.774605   4.266580
    15  C    5.848353   5.161105   6.866809   6.030013   5.576314
    16  H    6.767034   6.109791   7.784352   7.014750   6.502946
    17  H    5.845211   5.002291   6.777991   6.161123   5.895386
    18  C    6.197512   5.592479   7.240742   5.996981   5.460250
    19  H    6.951887   6.253133   7.947372   6.732864   6.295284
    20  H    6.846415   6.364782   7.924487   6.556587   5.868601
    21  O    3.334435   3.379550   4.371567   3.539378   2.832259
    22  C    4.470469   4.678014   5.454811   4.454029   3.547450
    23  H    4.591935   5.011380   5.444392   4.635763   3.769556
    24  H    5.349619   5.419428   6.343025   5.462886   4.591712
    25  C    4.963856   5.189066   5.971746   4.461076   3.404110
    26  O    4.874336   4.845254   5.943263   4.309681   3.359496
    27  H    6.057336   6.285107   7.053186   5.531089   4.458515
    28  H    4.699765   5.120396   5.611014   3.972068   2.885410
                    6          7          8          9         10
     6  H    0.000000
     7  O    3.342682   0.000000
     8  O    2.053964   3.271801   0.000000
     9  H    2.817940   2.976311   0.957821   0.000000
    10  Si   3.605070   3.826524   4.993380   5.245181   0.000000
    11  O    5.085786   4.562297   6.475414   6.639323   1.749430
    12  H    3.415178   0.988459   3.690520   3.475253   2.991723
    13  O    2.204421   3.226249   3.872784   4.302262   1.557111
    14  O    4.375402   5.495187   6.104883   6.556041   1.809878
    15  C    5.850428   5.815885   7.473879   7.754392   2.640178
    16  H    6.904533   6.577680   8.449192   8.664825   3.546737
    17  H    5.874386   5.972376   7.620171   7.968630   3.183783
    18  C    5.660753   6.355833   7.368891   7.757568   2.634333
    19  H    6.254339   7.247010   8.091693   8.565140   3.608827
    20  H    6.319604   6.853966   7.870143   8.187503   3.085747
    21  O    4.056797   2.685809   4.737789   4.637122   1.885176
    22  C    5.042830   3.661266   5.449374   5.222643   2.713720
    23  H    5.406736   3.567047   5.400565   4.987452   3.684466
    24  H    5.985054   4.484552   6.525372   6.305996   3.151429
    25  C    4.873070   4.501210   5.365647   5.285737   2.681266
    26  O    4.419513   4.733342   5.419590   5.572419   1.756093
    27  H    5.927852   5.524252   6.355663   6.237257   3.583000
    28  H    4.471588   4.322110   4.632630   4.509694   3.217736
                   11         12         13         14         15
    11  O    0.000000
    12  H    3.693026   0.000000
    13  O    2.905799   2.727214   0.000000
    14  O    2.462806   4.741607   2.521712   0.000000
    15  C    1.381227   4.995326   3.663310   2.314281   0.000000
    16  H    2.052028   5.721003   4.703902   3.263305   1.105485
    17  H    2.057833   5.275105   3.784972   2.757566   1.107065
    18  C    2.342739   5.528627   3.647649   1.360456   1.533775
    19  H    3.286898   6.475271   4.368869   2.052314   2.187118
    20  H    2.791794   5.954331   4.349905   2.065411   2.165456
    21  O    2.464151   1.698901   2.572598   3.671424   3.808069
    22  C    3.169920   2.740730   3.707953   4.276270   4.415112
    23  H    4.175676   2.819321   4.428580   5.318603   5.467857
    24  H    3.023657   3.543536   4.391752   4.500960   4.152699
    25  C    3.644342   3.639269   3.711003   3.817343   4.626726
    26  O    2.908143   3.855385   2.939193   2.473631   3.636007
    27  H    4.287941   4.657237   4.748035   4.443456   5.122910
    28  H    4.479885   3.624869   3.834918   4.383241   5.501113
                   16         17         18         19         20
    16  H    0.000000
    17  H    1.782265   0.000000
    18  C    2.197362   2.166303   0.000000
    19  H    2.678903   2.394673   1.108346   0.000000
    20  H    2.395897   3.051459   1.114999   1.783429   0.000000
    21  O    4.425679   4.385692   4.257678   5.307723   4.478796
    22  C    4.812635   5.215613   4.707538   5.812520   4.598559
    23  H    5.836765   6.220559   5.808275   6.911393   5.693523
    24  H    4.297976   5.043556   4.605106   5.701579   4.353204
    25  C    5.112603   5.508175   4.402949   5.459122   4.137040
    26  O    4.267486   4.480826   3.150204   4.161623   2.998693
    27  H    5.424724   6.109916   4.811242   5.835520   4.292568
    28  H    6.095008   6.290315   5.194772   6.204185   5.022723
                   21         22         23         24         25
    21  O    0.000000
    22  C    1.367764   0.000000
    23  H    2.056524   1.105433   0.000000
    24  H    2.059041   1.110949   1.783706   0.000000
    25  C    2.311642   1.531081   2.186463   2.164970   0.000000
    26  O    2.459114   2.344440   3.287103   2.789559   1.380671
    27  H    3.261821   2.193626   2.678448   2.400944   1.104998
    28  H    2.754543   2.161968   2.391512   3.049638   1.106967
                   26         27         28
    26  O    0.000000
    27  H    2.050896   0.000000
    28  H    2.058072   1.780537   0.000000
 Stoichiometry    C6H14O7Si(2-)
 Framework group  C1[X(C6H14O7Si)]
 Deg. of freedom    78
 Full point group                 C1      NOp   1
 Largest Abelian subgroup         C1      NOp   1
 Largest concise Abelian subgroup C1      NOp   1
                         Standard orientation:                         
 ---------------------------------------------------------------------
 Center     Atomic      Atomic             Coordinates (Angstroms)
 Number     Number       Type             X           Y           Z
 ---------------------------------------------------------------------
      1          6           0        2.795127   -0.969424    0.865234
      2          1           0        2.050616   -1.712081    1.143972
      3          1           0        3.803171   -1.332951    1.112273
      4          6           0        2.748455   -0.787202   -0.654338
      5          1           0        2.095559    0.045731   -0.911983
      6          1           0        2.350757   -1.672833   -1.140864
      7          8           0        2.609922    0.226638    1.597450
      8          8           0        4.080009   -0.567004   -1.215673
      9          1           0        4.409218    0.216209   -0.773384
     10         14           0       -0.779355   -0.199434   -0.126948
     11          8           0       -1.915290   -0.199771    1.203524
     12          1           0        1.698689    0.540084    1.377320
     13          8           0        0.389501   -1.221852   -0.241107
     14          8           0       -1.993940   -1.161361   -1.062436
     15          6           0       -3.051972   -0.953512    0.985309
     16          1           0       -3.927095   -0.494214    1.480590
     17          1           0       -2.938343   -1.974725    1.397383
     18          6           0       -3.241908   -1.041918   -0.534090
     19          1           0       -3.890048   -1.901140   -0.798819
     20          1           0       -3.770517   -0.123633   -0.881290
     21          8           0        0.165570    1.080829    0.883959
     22          6           0       -0.169440    2.360436    0.535886
     23          1           0        0.633076    3.080756    0.778970
     24          1           0       -1.088324    2.704890    1.056667
     25          6           0       -0.434924    2.321929   -0.971511
     26          8           0       -1.068445    1.125522   -1.242646
     27          1           0       -1.056169    3.175648   -1.297454
     28          1           0        0.529725    2.394471   -1.509624
 ---------------------------------------------------------------------
 Rotational constants (GHZ):           0.9687610           0.3963228           0.3652072
 Standard basis: def2TZVPP (5D, 7F)
 There are   726 symmetry adapted cartesian basis functions of A   symmetry.
 There are   641 symmetry adapted basis functions of A   symmetry.
   641 basis functions,   970 primitive gaussians,   726 cartesian basis functions
    61 alpha electrons       61 beta electrons
       nuclear repulsion energy      1200.1375681127 Hartrees.
 NAtoms=   28 NActive=   28 NUniq=   28 SFac= 1.00D+00 NAtFMM=   60 NAOKFM=F Big=F
 Integral buffers will be    131072 words long.
 Raffenetti 2 integral format.
 Two-electron integral symmetry is turned on.
 Nuclear repulsion after empirical dispersion term =     1200.1195664355 Hartrees.
 One-electron integrals computed using PRISM.
   1 Symmetry operations used in ECPInt.
 ECPInt:  NShTT=   29161 NPrTT=   80163 LenC2=   26390 LenP2D=   54397.
 LDataN:  DoStor=T MaxTD1= 6 Len=  172
 NBasis=   641 RedAO= T EigKep=  1.91D-04  NBF=   641
 NBsUse=   641 1.00D-06 EigRej= -1.00D+00 NBFU=   641
 ExpMin= 7.01D-02 ExpMax= 4.48D+04 ExpMxC= 1.53D+03 IAcc=3 IRadAn=         5 AccDes= 0.00D+00
 Harris functional with IExCor= 4639 and IRadAn=       5 diagonalized for initial guess.
 HarFok:  IExCor= 4639 AccDes= 0.00D+00 IRadAn=         5 IDoV= 1 UseB2=F ITyADJ=14
 ICtDFT=  3500011 ScaDFX=  1.000000  1.000000  1.000000  1.000000
 FoFCou: FMM=F IPFlag=           0 FMFlag=      100000 FMFlg1=           0
         NFxFlg=           0 DoJE=T BraDBF=F KetDBF=T FulRan=T
         wScrn=  0.000000 ICntrl=       500 IOpCl=  0 I1Cent=   200000004 NGrid=           0
         NMat0=    1 NMatS0=      1 NMatT0=    0 NMatD0=    1 NMtDS0=    0 NMtDT0=    0
 Petite list used in FoFCou.
 Requested convergence on RMS density matrix=1.00D-08 within 128 cycles.
 Requested convergence on MAX density matrix=1.00D-06.
 Requested convergence on             energy=1.00D-06.
 No special actions if energy rises.
 Integral accuracy reduced to 1.0D-05 until final iterations.
 Initial convergence to 1.0D-05 achieved.  Increase integral accuracy.
 SCF Done:  E(RwB97XD) =  -1053.31255804     A.U. after   15 cycles
            NFock= 15  Conv=0.61D-08     -V/T= 2.0035

 **********************************************************************

            Population analysis using the SCF Density.

 **********************************************************************

 Orbital symmetries:
       Occupied  (A) (A) (A) (A) (A) (A) (A) (A) (A) (A) (A) (A)
                 (A) (A) (A) (A) (A) (A) (A) (A) (A) (A) (A) (A)
                 (A) (A) (A) (A) (A) (A) (A) (A) (A) (A) (A) (A)
                 (A) (A) (A) (A) (A) (A) (A) (A) (A) (A) (A) (A)
                 (A) (A) (A) (A) (A) (A) (A) (A) (A) (A) (A) (A)
                 (A)
       Virtual   (A) (A) (A) (A) (A) (A) (A) (A) (A) (A) (A) (A)
                 (A) (A) (A) (A) (A) (A) (A) (A) (A) (A) (A) (A)
                 (A) (A) (A) (A) (A) (A) (A) (A) (A) (A) (A) (A)
                 (A) (A) (A) (A) (A) (A) (A) (A) (A) (A) (A) (A)
                 (A) (A) (A) (A) (A) (A) (A) (A) (A) (A) (A) (A)
                 (A) (A) (A) (A) (A) (A) (A) (A) (A) (A) (A) (A)
                 (A) (A) (A) (A) (A) (A) (A) (A) (A) (A) (A) (A)
                 (A) (A) (A) (A) (A) (A) (A) (A) (A) (A) (A) (A)
                 (A) (A) (A) (A) (A) (A) (A) (A) (A) (A) (A) (A)
                 (A) (A) (A) (A) (A) (A) (A) (A) (A) (A) (A) (A)
                 (A) (A) (A) (A) (A) (A) (A) (A) (A) (A) (A) (A)
                 (A) (A) (A) (A) (A) (A) (A) (A) (A) (A) (A) (A)
                 (A) (A) (A) (A) (A) (A) (A) (A) (A) (A) (A) (A)
                 (A) (A) (A) (A) (A) (A) (A) (A) (A) (A) (A) (A)
                 (A) (A) (A) (A) (A) (A) (A) (A) (A) (A) (A) (A)
                 (A) (A) (A) (A) (A) (A) (A) (A) (A) (A) (A) (A)
                 (A) (A) (A) (A) (A) (A) (A) (A) (A) (A) (A) (A)
                 (A) (A) (A) (A) (A) (A) (A) (A) (A) (A) (A) (A)
                 (A) (A) (A) (A) (A) (A) (A) (A) (A) (A) (A) (A)
                 (A) (A) (A) (A) (A) (A) (A) (A) (A) (A) (A) (A)
                 (A) (A) (A) (A) (A) (A) (A) (A) (A) (A) (A) (A)
                 (A) (A) (A) (A) (A) (A) (A) (A) (A) (A) (A) (A)
                 (A) (A) (A) (A) (A) (A) (A) (A) (A) (A) (A) (A)
                 (A) (A) (A) (A) (A) (A) (A) (A) (A) (A) (A) (A)
                 (A) (A) (A) (A) (A) (A) (A) (A) (A) (A) (A) (A)
                 (A) (A) (A) (A) (A) (A) (A) (A) (A) (A) (A) (A)
                 (A) (A) (A) (A) (A) (A) (A) (A) (A) (A) (A) (A)
                 (A) (A) (A) (A) (A) (A) (A) (A) (A) (A) (A) (A)
                 (A) (A) (A) (A) (A) (A) (A) (A) (A) (A) (A) (A)
                 (A) (A) (A) (A) (A) (A) (A) (A) (A) (A) (A) (A)
                 (A) (A) (A) (A) (A) (A) (A) (A) (A) (A) (A) (A)
                 (A) (A) (A) (A) (A) (A) (A) (A) (A) (A) (A) (A)
                 (A) (A) (A) (A) (A) (A) (A) (A) (A) (A) (A) (A)
                 (A) (A) (A) (A) (A) (A) (A) (A) (A) (A) (A) (A)
                 (A) (A) (A) (A) (A) (A) (A) (A) (A) (A) (A) (A)
                 (A) (A) (A) (A) (A) (A) (A) (A) (A) (A) (A) (A)
                 (A) (A) (A) (A) (A) (A) (A) (A) (A) (A) (A) (A)
                 (A) (A) (A) (A) (A) (A) (A) (A) (A) (A) (A) (A)
                 (A) (A) (A) (A) (A) (A) (A) (A) (A) (A) (A) (A)
                 (A) (A) (A) (A) (A) (A) (A) (A) (A) (A) (A) (A)
                 (A) (A) (A) (A) (A) (A) (A) (A) (A) (A) (A) (A)
                 (A) (A) (A) (A) (A) (A) (A) (A) (A) (A) (A) (A)
                 (A) (A) (A) (A) (A) (A) (A) (A) (A) (A) (A) (A)
                 (A) (A) (A) (A) (A) (A) (A) (A) (A) (A) (A) (A)
                 (A) (A) (A) (A) (A) (A) (A) (A) (A) (A) (A) (A)
                 (A) (A) (A) (A) (A) (A) (A) (A) (A) (A) (A) (A)
                 (A) (A) (A) (A) (A) (A) (A) (A) (A) (A) (A) (A)
                 (A) (A) (A) (A) (A) (A) (A) (A) (A) (A) (A) (A)
                 (A) (A) (A) (A)
 The electronic state is 1-A.
 Alpha  occ. eigenvalues --  -65.95045 -18.98802 -18.94795 -18.92650 -18.92346
 Alpha  occ. eigenvalues --  -18.90939 -18.89551 -18.79952 -10.05252 -10.04864
 Alpha  occ. eigenvalues --  -10.04779 -10.04252 -10.03907 -10.03609  -5.06294
 Alpha  occ. eigenvalues --   -3.40949  -3.40841  -3.40594  -0.85576  -0.83526
 Alpha  occ. eigenvalues --   -0.82205  -0.81367  -0.77168  -0.75793  -0.63111
 Alpha  occ. eigenvalues --   -0.54266  -0.53259  -0.52033  -0.43561  -0.41353
 Alpha  occ. eigenvalues --   -0.40359  -0.32709  -0.31242  -0.30203  -0.29923
 Alpha  occ. eigenvalues --   -0.29084  -0.28131  -0.27512  -0.26244  -0.23467
 Alpha  occ. eigenvalues --   -0.22891  -0.21591  -0.21141  -0.20503  -0.19967
 Alpha  occ. eigenvalues --   -0.18993  -0.17063  -0.13015  -0.11359  -0.10666
 Alpha  occ. eigenvalues --   -0.09406  -0.09287  -0.08424  -0.07096  -0.06616
 Alpha  occ. eigenvalues --   -0.06181  -0.04309  -0.03496  -0.03005   0.00618
 Alpha  occ. eigenvalues --    0.02385
 Alpha virt. eigenvalues --    0.34380   0.35545   0.36512   0.38837   0.39293
 Alpha virt. eigenvalues --    0.39934   0.40202   0.40710   0.40766   0.42857
 Alpha virt. eigenvalues --    0.43690   0.45063   0.45667   0.46029   0.46923
 Alpha virt. eigenvalues --    0.49011   0.49177   0.50432   0.50892   0.51305
 Alpha virt. eigenvalues --    0.52709   0.53142   0.53618   0.55291   0.55533
 Alpha virt. eigenvalues --    0.57335   0.58122   0.59042   0.59829   0.60970
 Alpha virt. eigenvalues --    0.62631   0.63139   0.64255   0.64888   0.65328
 Alpha virt. eigenvalues --    0.66082   0.66635   0.67426   0.68235   0.68531
 Alpha virt. eigenvalues --    0.69172   0.70629   0.71340   0.71772   0.72337
 Alpha virt. eigenvalues --    0.72375   0.72975   0.73360   0.74143   0.74600
 Alpha virt. eigenvalues --    0.75685   0.75818   0.76000   0.76782   0.77460
 Alpha virt. eigenvalues --    0.77711   0.78262   0.78783   0.78911   0.79258
 Alpha virt. eigenvalues --    0.80768   0.81676   0.81864   0.82370   0.83290
 Alpha virt. eigenvalues --    0.84545   0.85238   0.86242   0.87042   0.87444
 Alpha virt. eigenvalues --    0.88686   0.90010   0.91090   0.91813   0.92448
 Alpha virt. eigenvalues --    0.93964   0.94894   0.95759   0.96674   0.98337
 Alpha virt. eigenvalues --    0.98738   0.99892   1.00285   1.02772   1.03652
 Alpha virt. eigenvalues --    1.04785   1.07469   1.07889   1.08501   1.09077
 Alpha virt. eigenvalues --    1.10069   1.10624   1.11914   1.13339   1.13486
 Alpha virt. eigenvalues --    1.14761   1.15364   1.16207   1.17224   1.17584
 Alpha virt. eigenvalues --    1.18609   1.19793   1.20455   1.21683   1.22418
 Alpha virt. eigenvalues --    1.22719   1.23499   1.23647   1.25877   1.26158
 Alpha virt. eigenvalues --    1.26759   1.29203   1.29258   1.30967   1.31688
 Alpha virt. eigenvalues --    1.32630   1.32759   1.33683   1.35069   1.35459
 Alpha virt. eigenvalues --    1.35915   1.36884   1.37977   1.38659   1.39746
 Alpha virt. eigenvalues --    1.39958   1.40215   1.42069   1.42789   1.43295
 Alpha virt. eigenvalues --    1.44085   1.44599   1.46185   1.46458   1.47093
 Alpha virt. eigenvalues --    1.48065   1.49023   1.50572   1.51889   1.52867
 Alpha virt. eigenvalues --    1.53703   1.54836   1.55321   1.56151   1.56967
 Alpha virt. eigenvalues --    1.57692   1.58320   1.59328   1.61017   1.62089
 Alpha virt. eigenvalues --    1.63256   1.64447   1.64787   1.65478   1.65750
 Alpha virt. eigenvalues --    1.67640   1.68699   1.69042   1.69872   1.71732
 Alpha virt. eigenvalues --    1.72419   1.72808   1.73665   1.74540   1.75591
 Alpha virt. eigenvalues --    1.76265   1.77033   1.77770   1.78900   1.79129
 Alpha virt. eigenvalues --    1.82569   1.83902   1.84964   1.85834   1.86443
 Alpha virt. eigenvalues --    1.87404   1.88279   1.89436   1.90335   1.90919
 Alpha virt. eigenvalues --    1.92591   1.92674   1.94904   1.96388   1.96926
 Alpha virt. eigenvalues --    1.99591   2.00209   2.02018   2.04744   2.05995
 Alpha virt. eigenvalues --    2.07745   2.10885   2.13286   2.14187   2.16325
 Alpha virt. eigenvalues --    2.16934   2.17850   2.19205   2.19937   2.21436
 Alpha virt. eigenvalues --    2.23428   2.24460   2.25296   2.26168   2.27712
 Alpha virt. eigenvalues --    2.28540   2.30372   2.31760   2.34045   2.34496
 Alpha virt. eigenvalues --    2.35191   2.35896   2.37585   2.39491   2.41655
 Alpha virt. eigenvalues --    2.41975   2.42733   2.43994   2.45424   2.45480
 Alpha virt. eigenvalues --    2.47447   2.50128   2.52473   2.52996   2.53350
 Alpha virt. eigenvalues --    2.56364   2.57353   2.60322   2.60880   2.62550
 Alpha virt. eigenvalues --    2.63701   2.66497   2.67617   2.69353   2.70904
 Alpha virt. eigenvalues --    2.71767   2.73120   2.74360   2.76365   2.78832
 Alpha virt. eigenvalues --    2.80278   2.80633   2.81385   2.84206   2.87421
 Alpha virt. eigenvalues --    2.89085   2.91909   2.93976   2.95110   2.96144
 Alpha virt. eigenvalues --    2.97659   2.98666   2.99357   2.99573   2.99983
 Alpha virt. eigenvalues --    3.01000   3.02408   3.02807   3.05074   3.07177
 Alpha virt. eigenvalues --    3.09736   3.10404   3.11758   3.12723   3.13747
 Alpha virt. eigenvalues --    3.15139   3.16721   3.16999   3.17515   3.19773
 Alpha virt. eigenvalues --    3.19997   3.21340   3.22016   3.23527   3.24130
 Alpha virt. eigenvalues --    3.25384   3.26770   3.29002   3.30042   3.31211
 Alpha virt. eigenvalues --    3.32941   3.33662   3.34227   3.34744   3.35021
 Alpha virt. eigenvalues --    3.36133   3.36651   3.38335   3.39495   3.40056
 Alpha virt. eigenvalues --    3.40926   3.42069   3.43350   3.44068   3.44594
 Alpha virt. eigenvalues --    3.46414   3.47241   3.47407   3.47820   3.48999
 Alpha virt. eigenvalues --    3.49613   3.50184   3.50677   3.51716   3.52811
 Alpha virt. eigenvalues --    3.54923   3.56030   3.57866   3.58314   3.59475
 Alpha virt. eigenvalues --    3.60550   3.61684   3.63047   3.63827   3.64851
 Alpha virt. eigenvalues --    3.65385   3.65973   3.66944   3.68758   3.69151
 Alpha virt. eigenvalues --    3.70529   3.71886   3.72340   3.75113   3.76525
 Alpha virt. eigenvalues --    3.76992   3.77751   3.80857   3.81432   3.83035
 Alpha virt. eigenvalues --    3.84966   3.85871   3.86825   3.88393   3.90006
 Alpha virt. eigenvalues --    3.91268   3.92184   3.93961   3.94691   3.95712
 Alpha virt. eigenvalues --    3.96491   3.97731   3.98076   3.99932   4.01311
 Alpha virt. eigenvalues --    4.02037   4.02861   4.04201   4.05522   4.06202
 Alpha virt. eigenvalues --    4.06644   4.08366   4.08912   4.09863   4.11027
 Alpha virt. eigenvalues --    4.11367   4.12299   4.13490   4.14446   4.15569
 Alpha virt. eigenvalues --    4.16833   4.17877   4.18737   4.19864   4.20235
 Alpha virt. eigenvalues --    4.20422   4.22774   4.24847   4.27672   4.29160
 Alpha virt. eigenvalues --    4.30087   4.31460   4.32540   4.32941   4.33456
 Alpha virt. eigenvalues --    4.34045   4.34764   4.36434   4.38082   4.38656
 Alpha virt. eigenvalues --    4.39038   4.41531   4.43829   4.44534   4.45417
 Alpha virt. eigenvalues --    4.46509   4.48248   4.48479   4.49057   4.50072
 Alpha virt. eigenvalues --    4.51743   4.52379   4.53698   4.54427   4.55454
 Alpha virt. eigenvalues --    4.56275   4.57924   4.58862   4.60316   4.60461
 Alpha virt. eigenvalues --    4.61533   4.62816   4.63440   4.65585   4.68670
 Alpha virt. eigenvalues --    4.69340   4.70625   4.71400   4.72831   4.73210
 Alpha virt. eigenvalues --    4.76381   4.79002   4.81475   4.83435   4.85681
 Alpha virt. eigenvalues --    4.88045   4.90649   4.91510   4.93476   4.94042
 Alpha virt. eigenvalues --    4.95121   4.96039   4.98018   5.00841   5.01399
 Alpha virt. eigenvalues --    5.04451   5.05994   5.06324   5.07848   5.09673
 Alpha virt. eigenvalues --    5.12393   5.13375   5.14613   5.15447   5.15953
 Alpha virt. eigenvalues --    5.16854   5.18855   5.19992   5.21524   5.23062
 Alpha virt. eigenvalues --    5.23843   5.25382   5.26349   5.27577   5.28140
 Alpha virt. eigenvalues --    5.28878   5.30198   5.30893   5.33846   5.36436
 Alpha virt. eigenvalues --    5.38055   5.39109   5.40803   5.41456   5.42328
 Alpha virt. eigenvalues --    5.45477   5.46625   5.50153   5.50791   5.54856
 Alpha virt. eigenvalues --    5.55876   5.57614   5.60140   5.62363   5.63056
 Alpha virt. eigenvalues --    5.64495   5.64790   5.65813   5.68011   5.68796
 Alpha virt. eigenvalues --    5.70676   5.72310   5.72520   5.73735   5.77082
 Alpha virt. eigenvalues --    5.78059   5.78923   5.80966   5.82693   5.83613
 Alpha virt. eigenvalues --    5.84413   5.84882   5.85686   5.86628   5.88094
 Alpha virt. eigenvalues --    5.89340   5.91178   5.91346   5.94804   5.94967
 Alpha virt. eigenvalues --    5.96598   5.97860   5.99962   6.01302   6.02236
 Alpha virt. eigenvalues --    6.03303   6.06312   6.07136   6.09576   6.10524
 Alpha virt. eigenvalues --    6.10787   6.12907   6.16653   6.20488   6.20776
 Alpha virt. eigenvalues --    6.22186   6.36155   6.36606   6.37699   6.38262
 Alpha virt. eigenvalues --    6.40492   6.45019   6.46855   6.48388   6.48911
 Alpha virt. eigenvalues --    6.49588   6.53851   6.54959   6.57771   6.61568
 Alpha virt. eigenvalues --    6.63523   6.68284   6.82699   6.83654   6.97326
 Alpha virt. eigenvalues --    6.99187   7.01892   7.02659   7.03417   7.04774
 Alpha virt. eigenvalues --    7.05572   7.06283   7.07175   7.08810   7.11027
 Alpha virt. eigenvalues --    7.11353   7.13289   7.14561   7.18040   7.21493
 Alpha virt. eigenvalues --    7.23567   7.28001   7.28315   7.31391   7.35392
 Alpha virt. eigenvalues --    7.36550   7.37405   7.40232   7.42461   7.42547
 Alpha virt. eigenvalues --    7.45111   7.48381   7.50399   7.53338   7.59433
 Alpha virt. eigenvalues --    7.61714   7.70777   7.71614   7.72469   7.74833
 Alpha virt. eigenvalues --    7.81951   7.84518   7.88793   7.91285   8.04433
 Alpha virt. eigenvalues --    8.07783  12.78958  23.58142  23.64707  23.67955
 Alpha virt. eigenvalues --   23.75789  23.80654  23.80817  44.31421  44.36685
 Alpha virt. eigenvalues --   44.46653  44.52716  44.56701  44.63148  44.73028
          Condensed to atoms (all electrons):
               1          2          3          4          5          6
     1  C    4.929653   0.382887   0.289186   0.246776  -0.074175  -0.012633
     2  H    0.382887   0.657337  -0.035719  -0.053977   0.010969   0.004971
     3  H    0.289186  -0.035719   0.818412  -0.042523   0.010554  -0.001203
     4  C    0.246776  -0.053977  -0.042523   4.926037   0.458479   0.334177
     5  H   -0.074175   0.010969   0.010554   0.458479   0.612353  -0.002494
     6  H   -0.012633   0.004971  -0.001203   0.334177  -0.002494   0.638656
     7  O    0.296422  -0.044255  -0.044520  -0.086118   0.002561   0.008291
     8  O   -0.057469   0.007358   0.010185   0.221959  -0.055552  -0.029896
     9  H    0.000977   0.001225  -0.000286  -0.093604   0.001898   0.013334
    10  Si   0.009763  -0.012913   0.000606  -0.005389  -0.021667  -0.004057
    11  O   -0.000245  -0.000391  -0.000018  -0.000130   0.000011   0.000066
    12  H   -0.058029   0.000067   0.005634   0.010521   0.004158  -0.000477
    13  O   -0.010681   0.021490   0.006839  -0.014198  -0.037352   0.001311
    14  O    0.000356  -0.000182   0.000004   0.000168   0.000093  -0.000401
    15  C    0.000209  -0.000257  -0.000008   0.000003  -0.000090  -0.000029
    16  H    0.000001  -0.000014  -0.000000   0.000005  -0.000004  -0.000001
    17  H    0.000027   0.000093   0.000002  -0.000026   0.000034  -0.000000
    18  C   -0.000019  -0.000192  -0.000000   0.000063  -0.000190  -0.000027
    19  H   -0.000003   0.000005   0.000000   0.000009  -0.000007  -0.000001
    20  H    0.000013  -0.000007   0.000000  -0.000006   0.000026  -0.000003
    21  O   -0.005960   0.002189  -0.000737  -0.007460   0.015850   0.001681
    22  C    0.001384   0.000581   0.000029  -0.005136   0.003693   0.000701
    23  H   -0.000018   0.000030   0.000024   0.000564  -0.000372   0.000056
    24  H    0.000028   0.000018  -0.000006  -0.000198   0.000627   0.000025
    25  C   -0.001302   0.000252   0.000035   0.003013  -0.001901  -0.000657
    26  O   -0.000817   0.000248  -0.000002  -0.001689   0.002649   0.000050
    27  H   -0.000035   0.000009   0.000001  -0.000230   0.000769   0.000006
    28  H    0.000191  -0.000083  -0.000009   0.001602  -0.001700   0.000328
               7          8          9         10         11         12
     1  C    0.296422  -0.057469   0.000977   0.009763  -0.000245  -0.058029
     2  H   -0.044255   0.007358   0.001225  -0.012913  -0.000391   0.000067
     3  H   -0.044520   0.010185  -0.000286   0.000606  -0.000018   0.005634
     4  C   -0.086118   0.221959  -0.093604  -0.005389  -0.000130   0.010521
     5  H    0.002561  -0.055552   0.001898  -0.021667   0.000011   0.004158
     6  H    0.008291  -0.029896   0.013334  -0.004057   0.000066  -0.000477
     7  O    8.064610   0.000679   0.010285   0.006124  -0.000077   0.347193
     8  O    0.000679   8.020869   0.310603   0.001050   0.000000  -0.000731
     9  H    0.010285   0.310603   0.612800  -0.000947  -0.000000  -0.000204
    10  Si   0.006124   0.001050  -0.000947  11.639447   0.327644  -0.010605
    11  O   -0.000077   0.000000  -0.000000   0.327644   8.055885   0.000736
    12  H    0.347193  -0.000731  -0.000204  -0.010605   0.000736   0.372352
    13  O   -0.005250   0.003649  -0.000569   0.693390  -0.027360  -0.004818
    14  O   -0.000007   0.000000  -0.000000   0.352628  -0.031202  -0.000075
    15  C   -0.000003  -0.000000  -0.000000  -0.073854   0.387199  -0.000109
    16  H    0.000000   0.000000  -0.000000  -0.005668  -0.051925  -0.000008
    17  H   -0.000003  -0.000000   0.000000   0.020692  -0.062467   0.000031
    18  C    0.000017   0.000000  -0.000000  -0.084300  -0.109573  -0.000070
    19  H    0.000000   0.000000  -0.000000   0.000395   0.006499  -0.000005
    20  H   -0.000000   0.000000  -0.000000   0.015340   0.009848   0.000009
    21  O   -0.044827  -0.000008   0.000049   0.210967  -0.039530   0.084592
    22  C    0.006394   0.000028   0.000195  -0.039861   0.002917  -0.005845
    23  H    0.003272  -0.000013  -0.000014   0.008298  -0.000444  -0.008886
    24  H   -0.000349   0.000000   0.000002  -0.017856   0.008962   0.001292
    25  C   -0.003234  -0.000263  -0.000091  -0.049205  -0.003613   0.007085
    26  O   -0.000029   0.000006   0.000004   0.313467  -0.019684   0.001244
    27  H    0.000008  -0.000002   0.000000  -0.006361   0.000366  -0.000030
    28  H    0.000176   0.000125   0.000067  -0.002522  -0.000454  -0.000610
              13         14         15         16         17         18
     1  C   -0.010681   0.000356   0.000209   0.000001   0.000027  -0.000019
     2  H    0.021490  -0.000182  -0.000257  -0.000014   0.000093  -0.000192
     3  H    0.006839   0.000004  -0.000008  -0.000000   0.000002  -0.000000
     4  C   -0.014198   0.000168   0.000003   0.000005  -0.000026   0.000063
     5  H   -0.037352   0.000093  -0.000090  -0.000004   0.000034  -0.000190
     6  H    0.001311  -0.000401  -0.000029  -0.000001  -0.000000  -0.000027
     7  O   -0.005250  -0.000007  -0.000003   0.000000  -0.000003   0.000017
     8  O    0.003649   0.000000  -0.000000   0.000000  -0.000000   0.000000
     9  H   -0.000569  -0.000000  -0.000000  -0.000000   0.000000  -0.000000
    10  Si   0.693390   0.352628  -0.073854  -0.005668   0.020692  -0.084300
    11  O   -0.027360  -0.031202   0.387199  -0.051925  -0.062467  -0.109573
    12  H   -0.004818  -0.000075  -0.000109  -0.000008   0.000031  -0.000070
    13  O    8.275115  -0.045212  -0.001808  -0.000328   0.001329   0.001584
    14  O   -0.045212   8.112734  -0.132412   0.009770   0.015513   0.390903
    15  C   -0.001808  -0.132412   4.843003   0.303509   0.362791   0.322077
    16  H   -0.000328   0.009770   0.303509   0.905740  -0.112327  -0.007776
    17  H    0.001329   0.015513   0.362791  -0.112327   0.871091  -0.076418
    18  C    0.001584   0.390903   0.322077  -0.007776  -0.076418   4.800756
    19  H   -0.000040  -0.054331  -0.015748   0.014902  -0.023596   0.313726
    20  H   -0.000791  -0.063038  -0.102820  -0.014879   0.026165   0.328460
    21  O   -0.057080   0.000219   0.003205  -0.000041  -0.000140  -0.000126
    22  C   -0.002588  -0.000527   0.001811  -0.000208   0.000206  -0.002042
    23  H   -0.000696  -0.000001   0.000096  -0.000032   0.000003   0.000005
    24  H   -0.000592   0.000060  -0.000422  -0.000411   0.000147  -0.000498
    25  C   -0.005076   0.001292  -0.001216   0.000415  -0.000090  -0.000432
    26  O   -0.027881  -0.045414  -0.005067   0.000190  -0.000269  -0.006665
    27  H   -0.000440  -0.000020   0.000281  -0.000035   0.000011   0.000029
    28  H    0.000756  -0.000364  -0.000172   0.000004  -0.000009  -0.000000
              19         20         21         22         23         24
     1  C   -0.000003   0.000013  -0.005960   0.001384  -0.000018   0.000028
     2  H    0.000005  -0.000007   0.002189   0.000581   0.000030   0.000018
     3  H    0.000000   0.000000  -0.000737   0.000029   0.000024  -0.000006
     4  C    0.000009  -0.000006  -0.007460  -0.005136   0.000564  -0.000198
     5  H   -0.000007   0.000026   0.015850   0.003693  -0.000372   0.000627
     6  H   -0.000001  -0.000003   0.001681   0.000701   0.000056   0.000025
     7  O    0.000000  -0.000000  -0.044827   0.006394   0.003272  -0.000349
     8  O    0.000000   0.000000  -0.000008   0.000028  -0.000013   0.000000
     9  H   -0.000000  -0.000000   0.000049   0.000195  -0.000014   0.000002
    10  Si   0.000395   0.015340   0.210967  -0.039861   0.008298  -0.017856
    11  O    0.006499   0.009848  -0.039530   0.002917  -0.000444   0.008962
    12  H   -0.000005   0.000009   0.084592  -0.005845  -0.008886   0.001292
    13  O   -0.000040  -0.000791  -0.057080  -0.002588  -0.000696  -0.000592
    14  O   -0.054331  -0.063038   0.000219  -0.000527  -0.000001   0.000060
    15  C   -0.015748  -0.102820   0.003205   0.001811   0.000096  -0.000422
    16  H    0.014902  -0.014879  -0.000041  -0.000208  -0.000032  -0.000411
    17  H   -0.023596   0.026165  -0.000140   0.000206   0.000003   0.000147
    18  C    0.313726   0.328460  -0.000126  -0.002042   0.000005  -0.000498
    19  H    0.924346  -0.122338  -0.000006  -0.000047  -0.000000  -0.000009
    20  H   -0.122338   0.963305   0.000360   0.000405  -0.000002   0.000499
    21  O   -0.000006   0.000360   8.227647   0.357361  -0.056846  -0.048932
    22  C   -0.000047   0.000405   0.357361   4.777889   0.352204   0.366531
    23  H   -0.000000  -0.000002  -0.056846   0.352204   0.855077  -0.096697
    24  H   -0.000009   0.000499  -0.048932   0.366531  -0.096697   0.883328
    25  C    0.000039   0.000421  -0.114315   0.270313  -0.034253  -0.090800
    26  O   -0.000700   0.011258  -0.021243  -0.103776   0.007112   0.011143
    27  H   -0.000032  -0.000105   0.008092  -0.011700   0.010598  -0.010883
    28  H    0.000003   0.000106   0.012532  -0.068986  -0.016164   0.021618
              25         26         27         28
     1  C   -0.001302  -0.000817  -0.000035   0.000191
     2  H    0.000252   0.000248   0.000009  -0.000083
     3  H    0.000035  -0.000002   0.000001  -0.000009
     4  C    0.003013  -0.001689  -0.000230   0.001602
     5  H   -0.001901   0.002649   0.000769  -0.001700
     6  H   -0.000657   0.000050   0.000006   0.000328
     7  O   -0.003234  -0.000029   0.000008   0.000176
     8  O   -0.000263   0.000006  -0.000002   0.000125
     9  H   -0.000091   0.000004   0.000000   0.000067
    10  Si  -0.049205   0.313467  -0.006361  -0.002522
    11  O   -0.003613  -0.019684   0.000366  -0.000454
    12  H    0.007085   0.001244  -0.000030  -0.000610
    13  O   -0.005076  -0.027881  -0.000440   0.000756
    14  O    0.001292  -0.045414  -0.000020  -0.000364
    15  C   -0.001216  -0.005067   0.000281  -0.000172
    16  H    0.000415   0.000190  -0.000035   0.000004
    17  H   -0.000090  -0.000269   0.000011  -0.000009
    18  C   -0.000432  -0.006665   0.000029  -0.000000
    19  H    0.000039  -0.000700  -0.000032   0.000003
    20  H    0.000421   0.011258  -0.000105   0.000106
    21  O   -0.114315  -0.021243   0.008092   0.012532
    22  C    0.270313  -0.103776  -0.011700  -0.068986
    23  H   -0.034253   0.007112   0.010598  -0.016164
    24  H   -0.090800   0.011143  -0.010883   0.021618
    25  C    4.836050   0.376922   0.332279   0.377119
    26  O    0.376922   8.069558  -0.049119  -0.060420
    27  H    0.332279  -0.049119   0.854374  -0.098400
    28  H    0.377119  -0.060420  -0.098400   0.849261
 Mulliken charges:
               1
     1  C    0.063512
     2  H    0.058261
     3  H   -0.016479
     4  C    0.107307
     5  H    0.070782
     6  H    0.048226
     7  O   -0.517360
     8  O   -0.432578
     9  H    0.144277
    10  Si   0.735394
    11  O   -0.453022
    12  H    0.255587
    13  O   -0.762703
    14  O   -0.510551
    15  C    0.109830
    16  H   -0.040879
    17  H   -0.022789
    18  C    0.130708
    19  H   -0.043062
    20  H   -0.052228
    21  O   -0.527493
    22  C    0.098076
    23  H   -0.022901
    24  H   -0.026628
    25  C    0.101215
    26  O   -0.451076
    27  H   -0.029431
    28  H   -0.013997
 Sum of Mulliken charges =  -2.00000
 Mulliken charges with hydrogens summed into heavy atoms:
               1
     1  C    0.105295
     4  C    0.226315
     7  O   -0.261773
     8  O   -0.288301
    10  Si   0.735394
    11  O   -0.453022
    13  O   -0.762703
    14  O   -0.510551
    15  C    0.046162
    18  C    0.035419
    21  O   -0.527493
    22  C    0.048547
    25  C    0.057787
    26  O   -0.451076
 Electronic spatial extent (au):  <R**2>=           3430.5944
 Charge=             -2.0000 electrons
 Dipole moment (field-independent basis, Debye):
    X=             -0.7724    Y=              3.4573    Z=              0.6725  Tot=              3.6058
 Quadrupole moment (field-independent basis, Debye-Ang):
   XX=           -147.4354   YY=           -113.1908   ZZ=           -119.0520
   XY=              3.1934   XZ=             -2.5328   YZ=             -5.2042
 Traceless Quadrupole moment (field-independent basis, Debye-Ang):
   XX=            -20.8760   YY=             13.3686   ZZ=              7.5074
   XY=              3.1934   XZ=             -2.5328   YZ=             -5.2042
 Octapole moment (field-independent basis, Debye-Ang**2):
  XXX=            -42.0440  YYY=             -6.0424  ZZZ=             -3.5345  XYY=             12.1770
  XXY=             41.4690  XXZ=             15.8758  XZZ=             -7.3329  YZZ=             -2.3899
  YYZ=              6.6459  XYZ=             -9.1210
 Hexadecapole moment (field-independent basis, Debye-Ang**3):
 XXXX=          -3605.7707 YYYY=          -1127.6723 ZZZZ=           -699.4785 XXXY=             92.1458
 XXXZ=             79.6498 YYYX=             -6.2822 YYYZ=              5.7692 ZZZX=            -10.2129
 ZZZY=              5.6253 XXYY=           -718.6215 XXZZ=           -765.5786 YYZZ=           -303.1139
 XXYZ=            -45.7820 YYXZ=             -9.4042 ZZXY=             -1.4944
 N-N= 1.200119566435D+03 E-N=-4.925279495060D+03  KE= 1.049639467542D+03
   1 Symmetry operations used in ECPInt.
 ECPInt:  NShTT=   29161 NPrTT=   80163 LenC2=   26390 LenP2D=   54397.
 LDataN:  DoStor=T MaxTD1= 7 Len=  274
 Calling FoFJK, ICntrl=      2127 FMM=F ISym2X=0 I1Cent= 0 IOpClX= 0 NMat=1 NMatS=1 NMatT=0.
 ***** Axes restored to original set *****
 -------------------------------------------------------------------
 Center     Atomic                   Forces (Hartrees/Bohr)
 Number     Number              X              Y              Z
 -------------------------------------------------------------------
      1        6           0.005514165    0.001156676   -0.002230959
      2        1          -0.000945777   -0.000228525   -0.001017258
      3        1           0.001205461   -0.000849991    0.001719636
      4        6           0.008790143    0.001056320   -0.000702803
      5        1           0.002531075   -0.002213103    0.000634269
      6        1           0.002264136    0.001523334    0.000856824
      7        8           0.002056036    0.000424318   -0.003259940
      8        8           0.003802127    0.003113128    0.002234320
      9        1          -0.000413924   -0.000796186   -0.000269834
     10       14          -0.004955530   -0.002471102   -0.000114597
     11        8          -0.002844995    0.001912480   -0.000528806
     12        1           0.000108998   -0.000179028   -0.000442714
     13        8          -0.005416586   -0.005567470    0.002741397
     14        8          -0.005700267    0.001895842   -0.002367468
     15        6          -0.001357547   -0.000026916    0.000284895
     16        1          -0.000146223   -0.000163249    0.000150921
     17        1           0.000059789   -0.000011012   -0.000060933
     18        6          -0.003386101    0.000566762    0.000468500
     19        1          -0.000381074    0.000033660    0.000139537
     20        1          -0.000472823    0.000048221    0.000182919
     21        8           0.000230922    0.000558786    0.000849931
     22        6           0.000114321    0.000270538    0.000123669
     23        1          -0.000017510    0.000106064   -0.000043669
     24        1          -0.000002201    0.000059744   -0.000005224
     25        6          -0.000002512   -0.000169674    0.000144842
     26        8          -0.000670156   -0.000001995    0.000487477
     27        1           0.000037682    0.000014578   -0.000005760
     28        1          -0.000001630   -0.000062200    0.000030828
 -------------------------------------------------------------------
 Cartesian Forces:  Max     0.008790143 RMS     0.002060188

 GradGradGradGradGradGradGradGradGradGradGradGradGradGradGradGradGradGrad
 Berny optimization.
 FormGI is forming the generalized inverse of G from B-inverse, IUseBI=4.
 Internal  Forces:  Max     0.092247886 RMS     0.013201265
 Search for a local minimum.
 Step number   1 out of a maximum of  163
 All quantities printed in internal units (Hartrees-Bohrs-Radians)
 Mixed Optimization -- RFO/linear search
 Second derivative matrix not updated -- first step.
 ITU=  0
     Eigenvalues ---    0.00230   0.00230   0.00230   0.00354   0.00875
     Eigenvalues ---    0.00991   0.01073   0.01420   0.01499   0.02072
     Eigenvalues ---    0.02119   0.04396   0.04646   0.04763   0.04768
     Eigenvalues ---    0.04777   0.04930   0.05666   0.05992   0.06033
     Eigenvalues ---    0.06056   0.06313   0.06420   0.07027   0.07424
     Eigenvalues ---    0.08907   0.08960   0.09098   0.10195   0.10458
     Eigenvalues ---    0.11026   0.11137   0.11264   0.11279   0.11310
     Eigenvalues ---    0.11535   0.11689   0.12804   0.13114   0.13472
     Eigenvalues ---    0.13873   0.14050   0.16000   0.16000   0.18741
     Eigenvalues ---    0.19571   0.20445   0.21332   0.21778   0.22004
     Eigenvalues ---    0.22204   0.24719   0.27628   0.28125   0.29316
     Eigenvalues ---    0.29379   0.29968   0.32076   0.32500   0.32776
     Eigenvalues ---    0.32913   0.32923   0.33083   0.33088   0.33135
     Eigenvalues ---    0.33716   0.34901   0.35056   0.35289   0.36750
     Eigenvalues ---    0.43289   0.46087   0.46670   0.49300   0.49775
     Eigenvalues ---    0.50658   0.55945   0.60494
 RFO step:  Lambda=-1.38425421D-01 EMin= 2.30000000D-03
 Linear search not attempted -- first point.
 Maximum step size (   0.300) exceeded in Quadratic search.
    -- Step size scaled by   0.385
 Iteration  1 RMS(Cart)=  0.20707290 RMS(Int)=  0.01567182
 Iteration  2 RMS(Cart)=  0.18592710 RMS(Int)=  0.00639910
 Iteration  3 RMS(Cart)=  0.01525558 RMS(Int)=  0.00038866
 Iteration  4 RMS(Cart)=  0.00008325 RMS(Int)=  0.00038538
 Iteration  5 RMS(Cart)=  0.00000004 RMS(Int)=  0.00038538
 Variable       Old X    -DE/DX   Delta X   Delta X   Delta X     New X
                                 (Linear)    (Quad)   (Total)
    R1        2.05584   0.00055   0.00000   0.00043   0.00043   2.05627
    R2        2.07813   0.00178   0.00000   0.00144   0.00144   2.07956
    R3        2.89349  -0.00240   0.00000  -0.00214  -0.00215   2.89134
    R4        2.67315  -0.00042   0.00000  -0.00028  -0.00026   2.67289
    R5        2.05836  -0.00336   0.00000  -0.00265  -0.00265   2.05570
    R6        2.05208  -0.00245   0.00000  -0.00192  -0.00192   2.05016
    R7        2.76225   0.00270   0.00000   0.00205   0.00205   2.76430
    R8        1.86792   0.02151   0.00000   0.01302   0.01295   1.88087
    R9        1.81002  -0.00092   0.00000  -0.00051  -0.00051   1.80951
   R10        3.30594   0.00305   0.00000   0.00297   0.00297   3.30891
   R11        2.94251  -0.00061   0.00000  -0.00032  -0.00032   2.94220
   R12        3.42017   0.00621   0.00000   0.00659   0.00659   3.42677
   R13        3.56247   0.01720   0.00000   0.01976   0.01996   3.58243
   R14        3.31854  -0.00157   0.00000  -0.00135  -0.00146   3.31707
   R15        2.61014   0.00119   0.00000   0.00056   0.00056   2.61070
   R16        3.21046   0.02065   0.00000   0.03737   0.03741   3.24786
   R17        2.57089   0.00349   0.00000   0.00202   0.00201   2.57290
   R18        2.08906   0.00012   0.00000   0.00010   0.00010   2.08916
   R19        2.09205  -0.00001   0.00000  -0.00000  -0.00000   2.09204
   R20        2.89841   0.00021   0.00000  -0.00051  -0.00050   2.89791
   R21        2.09447   0.00016   0.00000   0.00013   0.00013   2.09460
   R22        2.10704   0.00020   0.00000   0.00017   0.00017   2.10721
   R23        2.58470   0.00335   0.00000   0.00163   0.00178   2.58648
   R24        2.08897   0.00005   0.00000   0.00004   0.00004   2.08900
   R25        2.09939   0.00002   0.00000   0.00001   0.00001   2.09940
   R26        2.89332  -0.00252   0.00000  -0.00183  -0.00188   2.89144
   R27        2.60909  -0.00262   0.00000  -0.00192  -0.00215   2.60694
   R28        2.08814  -0.00001   0.00000  -0.00001  -0.00001   2.08814
   R29        2.09187  -0.00002   0.00000  -0.00002  -0.00002   2.09185
    A1        1.92207  -0.00022   0.00000  -0.00018  -0.00008   1.92200
    A2        1.89089   0.01120   0.00000   0.01789   0.01785   1.90874
    A3        1.93369   0.00190   0.00000   0.00622   0.00611   1.93980
    A4        1.86526  -0.01010   0.00000  -0.01709  -0.01713   1.84813
    A5        1.85797  -0.00060   0.00000  -0.00528  -0.00543   1.85254
    A6        1.99225  -0.00294   0.00000  -0.00300  -0.00305   1.98920
    A7        1.92199   0.00165   0.00000   0.00159   0.00159   1.92358
    A8        1.93772   0.00190   0.00000   0.00252   0.00252   1.94024
    A9        1.95118  -0.00628   0.00000  -0.00706  -0.00707   1.94411
   A10        1.87356  -0.00020   0.00000   0.00082   0.00081   1.87437
   A11        1.91771   0.00092   0.00000  -0.00007  -0.00007   1.91764
   A12        1.85920   0.00225   0.00000   0.00251   0.00252   1.86172
   A13        1.84787   0.08123   0.00000   0.10477   0.10473   1.95260
   A14        1.83273  -0.00030   0.00000  -0.00038  -0.00038   1.83235
   A15        2.14486  -0.00055   0.00000  -0.00127  -0.00127   2.14359
   A16        1.52803  -0.00308   0.00000  -0.00445  -0.00444   1.52359
   A17        1.48848  -0.00292   0.00000  -0.00483  -0.00496   1.48352
   A18        1.95674  -0.00136   0.00000  -0.00331  -0.00331   1.95343
   A19        1.68794   0.00205   0.00000   0.00390   0.00390   1.69185
   A20        1.67999   0.00692   0.00000   0.01111   0.01108   1.69106
   A21        2.18023   0.00218   0.00000   0.00500   0.00497   2.18520
   A22        1.53293  -0.00437   0.00000  -0.00786  -0.00798   1.52494
   A23        1.48149   0.00010   0.00000  -0.00021   0.00003   1.48152
   A24        1.99798   0.00277   0.00000   0.00361   0.00361   2.00159
   A25        1.94787   0.00135   0.00000   0.00248   0.00248   1.95035
   A26        1.93260   0.00031   0.00000   0.00029   0.00029   1.93289
   A27        1.93918   0.00010   0.00000   0.00038   0.00038   1.93957
   A28        1.86489  -0.00055   0.00000  -0.00102  -0.00102   1.86386
   A29        1.87312  -0.00012   0.00000  -0.00011  -0.00011   1.87302
   A30        1.94952  -0.00068   0.00000  -0.00065  -0.00065   1.94887
   A31        1.90527   0.00096   0.00000   0.00113   0.00114   1.90641
   A32        1.85062  -0.00087   0.00000  -0.00127  -0.00127   1.84935
   A33        1.95585   0.00045   0.00000   0.00061   0.00061   1.95646
   A34        1.96738   0.00057   0.00000   0.00096   0.00096   1.96833
   A35        1.93233  -0.00000   0.00000  -0.00006  -0.00006   1.93228
   A36        1.89622   0.00002   0.00000  -0.00002  -0.00001   1.89621
   A37        1.86173  -0.00017   0.00000  -0.00023  -0.00023   1.86150
   A38        1.97348   0.04938   0.00000   0.07066   0.07088   2.04436
   A39        1.95640  -0.01183   0.00000  -0.01308  -0.01345   1.94294
   A40        2.20522  -0.03651   0.00000  -0.05305  -0.05321   2.15200
   A41        1.95610  -0.00603   0.00000  -0.00616  -0.00622   1.94989
   A42        1.95343   0.00141   0.00000   0.00298   0.00286   1.95629
   A43        1.84366   0.00799   0.00000   0.00631   0.00663   1.85028
   A44        1.87061   0.00116   0.00000   0.00029   0.00034   1.87095
   A45        1.93774   0.00161   0.00000   0.00131   0.00112   1.93886
   A46        1.90276  -0.00625   0.00000  -0.00475  -0.00474   1.89802
   A47        1.86994  -0.00470   0.00000  -0.00471  -0.00468   1.86526
   A48        1.94815  -0.00013   0.00000  -0.00095  -0.00095   1.94720
   A49        1.90270   0.00240   0.00000   0.00308   0.00305   1.90575
   A50        1.93220  -0.00183   0.00000  -0.00368  -0.00367   1.92853
   A51        1.94033   0.00492   0.00000   0.00650   0.00646   1.94679
   A52        1.87121  -0.00044   0.00000   0.00002   0.00003   1.87124
   A53        2.04148   0.00459   0.00000   0.00344   0.00335   2.04483
   A54        3.01651  -0.00599   0.00000  -0.00928  -0.00940   3.00710
   A55        3.07905   0.09225   0.00000   0.25160   0.25040   3.32944
   A56        3.33041   0.00682   0.00000   0.01191   0.01180   3.34220
   A57        3.17592   0.02270   0.00000   0.06244   0.06286   3.23878
    D1        1.64286   0.00346   0.00000   0.00687   0.00692   1.64977
    D2       -0.42973   0.00145   0.00000   0.00325   0.00329  -0.42643
    D3       -2.50328   0.00148   0.00000   0.00305   0.00310  -2.50018
    D4       -2.56962   0.00361   0.00000   0.00679   0.00672  -2.56290
    D5        1.64098   0.00160   0.00000   0.00317   0.00310   1.64408
    D6       -0.43257   0.00164   0.00000   0.00297   0.00290  -0.42967
    D7       -0.52046  -0.00551   0.00000  -0.01278  -0.01276  -0.53322
    D8       -2.59304  -0.00752   0.00000  -0.01640  -0.01638  -2.60942
    D9        1.61659  -0.00748   0.00000  -0.01660  -0.01658   1.60002
   D10       -1.04096   0.01470   0.00000   0.03957   0.03954  -1.00142
   D11       -3.13065   0.01426   0.00000   0.03953   0.03953  -3.09112
   D12        1.09918   0.02880   0.00000   0.06582   0.06577   1.16495
   D13       -1.02236   0.00060   0.00000   0.00128   0.00128  -1.02109
   D14        1.11713  -0.00094   0.00000  -0.00157  -0.00156   1.11557
   D15        3.14126   0.00052   0.00000   0.00074   0.00074  -3.14118
   D16        0.16661   0.04541   0.00000   0.12620   0.12906   0.29567
   D17       -2.33892   0.01417   0.00000   0.03676   0.03371  -2.30521
   D18       -1.60072   0.00108   0.00000   0.00099   0.00098  -1.59974
   D19        0.08195   0.00152   0.00000   0.00273   0.00272   0.08468
   D20        3.03473  -0.00531   0.00000  -0.00918  -0.00907   3.02566
   D21        1.59442  -0.00438   0.00000  -0.00737  -0.00749   1.58694
   D22        0.34160  -0.00084   0.00000  -0.00137  -0.00136   0.34024
   D23        2.48552  -0.00168   0.00000  -0.00305  -0.00305   2.48247
   D24       -1.61755   0.00008   0.00000   0.00120   0.00116  -1.61640
   D25        2.01891   0.01183   0.00000   0.01906   0.01941   2.03833
   D26       -1.64190   0.00096   0.00000   0.00800   0.00762  -1.63428
   D27       -0.12126   0.01280   0.00000   0.02102   0.02140  -0.09986
   D28        2.50111   0.00193   0.00000   0.00996   0.00961   2.51071
   D29       -2.29652   0.01083   0.00000   0.01637   0.01671  -2.27981
   D30        0.32585  -0.00005   0.00000   0.00531   0.00492   0.33077
   D31        1.54421  -0.00170   0.00000  -0.00550  -0.00541   1.53880
   D32       -1.54255  -0.00719   0.00000  -0.01383  -0.01388  -1.55642
   D33        3.05339  -0.00673   0.00000  -0.01332  -0.01324   3.04014
   D34        0.09923   0.00124   0.00000  -0.00062  -0.00049   0.09874
   D35       -2.55308  -0.00103   0.00000  -0.00198  -0.00199  -2.55506
   D36        1.65028  -0.00114   0.00000  -0.00229  -0.00229   1.64798
   D37       -0.42640  -0.00203   0.00000  -0.00326  -0.00326  -0.42966
   D38       -0.61962  -0.00008   0.00000  -0.00012  -0.00012  -0.61975
   D39       -2.72975   0.00022   0.00000   0.00042   0.00041  -2.72934
   D40        1.45294  -0.00029   0.00000  -0.00041  -0.00042   1.45253
   D41        0.66172   0.00032   0.00000   0.00066   0.00066   0.66238
   D42        2.78698   0.00032   0.00000   0.00058   0.00058   2.78756
   D43       -1.45724   0.00012   0.00000   0.00026   0.00026  -1.45698
   D44        2.77769  -0.00007   0.00000  -0.00003  -0.00003   2.77766
   D45       -1.38024  -0.00007   0.00000  -0.00011  -0.00011  -1.38035
   D46        0.65873  -0.00026   0.00000  -0.00043  -0.00043   0.65830
   D47       -1.43684  -0.00001   0.00000   0.00017   0.00017  -1.43667
   D48        0.68842  -0.00001   0.00000   0.00009   0.00009   0.68851
   D49        2.72739  -0.00021   0.00000  -0.00023  -0.00023   2.72715
   D50       -2.71863  -0.00784   0.00000  -0.01299  -0.01252  -2.73114
   D51        1.46231  -0.00608   0.00000  -0.01112  -0.01058   1.45173
   D52       -0.60621  -0.00418   0.00000  -0.01086  -0.01048  -0.61669
   D53       -0.17966   0.01204   0.00000   0.02126   0.02060  -0.15906
   D54       -2.28191   0.01379   0.00000   0.02313   0.02254  -2.25938
   D55        1.93275   0.01569   0.00000   0.02339   0.02264   1.95539
   D56        0.65865   0.00740   0.00000   0.01310   0.01303   0.67168
   D57        2.77660   0.00200   0.00000   0.00493   0.00492   2.78152
   D58       -1.44278   0.00290   0.00000   0.00633   0.00632  -1.43646
   D59        2.78295   0.00599   0.00000   0.01032   0.01028   2.79323
   D60       -1.38228   0.00059   0.00000   0.00214   0.00217  -1.38012
   D61        0.68153   0.00149   0.00000   0.00355   0.00356   0.68509
   D62       -1.44334   0.00451   0.00000   0.00852   0.00843  -1.43491
   D63        0.67461  -0.00089   0.00000   0.00035   0.00032   0.67493
   D64        2.73842   0.00001   0.00000   0.00175   0.00172   2.74013
   D65       -0.44505  -0.00321   0.00000  -0.00469  -0.00463  -0.44968
   D66       -2.57303   0.00104   0.00000   0.00168   0.00166  -2.57136
   D67        1.63224  -0.00039   0.00000  -0.00016  -0.00015   1.63210
         Item               Value     Threshold  Converged?
 Maximum Force            0.092248     0.000450     NO 
 RMS     Force            0.013201     0.000300     NO 
 Maximum Displacement     1.939656     0.001800     NO 
 RMS     Displacement     0.382186     0.001200     NO 
 Predicted change in Energy=-5.127536D-02
 GradGradGradGradGradGradGradGradGradGradGradGradGradGradGradGradGradGrad

                          Input orientation:                          
 ---------------------------------------------------------------------
 Center     Atomic      Atomic             Coordinates (Angstroms)
 Number     Number       Type             X           Y           Z
 ---------------------------------------------------------------------
      1          6           0        3.118056   -1.004331    0.823569
      2          1           0        2.481299   -1.882071    0.913789
      3          1           0        4.079108   -1.180143    1.330002
      4          6           0        3.457363   -0.773115   -0.650338
      5          1           0        2.759720   -0.063501   -1.089792
      6          1           0        3.383807   -1.694432   -1.218467
      7          8           0        2.536281    0.115784    1.461922
      8          8           0        4.827958   -0.288407   -0.812586
      9          1           0        4.866029    0.521642   -0.303391
     10         14           0       -1.091146   -0.250429   -0.231629
     11          8           0       -2.091162   -0.211825    1.205201
     12          1           0        1.633712    0.323145    1.097206
     13          8           0       -0.044206   -1.370839   -0.501209
     14          8           0       -2.485070   -1.045466   -1.076135
     15          6           0       -3.312304   -0.844722    1.075367
     16          1           0       -4.085305   -0.331379    1.676331
     17          1           0       -3.259141   -1.891504    1.431750
     18          6           0       -3.658802   -0.836763   -0.418462
     19          1           0       -4.411211   -1.616906   -0.650508
     20          1           0       -4.126600    0.143528   -0.670691
     21          8           0        0.057042    0.905272    0.737828
     22          6           0       -0.215438    2.219069    0.467548
     23          1           0        0.657428    2.867364    0.667161
     24          1           0       -1.058306    2.605361    1.079575
     25          6           0       -0.614660    2.272330   -1.008577
     26          8           0       -1.368082    1.144504   -1.260520
     27          1           0       -1.194052    3.184343   -1.239989
     28          1           0        0.299620    2.298039   -1.632104
 ---------------------------------------------------------------------
                    Distance matrix (angstroms):
                    1          2          3          4          5
     1  C    0.000000
     2  H    1.088130   0.000000
     3  H    1.100457   1.794137   0.000000
[...]
 0.00461117,-0.00478341,0.00075086,0.00048308,0.00389107,0.00743816,-0.
 00193090,0.00039690,-0.00254533,-0.00159103,-0.00116387,0.00024654,0.0
 0048309,-0.00073773,-0.00027924,-0.00001286,-0.00051751,0.00004976,0.0
 0012164,0.00005150,0.00016771,-0.00001811,0.00056625,-0.00065046,-0.00
 008428,-0.00007142,0.00009763,-0.00002248,-0.00014930,0.00033795,-0.00
 018060,-0.09039015,0.02071168,-0.01755635,0.56152375,0.00066383,-0.002
 61552,-0.00182872,0.00045437,-0.00035463,0.00004999,-0.00066107,0.0007
 7024,0.00028585,0.00067779,0.00087752,-0.00000151,0.00012861,0.0001263
 5,-0.00033358,-0.00036072,-0.00000935,0.00022168,-0.01375801,0.0032351
 1,-0.00024176,-0.00102848,-0.00138333,0.00115046,0.00056249,0.00126385
 ,-0.00112436,-0.02336944,-0.03037266,-0.01935061,0.00859789,-0.0000903
 4,-0.00019510,0.02026216,-0.00650924,0.00375817,0.00104086,0.00389654,
 0.00140846,0.00138878,-0.00042223,0.00128402,-0.00123793,0.00058205,-0
 .00044423,0.00097143,-0.00012518,-0.00020516,0.00065439,0.00046778,-0.
 00008768,-0.00035821,0.00077090,-0.00014087,0.00026627,0.00006587,0.00
 026668,0.00029350,-0.00047886,0.00022110,0.01395208,-0.24386496,0.0545
 5871,0.02830520,0.53575677,-0.00028999,0.00062554,0.00065514,-0.000295
 95,0.00005153,-0.00009172,0.00018266,-0.00017481,-0.00014410,0.0003233
 4,-0.00018859,0.00034720,-0.00013923,-0.00006906,-0.00007649,-0.000007
 46,0.00003585,-0.00012545,0.00337952,-0.00120323,0.00030802,0.00005774
 ,0.00023885,-0.00047610,-0.00019148,-0.00016521,0.00039697,0.00741285,
 -0.00072222,0.01198129,-0.00173848,-0.00100769,-0.00084833,-0.00461108
 ,0.00267176,-0.00196471,-0.00075295,-0.00494800,-0.00301547,0.00036843
 ,0.00087788,-0.00098328,0.00073999,0.00016112,0.00037056,-0.00021119,0
 .00004487,-0.00000861,-0.00024746,-0.00023103,-0.00000067,-0.00021162,
 -0.00000422,0.00031028,0.00000965,-0.00002297,-0.00013852,-0.00011769,
 0.00011243,-0.00004390,-0.01200538,0.07248720,-0.09525198,-0.00807353,
 0.03426865,0.45630051,0.00020978,0.00010028,0.00019347,-0.00022239,0.0
 0004035,-0.00002654,0.00008298,-0.00013865,-0.00004923,-0.00027055,-0.
 00026380,-0.00005741,0.00001540,-0.00005087,0.00003876,0.00004621,0.00
 002946,0.00000516,0.00188795,-0.00016047,0.00010514,0.00024928,0.00044
 352,-0.00010523,-0.00001214,-0.00033449,0.00011912,0.00073580,0.003077
 88,0.00077278,-0.00042349,-0.00085309,0.00011457,-0.00228673,0.0004565
 0,-0.00038016,0.00041993,-0.00074666,-0.00003323,-0.00031593,-0.000241
 16,-0.00011269,0.00063240,0.00032612,0.00002910,-0.00012299,0.00008463
 ,0.00002142,-0.00011138,-0.00017700,0.00005472,0.00019052,0.00004711,-
 0.00002945,-0.00011527,-0.00010229,-0.00002578,0.00001416,0.00001494,0
 .00001342,0.01176297,-0.00392249,0.00377257,-0.19859851,-0.09300709,-0
 .04025887,0.21135644,0.00020806,-0.00007904,-0.00025222,-0.00051731,0.
 00008500,-0.00002560,0.00002953,0.00004852,0.00003001,-0.00028300,-0.0
 0032769,0.00001156,-0.00003502,-0.00005113,0.00003507,-0.00000163,0.00
 005637,0.00003832,0.00196249,0.00088875,0.00024020,0.00017567,0.000523
 52,-0.00005041,0.00020215,-0.00035281,0.00006384,0.00569482,0.00329031
 ,0.00607057,-0.00242618,-0.00038681,0.00033430,-0.00426164,-0.00069385
 ,-0.00037744,0.00062623,-0.00262066,-0.00127733,-0.00053957,-0.0000694
 1,-0.00021969,0.00030247,0.00030808,0.00020695,-0.00030711,0.00003963,
 0.00004511,-0.00012175,-0.00015783,0.00004210,0.00024998,-0.00014648,0
 .00000584,-0.00012680,-0.00006172,-0.00005405,-0.00005763,0.00011845,-
 0.00004091,-0.02425043,-0.04101124,-0.00344459,-0.08958070,-0.10304347
 ,-0.02631270,0.11007893,0.13499649,0.00009251,-0.00004061,0.00004575,-
 0.00001746,-0.00001034,-0.00001447,0.00000477,-0.00001805,-0.00001791,
 -0.00005160,-0.00013419,-0.00001932,-0.00003506,-0.00000474,-0.0000130
 3,-0.00000781,0.00002804,-0.00000145,0.00009849,-0.00005244,-0.0003961
 9,0.00001233,0.00019318,-0.00003805,0.00007693,-0.00011627,0.00010944,
 -0.00146728,0.00097645,-0.00403659,0.00008671,0.00029831,0.00044698,0.
 00011676,0.00012300,0.00048996,0.00017568,0.00018091,0.00066981,-0.000
 41420,-0.00038293,0.00041553,-0.00008330,-0.00014610,-0.00004634,0.000
 00668,0.00000965,0.00003084,0.00001236,0.00001745,0.00000877,0.0002848
 4,-0.00009148,-0.00014571,-0.00006217,-0.00001721,0.00003173,0.0000257
 2,0.00003686,-0.00002161,0.01073358,0.01245325,0.00531472,-0.03672108,
 -0.02542975,-0.06085374,0.04117652,0.02675653,0.06023220,0.00042735,-0
 .00058386,-0.00036676,0.00007159,-0.00003453,0.00003811,-0.00016533,0.
 00013109,0.00000326,0.00005961,-0.00004929,-0.00001344,0.00000391,-0.0
 0001061,-0.00009833,-0.00008109,0.00006838,0.00006110,-0.00186933,0.00
 064199,-0.00016682,-0.00023825,0.00004377,0.00015185,0.00029294,-0.000
 02128,-0.00012098,-0.00475732,-0.00248937,-0.00206989,0.00205320,-0.00
 070587,-0.00038228,0.00302058,-0.00065827,0.00110780,0.00064819,0.0013
 2513,0.00053328,0.00081836,-0.00001702,-0.00006872,-0.00019070,0.00030
 768,0.00000048,0.00029284,-0.00005065,-0.00008420,0.00011291,0.0000426
 6,-0.00000749,-0.00032795,0.00035637,0.00009559,0.00009889,-0.00000644
 ,0.00003538,0.00009062,-0.00018934,0.00009468,-0.00011044,0.01976258,-
 0.00449977,-0.18801374,0.05718256,0.07739849,-0.02256881,0.00686288,0.
 01243508,0.20508770,-0.00038916,0.00068220,0.00042264,-0.00017411,0.00
 010935,-0.00001997,0.00016529,-0.00015981,-0.00002520,-0.00015360,-0.0
 0013452,-0.00000539,0.00000148,-0.00003017,0.00008605,0.00009277,-0.00
 002236,-0.00005824,0.00374634,-0.00041364,0.00041338,0.00025746,0.0002
 2370,-0.00023798,-0.00015989,-0.00021197,0.00023636,0.00724092,0.00111
 735,0.00165350,-0.00112404,0.00125573,0.00074766,-0.00536342,-0.000053
 84,-0.00165716,-0.00126373,-0.00202708,-0.00073690,-0.00082411,0.00022
 147,0.00022410,-0.00049303,-0.00013704,0.00000425,-0.00016062,-0.00001
 695,0.00005573,0.00009726,0.00011579,-0.00001811,0.00031039,-0.0002762
 8,-0.00014662,-0.00006374,0.00003685,0.00002093,-0.00009464,0.00015734
 ,-0.00005926,0.03182156,-0.03762310,-0.00459704,0.05602970,-0.07103033
 ,-0.03886135,-0.01222572,0.00794513,0.00642293,-0.07930404,0.09743577,
 0.00007265,-0.00002923,-0.00010167,0.00002868,0.00001046,-0.00000056,0
 .00001682,-0.00003248,0.00004793,-0.00023981,0.00000319,-0.00015221,0.
 00004630,0.00005044,0.00005849,0.00005168,-0.00003539,0.00002517,-0.00
 010752,-0.00001840,0.00013772,0.00014443,0.00003047,0.00011373,-0.0000
 1258,-0.00002330,-0.00008759,0.00066704,0.00036660,-0.00034385,-0.0007
 2078,0.00023313,0.00015844,-0.00001010,0.00035514,-0.00002103,-0.00005
 880,0.00001210,0.00016988,-0.00040855,-0.00009234,0.00013514,0.0000927
 3,-0.00014489,-0.00013955,-0.00010162,0.00001208,0.00004871,-0.0000214
 2,0.00001527,0.00000113,0.00020230,-0.00023981,-0.00005522,-0.00003636
 ,0.00002695,-0.00002116,-0.00004519,0.00012083,-0.00006733,-0.01039899
 ,0.00473351,0.01160312,0.07265869,-0.03570642,-0.09359843,-0.00610777,
 0.00209563,0.00380588,-0.08327883,0.03798903,0.09874159,-0.00001046,0.
 00011827,-0.00050593,0.00108120,0.00022708,0.00017630,-0.00002745,-0.0
 0013547,0.00032522,-0.00072535,0.00042249,-0.00081973,-0.00001924,0.00
 099393,0.00025701,0.00042295,-0.00035105,0.00011116,-0.00149136,-0.000
 26843,0.00113282,0.00051714,-0.00088756,0.00088891,-0.00026710,0.00033
 489,-0.00084810,0.00056029,-0.01446331,0.01697418,0.00080455,0.0008154
 9,-0.00261652,0.00214233,-0.00005605,-0.00098185,-0.00382870,0.0033017
 3,-0.00340421,0.00236229,-0.00014930,-0.00009307,-0.00108967,-0.000408
 97,0.00025394,0.00030508,-0.00016061,-0.00014511,0.00015208,0.00034907
 ,-0.00019260,-0.00007178,-0.00049176,0.00035730,0.00058625,0.00043541,
 -0.00017109,-0.00012371,0.00032879,-0.00012788,-0.00382250,0.00416109,
 -0.01868759,-0.07542981,0.00430738,-0.00383435,-0.00544210,-0.00378636
 ,-0.02552391,0.00064999,0.00318298,0.03050825,0.53189297,-0.00013919,0
 .00022518,0.00013695,0.00091418,0.00011732,0.00025026,-0.00015211,-0.0
 0004117,0.00002207,0.00022153,0.00023531,-0.00024069,0.00027588,0.0003
 9093,0.00001240,0.00012315,-0.00009573,0.00003454,-0.00011352,-0.00025
 536,0.00000725,-0.00034082,-0.00067262,0.00018813,-0.00003320,0.000211
 71,-0.00023891,-0.00656855,-0.03318501,0.02290073,0.00135770,0.0014586
 8,-0.00412008,-0.00023296,-0.00032345,0.00042102,-0.00181773,0.0035487
 5,-0.00371627,0.00133771,0.00148289,0.00022915,-0.00189497,-0.00051198
 ,0.00025640,0.00049285,-0.00028412,-0.00025654,0.00031098,0.00043475,-
 0.00025873,-0.00145192,-0.00042830,0.00072441,0.00038051,0.00056670,-0
 .00005665,-0.00048770,-0.00008701,0.00009374,-0.00050880,-0.02927296,0
 .03732375,-0.00087141,-0.06145711,-0.02405832,-0.00164363,-0.00050605,
 -0.01817894,-0.00189744,0.00016805,-0.00980683,-0.03274740,0.54625424,
 -0.00033970,0.00037829,0.00066305,-0.00001537,-0.00004598,-0.00004108,
 0.00005222,-0.00006824,-0.00018063,0.00048754,0.00005046,0.00044793,0.
 00010401,-0.00033101,-0.00020056,-0.00015691,0.00011361,-0.00013199,0.
 00096571,-0.00087631,-0.00045914,-0.00030116,-0.00002326,-0.00044743,-
 0.00007967,0.00003109,0.00041861,0.00745005,0.00877587,0.00370525,-0.0
 0065801,-0.00039872,-0.00120650,-0.00106485,0.00090259,-0.00056264,-0.
 00024737,-0.00040446,-0.00125054,0.00175880,0.00252659,0.00087424,0.00
 025875,0.00017757,0.00014730,-0.00004144,0.00000787,-0.00002484,-0.000
 05096,-0.00009446,-0.00002215,-0.00058073,0.00011170,0.00042542,0.0002
 1036,-0.00000619,-0.00004358,-0.00000128,-0.00001655,-0.00016820,-0.01
 255808,0.02373980,-0.02864175,0.00183109,-0.00896932,-0.17335142,0.004
 20126,-0.00114893,-0.00029967,-0.00236140,-0.00112653,-0.01770762,-0.0
 2479069,-0.04599826,0.48248714,0.00029551,-0.00050531,-0.00006378,-0.0
 0004100,-0.00004895,0.00000519,-0.00019438,0.00019632,-0.00012807,0.00
 057776,-0.00029958,0.00029921,0.00004955,-0.00023856,-0.00019662,-0.00
 024218,0.00020257,0.00002572,-0.00078832,0.00082690,-0.00028462,-0.000
 49610,0.00034238,-0.00018251,0.00034099,-0.00013904,0.00021094,-0.0394
 3888,0.00027854,-0.00430542,0.00104403,-0.00462430,0.00833286,0.001074
 17,-0.00073206,0.00041243,0.00566573,0.00615870,-0.00375952,-0.0117745
 6,-0.01971280,0.00513197,0.00168644,0.00043519,-0.00067888,-0.00023426
 ,0.00036019,0.00030981,-0.00046459,-0.00059728,0.00048436,0.00266274,-
 0.00116455,-0.00165087,-0.00131948,-0.00083930,0.00034292,0.00073590,-
 0.00048445,0.00008239,-0.00047808,-0.00582213,-0.01137928,-0.01209026,
 -0.01201631,-0.01746526,0.00147381,-0.00032621,-0.00182591,0.00185131,
 -0.00063203,-0.00191234,-0.13540415,-0.07860462,-0.02195101,0.19917321
 ,0.00058783,-0.00068661,-0.00050051,-0.00241805,-0.00039682,-0.0003441
 5,0.00024651,0.00022435,-0.00004326,-0.00021955,-0.00081798,0.00068322
 ,-0.00031044,-0.00065904,-0.00008235,-0.00023922,0.00021083,0.00000248
 ,0.00045360,0.00169374,-0.00034706,0.00046160,0.00162896,-0.00056104,0
 .00023048,-0.00060551,0.00051998,0.00449830,-0.07717279,0.03596152,-0.
 00213997,0.00200383,0.00543417,-0.00090243,-0.00105197,0.00054342,0.00
 667195,-0.00962035,0.01250218,-0.02567305,-0.02348370,0.00810518,0.001
 29048,0.00035321,-0.00049360,-0.00084342,0.00057799,0.00074889,-0.0002
 0894,-0.00031804,0.00005498,0.00886792,-0.00762743,-0.00188351,-0.0024
 8964,0.00024098,0.00001359,-0.00103265,0.00296776,-0.00082773,0.009701
 13,0.01377524,0.01134485,-0.01956523,-0.02719215,-0.00912698,-0.001016
 97,0.00136779,-0.00402791,0.00089276,0.00105141,0.00056261,-0.08753516
 ,-0.19730613,-0.02870029,0.15901366,0.36907320,0.00048084,-0.00105455,
 -0.00111985,0.00042373,0.00008311,0.00006104,-0.00025915,0.00024702,0.
 00023173,-0.00066369,0.00017752,-0.00048893,0.00008119,-0.00002241,-0.
 00000039,-0.00006609,0.00001981,0.00017703,-0.00395022,0.00170125,0.00
 092308,0.00000088,-0.00013153,0.00082109,0.00036733,0.00017969,-0.0006
 3414,-0.00519972,0.03474470,-0.07173722,0.00674103,0.00751601,-0.00801
 725,0.00542627,-0.00223077,-0.00022942,-0.00129185,0.00266532,0.003234
 45,-0.00057919,0.00055027,0.00394994,-0.00480224,-0.00134878,-0.001190
 42,0.00081730,-0.00012970,-0.00007167,0.00122904,0.00098555,-0.0000565
 8,-0.00028446,0.00047947,-0.00078380,0.00035018,0.00005326,0.00044666,
 0.00064318,-0.00056227,0.00019428,-0.02106532,-0.01317100,-0.02061751,
 -0.02998608,-0.02079650,-0.01861824,-0.00218014,-0.00115877,-0.0064138
 2,0.00080654,-0.00022777,0.00302222,-0.01386488,-0.00526741,-0.0819750
 7,0.05003349,-0.02883208,0.18478073,0.00006405,-0.00018484,0.00000256,
 -0.00007700,-0.00004109,0.00000471,-0.00006093,0.00006943,-0.00007011,
 0.00040119,0.00002286,0.00029265,-0.00002760,-0.00013284,-0.00017644,-
 0.00015142,0.00010254,-0.00003229,-0.00028441,0.00020293,-0.00015987,-
 0.00028847,-0.00007567,-0.00006663,0.00014414,0.00001699,0.00005881,-0
 .00133834,-0.00152791,-0.00210090,0.00034655,0.00015140,0.00012369,0.0
 0041916,-0.00023411,0.00026452,0.00052795,-0.00008380,0.00049605,-0.00
 039543,-0.00020408,0.00013499,-0.00015313,-0.00002818,0.00000606,0.000
 04650,-0.00002062,-0.00000494,0.00003268,0.00003847,-0.00001761,0.0001
 4657,-0.00014418,-0.00001617,-0.00003158,0.00005965,0.00000935,-0.0000
 5197,0.00005577,-0.00001630,0.00185327,0.00085141,-0.00274540,-0.00251
 893,0.00487814,0.00380416,-0.00016063,-0.00039858,0.00000583,0.0010081
 2,-0.00057750,-0.00020554,-0.10421065,0.08866701,-0.04193294,0.0112063
 8,-0.02466876,0.00949153,0.10722686,-0.00001370,0.00009700,-0.00001203
 ,-0.00027879,-0.00002473,-0.00006449,0.00010683,-0.00004217,0.00004389
 ,-0.00031320,-0.00008553,-0.00009575,-0.00001351,0.00002148,0.00010920
 ,0.00007884,-0.00005398,0.00000412,0.00038029,-0.00006167,0.00005863,0
 .00030519,0.00021330,-0.00003878,-0.00012251,-0.00006701,0.00002981,0.
 00156337,0.00351919,-0.00716188,-0.00095653,-0.00013665,0.00083733,-0.
 00052478,0.00016400,-0.00016261,0.00072494,-0.00181055,0.00115713,-0.0
 0224393,-0.00081255,0.00026042,0.00061138,0.00018236,-0.00004444,-0.00
 021773,0.00011528,0.00011797,-0.00010500,-0.00011805,0.00002892,0.0009
 8414,-0.00074523,-0.00026423,-0.00037025,-0.00009064,0.00000561,-0.000
 10697,0.00035394,-0.00009098,-0.00001987,0.00117942,0.00063086,0.00137
 468,0.00258461,-0.00220641,0.00020048,-0.00028588,0.00141043,-0.000901
 19,0.00079467,0.00087640,0.08614353,-0.17611923,0.06546518,-0.00458716
 ,-0.04145195,0.01181778,-0.08848559,0.21624354,0.00014075,-0.00022758,
 -0.00023409,0.00010638,0.00000156,0.00001565,-0.00005892,0.00004898,0.
 00004940,-0.00008831,0.00001930,-0.00013218,-0.00000915,0.00009629,0.0
 0003194,0.00002003,-0.00002258,0.00004654,-0.00094740,0.00024087,0.000
 19629,-0.00001752,-0.00006953,0.00017085,0.00006532,0.00006034,-0.0001
 5379,-0.00200685,-0.00151301,-0.00147552,0.00071625,0.00011500,-0.0000
 8345,0.00142311,-0.00021031,-0.00008399,0.00000589,0.00081109,0.000344
 57,0.00024073,0.00003721,0.00008407,-0.00027469,-0.00005777,-0.0000216
 5,0.00010628,-0.00003523,-0.00003138,0.00006319,0.00005414,-0.00001114
 ,-0.00017322,0.00014461,0.00000201,0.00004586,0.00001381,0.00002991,0.
 00003435,-0.00009426,0.00004348,-0.00088894,0.00303966,-0.00831853,-0.
 01438917,0.02717103,-0.00395904,-0.00074100,-0.00124859,-0.00051210,0.
 00128228,-0.00026192,0.00110797,-0.03884366,0.06365633,-0.08302656,0.0
 0278940,-0.00516213,0.00554878,0.04359641,-0.07559323,0.08430163,-0.00
 002183,0.00003754,0.00033849,-0.00039933,-0.00008111,-0.00006038,0.000
 01453,0.00004181,-0.00014662,0.00003952,0.00005705,0.00021834,-0.00002
 145,-0.00022854,0.00000874,-0.00014510,0.00011470,-0.00003246,0.000821
 16,-0.00005324,-0.00048201,-0.00008156,0.00030374,-0.00036813,0.000086
 98,-0.00017800,0.00036600,-0.00308168,0.00616122,-0.00584329,-0.000373
 01,-0.00060234,0.00119761,-0.00124295,0.00010957,0.00019146,0.00149003
 ,-0.00116363,0.00048054,-0.00095358,-0.00155720,0.00022167,0.00051076,
 0.00020164,-0.00011035,-0.00010772,0.00008053,0.00006731,-0.00010994,-
 0.00017256,0.00009466,0.00073477,0.00002450,-0.00030670,-0.00022984,-0
 .00017226,0.00002140,0.00014364,0.00004054,0.00000528,0.00192011,-0.00
 107135,0.00114992,0.00183632,0.00120953,-0.00322485,0.00157330,0.00062
 670,0.00086499,0.00173486,0.00005723,-0.00082337,-0.20951307,0.0354244
 6,0.08981179,-0.02487127,-0.02365273,0.00730048,-0.01367294,0.00678703
 ,0.00780261,0.24391927,-0.00008057,0.00003192,0.00005629,-0.00006104,-
 0.00002666,0.00000120,-0.00000988,0.00001671,-0.00006525,0.00066457,0.
 00001807,0.00033106,0.00013787,-0.00023597,-0.00015917,-0.00008942,0.0
 0004636,-0.00005324,-0.00002105,-0.00004019,-0.00008078,-0.00025593,-0
 .00028957,-0.00007209,-0.00001192,0.00005848,-0.00001744,-0.00337646,0
 .00294144,-0.00260881,-0.00013368,-0.00031727,0.00084482,0.00005388,0.
 00002862,0.00008619,0.00071801,-0.00002413,-0.00012184,-0.00055921,-0.
 00115388,0.00017182,0.00020498,0.00000043,-0.00004373,-0.00005953,0.00
 004431,0.00004732,-0.00007186,-0.00005112,0.00004286,0.00052393,-0.000
 11332,-0.00019855,-0.00008698,-0.00005846,0.00000852,0.00009395,0.0000
 8110,-0.00001924,-0.00034396,0.00163959,0.00029600,0.00425294,-0.00144
 824,-0.00227292,-0.00001581,0.00012601,-0.00025604,-0.00069863,0.00082
 226,-0.00136476,0.03631930,-0.05454828,-0.01407212,-0.03643982,-0.0067
 7885,0.01371279,0.02169115,-0.00356301,-0.01101408,-0.02234482,0.06279
 364,-0.00000660,0.00002931,-0.00018517,0.00020056,0.00003689,0.0000340
 5,0.00001874,-0.00004070,0.00010009,-0.00021206,0.00017864,-0.00029462
 ,0.00000876,0.00026401,0.00019135,0.00015391,-0.00012866,0.00005124,-0
 .00051955,-0.00006732,0.00041991,0.00020535,-0.00027734,0.00024026,-0.
 00013652,0.00010025,-0.00029513,0.00070724,-0.00108302,0.00059132,0.00
 011736,0.00042292,-0.00002995,0.00083925,-0.00005045,-0.00024999,-0.00
 058443,0.00034477,0.00000586,0.00012374,0.00015735,0.00000905,-0.00025
 518,-0.00011070,-0.00001723,0.00001083,-0.00002216,-0.00000686,0.00005
 959,0.00007940,-0.00002577,-0.00009787,-0.00000466,0.00000283,0.000054
 00,0.00004534,0.00000683,-0.00001590,0.00000142,-0.00000108,-0.0022714
 5,0.00041745,0.00316110,0.03033556,-0.00978922,-0.01711978,-0.00051052
 ,-0.00036478,0.00122841,-0.00052501,-0.00023712,-0.00688091,0.08446608
 ,-0.01405950,-0.09942755,-0.00267660,0.00445554,0.00856329,-0.01074616
 ,0.00288116,0.00607034,-0.09874312,0.01682118,0.10385814\\0.00000171,0
 .00000074,-0.00000093,-0.00000042,0.00000048,0.00000063,0.00000044,0.0
 0000008,-0.00000042,0.00000029,-0.00000194,-0.00000094,-0.00000200,-0.
 00000115,-0.00000137,-0.00000106,-0.00000174,-0.00000137,-0.00000044,0
 .00000042,-0.00000419,-0.00000183,-0.00000088,-0.00000167,0.00000137,-
 0.00000077,-0.00000425,0.00000025,-0.00000055,0.00000459,0.00000088,0.
 00000314,0.00000253,0.00000155,0.00000089,0.00000016,-0.00000131,-0.00
 000033,0.00000050,0.00000064,-0.00000052,0.00000406,0.00000075,0.00000
 139,0.00000216,0.00000081,0.00000187,0.00000279,0.00000074,0.00000182,
 0.00000376,-0.00000216,-0.00000084,0.00000244,-0.00000083,-0.00000022,
 0.00000412,-0.00000024,-0.00000053,0.00000264,-0.00000043,0.00000215,-
 0.00000239,0.00000144,-0.00000007,-0.00000063,0.00000065,0.00000056,-0
 .00000256,0.00000081,0.00000055,-0.00000188,-0.00000102,-0.00000043,-0
 .00000117,0.00000049,-0.00000058,-0.00000233,-0.00000078,-0.00000105,-
 0.00000208,-0.00000033,-0.00000249,-0.00000220\\\@
 The archive entry for this job was punched.


 WE SHOULD BE CAREFUL TO GET OUT OF AN EXPERIENCE ONLY THE WISDOM
 THAT IS IN IT -- AND STOP THERE;
 LEST WE BE LIKE THE CAT THAT SITS DOWN ON A HOT STOVE-LID.
 SHE WILL NEVER SIT DOWN ON A HOT STOVE LID AGAIN;
 BUT ALSO SHE WILL NEVER SIT DOWN ON A COLD ONE ANY MORE.

                                                     -- MARK TWAIN
 Job cpu time:       0 days 11 hours  6 minutes  0.1 seconds.
 Elapsed time:       0 days  2 hours 46 minutes 55.7 seconds.
 File lengths (MBytes):  RWF=    855 Int=      0 D2E=      0 Chk=     33 Scr=      1
 Normal termination of Gaussian 16 at Wed Feb 21 07:23:52 2024.
