 Entering Gaussian System, Link 0=/opt/software/gaussian/g16.c01/g16
 Initial command:
 /opt/software/gaussian/g16.c01/l1.exe "/scratch/arhender/22222888/Gau-19037.inp" -scrdir="/scratch/arhender/22222888/"
 Entering Link 1 = /opt/software/gaussian/g16.c01/l1.exe PID=     19038.
  
 Copyright (c) 1988-2019, Gaussian, Inc.  All Rights Reserved.
  
 This is part of the Gaussian(R) 16 program.  It is based on
 the Gaussian(R) 09 system (copyright 2009, Gaussian, Inc.),
 the Gaussian(R) 03 system (copyright 2003, Gaussian, Inc.),
 the Gaussian(R) 98 system (copyright 1998, Gaussian, Inc.),
 the Gaussian(R) 94 system (copyright 1995, Gaussian, Inc.),
 the Gaussian 92(TM) system (copyright 1992, Gaussian, Inc.),
 the Gaussian 90(TM) system (copyright 1990, Gaussian, Inc.),
 the Gaussian 88(TM) system (copyright 1988, Gaussian, Inc.),
 the Gaussian 86(TM) system (copyright 1986, Carnegie Mellon
 University), and the Gaussian 82(TM) system (copyright 1983,
 Carnegie Mellon University). Gaussian is a federally registered
 trademark of Gaussian, Inc.
  
 This software contains proprietary and confidential information,
 including trade secrets, belonging to Gaussian, Inc.
  
 This software is provided under written license and may be
 used, copied, transmitted, or stored only in accord with that
 written license.
  
 The following legend is applicable only to US Government
 contracts under FAR:
  
                    RESTRICTED RIGHTS LEGEND
  
 Use, reproduction and disclosure by the US Government is
 subject to restrictions as set forth in subparagraphs (a)
 and (c) of the Commercial Computer Software - Restricted
 Rights clause in FAR 52.227-19.
  
 Gaussian, Inc.
 340 Quinnipiac St., Bldg. 40, Wallingford CT 06492
  
  
 ---------------------------------------------------------------
 Warning -- This program may not be used in any manner that
 competes with the business of Gaussian, Inc. or will provide
 assistance to any competitor of Gaussian, Inc.  The licensee
 of this program is prohibited from giving any competitor of
 Gaussian, Inc. access to this program.  By using this program,
 the user acknowledges that Gaussian, Inc. is engaged in the
 business of creating and licensing software in the field of
 computational chemistry and represents and warrants to the
 licensee that it is not a competitor of Gaussian, Inc. and that
 it will not use this program in any manner prohibited above.
 ---------------------------------------------------------------
  

 Cite this work as:
 Gaussian 16, Revision C.01,
 M. J. Frisch, G. W. Trucks, H. B. Schlegel, G. E. Scuseria, 
 M. A. Robb, J. R. Cheeseman, G. Scalmani, V. Barone, 
 G. A. Petersson, H. Nakatsuji, X. Li, M. Caricato, A. V. Marenich, 
 J. Bloino, B. G. Janesko, R. Gomperts, B. Mennucci, H. P. Hratchian, 
 J. V. Ortiz, A. F. Izmaylov, J. L. Sonnenberg, D. Williams-Young, 
 F. Ding, F. Lipparini, F. Egidi, J. Goings, B. Peng, A. Petrone, 
 T. Henderson, D. Ranasinghe, V. G. Zakrzewski, J. Gao, N. Rega, 
 G. Zheng, W. Liang, M. Hada, M. Ehara, K. Toyota, R. Fukuda, 
 J. Hasegawa, M. Ishida, T. Nakajima, Y. Honda, O. Kitao, H. Nakai, 
 T. Vreven, K. Throssell, J. A. Montgomery, Jr., J. E. Peralta, 
 F. Ogliaro, M. J. Bearpark, J. J. Heyd, E. N. Brothers, K. N. Kudin, 
 V. N. Staroverov, T. A. Keith, R. Kobayashi, J. Normand, 
 K. Raghavachari, A. P. Rendell, J. C. Burant, S. S. Iyengar, 
 J. Tomasi, M. Cossi, J. M. Millam, M. Klene, C. Adamo, R. Cammi, 
 J. W. Ochterski, R. L. Martin, K. Morokuma, O. Farkas, 
 J. B. Foresman, and D. J. Fox, Gaussian, Inc., Wallingford CT, 2019.
 
 ******************************************
 Gaussian 16:  ES64L-G16RevC.01  3-Jul-2019
                13-Jan-2024 
 ******************************************
 %chk=IRC_attackingOHDeprotonated_SiOH4Attack_reverse.chk
 ----------------------------------------------------------------------
 # irc=(reverse,calcfc,maxpoints=100) wb97xd/def2tzvpp geom=connectivit
 y
 ----------------------------------------------------------------------
 1/10=4,18=10,22=2,26=3,38=1,42=100,44=3,57=2,172=1/1,23;
 2/12=2,17=6,18=5,29=1,40=1/2;
 3/5=44,7=202,11=2,25=1,30=1,71=2,74=-58,140=1/1,2,3;
 4//1;
 5/5=2,38=5/2;
 8/6=4,10=90,11=11/1;
 11/6=1,8=1,9=11,15=111,16=1/1,2,10;
 10/6=1,13=1/2;
 6/7=2,8=2,9=2,10=2,28=1/1;
 7/10=1,25=1/1,2,3,16;
 1/10=4,18=10,22=2,26=3,42=100,44=3/23(2);
 2/29=1/2;
 99/5=20/99;
 2/29=1/2;
 3/5=44,7=202,11=2,25=1,30=1,71=2,74=-58,140=1/1,2,3;
 4/5=5,16=3,69=1/1;
 5/5=2,38=5/2;
 8/6=4,10=90,11=11/1;
 11/6=1,8=1,9=11,15=111,16=1/1,2,10;
 10/6=1,13=1/2;
 7/10=1,25=1/1,2,3,16;
 1/18=10,22=2,26=3,42=100,44=3/23(-8);
 2/29=1/2;
 6/7=2,8=2,9=2,10=2,19=2,28=1/1;
 99/5=20,9=1/99;
 --------------------------------------------------------
 Reverse IRC for Si Attack with attacking OH deprotonated
 --------------------------------------------------------
 Symbolic Z-matrix:
 Charge = -1 Multiplicity = 1
 C                     1.74385   0.80959   0.59003 
 H                     0.88335   1.38565   0.92147 
 H                     2.56672   0.97022   1.29509 
 C                     1.42561  -0.66387   0.56108 
 H                     1.13309  -1.11665  -0.36451 
 H                     1.62895  -1.28772   1.40856 
 O                     2.10264   1.24074  -0.70511 
 H                     2.76056   0.53652  -0.91754 
 O                     3.31292  -0.92291  -0.1058 
 H                     3.26959  -1.7406   -0.59975 
 Si                   -1.4732   -0.08048   0.01742 
 O                    -2.47411   1.04702   0.72136 
 H                    -2.1549    1.24476   1.59871 
 O                    -0.7845    0.53647  -1.35984 
 H                     0.12165   0.85855  -1.29529 
 O                    -0.41257  -0.58956   1.08052 
 O                    -2.538    -1.19697  -0.59938 
 H                    -2.25199  -1.51653  -1.45117 
 
 IRC-IRC-IRC-IRC-IRC-IRC-IRC-IRC-IRC-IRC-IRC-IRC-IRC-IRC-IRC-IRC-IRC-IRC
 ------------------------------------------------------------------------
 INPUT DATA FOR L123
 ------------------------------------------------------------------------
 GENERAL PARAMETERS:
 Rxn path following direction = Reverse
 Maximum points per path      = 100
 Step size                    =   0.100 bohr
 Integration scheme           = HPC                                 
    Redo corrector integration= Yes                                 
    DWI Weight Power          =  2
    DWI will use Hessian update vectors when possible.
    Max correction cycles     =  20
 Initial Hessian              = CalcFC
 Hessian evaluation           = All updating
 Hessian updating method      = Bofill                              
 ------------------------------------------------------------------------
 IRC-IRC-IRC-IRC-IRC-IRC-IRC-IRC-IRC-IRC-IRC-IRC-IRC-IRC-IRC-IRC-IRC-IRC
                          Input orientation:                          
 ---------------------------------------------------------------------
 Center     Atomic      Atomic             Coordinates (Angstroms)
 Number     Number       Type             X           Y           Z
 ---------------------------------------------------------------------
      1          6           0        1.743851    0.809588    0.590031
      2          1           0        0.883346    1.385653    0.921467
      3          1           0        2.566717    0.970218    1.295090
      4          6           0        1.425607   -0.663872    0.561078
      5          1           0        1.133093   -1.116653   -0.364513
      6          1           0        1.628951   -1.287724    1.408556
      7          8           0        2.102637    1.240740   -0.705114
      8          1           0        2.760563    0.536522   -0.917545
      9          8           0        3.312923   -0.922912   -0.105797
     10          1           0        3.269588   -1.740598   -0.599748
     11         14           0       -1.473202   -0.080485    0.017415
     12          8           0       -2.474111    1.047021    0.721359
     13          1           0       -2.154903    1.244758    1.598707
     14          8           0       -0.784503    0.536472   -1.359841
     15          1           0        0.121650    0.858546   -1.295295
     16          8           0       -0.412567   -0.589561    1.080518
     17          8           0       -2.537995   -1.196972   -0.599377
     18          1           0       -2.251993   -1.516529   -1.451172
 ---------------------------------------------------------------------
                    Distance matrix (angstroms):
                    1          2          3          4          5
     1  C    0.000000
     2  H    1.087276   0.000000
     3  H    1.095454   1.773674   0.000000
     4  C    1.507715   2.150461   2.123949   0.000000
     5  H    2.234857   2.824474   3.027308   1.071118   0.000000
     6  H    2.254307   2.817823   2.447566   1.071802   1.849031
     7  O    1.411390   2.037998   2.071079   2.385196   2.571639
     8  H    1.838764   2.761690   2.263056   2.325807   2.384846
     9  O    2.438795   3.505366   2.470476   2.018362   2.203663
    10  H    3.201078   4.216835   3.381266   2.430457   2.238137
    11  Si   3.386672   2.918936   4.365476   3.006494   2.830598
    12  O    4.226680   3.380419   5.073955   4.261531   4.344251
    13  H    4.050565   3.116000   4.739330   4.188030   4.499045
    14  O    3.204554   2.950796   4.297380   3.164702   2.720418
    15  H    2.487647   2.402510   3.563835   2.732065   2.406404
    16  O    2.616932   2.367733   3.369731   1.911602   2.180597
    17  O    4.875980   4.548461   5.860359   4.164252   3.679470
    18  H    5.054117   4.886965   6.078309   4.277957   3.577644
                    6          7          8          9         10
     6  H    0.000000
     7  O    3.329431   0.000000
     8  H    3.165307   0.986872   0.000000
     9  O    2.293930   2.550562   1.758973   0.000000
    10  H    2.632503   3.203319   2.354863   0.956282   0.000000
    11  Si   3.607776   3.879989   4.379454   4.861261   5.062700
    12  O    4.770575   4.797810   5.508941   6.168840   6.519680
    13  H    4.557101   4.840894   5.567308   6.123826   6.570438
    14  O    4.100789   3.043065   3.572551   4.526735   4.711523
    15  H    3.766861   2.102070   2.685192   3.843530   4.141117
    16  O    2.182392   3.586745   3.915236   3.923996   4.207903
    17  O    4.626388   5.243004   5.583991   5.878093   5.832971
    18  H    4.826191   5.207873   5.442931   5.755928   5.591332
                   11         12         13         14         15
    11  Si   0.000000
    12  O    1.663918   0.000000
    13  H    2.172894   0.954323   0.000000
    14  O    1.658848   2.728888   3.336565   0.000000
    15  H    2.269039   3.292475   3.702309   0.963852   0.000000
    16  O    1.585652   2.656569   2.582437   2.713234   2.833176
    17  O    1.661554   2.604598   3.307624   2.580285   3.432662
    18  H    2.196699   3.367642   4.115324   2.525209   3.361467
                   16         17         18
    16  O    0.000000
    17  O    2.776408   0.000000
    18  H    3.263773   0.953660   0.000000
 Symmetry turned off by external request.
 Stoichiometry    C2H9O6Si(1-)
 Framework group  C1[X(C2H9O6Si)]
 Deg. of freedom    48
 Full point group                 C1      NOp   1
 Rotational constants (GHZ):           2.4456553           0.7113048           0.6853023
 Standard basis: def2TZVPP (5D, 7F)
   416 basis functions,   630 primitive gaussians,   471 cartesian basis functions
    42 alpha electrons       42 beta electrons
       nuclear repulsion energy       618.0769661222 Hartrees.
 NAtoms=   18 NActive=   18 NUniq=   18 SFac= 1.00D+00 NAtFMM=   60 NAOKFM=F Big=F
 Integral buffers will be    131072 words long.
 Raffenetti 2 integral format.
 Two-electron integral symmetry is turned off.
 Nuclear repulsion after empirical dispersion term =      618.0673048481 Hartrees.
 One-electron integrals computed using PRISM.
   1 Symmetry operations used in ECPInt.
 ECPInt:  NShTT=   12246 NPrTT=   33908 LenC2=   11548 LenP2D=   24988.
 LDataN:  DoStor=T MaxTD1= 6 Len=  172
 NBasis=   416 RedAO= T EigKep=  1.78D-04  NBF=   416
 NBsUse=   416 1.00D-06 EigRej= -1.00D+00 NBFU=   416
 ExpMin= 7.01D-02 ExpMax= 4.48D+04 ExpMxC= 1.53D+03 IAcc=3 IRadAn=         5 AccDes= 0.00D+00
 Harris functional with IExCor= 4639 and IRadAn=       5 diagonalized for initial guess.
 HarFok:  IExCor= 4639 AccDes= 0.00D+00 IRadAn=         5 IDoV= 1 UseB2=F ITyADJ=14
 ICtDFT=  3500011 ScaDFX=  1.000000  1.000000  1.000000  1.000000
 FoFCou: FMM=F IPFlag=           0 FMFlag=      100000 FMFlg1=           0
         NFxFlg=           0 DoJE=T BraDBF=F KetDBF=T FulRan=T
         wScrn=  0.000000 ICntrl=       500 IOpCl=  0 I1Cent=   200000004 NGrid=           0
         NMat0=    1 NMatS0=      1 NMatT0=    0 NMatD0=    1 NMtDS0=    0 NMtDT0=    0
 Symmetry not used in FoFCou.
 Requested convergence on RMS density matrix=1.00D-08 within 128 cycles.
 Requested convergence on MAX density matrix=1.00D-06.
 Requested convergence on             energy=1.00D-06.
 No special actions if energy rises.
 Integral accuracy reduced to 1.0D-05 until final iterations.
 Initial convergence to 1.0D-05 achieved.  Increase integral accuracy.
 SCF Done:  E(RwB97XD) =  -822.736919268     A.U. after   14 cycles
            NFock= 14  Conv=0.47D-08     -V/T= 2.0033
 DoSCS=F DFT=T ScalE2(SS,OS)=  1.000000  1.000000
 Range of M.O.s used for correlation:     1   416
 NBasis=   416 NAE=    42 NBE=    42 NFC=     0 NFV=     0
 NROrb=    416 NOA=    42 NOB=    42 NVA=   374 NVB=   374

 **** Warning!!: The largest alpha MO coefficient is  0.11188263D+02

   1 Symmetry operations used in ECPInt.
 ECPInt:  NShTT=   12246 NPrTT=   33908 LenC2=   11548 LenP2D=   24988.
 LDataN:  DoStor=T MaxTD1= 7 Len=  274
 Symmetrizing basis deriv contribution to polar:
 IMax=3 JMax=2 DiffMx= 0.00D+00
 G2DrvN: will do    19 centers at a time, making    1 passes.
 Calling FoFCou, ICntrl=  3107 FMM=F I1Cent=   0 AccDes= 0.00D+00.
 End of G2Drv F.D. properties file   721 does not exist.
 End of G2Drv F.D. properties file   722 does not exist.
 End of G2Drv F.D. properties file   788 does not exist.
          IDoAtm=111111111111111111
          Differentiating once with respect to nuclear coordinates.
 CalDSu exits because no D1Ps are significant.
          There are    57 degrees of freedom in the 1st order CPHF.  IDoFFX=6 NUNeed=     0.
     51 vectors produced by pass  0 Test12= 2.76D-14 1.75D-09 XBig12= 7.94D-02 1.06D-01.
 AX will form    51 AO Fock derivatives at one time.
     51 vectors produced by pass  1 Test12= 2.76D-14 1.75D-09 XBig12= 1.88D-02 2.09D-02.
     51 vectors produced by pass  2 Test12= 2.76D-14 1.75D-09 XBig12= 4.69D-04 3.25D-03.
     51 vectors produced by pass  3 Test12= 2.76D-14 1.75D-09 XBig12= 4.26D-06 2.63D-04.
     51 vectors produced by pass  4 Test12= 2.76D-14 1.75D-09 XBig12= 4.04D-08 2.61D-05.
     51 vectors produced by pass  5 Test12= 2.76D-14 1.75D-09 XBig12= 3.26D-10 2.33D-06.
     51 vectors produced by pass  6 Test12= 2.76D-14 1.75D-09 XBig12= 2.34D-12 1.78D-07.
     23 vectors produced by pass  7 Test12= 2.76D-14 1.75D-09 XBig12= 1.52D-14 1.45D-08.
 InvSVY:  IOpt=1 It=  1 EMax= 2.22D-16
 Solved reduced A of dimension   380 with    57 vectors.
 End of Minotr F.D. properties file   721 does not exist.
 End of Minotr F.D. properties file   722 does not exist.
 End of Minotr F.D. properties file   788 does not exist.

 **********************************************************************

            Population analysis using the SCF Density.

 **********************************************************************

 Alpha  occ. eigenvalues --  -66.12706 -19.09529 -19.09250 -19.09142 -19.08381
 Alpha  occ. eigenvalues --  -19.02650 -19.01873 -10.20333 -10.18644  -5.24481
 Alpha  occ. eigenvalues --   -3.59046  -3.58999  -3.58848  -0.97996  -0.96847
 Alpha  occ. eigenvalues --   -0.94097  -0.93053  -0.85162  -0.84364  -0.68692
 Alpha  occ. eigenvalues --   -0.56767  -0.50344  -0.45937  -0.44417  -0.42150
 Alpha  occ. eigenvalues --   -0.41657  -0.38749  -0.35412  -0.34997  -0.32123
 Alpha  occ. eigenvalues --   -0.31164  -0.30596  -0.29307  -0.27832  -0.27714
 Alpha  occ. eigenvalues --   -0.26297  -0.24651  -0.23555  -0.21767  -0.19280
 Alpha  occ. eigenvalues --   -0.17678  -0.16004
 Alpha virt. eigenvalues --    0.22992   0.23497   0.25620   0.27104   0.28736
 Alpha virt. eigenvalues --    0.30309   0.31332   0.32490   0.34194   0.35262
 Alpha virt. eigenvalues --    0.36081   0.36923   0.39506   0.40407   0.41895
 Alpha virt. eigenvalues --    0.42966   0.45924   0.46610   0.48075   0.49334
 Alpha virt. eigenvalues --    0.51368   0.53160   0.54163   0.54349   0.56410
 Alpha virt. eigenvalues --    0.58293   0.59852   0.60862   0.61004   0.61972
 Alpha virt. eigenvalues --    0.62819   0.63120   0.64103   0.64750   0.66007
 Alpha virt. eigenvalues --    0.67217   0.68058   0.68775   0.69651   0.71031
 Alpha virt. eigenvalues --    0.71807   0.73390   0.73739   0.74275   0.75483
 Alpha virt. eigenvalues --    0.77652   0.78785   0.79405   0.80281   0.81563
 Alpha virt. eigenvalues --    0.82390   0.83884   0.84296   0.85195   0.87859
 Alpha virt. eigenvalues --    0.90130   0.90719   0.91149   0.94005   0.94122
 Alpha virt. eigenvalues --    0.97396   0.99649   1.00122   1.02104   1.04790
 Alpha virt. eigenvalues --    1.04957   1.06208   1.07050   1.09211   1.09930
 Alpha virt. eigenvalues --    1.11599   1.12139   1.13039   1.14665   1.16674
 Alpha virt. eigenvalues --    1.18297   1.19254   1.20223   1.21786   1.24300
 Alpha virt. eigenvalues --    1.26716   1.27317   1.28972   1.29867   1.30192
 Alpha virt. eigenvalues --    1.32393   1.33245   1.34084   1.36544   1.37050
 Alpha virt. eigenvalues --    1.39895   1.41793   1.44818   1.46114   1.46914
 Alpha virt. eigenvalues --    1.47993   1.49414   1.51763   1.52184   1.54214
 Alpha virt. eigenvalues --    1.55396   1.58240   1.58915   1.60258   1.62185
 Alpha virt. eigenvalues --    1.63565   1.64805   1.66331   1.68368   1.70376
 Alpha virt. eigenvalues --    1.71179   1.72371   1.75571   1.76093   1.80343
 Alpha virt. eigenvalues --    1.83015   1.85628   1.86793   1.88164   1.93088
 Alpha virt. eigenvalues --    1.95363   1.96932   2.01300   2.02436   2.04494
 Alpha virt. eigenvalues --    2.05212   2.06415   2.08738   2.10202   2.12757
 Alpha virt. eigenvalues --    2.13674   2.17003   2.18361   2.20997   2.22542
 Alpha virt. eigenvalues --    2.23493   2.24309   2.26188   2.27359   2.28318
 Alpha virt. eigenvalues --    2.31259   2.33223   2.33606   2.36629   2.38068
 Alpha virt. eigenvalues --    2.39816   2.41872   2.43960   2.46089   2.47238
 Alpha virt. eigenvalues --    2.48836   2.51876   2.57342   2.59806   2.64362
 Alpha virt. eigenvalues --    2.66736   2.71435   2.74047   2.76599   2.78760
 Alpha virt. eigenvalues --    2.81761   2.84252   2.88441   2.90485   2.91118
 Alpha virt. eigenvalues --    2.96287   2.98067   2.98920   3.01187   3.02710
 Alpha virt. eigenvalues --    3.04301   3.04609   3.09771   3.12528   3.13482
 Alpha virt. eigenvalues --    3.15544   3.16695   3.18663   3.20257   3.21508
 Alpha virt. eigenvalues --    3.22088   3.25007   3.26810   3.30364   3.31643
 Alpha virt. eigenvalues --    3.33148   3.36548   3.40212   3.41899   3.45236
 Alpha virt. eigenvalues --    3.45509   3.46430   3.48816   3.49623   3.51378
 Alpha virt. eigenvalues --    3.52466   3.54325   3.54616   3.56912   3.57031
 Alpha virt. eigenvalues --    3.58259   3.60647   3.61574   3.62383   3.63641
 Alpha virt. eigenvalues --    3.66173   3.67874   3.70202   3.72303   3.74600
 Alpha virt. eigenvalues --    3.76582   3.80057   3.82496   3.83512   3.86409
 Alpha virt. eigenvalues --    3.87862   3.89883   3.90928   3.93080   3.94134
 Alpha virt. eigenvalues --    3.94736   3.97069   3.98109   4.00165   4.04297
 Alpha virt. eigenvalues --    4.06202   4.07160   4.11487   4.12047   4.12748
 Alpha virt. eigenvalues --    4.16096   4.17930   4.18840   4.20480   4.22999
 Alpha virt. eigenvalues --    4.24603   4.25362   4.28474   4.29942   4.31258
 Alpha virt. eigenvalues --    4.31747   4.32297   4.34347   4.35315   4.37118
 Alpha virt. eigenvalues --    4.38363   4.40715   4.41830   4.43496   4.44015
 Alpha virt. eigenvalues --    4.47657   4.50152   4.52583   4.55497   4.57420
 Alpha virt. eigenvalues --    4.60877   4.62511   4.63883   4.65929   4.68253
 Alpha virt. eigenvalues --    4.72332   4.75209   4.83359   4.90303   4.92237
 Alpha virt. eigenvalues --    4.94724   4.98072   5.00865   5.07002   5.10358
 Alpha virt. eigenvalues --    5.11828   5.13653   5.15715   5.16029   5.17953
 Alpha virt. eigenvalues --    5.18990   5.20257   5.23303   5.26858   5.28486
 Alpha virt. eigenvalues --    5.29264   5.37653   5.39850   5.43651   5.44094
 Alpha virt. eigenvalues --    5.45838   5.48045   5.50022   5.53326   5.53920
 Alpha virt. eigenvalues --    5.57332   5.59130   5.60246   5.61297   5.62011
 Alpha virt. eigenvalues --    5.63358   5.65082   5.67264   5.69551   5.71274
 Alpha virt. eigenvalues --    5.72621   5.75894   5.77350   5.79981   5.83276
 Alpha virt. eigenvalues --    5.85479   5.87533   5.90782   5.91631   5.92768
 Alpha virt. eigenvalues --    5.99649   6.03241   6.10044   6.11690   6.16781
 Alpha virt. eigenvalues --    6.23960   6.26576   6.65043   6.65953   6.67067
 Alpha virt. eigenvalues --    6.69723   6.74847   6.77995   6.78983   6.81533
 Alpha virt. eigenvalues --    6.81611   6.82358   6.83218   6.84280   6.84737
 Alpha virt. eigenvalues --    6.86767   6.87212   6.87829   6.89667   6.90167
 Alpha virt. eigenvalues --    6.92137   6.92727   6.95214   6.97336   6.98173
 Alpha virt. eigenvalues --    6.99556   7.01201   7.02543   7.04566   7.07700
 Alpha virt. eigenvalues --    7.11430   7.13590   7.16604   7.20899   7.25955
 Alpha virt. eigenvalues --    7.33601   7.39600   7.43497   7.45268   7.51396
 Alpha virt. eigenvalues --    7.52584   7.52896   7.55626   7.60915   7.64159
 Alpha virt. eigenvalues --    7.71633   7.73941   7.83312   7.86597   7.98446
 Alpha virt. eigenvalues --   12.39398  23.58780  23.71694  43.94018  43.97300
 Alpha virt. eigenvalues --   44.01333  44.09290  44.14517  44.36049
          Condensed to atoms (all electrons):
               1          2          3          4          5          6
     1  C    4.872946   0.422836   0.371788   0.213086  -0.064408  -0.022932
     2  H    0.422836   0.614027  -0.038478  -0.041192   0.001099   0.003451
     3  H    0.371788  -0.038478   0.650751  -0.020199   0.004647  -0.001556
     4  C    0.213086  -0.041192  -0.020199   4.954431   0.455974   0.405980
     5  H   -0.064408   0.001099   0.004647   0.455974   0.540085  -0.009002
     6  H   -0.022932   0.003451  -0.001556   0.405980  -0.009002   0.531833
     7  O    0.217949  -0.037440  -0.026720  -0.042384   0.000434   0.006474
     8  H   -0.079137   0.009243  -0.003207   0.001322   0.005530   0.001445
     9  O   -0.016563   0.002889  -0.005249   0.049127  -0.016155  -0.013765
    10  H   -0.003353  -0.000676   0.000522  -0.014114   0.005991   0.002123
    11  Si   0.012930   0.006787  -0.000534  -0.032218  -0.008894   0.000650
    12  O   -0.004183   0.003551  -0.000035   0.000598  -0.000241  -0.000051
    13  H   -0.000832   0.001099   0.000019   0.000320  -0.000062   0.000046
    14  O    0.011538  -0.002429  -0.000078  -0.008891   0.006165   0.000841
    15  H   -0.014626  -0.006708   0.002398   0.000590   0.004972   0.000104
    16  O   -0.024374  -0.004264   0.002081   0.064413  -0.037488  -0.023399
    17  O    0.000373  -0.000291  -0.000003  -0.002916   0.000963  -0.000136
    18  H   -0.000129  -0.000056  -0.000001  -0.000157   0.000555   0.000023
               7          8          9         10         11         12
     1  C    0.217949  -0.079137  -0.016563  -0.003353   0.012930  -0.004183
     2  H   -0.037440   0.009243   0.002889  -0.000676   0.006787   0.003551
     3  H   -0.026720  -0.003207  -0.005249   0.000522  -0.000534  -0.000035
     4  C   -0.042384   0.001322   0.049127  -0.014114  -0.032218   0.000598
     5  H    0.000434   0.005530  -0.016155   0.005991  -0.008894  -0.000241
     6  H    0.006474   0.001445  -0.013765   0.002123   0.000650  -0.000051
     7  O    8.072342   0.300309  -0.069372   0.004366  -0.004002   0.000066
     8  H    0.300309   0.457864   0.101883  -0.005508  -0.000639   0.000004
     9  O   -0.069372   0.101883   8.351038   0.283579  -0.001381   0.000001
    10  H    0.004366  -0.005508   0.283579   0.618595  -0.000319  -0.000000
    11  Si  -0.004002  -0.000639  -0.001381  -0.000319  11.509958   0.434261
    12  O    0.000066   0.000004   0.000001  -0.000000   0.434261   7.774479
    13  H    0.000014   0.000002  -0.000003   0.000000  -0.032286   0.327725
    14  O   -0.016580   0.000194  -0.000072  -0.000018   0.407112  -0.028407
    15  H    0.049235  -0.001121   0.000799   0.000098  -0.032708   0.000367
    16  O    0.003839  -0.001350   0.006202  -0.000768   0.541588  -0.041064
    17  O    0.000001  -0.000002   0.000004  -0.000001   0.448920  -0.025292
    18  H    0.000006   0.000007   0.000001   0.000004  -0.032237   0.002507
              13         14         15         16         17         18
     1  C   -0.000832   0.011538  -0.014626  -0.024374   0.000373  -0.000129
     2  H    0.001099  -0.002429  -0.006708  -0.004264  -0.000291  -0.000056
     3  H    0.000019  -0.000078   0.002398   0.002081  -0.000003  -0.000001
     4  C    0.000320  -0.008891   0.000590   0.064413  -0.002916  -0.000157
     5  H   -0.000062   0.006165   0.004972  -0.037488   0.000963   0.000555
     6  H    0.000046   0.000841   0.000104  -0.023399  -0.000136   0.000023
     7  O    0.000014  -0.016580   0.049235   0.003839   0.000001   0.000006
     8  H    0.000002   0.000194  -0.001121  -0.001350  -0.000002   0.000007
     9  O   -0.000003  -0.000072   0.000799   0.006202   0.000004   0.000001
    10  H    0.000000  -0.000018   0.000098  -0.000768  -0.000001   0.000004
    11  Si  -0.032286   0.407112  -0.032708   0.541588   0.448920  -0.032237
    12  O    0.327725  -0.028407   0.000367  -0.041064  -0.025292   0.002507
    13  H    0.535512   0.000145  -0.000122   0.003081   0.002089  -0.000190
    14  O    0.000145   7.844140   0.343039  -0.030691  -0.040697   0.001390
    15  H   -0.000122   0.343039   0.444930  -0.001310   0.001561  -0.000118
    16  O    0.003081  -0.030691  -0.001310   8.185272  -0.030200  -0.001304
    17  O    0.002089  -0.040697   0.001561  -0.030200   7.757053   0.330510
    18  H   -0.000190   0.001390  -0.000118  -0.001304   0.330510   0.543648
 Mulliken charges:
               1
     1  C    0.107090
     2  H    0.066552
     3  H    0.063854
     4  C    0.016230
     5  H    0.109833
     6  H    0.117872
     7  O   -0.458537
     8  H    0.213162
     9  O   -0.672964
    10  H    0.109479
    11  Si   0.783012
    12  O   -0.444285
    13  H    0.163442
    14  O   -0.486701
    15  H    0.208619
    16  O   -0.610265
    17  O   -0.441936
    18  H    0.155542
 Sum of Mulliken charges =  -1.00000
 Mulliken charges with hydrogens summed into heavy atoms:
               1
     1  C    0.237496
     4  C    0.243935
     7  O   -0.245375
     9  O   -0.563485
    11  Si   0.783012
    12  O   -0.280843
    14  O   -0.278082
    16  O   -0.610265
    17  O   -0.286394
 APT charges:
               1
     1  C   -0.466239
     2  H    0.131096
     3  H    0.501035
     4  C   -0.457904
     5  H    0.183761
     6  H    0.476367
     7  O   -0.520459
     8  H    0.374064
     9  O   -0.906361
    10  H    0.299780
    11  Si   0.343451
    12  O   -0.485273
    13  H    0.404614
    14  O   -0.496773
    15  H    0.243558
    16  O   -0.560237
    17  O   -0.518220
    18  H    0.453739
 Sum of APT charges =  -1.00000
 APT charges with hydrogens summed into heavy atoms:
               1
     1  C    0.165892
     4  C    0.202223
     7  O   -0.146395
     9  O   -0.606581
    11  Si   0.343451
    12  O   -0.080659
    14  O   -0.253215
    16  O   -0.560237
    17  O   -0.064480
 Electronic spatial extent (au):  <R**2>=           1768.3436
 Charge=             -1.0000 electrons
 Dipole moment (field-independent basis, Debye):
    X=             -1.1814    Y=             -0.2112    Z=              0.0067  Tot=              1.2001
 Quadrupole moment (field-independent basis, Debye-Ang):
   XX=           -104.6244   YY=            -66.9032   ZZ=            -63.2057
   XY=              0.6270   XZ=              0.0558   YZ=              8.4157
 Traceless Quadrupole moment (field-independent basis, Debye-Ang):
   XX=            -26.3800   YY=             11.3412   ZZ=             15.0387
   XY=              0.6270   XZ=              0.0558   YZ=              8.4157
 Octapole moment (field-independent basis, Debye-Ang**2):
  XXX=            -54.5189  YYY=             -9.3510  ZZZ=             -1.3372  XYY=              0.1319
  XXY=              8.9968  XXZ=             -3.0307  XZZ=             -4.9827  YZZ=             -1.9487
  YYZ=             -2.7541  XYZ=             -0.4349
 Hexadecapole moment (field-independent basis, Debye-Ang**3):
 XXXX=          -2063.9601 YYYY=           -348.9963 ZZZZ=           -279.9172 XXXY=             54.5699
 XXXZ=            -17.7872 YYYX=            -23.8361 YYYZ=             22.1629 ZZZX=            -12.5384
 ZZZY=             23.5027 XXYY=           -354.2286 XXZZ=           -278.5524 YYZZ=            -92.6792
 XXYZ=             26.1176 YYXZ=              1.2406 ZZXY=             -1.4425
 N-N= 6.180673048481D+02 E-N=-3.199153166816D+03  KE= 8.199947156082D+02
  Exact polarizability:       0.000       0.000       0.000       0.000       0.000       0.000
 Approx polarizability:     101.278      -4.147      76.331      -6.491       2.456      80.236
   1 Symmetry operations used in ECPInt.
 ECPInt:  NShTT=   12246 NPrTT=   33908 LenC2=   11548 LenP2D=   24988.
 LDataN:  DoStor=T MaxTD1= 8 Len=  415
 Calling FoFJK, ICntrl=    100127 FMM=F ISym2X=0 I1Cent= 0 IOpClX= 0 NMat=1 NMatS=1 NMatT=0.
 -------------------------------------------------------------------
 Center     Atomic                   Forces (Hartrees/Bohr)
 Number     Number              X              Y              Z
 -------------------------------------------------------------------
      1        6          -0.000000196   -0.000000196   -0.000000967
      2        1           0.000000159    0.000000743   -0.000001656
      3        1          -0.000000024    0.000000436   -0.000000422
      4        6          -0.000000185   -0.000000143    0.000000825
      5        1          -0.000000208   -0.000000741    0.000001617
      6        1          -0.000001095    0.000001140    0.000001732
      7        8           0.000000611   -0.000001638   -0.000000950
      8        1           0.000000411   -0.000001972    0.000000295
      9        8          -0.000000402   -0.000001553    0.000001787
     10        1          -0.000000563   -0.000001905    0.000002900
     11       14          -0.000000559    0.000001262   -0.000000458
     12        8           0.000000170    0.000002061   -0.000002047
     13        1           0.000000108    0.000002850   -0.000002377
     14        8           0.000000687   -0.000000616   -0.000001298
     15        1           0.000001960   -0.000001195   -0.000000447
     16        8          -0.000000236    0.000001456    0.000000825
     17        8          -0.000000359    0.000000539   -0.000000157
     18        1          -0.000000280   -0.000000530    0.000000798
 -------------------------------------------------------------------
 Cartesian Forces:  Max     0.000002900 RMS     0.000001195
 IRC-IRC-IRC-IRC-IRC-IRC-IRC-IRC-IRC-IRC-IRC-IRC-IRC-IRC-IRC-IRC-IRC-IRC
          ******** Start new reaction path calculation ********
 Supplied step size of   0.1000 bohr.
    Integration on MW PES will use step size of   0.2911 sqrt(amu)*bohr.
 Point Number:   0          Path Number:   1
 Calculating another point on the path.
 IRC-IRC-IRC-IRC-IRC-IRC-IRC-IRC-IRC-IRC-IRC-IRC-IRC-IRC-IRC-IRC-IRC-IRC
                          Input orientation:                          
 ---------------------------------------------------------------------
 Center     Atomic      Atomic             Coordinates (Angstroms)
 Number     Number       Type             X           Y           Z
 ---------------------------------------------------------------------
      1          6           0        1.796687    0.805033    0.592999
      2          1           0        0.928035    1.367540    0.923502
      3          1           0        2.616894    0.976036    1.299446
      4          6           0        1.512022   -0.672998    0.554366
      5          1           0        1.171876   -1.119831   -0.358811
      6          1           0        1.675108   -1.291703    1.414973
      7          8           0        2.152371    1.240542   -0.702091
      8          1           0        2.810604    0.544700   -0.923073
      9          8           0        3.351939   -0.927770   -0.096428
     10          1           0        3.306433   -1.746505   -0.588406
     11         14           0       -1.424095   -0.085561    0.023118
     12          8           0       -2.425730    1.045185    0.723733
     13          1           0       -2.106010    1.234362    1.602844
     14          8           0       -0.735132    0.532048   -1.356832
     15          1           0        0.169267    0.856369   -1.289729
     16          8           0       -0.373051   -0.594080    1.087940
     17          8           0       -2.489156   -1.201387   -0.597308
     18          1           0       -2.202900   -1.518339   -1.449871
 ---------------------------------------------------------------------
                    Distance matrix (angstroms):
                    1          2          3          4          5
     1  C    0.000000
     2  H    1.086371   0.000000
     3  H    1.095923   1.773937   0.000000
     4  C    1.505690   2.154321   2.120188   0.000000
     5  H    2.236388   2.809056   3.038181   1.072031   0.000000
     6  H    2.255377   2.805572   2.458240   1.072397   1.851780
     7  O    1.411891   2.039039   2.071689   2.377050   2.578870
     8  H    1.842356   2.762421   2.272259   2.313423   2.403015
     9  O    2.428317   3.490561   2.472495   1.968180   2.204179
    10  H    3.191457   4.199991   3.384033   2.382909   2.236463
    11  Si   3.389892   2.907699   4.368706   3.041068   2.820399
    12  O    4.231261   3.375138   5.075853   4.299620   4.336123
    13  H    4.054029   3.112020   4.739683   4.222261   4.487187
    14  O    3.207253   2.943483   4.299885   3.186615   2.713196
    15  H    2.489136   2.394873   3.564971   2.746387   2.403580
    16  O    2.628735   2.359622   3.383750   1.960722   2.180895
    17  O    4.879653   4.537559   5.866054   4.197020   3.669699
    18  H    5.056489   4.874829   6.083672   4.304906   3.569081
                    6          7          8          9         10
     6  H    0.000000
     7  O    3.334967   0.000000
     8  H    3.182480   0.983006   0.000000
     9  O    2.286600   2.550955   1.773288   0.000000
    10  H    2.623279   3.204252   2.368009   0.956263   0.000000
    11  Si   3.605149   3.882730   4.384653   4.851197   5.050802
    12  O    4.770297   4.798974   5.511955   6.160087   6.509450
    13  H    4.551171   4.842166   5.570366   6.111591   6.556042
    14  O    4.101003   3.044392   3.572191   4.519274   4.702822
    15  H    3.767914   2.103713   2.684816   3.838817   4.136256
    16  O    2.188283   3.598306   3.934037   3.922961   4.204382
    17  O    4.625855   5.245739   5.589490   5.868913   5.821176
    18  H    4.826763   5.209510   5.446914   5.747766   5.580944
                   11         12         13         14         15
    11  Si   0.000000
    12  O    1.665149   0.000000
    13  H    2.168580   0.954382   0.000000
    14  O    1.661438   2.729502   3.336500   0.000000
    15  H    2.269274   3.289938   3.699559   0.963133   0.000000
    16  O    1.580232   2.652042   2.571278   2.715912   2.837467
    17  O    1.662633   2.606964   3.304595   2.580364   3.432349
    18  H    2.197518   3.368363   4.111669   2.523309   3.360367
                   16         17         18
    16  O    0.000000
    17  O    2.772505   0.000000
    18  H    3.262375   0.953554   0.000000
 Symmetry turned off by external request.
 Stoichiometry    C2H9O6Si(1-)
 Framework group  C1[X(C2H9O6Si)]
 Deg. of freedom    48
 Full point group                 C1      NOp   1
 Rotational constants (GHZ):           2.4415362           0.7107958           0.6844708
 Standard basis: def2TZVPP (5D, 7F)
   416 basis functions,   630 primitive gaussians,   471 cartesian basis functions
    42 alpha electrons       42 beta electrons
       nuclear repulsion energy       617.8548030073 Hartrees.
 NAtoms=   18 NActive=   18 NUniq=   18 SFac= 1.00D+00 NAtFMM=   60 NAOKFM=F Big=F
 Integral buffers will be    131072 words long.
 Raffenetti 2 integral format.
 Two-electron integral symmetry is turned off.
 Nuclear repulsion after empirical dispersion term =      617.8451506578 Hartrees.
 One-electron integrals computed using PRISM.
   1 Symmetry operations used in ECPInt.
 ECPInt:  NShTT=   12246 NPrTT=   33908 LenC2=   11549 LenP2D=   24979.
 LDataN:  DoStor=T MaxTD1= 6 Len=  172
 NBasis=   416 RedAO= T EigKep=  1.79D-04  NBF=   416
 NBsUse=   416 1.00D-06 EigRej= -1.00D+00 NBFU=   416
 Initial guess from the checkpoint file:  "IRC_attackingOHDeprotonated_SiOH4Attack_reverse.chk"
 B after Tr=     0.094126   -0.007894    0.007077
         Rot=    1.000000   -0.000014    0.000004   -0.000013 Ang=  -0.00 deg.
 ExpMin= 7.01D-02 ExpMax= 4.48D+04 ExpMxC= 1.53D+03 IAcc=3 IRadAn=         5 AccDes= 0.00D+00
 Harris functional with IExCor= 4639 and IRadAn=       5 diagonalized for initial guess.
 HarFok:  IExCor= 4639 AccDes= 0.00D+00 IRadAn=         5 IDoV= 1 UseB2=F ITyADJ=14
 ICtDFT=  3500011 ScaDFX=  1.000000  1.000000  1.000000  1.000000
 FoFCou: FMM=F IPFlag=           0 FMFlag=      100000 FMFlg1=           0
         NFxFlg=           0 DoJE=T BraDBF=F KetDBF=T FulRan=T
         wScrn=  0.000000 ICntrl=       500 IOpCl=  0 I1Cent=   200000004 NGrid=           0
         NMat0=    1 NMatS0=      1 NMatT0=    0 NMatD0=    1 NMtDS0=    0 NMtDT0=    0
 Symmetry not used in FoFCou.
 Requested convergence on RMS density matrix=1.00D-08 within 128 cycles.
 Requested convergence on MAX density matrix=1.00D-06.
 Requested convergence on             energy=1.00D-06.
 No special actions if energy rises.
 Integral accuracy reduced to 1.0D-05 until final iterations.
 Initial convergence to 1.0D-05 achieved.  Increase integral accuracy.
 SCF Done:  E(RwB97XD) =  -822.737502464     A.U. after   13 cycles
            NFock= 13  Conv=0.55D-08     -V/T= 2.0033
 DoSCS=F DFT=T ScalE2(SS,OS)=  1.000000  1.000000
 Range of M.O.s used for correlation:     1   416
 NBasis=   416 NAE=    42 NBE=    42 NFC=     0 NFV=     0
 NROrb=    416 NOA=    42 NOB=    42 NVA=   374 NVB=   374

 **** Warning!!: The largest alpha MO coefficient is  0.11457507D+02

 Symmetrizing basis deriv contribution to polar:
 IMax=3 JMax=2 DiffMx= 0.00D+00
   1 Symmetry operations used in ECPInt.
 ECPInt:  NShTT=   12246 NPrTT=   33908 LenC2=   11549 LenP2D=   24979.
 LDataN:  DoStor=T MaxTD1= 7 Len=  274
 Calling FoFJK, ICntrl=      2127 FMM=F ISym2X=0 I1Cent= 0 IOpClX= 0 NMat=1 NMatS=1 NMatT=0.
 -------------------------------------------------------------------
 Center     Atomic                   Forces (Hartrees/Bohr)
 Number     Number              X              Y              Z
 -------------------------------------------------------------------
      1        6           0.000825803   -0.000179024   -0.000191554
      2        1          -0.000104477   -0.000426947   -0.000062346
      3        1          -0.000021951    0.000267169   -0.000006948
      4        6           0.011125800   -0.002067920   -0.003429077
      5        1          -0.000047188    0.000371438    0.000706388
      6        1          -0.000201356    0.000349673   -0.000332093
      7        8          -0.000179915    0.001728599   -0.000284580
      8        1           0.000062153    0.000267871   -0.000262859
      9        8          -0.004691526   -0.000294640    0.002337368
     10        1          -0.000325288   -0.000034229    0.000201536
     11       14          -0.000770619   -0.000589580    0.001373483
     12        8          -0.000671797    0.001002608   -0.000533803
     13        1          -0.000044713   -0.000167206   -0.000028667
     14        8          -0.000288823   -0.000093661   -0.000295111
     15        1          -0.000048959    0.000056026    0.000048393
     16        8          -0.004099872   -0.000166397    0.001517103
     17        8          -0.000492073   -0.000087303   -0.000693769
     18        1          -0.000025199    0.000063523   -0.000063463
 -------------------------------------------------------------------
 Cartesian Forces:  Max     0.011125800 RMS     0.001911805
 IRC-IRC-IRC-IRC-IRC-IRC-IRC-IRC-IRC-IRC-IRC-IRC-IRC-IRC-IRC-IRC-IRC-IRC
 Pt  1 Step number   1 out of a maximum of  20
 Modified Bulirsch-Stoer Extrapolation Cycles:
    EPS =    0.000010000000000
      PEZero:  N= 2 I= 1 D=  7.58D-04 Err=  1.87D-03
      PEZero:  N= 3 I= 2 D=  7.58D-04 Err=  1.24D-03
      PEZero:  N= 3 I= 1 D=  1.52D-03 Err=  8.56D-07
 Maximum DWI energy   std dev =  0.000001537 at pt     2
 Maximum DWI gradient std dev =  0.120681166 at pt     2
 CORRECTOR INTEGRATION CONVERGENCE:
   Recorrection delta-x convergence threshold:    0.010000
   Delta-x Convergence Met
 Point Number:   1          Path Number:   1
   CHANGE IN THE REACTION COORDINATE =    0.29104
   NET REACTION COORDINATE UP TO THIS POINT =    0.29104
  # OF POINTS ALONG THE PATH =   1
  # OF STEPS =   1

 Calculating another point on the path.
 IRC-IRC-IRC-IRC-IRC-IRC-IRC-IRC-IRC-IRC-IRC-IRC-IRC-IRC-IRC-IRC-IRC-IRC
                          Input orientation:                          
 ---------------------------------------------------------------------
 Center     Atomic      Atomic             Coordinates (Angstroms)
 Number     Number       Type             X           Y           Z
 ---------------------------------------------------------------------
      1          6           0        1.799433    0.804515    0.592241
      2          1           0        0.922402    1.352828    0.921671
      3          1           0        2.616776    0.986436    1.300035
      4          6           0        1.548419   -0.677820    0.544038
      5          1           0        1.161727   -1.117719   -0.355146
      6          1           0        1.671019   -1.289936    1.417090
      7          8           0        2.152024    1.244618   -0.702811
      8          1           0        2.810819    0.557153   -0.932426
      9          8           0        3.340522   -0.928491   -0.090731
     10          1           0        3.293538   -1.748310   -0.580692
     11         14           0       -1.425074   -0.086416    0.025073
     12          8           0       -2.427382    1.047588    0.722360
     13          1           0       -2.107267    1.228223    1.603189
     14          8           0       -0.735813    0.531836   -1.357544
     15          1           0        0.166871    0.858394   -1.287862
     16          8           0       -0.383087   -0.594446    1.091454
     17          8           0       -2.490358   -1.201599   -0.598985
     18          1           0       -2.203845   -1.515845   -1.452355
 ---------------------------------------------------------------------
                    Distance matrix (angstroms):
                    1          2          3          4          5
     1  C    0.000000
     2  H    1.085521   0.000000
     3  H    1.096411   1.774347   0.000000
     4  C    1.504211   2.158249   2.117231   0.000000
     5  H    2.235888   2.791262   3.047008   1.073114   0.000000
     6  H    2.254682   2.791070   2.467798   1.073283   1.851987
     7  O    1.412505   2.040250   2.072207   2.369545   2.584995
     8  H    1.846266   2.763493   2.281626   2.301903   2.420321
     9  O    2.417584   3.475151   2.474870   1.917655   2.202923
    10  H    3.181987   4.182875   3.387326   2.335895   2.234532
    11  Si   3.393064   2.895851   4.371852   3.075832   2.810639
    12  O    4.235797   3.369562   5.077497   4.337721   4.327964
    13  H    4.057567   3.107875   4.739931   4.256623   4.474913
    14  O    3.209905   2.935732   4.302236   3.208894   2.706749
    15  H    2.490572   2.386907   3.565899   2.761248   2.400984
    16  O    2.640019   2.350533   3.397333   2.009310   2.180118
    17  O    4.883218   4.525972   5.871677   4.229960   3.661177
    18  H    5.058724   4.861965   6.088961   4.332131   3.562225
                    6          7          8          9         10
     6  H    0.000000
     7  O    3.339059   0.000000
     8  H    3.198610   0.979460   0.000000
     9  O    2.278465   2.551387   1.787785   0.000000
    10  H    2.614155   3.205556   2.381574   0.956229   0.000000
    11  Si   3.601661   3.885498   4.390190   4.840805   5.039259
    12  O    4.769020   4.800093   5.515214   6.150993   6.499532
    13  H    4.544360   4.843497   5.573800   6.099113   6.542001
    14  O    4.100035   3.045708   3.572109   4.511527   4.694490
    15  H    3.767566   2.105300   2.684686   3.833815   4.131712
    16  O    2.192965   3.609478   3.952632   3.921021   4.200600
    17  O    4.624870   5.248473   5.595254   5.859357   5.809705
    18  H    4.826938   5.211101   5.451101   5.739252   5.570912
                   11         12         13         14         15
    11  Si   0.000000
    12  O    1.666372   0.000000
    13  H    2.164281   0.954443   0.000000
    14  O    1.664015   2.730093   3.336432   0.000000
    15  H    2.269527   3.287390   3.696843   0.962462   0.000000
    16  O    1.575119   2.647952   2.560624   2.718551   2.841539
    17  O    1.663705   2.609360   3.301570   2.580433   3.432053
    18  H    2.198306   3.369057   4.107991   2.521330   3.359221
                   16         17         18
    16  O    0.000000
    17  O    2.768901   0.000000
    18  H    3.261151   0.953457   0.000000
 Symmetry turned off by external request.
 Stoichiometry    C2H9O6Si(1-)
 Framework group  C1[X(C2H9O6Si)]
 Deg. of freedom    48
 Full point group                 C1      NOp   1
 Rotational constants (GHZ):           2.4375105           0.7102971           0.6836474
 Standard basis: def2TZVPP (5D, 7F)
   416 basis functions,   630 primitive gaussians,   471 cartesian basis functions
    42 alpha electrons       42 beta electrons
       nuclear repulsion energy       617.6750462359 Hartrees.
 NAtoms=   18 NActive=   18 NUniq=   18 SFac= 1.00D+00 NAtFMM=   60 NAOKFM=F Big=F
 Integral buffers will be    131072 words long.
 Raffenetti 2 integral format.
 Two-electron integral symmetry is turned off.
 Nuclear repulsion after empirical dispersion term =      617.6654024326 Hartrees.
 One-electron integrals computed using PRISM.
   1 Symmetry operations used in ECPInt.
 ECPInt:  NShTT=   12246 NPrTT=   33908 LenC2=   11551 LenP2D=   24978.
 LDataN:  DoStor=T MaxTD1= 6 Len=  172
 NBasis=   416 RedAO= T EigKep=  1.80D-04  NBF=   416
 NBsUse=   416 1.00D-06 EigRej= -1.00D+00 NBFU=   416
 Initial guess from the checkpoint file:  "IRC_attackingOHDeprotonated_SiOH4Attack_reverse.chk"
 B after Tr=    -0.000428    0.000095    0.000029
         Rot=    1.000000   -0.000004    0.000007   -0.000017 Ang=  -0.00 deg.
 ExpMin= 7.01D-02 ExpMax= 4.48D+04 ExpMxC= 1.53D+03 IAcc=3 IRadAn=         5 AccDes= 0.00D+00
 Harris functional with IExCor= 4639 and IRadAn=       5 diagonalized for initial guess.
 HarFok:  IExCor= 4639 AccDes= 0.00D+00 IRadAn=         5 IDoV= 1 UseB2=F ITyADJ=14
 ICtDFT=  3500011 ScaDFX=  1.000000  1.000000  1.000000  1.000000
 FoFCou: FMM=F IPFlag=           0 FMFlag=      100000 FMFlg1=           0
         NFxFlg=           0 DoJE=T BraDBF=F KetDBF=T FulRan=T
         wScrn=  0.000000 ICntrl=       500 IOpCl=  0 I1Cent=   200000004 NGrid=           0
         NMat0=    1 NMatS0=      1 NMatT0=    0 NMatD0=    1 NMtDS0=    0 NMtDT0=    0
 Symmetry not used in FoFCou.
 Requested convergence on RMS density matrix=1.00D-08 within 128 cycles.
 Requested convergence on MAX density matrix=1.00D-06.
 Requested convergence on             energy=1.00D-06.
 No special actions if energy rises.
 Integral accuracy reduced to 1.0D-05 until final iterations.
 Initial convergence to 1.0D-05 achieved.  Increase integral accuracy.
 SCF Done:  E(RwB97XD) =  -822.739210107     A.U. after   13 cycles
            NFock= 13  Conv=0.52D-08     -V/T= 2.0033
 DoSCS=F DFT=T ScalE2(SS,OS)=  1.000000  1.000000
 Range of M.O.s used for correlation:     1   416
 NBasis=   416 NAE=    42 NBE=    42 NFC=     0 NFV=     0
 NROrb=    416 NOA=    42 NOB=    42 NVA=   374 NVB=   374

 **** Warning!!: The largest alpha MO coefficient is  0.11428902D+02

 Symmetrizing basis deriv contribution to polar:
 IMax=3 JMax=2 DiffMx= 0.00D+00
   1 Symmetry operations used in ECPInt.
 ECPInt:  NShTT=   12246 NPrTT=   33908 LenC2=   11551 LenP2D=   24978.
 LDataN:  DoStor=T MaxTD1= 7 Len=  274
 Calling FoFJK, ICntrl=      2127 FMM=F ISym2X=0 I1Cent= 0 IOpClX= 0 NMat=1 NMatS=1 NMatT=0.
 -------------------------------------------------------------------
 Center     Atomic                   Forces (Hartrees/Bohr)
 Number     Number              X              Y              Z
 -------------------------------------------------------------------
      1        6           0.001624233   -0.000388733   -0.000375397
      2        1          -0.000196745   -0.000856681   -0.000129423
      3        1          -0.000059096    0.000518637   -0.000019874
      4        6           0.021700379   -0.004013632   -0.006637954
      5        1          -0.000027385    0.000740526    0.001393110
      6        1          -0.000322152    0.000730187   -0.000721861
      7        8          -0.000392017    0.003407401   -0.000552296
      8        1           0.000141183    0.000484069   -0.000496225
      9        8          -0.009755337   -0.000554325    0.004722352
     10        1          -0.000585239   -0.000057676    0.000378573
     11       14          -0.001560479   -0.001108262    0.002562831
     12        8          -0.001277661    0.001928681   -0.001033328
     13        1          -0.000093749   -0.000318058   -0.000049235
     14        8          -0.000571712   -0.000198170   -0.000532727
     15        1          -0.000082557    0.000112424    0.000096196
     16        8          -0.007550321   -0.000383854    0.002855149
     17        8          -0.000945637   -0.000168572   -0.001335568
     18        1          -0.000045707    0.000126038   -0.000124324
 -------------------------------------------------------------------
 Cartesian Forces:  Max     0.021700379 RMS     0.003739282
 IRC-IRC-IRC-IRC-IRC-IRC-IRC-IRC-IRC-IRC-IRC-IRC-IRC-IRC-IRC-IRC-IRC-IRC
 Pt  2 Step number   1 out of a maximum of  20
 Modified Bulirsch-Stoer Extrapolation Cycles:
    EPS =    0.000010000000000
      PEZero:  N= 2 I= 1 D=  1.52D-03 Err=  3.56D-05
      PEZero:  N= 3 I= 2 D=  1.52D-03 Err=  2.37D-05
      PEZero:  N= 3 I= 1 D=  3.03D-03 Err=  4.70D-08
 Maximum DWI energy   std dev =  0.000002283 at pt    34
 Maximum DWI gradient std dev =  0.084618029 at pt    27
 CORRECTOR INTEGRATION CONVERGENCE:
   Recorrection delta-x convergence threshold:    0.010000
   Delta-x Convergence Met
 Point Number:   2          Path Number:   1
   CHANGE IN THE REACTION COORDINATE =    0.29094
   NET REACTION COORDINATE UP TO THIS POINT =    0.58198
  # OF POINTS ALONG THE PATH =   2
  # OF STEPS =   1

 Calculating another point on the path.
 IRC-IRC-IRC-IRC-IRC-IRC-IRC-IRC-IRC-IRC-IRC-IRC-IRC-IRC-IRC-IRC-IRC-IRC
                          Input orientation:                          
 ---------------------------------------------------------------------
 Center     Atomic      Atomic             Coordinates (Angstroms)
 Number     Number       Type             X           Y           Z
 ---------------------------------------------------------------------
      1          6           0        1.802165    0.803777    0.591484
      2          1           0        0.916477    1.336969    0.919668
      3          1           0        2.616366    0.997230    1.300546
      4          6           0        1.584684   -0.682600    0.533712
      5          1           0        1.153157   -1.114070   -0.349453
      6          1           0        1.667691   -1.286461    1.417594
      7          8           0        2.151650    1.248716   -0.703547
      8          1           0        2.811357    0.569439   -0.941723
      9          8           0        3.328130   -0.929156   -0.084788
     10          1           0        3.281443   -1.749896   -0.573094
     11         14           0       -1.426086   -0.087233    0.026935
     12          8           0       -2.428971    1.049944    0.721014
     13          1           0       -2.108751    1.221970    1.603570
     14          8           0       -0.736472    0.531609   -1.358199
     15          1           0        0.164544    0.860483   -1.285876
     16          8           0       -0.392299   -0.594911    1.094771
     17          8           0       -2.491528   -1.201814   -0.600635
     18          1           0       -2.204785   -1.513218   -1.454880
 ---------------------------------------------------------------------
                    Distance matrix (angstroms):
                    1          2          3          4          5
     1  C    0.000000
     2  H    1.084639   0.000000
     3  H    1.096867   1.774856   0.000000
     4  C    1.503313   2.161971   2.115238   0.000000
     5  H    2.232647   2.770249   3.053042   1.073481   0.000000
     6  H    2.251586   2.773921   2.475668   1.073680   1.848491
     7  O    1.413229   2.041634   2.072582   2.362676   2.589426
     8  H    1.850434   2.764860   2.291025   2.291121   2.436106
     9  O    2.406028   3.458370   2.477241   1.866263   2.198806
    10  H    3.172657   4.165349   3.391099   2.289788   2.232463
    11  Si   3.396206   2.883214   4.374879   3.110630   2.801528
    12  O    4.240269   3.363609   5.078785   4.375638   4.319780
    13  H    4.061338   3.103700   4.740155   4.291089   4.462222
    14  O    3.212478   2.927376   4.304330   3.231314   2.701209
    15  H    2.491887   2.378418   3.566471   2.776473   2.398563
    16  O    2.650528   2.340025   3.410180   2.056925   2.178013
    17  O    4.886649   4.513451   5.877148   4.262843   3.654384
    18  H    5.060802   4.848126   6.094114   4.359415   3.557677
                    6          7          8          9         10
     6  H    0.000000
     7  O    3.340746   0.000000
     8  H    3.212276   0.976400   0.000000
     9  O    2.267570   2.551489   1.801993   0.000000
    10  H    2.604190   3.207042   2.395033   0.956157   0.000000
    11  Si   3.597713   3.888259   4.396071   4.829481   5.028450
    12  O    4.767248   4.801143   5.518751   6.140877   6.490196
    13  H    4.537437   4.845052   5.577793   6.085850   6.528709
    14  O    4.097610   3.046976   3.572391   4.502933   4.686715
    15  H    3.765312   2.106757   2.684915   3.828016   4.127614
    16  O    2.196820   3.620026   3.970697   3.917228   4.196682
    17  O    4.623800   5.251171   5.601274   5.848834   5.798995
    18  H    4.826862   5.212610   5.455499   5.729872   5.561677
                   11         12         13         14         15
    11  Si   0.000000
    12  O    1.667542   0.000000
    13  H    2.160051   0.954483   0.000000
    14  O    1.666472   2.730632   3.336439   0.000000
    15  H    2.269745   3.284786   3.694244   0.961883   0.000000
    16  O    1.570581   2.644480   2.550714   2.721133   2.845299
    17  O    1.664723   2.611721   3.298449   2.580480   3.431813
    18  H    2.198996   3.369656   4.104216   2.519247   3.358085
                   16         17         18
    16  O    0.000000
    17  O    2.765772   0.000000
    18  H    3.260232   0.953378   0.000000
 Symmetry turned off by external request.
 Stoichiometry    C2H9O6Si(1-)
 Framework group  C1[X(C2H9O6Si)]
 Deg. of freedom    48
 Full point group                 C1      NOp   1
 Rotational constants (GHZ):           2.4338121           0.7098867           0.6829063
 Standard basis: def2TZVPP (5D, 7F)
   416 basis functions,   630 primitive gaussians,   471 cartesian basis functions
    42 alpha electrons       42 beta electrons
       nuclear repulsion energy       617.5647021605 Hartrees.
 NAtoms=   18 NActive=   18 NUniq=   18 SFac= 1.00D+00 NAtFMM=   60 NAOKFM=F Big=F
 Integral buffers will be    131072 words long.
 Raffenetti 2 integral format.
 Two-electron integral symmetry is turned off.
 Nuclear repulsion after empirical dispersion term =      617.5550667025 Hartrees.
 One-electron integrals computed using PRISM.
   1 Symmetry operations used in ECPInt.
 ECPInt:  NShTT=   12246 NPrTT=   33908 LenC2=   11550 LenP2D=   24977.
 LDataN:  DoStor=T MaxTD1= 6 Len=  172
 NBasis=   416 RedAO= T EigKep=  1.80D-04  NBF=   416
 NBsUse=   416 1.00D-06 EigRej= -1.00D+00 NBFU=   416
 Initial guess from the checkpoint file:  "IRC_attackingOHDeprotonated_SiOH4Attack_reverse.chk"
 B after Tr=    -0.000408    0.000126    0.000030
         Rot=    1.000000   -0.000004    0.000007   -0.000025 Ang=  -0.00 deg.
 ExpMin= 7.01D-02 ExpMax= 4.48D+04 ExpMxC= 1.53D+03 IAcc=3 IRadAn=         5 AccDes= 0.00D+00
 Harris functional with IExCor= 4639 and IRadAn=       5 diagonalized for initial guess.
 HarFok:  IExCor= 4639 AccDes= 0.00D+00 IRadAn=         5 IDoV= 1 UseB2=F ITyADJ=14
 ICtDFT=  3500011 ScaDFX=  1.000000  1.000000  1.000000  1.000000
 FoFCou: FMM=F IPFlag=           0 FMFlag=      100000 FMFlg1=           0
         NFxFlg=           0 DoJE=T BraDBF=F KetDBF=T FulRan=T
         wScrn=  0.000000 ICntrl=       500 IOpCl=  0 I1Cent=   200000004 NGrid=           0
         NMat0=    1 NMatS0=      1 NMatT0=    0 NMatD0=    1 NMtDS0=    0 NMtDT0=    0
 Symmetry not used in FoFCou.
 Requested convergence on RMS density matrix=1.00D-08 within 128 cycles.
 Requested convergence on MAX density matrix=1.00D-06.
 Requested convergence on             energy=1.00D-06.
 No special actions if energy rises.
 Integral accuracy reduced to 1.0D-05 until final iterations.
 Initial convergence to 1.0D-05 achieved.  Increase integral accuracy.
 SCF Done:  E(RwB97XD) =  -822.742016157     A.U. after   13 cycles
            NFock= 13  Conv=0.47D-08     -V/T= 2.0033
 DoSCS=F DFT=T ScalE2(SS,OS)=  1.000000  1.000000
 Range of M.O.s used for correlation:     1   416
 NBasis=   416 NAE=    42 NBE=    42 NFC=     0 NFV=     0
 NROrb=    416 NOA=    42 NOB=    42 NVA=   374 NVB=   374

 **** Warning!!: The largest alpha MO coefficient is  0.14428142D+02

 Symmetrizing basis deriv contribution to polar:
 IMax=3 JMax=2 DiffMx= 0.00D+00
   1 Symmetry operations used in ECPInt.
 ECPInt:  NShTT=   12246 NPrTT=   33908 LenC2=   11550 LenP2D=   24977.
 LDataN:  DoStor=T MaxTD1= 7 Len=  274
 Calling FoFJK, ICntrl=      2127 FMM=F ISym2X=0 I1Cent= 0 IOpClX= 0 NMat=1 NMatS=1 NMatT=0.
 -------------------------------------------------------------------
 Center     Atomic                   Forces (Hartrees/Bohr)
 Number     Number              X              Y              Z
 -------------------------------------------------------------------
      1        6           0.002427793   -0.000703642   -0.000606676
      2        1          -0.000306858   -0.001226989   -0.000184370
      3        1          -0.000092933    0.000751163   -0.000015354
      4        6           0.031910504   -0.005159402   -0.009487999
      5        1          -0.000192779    0.000838071    0.001533955
      6        1          -0.000354846    0.000814036   -0.000710828
      7        8          -0.000550117    0.004952628   -0.000842577
      8        1           0.000134657    0.000770667   -0.000689144
      9        8          -0.014576385   -0.000849262    0.006951087
     10        1          -0.000797161   -0.000094477    0.000528021
     11       14          -0.002239513   -0.001599751    0.003634397
     12        8          -0.001811561    0.002755857   -0.001504616
     13        1          -0.000137436   -0.000437201   -0.000038667
     14        8          -0.000817831   -0.000291178   -0.000720256
     15        1          -0.000110117    0.000151823    0.000145098
     16        8          -0.011069346   -0.000609708    0.004107167
     17        8          -0.001351958   -0.000246713   -0.001924422
     18        1          -0.000064114    0.000184079   -0.000174816
 -------------------------------------------------------------------
 Cartesian Forces:  Max     0.031910504 RMS     0.005474231
 IRC-IRC-IRC-IRC-IRC-IRC-IRC-IRC-IRC-IRC-IRC-IRC-IRC-IRC-IRC-IRC-IRC-IRC
 Pt  3 Step number   1 out of a maximum of  20
 Modified Bulirsch-Stoer Extrapolation Cycles:
    EPS =    0.000010000000000
      PEZero:  N= 2 I= 1 D=  1.52D-03 Err=  1.53D-05
      PEZero:  N= 3 I= 2 D=  1.52D-03 Err=  1.02D-05
      PEZero:  N= 3 I= 1 D=  3.03D-03 Err=  8.86D-08
 Maximum DWI energy   std dev =  0.000005485 at pt    25
 Maximum DWI gradient std dev =  0.051088478 at pt    28
 CORRECTOR INTEGRATION CONVERGENCE:
   Recorrection delta-x convergence threshold:    0.010000
   Delta-x Convergence Met
 Point Number:   3          Path Number:   1
   CHANGE IN THE REACTION COORDINATE =    0.29097
   NET REACTION COORDINATE UP TO THIS POINT =    0.87296
  # OF POINTS ALONG THE PATH =   3
  # OF STEPS =   1

 Calculating another point on the path.
 IRC-IRC-IRC-IRC-IRC-IRC-IRC-IRC-IRC-IRC-IRC-IRC-IRC-IRC-IRC-IRC-IRC-IRC
                          Input orientation:                          
 ---------------------------------------------------------------------
 Center     Atomic      Atomic             Coordinates (Angstroms)
 Number     Number       Type             X           Y           Z
 ---------------------------------------------------------------------
      1          6           0        1.804973    0.802881    0.590714
      2          1           0        0.910778    1.320736    0.917637
      3          1           0        2.615866    1.007931    1.300974
      4          6           0        1.620937   -0.687219    0.523445
      5          1           0        1.145527   -1.109453   -0.342375
      6          1           0        1.664835   -1.281973    1.417146
      7          8           0        2.151251    1.252823   -0.704296
      8          1           0        2.811999    0.581608   -0.950978
      9          8           0        3.315710   -0.929880   -0.078907
     10          1           0        3.270548   -1.751375   -0.565926
     11         14           0       -1.427163   -0.088004    0.028684
     12          8           0       -2.430517    1.052256    0.719695
     13          1           0       -2.110334    1.216071    1.603856
     14          8           0       -0.737103    0.531380   -1.358793
     15          1           0        0.162408    0.862345   -1.283850
     16          8           0       -0.401665   -0.595460    1.098216
     17          8           0       -2.492673   -1.202029   -0.602261
     18          1           0       -2.205670   -1.510680   -1.457334
 ---------------------------------------------------------------------
                    Distance matrix (angstroms):
                    1          2          3          4          5
     1  C    0.000000
     2  H    1.083806   0.000000
     3  H    1.097299   1.775421   0.000000
     4  C    1.502928   2.166009   2.113757   0.000000
     5  H    2.227676   2.747463   3.057091   1.074216   0.000000
     6  H    2.247053   2.755396   2.482260   1.074412   1.842650
     7  O    1.414003   2.043049   2.072908   2.356341   2.592839
     8  H    1.854690   2.766346   2.300327   2.280892   2.450961
     9  O    2.394406   3.441231   2.479711   1.814929   2.193479
    10  H    3.163851   4.148173   3.395246   2.245078   2.231087
    11  Si   3.399449   2.870671   4.377885   3.145593   2.792808
    12  O    4.244784   3.357903   5.079944   4.413452   4.311504
    13  H    4.065318   3.099834   4.740467   4.325758   4.449327
    14  O    3.215033   2.919028   4.306258   3.253944   2.696244
    15  H    2.493100   2.369963   3.566787   2.791912   2.396015
    16  O    2.661234   2.329575   3.423079   2.104685   2.175614
    17  O    4.890052   4.500879   5.882466   4.295815   3.648646
    18  H    5.062837   4.834216   6.099088   4.386854   3.554524
                    6          7          8          9         10
     6  H    0.000000
     7  O    3.341004   0.000000
     8  H    3.224427   0.973637   0.000000
     9  O    2.255556   2.551718   1.816267   0.000000
    10  H    2.594461   3.208922   2.408597   0.956076   0.000000
    11  Si   3.593583   3.891031   4.402114   4.818212   5.018849
    12  O    4.765183   4.802142   5.522375   6.130721   6.481921
    13  H    4.530672   4.846651   5.582032   6.072788   6.516716
    14  O    4.094312   3.048185   3.572808   4.494294   4.679837
    15  H    3.761751   2.108045   2.685135   3.821946   4.124013
    16  O    2.200781   3.630782   3.989025   3.913608   4.194122
    17  O    4.622690   5.253831   5.607362   5.838259   5.789457
    18  H    4.826567   5.214094   5.459951   5.720404   5.553512
                   11         12         13         14         15
    11  Si   0.000000
    12  O    1.668654   0.000000
    13  H    2.156038   0.954513   0.000000
    14  O    1.668806   2.731130   3.336444   0.000000
    15  H    2.269944   3.282303   3.691792   0.961391   0.000000
    16  O    1.566224   2.640925   2.541036   2.723817   2.849143
    17  O    1.665670   2.614045   3.295504   2.580519   3.431568
    18  H    2.199621   3.370259   4.100628   2.517223   3.356954
                   16         17         18
    16  O    0.000000
    17  O    2.762583   0.000000
    18  H    3.259279   0.953303   0.000000
 Symmetry turned off by external request.
 Stoichiometry    C2H9O6Si(1-)
 Framework group  C1[X(C2H9O6Si)]
 Deg. of freedom    48
 Full point group                 C1      NOp   1
 Rotational constants (GHZ):           2.4301672           0.7094229           0.6821244
 Standard basis: def2TZVPP (5D, 7F)
   416 basis functions,   630 primitive gaussians,   471 cartesian basis functions
    42 alpha electrons       42 beta electrons
       nuclear repulsion energy       617.4866883481 Hartrees.
 NAtoms=   18 NActive=   18 NUniq=   18 SFac= 1.00D+00 NAtFMM=   60 NAOKFM=F Big=F
 Integral buffers will be    131072 words long.
 Raffenetti 2 integral format.
 Two-electron integral symmetry is turned off.
 Nuclear repulsion after empirical dispersion term =      617.4770604130 Hartrees.
 One-electron integrals computed using PRISM.
   1 Symmetry operations used in ECPInt.
 ECPInt:  NShTT=   12246 NPrTT=   33908 LenC2=   11546 LenP2D=   24972.
 LDataN:  DoStor=T MaxTD1= 6 Len=  172
 NBasis=   416 RedAO= T EigKep=  1.81D-04  NBF=   416
 NBsUse=   416 1.00D-06 EigRej= -1.00D+00 NBFU=   416
 Initial guess from the checkpoint file:  "IRC_attackingOHDeprotonated_SiOH4Attack_reverse.chk"
 B after Tr=    -0.000372    0.000143    0.000030
         Rot=    1.000000   -0.000001    0.000007   -0.000028 Ang=  -0.00 deg.
 ExpMin= 7.01D-02 ExpMax= 4.48D+04 ExpMxC= 1.53D+03 IAcc=3 IRadAn=         5 AccDes= 0.00D+00
 Harris functional with IExCor= 4639 and IRadAn=       5 diagonalized for initial guess.
 HarFok:  IExCor= 4639 AccDes= 0.00D+00 IRadAn=         5 IDoV= 1 UseB2=F ITyADJ=14
 ICtDFT=  3500011 ScaDFX=  1.000000  1.000000  1.000000  1.000000
 FoFCou: FMM=F IPFlag=           0 FMFlag=      100000 FMFlg1=           0
         NFxFlg=           0 DoJE=T BraDBF=F KetDBF=T FulRan=T
         wScrn=  0.000000 ICntrl=       500 IOpCl=  0 I1Cent=   200000004 NGrid=           0
         NMat0=    1 NMatS0=      1 NMatT0=    0 NMatD0=    1 NMtDS0=    0 NMtDT0=    0
 Symmetry not used in FoFCou.
 Requested convergence on RMS density matrix=1.00D-08 within 128 cycles.
 Requested convergence on MAX density matrix=1.00D-06.
 Requested convergence on             energy=1.00D-06.
 No special actions if energy rises.
 Integral accuracy reduced to 1.0D-05 until final iterations.
 Initial convergence to 1.0D-05 achieved.  Increase integral accuracy.
 SCF Done:  E(RwB97XD) =  -822.745775529     A.U. after   13 cycles
            NFock= 13  Conv=0.40D-08     -V/T= 2.0033
 DoSCS=F DFT=T ScalE2(SS,OS)=  1.000000  1.000000
 Range of M.O.s used for correlation:     1   416
 NBasis=   416 NAE=    42 NBE=    42 NFC=     0 NFV=     0
 NROrb=    416 NOA=    42 NOB=    42 NVA=   374 NVB=   374

 **** Warning!!: The largest alpha MO coefficient is  0.14817455D+02

 Symmetrizing basis deriv contribution to polar:
 IMax=3 JMax=2 DiffMx= 0.00D+00
   1 Symmetry operations used in ECPInt.
 ECPInt:  NShTT=   12246 NPrTT=   33908 LenC2=   11546 LenP2D=   24972.
 LDataN:  DoStor=T MaxTD1= 7 Len=  274
 Calling FoFJK, ICntrl=      2127 FMM=F ISym2X=0 I1Cent= 0 IOpClX= 0 NMat=1 NMatS=1 NMatT=0.
 -------------------------------------------------------------------
 Center     Atomic                   Forces (Hartrees/Bohr)
 Number     Number              X              Y              Z
 -------------------------------------------------------------------
      1        6           0.003328556   -0.001125221   -0.000861423
      2        1          -0.000427074   -0.001625958   -0.000216379
      3        1          -0.000116236    0.001001366   -0.000011645
      4        6           0.039749537   -0.006094668   -0.011665618
      5        1          -0.000116086    0.000957358    0.001678112
      6        1          -0.000235051    0.000928133   -0.000772533
      7        8          -0.000726737    0.006435419   -0.001125739
      8        1           0.000150981    0.001063147   -0.000905458
      9        8          -0.019053604   -0.001206566    0.008967796
     10        1          -0.000953900   -0.000110969    0.000668367
     11       14          -0.003068923   -0.001939121    0.004385027
     12        8          -0.002291891    0.003503136   -0.001955055
     13        1          -0.000178015   -0.000539633   -0.000017692
     14        8          -0.001020956   -0.000383984   -0.000841935
     15        1          -0.000130438    0.000176987    0.000195939
     16        8          -0.013108871   -0.000958798    0.005161564
     17        8          -0.001722453   -0.000317309   -0.002455930
     18        1          -0.000078839    0.000236680   -0.000227400
 -------------------------------------------------------------------
 Cartesian Forces:  Max     0.039749537 RMS     0.006847062
 IRC-IRC-IRC-IRC-IRC-IRC-IRC-IRC-IRC-IRC-IRC-IRC-IRC-IRC-IRC-IRC-IRC-IRC
 Pt  4 Step number   1 out of a maximum of  20
 Modified Bulirsch-Stoer Extrapolation Cycles:
    EPS =    0.000010000000000
      PEZero:  N= 2 I= 1 D=  1.52D-03 Err=  2.79D-05
      PEZero:  N= 3 I= 2 D=  1.52D-03 Err=  1.86D-05
      PEZero:  N= 3 I= 1 D=  3.03D-03 Err=  1.42D-07
 Maximum DWI energy   std dev =  0.000010940 at pt    36
 Maximum DWI gradient std dev =  0.038364565 at pt    28
 CORRECTOR INTEGRATION CONVERGENCE:
   Recorrection delta-x convergence threshold:    0.010000
   Delta-x Convergence Met
 Point Number:   4          Path Number:   1
   CHANGE IN THE REACTION COORDINATE =    0.29097
   NET REACTION COORDINATE UP TO THIS POINT =    1.16393
  # OF POINTS ALONG THE PATH =   4
  # OF STEPS =   1

 Calculating another point on the path.
 IRC-IRC-IRC-IRC-IRC-IRC-IRC-IRC-IRC-IRC-IRC-IRC-IRC-IRC-IRC-IRC-IRC-IRC
                          Input orientation:                          
 ---------------------------------------------------------------------
 Center     Atomic      Atomic             Coordinates (Angstroms)
 Number     Number       Type             X           Y           Z
 ---------------------------------------------------------------------
      1          6           0        1.808085    0.801712    0.589839
      2          1           0        0.904936    1.303140    0.915528
      3          1           0        2.615263    1.019285    1.301305
      4          6           0        1.656890   -0.691813    0.513310
      5          1           0        1.140512   -1.104054   -0.334412
      6          1           0        1.663867   -1.276614    1.415441
      7          8           0        2.150765    1.257257   -0.705106
      8          1           0        2.812916    0.594605   -0.960948
      9          8           0        3.302590   -0.930748   -0.072742
     10          1           0        3.259966   -1.752984   -0.558498
     11         14           0       -1.428349   -0.088762    0.030379
     12          8           0       -2.432076    1.054632    0.718326
     13          1           0       -2.112257    1.210135    1.604198
     14          8           0       -0.737762    0.531123   -1.359334
     15          1           0        0.160362    0.864076   -1.281618
     16          8           0       -0.410269   -0.596161    1.101617
     17          8           0       -2.493853   -1.202246   -0.603938
     18          1           0       -2.206550   -1.507967   -1.459904
 ---------------------------------------------------------------------
                    Distance matrix (angstroms):
                    1          2          3          4          5
     1  C    0.000000
     2  H    1.083135   0.000000
     3  H    1.097751   1.776123   0.000000
     4  C    1.503108   2.169575   2.113592   0.000000
     5  H    2.220773   2.722577   3.059253   1.074812   0.000000
     6  H    2.240950   2.735146   2.487838   1.075119   1.834574
     7  O    1.414862   2.044664   2.073180   2.351026   2.594959
     8  H    1.859440   2.768316   2.310240   2.272599   2.464736
     9  O    2.382011   3.422817   2.482550   1.763200   2.184740
    10  H    3.154854   4.130232   3.399998   2.201069   2.227872
    11  Si   3.403005   2.857464   4.381074   3.180502   2.786204
    12  O    4.249640   3.352058   5.081017   4.451039   4.304830
    13  H    4.069990   3.096187   4.741056   4.360495   4.437813
    14  O    3.217737   2.910235   4.308141   3.276695   2.692987
    15  H    2.494240   2.361064   3.566808   2.807517   2.394040
    16  O    2.671527   2.317701   3.435605   2.151372   2.173719
    17  O    4.893631   4.487483   5.887972   4.328678   3.645668
    18  H    5.064914   4.819372   6.104191   4.414278   3.554251
                    6          7          8          9         10
     6  H    0.000000
     7  O    3.339804   0.000000
     8  H    3.235584   0.971085   0.000000
     9  O    2.240474   2.552244   1.831773   0.000000
    10  H    2.582807   3.211444   2.423426   0.955953   0.000000
    11  Si   3.590430   3.893939   4.408860   4.806387   5.009661
    12  O    4.764181   4.803087   5.526439   6.119960   6.473973
    13  H    4.525336   4.848553   5.587145   6.059379   6.505237
    14  O    4.090857   3.049406   3.573522   4.485179   4.673362
    15  H    3.757287   2.109185   2.685421   3.815281   4.120613
    16  O    2.205344   3.641195   4.007620   3.908502   4.191043
    17  O    4.622776   5.256602   5.614083   5.827060   5.780295
    18  H    4.827138   5.215589   5.464870   5.710343   5.545752
                   11         12         13         14         15
    11  Si   0.000000
    12  O    1.669757   0.000000
    13  H    2.152155   0.954586   0.000000
    14  O    1.671069   2.731562   3.336588   0.000000
    15  H    2.270075   3.279760   3.689511   0.961002   0.000000
    16  O    1.562527   2.638131   2.532204   2.726591   2.852669
    17  O    1.666585   2.616429   3.292577   2.580513   3.431296
    18  H    2.200155   3.370825   4.097034   2.515022   3.355688
                   16         17         18
    16  O    0.000000
    17  O    2.759997   0.000000
    18  H    3.258743   0.953250   0.000000
 Symmetry turned off by external request.
 Stoichiometry    C2H9O6Si(1-)
 Framework group  C1[X(C2H9O6Si)]
 Deg. of freedom    48
 Full point group                 C1      NOp   1
 Rotational constants (GHZ):           2.4264028           0.7089851           0.6813445
 Standard basis: def2TZVPP (5D, 7F)
   416 basis functions,   630 primitive gaussians,   471 cartesian basis functions
    42 alpha electrons       42 beta electrons
       nuclear repulsion energy       617.4403682022 Hartrees.
 NAtoms=   18 NActive=   18 NUniq=   18 SFac= 1.00D+00 NAtFMM=   60 NAOKFM=F Big=F
 Integral buffers will be    131072 words long.
 Raffenetti 2 integral format.
 Two-electron integral symmetry is turned off.
 Nuclear repulsion after empirical dispersion term =      617.4307470458 Hartrees.
 One-electron integrals computed using PRISM.
   1 Symmetry operations used in ECPInt.
 ECPInt:  NShTT=   12246 NPrTT=   33908 LenC2=   11546 LenP2D=   24972.
 LDataN:  DoStor=T MaxTD1= 6 Len=  172
 NBasis=   416 RedAO= T EigKep=  1.82D-04  NBF=   416
 NBsUse=   416 1.00D-06 EigRej= -1.00D+00 NBFU=   416
 Initial guess from the checkpoint file:  "IRC_attackingOHDeprotonated_SiOH4Attack_reverse.chk"
 B after Tr=    -0.000319    0.000161    0.000021
         Rot=    1.000000   -0.000003    0.000005   -0.000035 Ang=  -0.00 deg.
 ExpMin= 7.01D-02 ExpMax= 4.48D+04 ExpMxC= 1.53D+03 IAcc=3 IRadAn=         5 AccDes= 0.00D+00
 Harris functional with IExCor= 4639 and IRadAn=       5 diagonalized for initial guess.
 HarFok:  IExCor= 4639 AccDes= 0.00D+00 IRadAn=         5 IDoV= 1 UseB2=F ITyADJ=14
 ICtDFT=  3500011 ScaDFX=  1.000000  1.000000  1.000000  1.000000
 FoFCou: FMM=F IPFlag=           0 FMFlag=      100000 FMFlg1=           0
         NFxFlg=           0 DoJE=T BraDBF=F KetDBF=T FulRan=T
         wScrn=  0.000000 ICntrl=       500 IOpCl=  0 I1Cent=   200000004 NGrid=           0
         NMat0=    1 NMatS0=      1 NMatT0=    0 NMatD0=    1 NMtDS0=    0 NMtDT0=    0
 Symmetry not used in FoFCou.
 Requested convergence on RMS density matrix=1.00D-08 within 128 cycles.
 Requested convergence on MAX density matrix=1.00D-06.
 Requested convergence on             energy=1.00D-06.
 No special actions if energy rises.
[...]
      5          1           0        1.161947   -1.066820   -0.261580
      6          1           0        1.718336   -1.220803    1.406368
      7          8           0        2.142951    1.308531   -0.713869
      8          1           0        2.825049    0.717174   -1.044615
      9          8           0        3.236797   -0.955034   -0.038379
     10          1           0        3.230717   -1.786856   -0.504444
     11         14           0       -1.446089   -0.094496    0.041457
     12          8           0       -2.446421    1.077782    0.702784
     13          1           0       -2.152000    1.171667    1.606493
     14          8           0       -0.745837    0.525605   -1.358088
     15          1           0        0.142520    0.875574   -1.262089
     16          8           0       -0.477713   -0.608903    1.137230
     17          8           0       -2.506478   -1.203720   -0.621852
     18          1           0       -2.216234   -1.475840   -1.487923
 ---------------------------------------------------------------------
                    Distance matrix (angstroms):
                    1          2          3          4          5
     1  C    0.000000
     2  H    1.080638   0.000000
     3  H    1.098418   1.780653   0.000000
     4  C    1.506867   2.154461   2.133359   0.000000
     5  H    2.148863   2.507240   3.046628   1.086026   0.000000
     6  H    2.176812   2.552182   2.501077   1.086592   1.765029
     7  O    1.422433   2.056421   2.073639   2.352628   2.609450
     8  H    1.892896   2.781941   2.381317   2.277269   2.561579
     9  O    2.309628   3.287179   2.534953   1.454377   2.089812
    10  H    3.114402   4.005224   3.465010   1.968220   2.203916
    11  Si   3.455315   2.769980   4.420227   3.421129   2.799839
    12  O    4.309564   3.334373   5.098912   4.700380   4.306929
    13  H    4.151527   3.114652   4.780455   4.607030   4.413929
    14  O    3.249659   2.850581   4.323740   3.435870   2.716209
    15  H    2.512271   2.300825   3.566602   2.925355   2.411046
    16  O    2.772885   2.224998   3.544442   2.466765   2.203370
    17  O    4.939119   4.390425   5.940324   4.556315   3.688615
    18  H    5.092561   4.704177   6.148218   4.610512   3.617087
                    6          7          8          9         10
     6  H    0.000000
     7  O    3.327647   0.000000
     8  H    3.314798   0.961433   0.000000
     9  O    2.112735   2.603173   1.994574   0.000000
    10  H    2.501782   3.287631   2.593553   0.953510   0.000000
    11  Si   3.625622   3.926858   4.481180   4.761966   5.003460
    12  O    4.808714   4.808585   5.565235   6.081170   6.472515
    13  H    4.554500   4.883587   5.657380   6.022258   6.494811
    14  O    4.094424   3.061550   3.589734   4.449190   4.678586
    15  H    3.741478   2.118897   2.695987   3.797781   4.147231
    16  O    2.295537   3.737780   4.174585   3.911450   4.223164
    17  O    4.686472   5.285552   5.682758   5.778191   5.767950
    18  H    4.891094   5.230141   5.515466   5.666389   5.543757
                   11         12         13         14         15
    11  Si   0.000000
    12  O    1.676978   0.000000
    13  H    2.133265   0.955085   0.000000
    14  O    1.683331   2.728384   3.344164   0.000000
    15  H    2.272432   3.256414   3.685276   0.959620   0.000000
    16  O    1.550189   2.628585   2.488750   2.754199   2.888787
    17  O    1.671759   2.638847   3.276223   2.575357   3.427908
    18  H    2.200053   3.372413   4.072938   2.486907   3.338243
                   16         17         18
    16  O    0.000000
    17  O    2.750284   0.000000
    18  H    3.265801   0.953084   0.000000
 Symmetry turned off by external request.
 Stoichiometry    C2H9O6Si(1-)
 Framework group  C1[X(C2H9O6Si)]
 Deg. of freedom    48
 Full point group                 C1      NOp   1
 Rotational constants (GHZ):           2.3775185           0.6995834           0.6689745
 Standard basis: def2TZVPP (5D, 7F)
   416 basis functions,   630 primitive gaussians,   471 cartesian basis functions
    42 alpha electrons       42 beta electrons
       nuclear repulsion energy       615.7460590699 Hartrees.
 NAtoms=   18 NActive=   18 NUniq=   18 SFac= 1.00D+00 NAtFMM=   60 NAOKFM=F Big=F
 Integral buffers will be    131072 words long.
 Raffenetti 2 integral format.
 Two-electron integral symmetry is turned off.
 Nuclear repulsion after empirical dispersion term =      615.7364751506 Hartrees.
 One-electron integrals computed using PRISM.
   1 Symmetry operations used in ECPInt.
 ECPInt:  NShTT=   12246 NPrTT=   33908 LenC2=   11528 LenP2D=   24899.
 LDataN:  DoStor=T MaxTD1= 6 Len=  172
 NBasis=   416 RedAO= T EigKep=  1.80D-04  NBF=   416
 NBsUse=   416 1.00D-06 EigRej= -1.00D+00 NBFU=   416
 Initial guess from the checkpoint file:  "IRC_attackingOHDeprotonated_SiOH4Attack_reverse.chk"
 B after Tr=    -0.000001   -0.000074    0.000020
         Rot=    1.000000    0.000016   -0.000003    0.000035 Ang=   0.00 deg.
 ExpMin= 7.01D-02 ExpMax= 4.48D+04 ExpMxC= 1.53D+03 IAcc=3 IRadAn=         5 AccDes= 0.00D+00
 Harris functional with IExCor= 4639 and IRadAn=       5 diagonalized for initial guess.
 HarFok:  IExCor= 4639 AccDes= 0.00D+00 IRadAn=         5 IDoV= 1 UseB2=F ITyADJ=14
 ICtDFT=  3500011 ScaDFX=  1.000000  1.000000  1.000000  1.000000
 FoFCou: FMM=F IPFlag=           0 FMFlag=      100000 FMFlg1=           0
         NFxFlg=           0 DoJE=T BraDBF=F KetDBF=T FulRan=T
         wScrn=  0.000000 ICntrl=       500 IOpCl=  0 I1Cent=   200000004 NGrid=           0
         NMat0=    1 NMatS0=      1 NMatT0=    0 NMatD0=    1 NMtDS0=    0 NMtDT0=    0
 Symmetry not used in FoFCou.
 Requested convergence on RMS density matrix=1.00D-08 within 128 cycles.
 Requested convergence on MAX density matrix=1.00D-06.
 Requested convergence on             energy=1.00D-06.
 No special actions if energy rises.
 Integral accuracy reduced to 1.0D-05 until final iterations.
 Initial convergence to 1.0D-05 achieved.  Increase integral accuracy.
 SCF Done:  E(RwB97XD) =  -822.780091151     A.U. after   10 cycles
            NFock= 10  Conv=0.32D-08     -V/T= 2.0031
 DoSCS=F DFT=T ScalE2(SS,OS)=  1.000000  1.000000
 Range of M.O.s used for correlation:     1   416
 NBasis=   416 NAE=    42 NBE=    42 NFC=     0 NFV=     0
 NROrb=    416 NOA=    42 NOB=    42 NVA=   374 NVB=   374

 **** Warning!!: The largest alpha MO coefficient is  0.19629886D+02

 Symmetrizing basis deriv contribution to polar:
 IMax=3 JMax=2 DiffMx= 0.00D+00
   1 Symmetry operations used in ECPInt.
 ECPInt:  NShTT=   12246 NPrTT=   33908 LenC2=   11528 LenP2D=   24899.
 LDataN:  DoStor=T MaxTD1= 7 Len=  274
 Calling FoFJK, ICntrl=      2127 FMM=F ISym2X=0 I1Cent= 0 IOpClX= 0 NMat=1 NMatS=1 NMatT=0.
 -------------------------------------------------------------------
 Center     Atomic                   Forces (Hartrees/Bohr)
 Number     Number              X              Y              Z
 -------------------------------------------------------------------
      1        6           0.006938889   -0.001245379   -0.002046741
      2        1          -0.000314850   -0.001345296    0.000097289
      3        1           0.000500334    0.000948395   -0.000011827
      4        6           0.010077574   -0.001094594   -0.000028434
      5        1           0.002130952    0.000520869    0.001529953
      6        1           0.001451899    0.000972079   -0.000727947
      7        8          -0.001932544    0.009332669   -0.001074859
      8        1           0.000207226    0.001303091   -0.000998013
      9        8           0.005861535   -0.007237322   -0.000617417
     10        1          -0.000172881   -0.000564175    0.000618777
     11       14          -0.007221666   -0.001383324    0.002358292
     12        8          -0.002559584    0.004030573   -0.003462428
     13        1          -0.000636707   -0.000270115    0.000143013
     14        8          -0.001737699   -0.001701374    0.001481081
     15        1          -0.000178715    0.000153616    0.000244166
     16        8          -0.009757593   -0.002828294    0.006315823
     17        8          -0.002510327   -0.000056479   -0.003374057
     18        1          -0.000145842    0.000465059   -0.000446670
 -------------------------------------------------------------------
 Cartesian Forces:  Max     0.010077574 RMS     0.003381277
 IRC-IRC-IRC-IRC-IRC-IRC-IRC-IRC-IRC-IRC-IRC-IRC-IRC-IRC-IRC-IRC-IRC-IRC
 Error in corrector energy =          -0.0000356031
 Magnitude of corrector gradient =     0.0257174960
 Magnitude of analytic gradient =      0.0248472132
 Magnitude of difference =             0.0049880176
 Angle between gradients (degrees)=   11.1499
 Pt 12 Step number  19 out of a maximum of  20
 Modified Bulirsch-Stoer Extrapolation Cycles:
    EPS =    0.000010000000000
      PEZero:  N= 2 I= 1 D=  1.51D-03 Err=  5.15D-04
      PEZero:  N= 3 I= 2 D=  1.51D-03 Err=  3.43D-04
      PEZero:  N= 3 I= 1 D=  3.02D-03 Err=  1.43D-06
 Maximum DWI energy   std dev =  0.000010312 at pt    28
 Maximum DWI gradient std dev =  0.091753134 at pt    60
 CORRECTOR INTEGRATION CONVERGENCE:
   Recorrection delta-x convergence threshold:    0.010000
   Delta-x Convergence NOT Met
 IRC-IRC-IRC-IRC-IRC-IRC-IRC-IRC-IRC-IRC-IRC-IRC-IRC-IRC-IRC-IRC-IRC-IRC
                          Input orientation:                          
 ---------------------------------------------------------------------
 Center     Atomic      Atomic             Coordinates (Angstroms)
 Number     Number       Type             X           Y           Z
 ---------------------------------------------------------------------
      1          6           0        1.851679    0.787291    0.577057
      2          1           0        0.878547    1.132344    0.900207
      3          1           0        2.617224    1.114217    1.295262
      4          6           0        1.890213   -0.714108    0.461558
      5          1           0        1.168855   -1.066228   -0.261314
      6          1           0        1.723152   -1.219860    1.404431
      7          8           0        2.142776    1.308745   -0.713849
      8          1           0        2.826090    0.719855   -1.046955
      9          8           0        3.237420   -0.954999   -0.038548
     10          1           0        3.226645   -1.788225   -0.501507
     11         14           0       -1.446085   -0.094459    0.041328
     12          8           0       -2.446354    1.077711    0.702800
     13          1           0       -2.153178    1.169882    1.607338
     14          8           0       -0.745853    0.525606   -1.358054
     15          1           0        0.142271    0.876205   -1.261421
     16          8           0       -0.477301   -0.609016    1.137149
     17          8           0       -2.506425   -1.203722   -0.621831
     18          1           0       -2.216702   -1.474550   -1.488672
 ---------------------------------------------------------------------
                    Distance matrix (angstroms):
                    1          2          3          4          5
     1  C    0.000000
     2  H    1.081884   0.000000
     3  H    1.099435   1.783085   0.000000
     4  C    1.506328   2.150643   2.136909   0.000000
     5  H    2.145844   2.503423   3.045495   1.080226   0.000000
     6  H    2.174793   2.549600   2.501839   1.082915   1.762258
     7  O    1.422353   2.057807   2.073516   2.353147   2.606493
     8  H    1.895109   2.784692   2.384350   2.282044   2.560030
     9  O    2.309724   3.286722   2.538769   1.457087   2.083496
    10  H    3.112413   4.001011   3.467556   1.966539   2.193963
    11  Si   3.455393   2.765255   4.420829   3.419275   2.806037
    12  O    4.309669   3.331204   5.098251   4.698364   4.312277
    13  H    4.152919   3.113326   4.780923   4.605566   4.419044
    14  O    3.249662   2.847200   4.323984   3.434635   2.720824
    15  H    2.511968   2.297900   3.566325   2.924560   2.413946
    16  O    2.772639   2.219639   3.545507   2.464262   2.207843
    17  O    4.939082   4.385412   5.941369   4.554544   3.695479
    18  H    5.092631   4.699277   6.149703   4.609601   3.624243
                    6          7          8          9         10
     6  H    0.000000
     7  O    3.325212   0.000000
     8  H    3.314855   0.961597   0.000000
     9  O    2.108400   2.603615   1.997802   0.000000
    10  H    2.493217   3.288022   2.597774   0.953264   0.000000
    11  Si   3.628863   3.926729   4.483185   4.762576   4.999793
    12  O    4.812058   4.808366   5.566720   6.081677   6.468916
    13  H    4.558286   4.884917   5.660468   6.023505   6.491543
    14  O    4.095603   3.061451   3.590723   4.449691   4.676348
    15  H    3.741583   2.118714   2.696911   3.798510   4.146086
    16  O    2.299253   3.737486   4.177152   3.911665   4.218406
    17  O    4.689917   5.285454   5.684769   5.778740   5.764045
    18  H    4.894626   5.229927   5.517271   5.667473   5.541022
                   11         12         13         14         15
    11  Si   0.000000
    12  O    1.676922   0.000000
    13  H    2.133290   0.955320   0.000000
    14  O    1.683175   2.728304   3.345027   0.000000
    15  H    2.272052   3.255725   3.685798   0.959698   0.000000
    16  O    1.550527   2.628855   2.488799   2.754183   2.888406
    17  O    1.671694   2.638786   3.275358   2.575308   3.427938
    18  H    2.199864   3.371843   4.072141   2.486179   3.338030
                   16         17         18
    16  O    0.000000
    17  O    2.750460   0.000000
    18  H    3.266435   0.953258   0.000000
 Symmetry turned off by external request.
 Stoichiometry    C2H9O6Si(1-)
 Framework group  C1[X(C2H9O6Si)]
 Deg. of freedom    48
 Full point group                 C1      NOp   1
 Rotational constants (GHZ):           2.3775639           0.6996249           0.6690011
 Standard basis: def2TZVPP (5D, 7F)
   416 basis functions,   630 primitive gaussians,   471 cartesian basis functions
    42 alpha electrons       42 beta electrons
       nuclear repulsion energy       615.7526737578 Hartrees.
 NAtoms=   18 NActive=   18 NUniq=   18 SFac= 1.00D+00 NAtFMM=   60 NAOKFM=F Big=F
 Integral buffers will be    131072 words long.
 Raffenetti 2 integral format.
 Two-electron integral symmetry is turned off.
 Nuclear repulsion after empirical dispersion term =      615.7430914500 Hartrees.
 One-electron integrals computed using PRISM.
   1 Symmetry operations used in ECPInt.
 ECPInt:  NShTT=   12246 NPrTT=   33908 LenC2=   11528 LenP2D=   24898.
 LDataN:  DoStor=T MaxTD1= 6 Len=  172
 NBasis=   416 RedAO= T EigKep=  1.79D-04  NBF=   416
 NBsUse=   416 1.00D-06 EigRej= -1.00D+00 NBFU=   416
 Initial guess from the checkpoint file:  "IRC_attackingOHDeprotonated_SiOH4Attack_reverse.chk"
 B after Tr=     0.000001    0.000075   -0.000020
         Rot=    1.000000   -0.000017    0.000003   -0.000035 Ang=  -0.00 deg.
 ExpMin= 7.01D-02 ExpMax= 4.48D+04 ExpMxC= 1.53D+03 IAcc=3 IRadAn=         5 AccDes= 0.00D+00
 Harris functional with IExCor= 4639 and IRadAn=       5 diagonalized for initial guess.
 HarFok:  IExCor= 4639 AccDes= 0.00D+00 IRadAn=         5 IDoV= 1 UseB2=F ITyADJ=14
 ICtDFT=  3500011 ScaDFX=  1.000000  1.000000  1.000000  1.000000
 FoFCou: FMM=F IPFlag=           0 FMFlag=      100000 FMFlg1=           0
         NFxFlg=           0 DoJE=T BraDBF=F KetDBF=T FulRan=T
         wScrn=  0.000000 ICntrl=       500 IOpCl=  0 I1Cent=   200000004 NGrid=           0
         NMat0=    1 NMatS0=      1 NMatT0=    0 NMatD0=    1 NMtDS0=    0 NMtDT0=    0
 Symmetry not used in FoFCou.
 Requested convergence on RMS density matrix=1.00D-08 within 128 cycles.
 Requested convergence on MAX density matrix=1.00D-06.
 Requested convergence on             energy=1.00D-06.
 No special actions if energy rises.
 Integral accuracy reduced to 1.0D-05 until final iterations.
 Initial convergence to 1.0D-05 achieved.  Increase integral accuracy.
 SCF Done:  E(RwB97XD) =  -822.780098798     A.U. after   10 cycles
            NFock= 10  Conv=0.29D-08     -V/T= 2.0031
 DoSCS=F DFT=T ScalE2(SS,OS)=  1.000000  1.000000
 Range of M.O.s used for correlation:     1   416
 NBasis=   416 NAE=    42 NBE=    42 NFC=     0 NFV=     0
 NROrb=    416 NOA=    42 NOB=    42 NVA=   374 NVB=   374

 **** Warning!!: The largest alpha MO coefficient is  0.19430780D+02

 Symmetrizing basis deriv contribution to polar:
 IMax=3 JMax=2 DiffMx= 0.00D+00
   1 Symmetry operations used in ECPInt.
 ECPInt:  NShTT=   12246 NPrTT=   33908 LenC2=   11528 LenP2D=   24898.
 LDataN:  DoStor=T MaxTD1= 7 Len=  274
 Calling FoFJK, ICntrl=      2127 FMM=F ISym2X=0 I1Cent= 0 IOpClX= 0 NMat=1 NMatS=1 NMatT=0.
 -------------------------------------------------------------------
 Center     Atomic                   Forces (Hartrees/Bohr)
 Number     Number              X              Y              Z
 -------------------------------------------------------------------
      1        6           0.006105187   -0.000607005   -0.001560422
      2        1           0.000524052   -0.001132526   -0.000101640
      3        1          -0.000024340    0.000366113   -0.000340592
      4        6           0.014955900    0.001072843    0.000080345
      5        1          -0.000897864   -0.000565286   -0.000556503
      6        1           0.000543883   -0.000042590    0.001215047
      7        8          -0.002025143    0.009312510   -0.001274519
      8        1          -0.000001343    0.001222408   -0.000598212
      9        8           0.005165609   -0.007172554   -0.000383122
     10        1           0.000285660   -0.000818612    0.000332424
     11       14          -0.007055171   -0.001517548    0.002557342
     12        8          -0.002479948    0.004048069   -0.003197049
     13        1          -0.000700922   -0.000272243   -0.000090628
     14        8          -0.001643843   -0.001653674    0.001470715
     15        1          -0.000244055    0.000137456    0.000189110
     16        8          -0.009851957   -0.002747742    0.006108747
     17        8          -0.002445680   -0.000126682   -0.003564364
     18        1          -0.000210023    0.000497063   -0.000286679
 -------------------------------------------------------------------
 Cartesian Forces:  Max     0.014955900 RMS     0.003610804
 IRC-IRC-IRC-IRC-IRC-IRC-IRC-IRC-IRC-IRC-IRC-IRC-IRC-IRC-IRC-IRC-IRC-IRC
 Error in corrector energy =          -0.0000421009
 Magnitude of corrector gradient =     0.0256666369
 Magnitude of analytic gradient =      0.0265338821
 Magnitude of difference =             0.0053310716
 Angle between gradients (degrees)=   11.5682
 Pt 12 Step number  20 out of a maximum of  20
 Modified Bulirsch-Stoer Extrapolation Cycles:
    EPS =    0.000010000000000
      PEZero:  N= 2 I= 1 D=  1.51D-03 Err=  3.90D-04
      PEZero:  N= 3 I= 2 D=  1.51D-03 Err=  2.60D-04
      PEZero:  N= 3 I= 1 D=  3.02D-03 Err=  7.10D-07
 Maximum DWI energy   std dev =  0.000004465 at pt    36
 Maximum DWI gradient std dev =  0.058166177 at pt    59
 CORRECTOR INTEGRATION CONVERGENCE:
   Recorrection delta-x convergence threshold:    0.010000
   Delta-x Convergence NOT Met
 Maximum number of corrector steps exceded.
 Error termination via Lnk1e in /opt/software/gaussian/g16.c01/l123.exe at Sun Jan 14 05:43:22 2024.
 Job cpu time:       0 days 17 hours 27 minutes 47.2 seconds.
 Elapsed time:       0 days 17 hours 28 minutes 12.7 seconds.
 File lengths (MBytes):  RWF=    265 Int=      0 D2E=      0 Chk=     15 Scr=      1
