 Entering Gaussian System, Link 0=/opt/software/gaussian/g16.c01/g16
 Initial command:
 /opt/software/gaussian/g16.c01/l1.exe "/scratch/arhender/17064731/Gau-12471.inp" -scrdir="/scratch/arhender/17064731/"
 Entering Link 1 = /opt/software/gaussian/g16.c01/l1.exe PID=     12473.
  
 Copyright (c) 1988-2019, Gaussian, Inc.  All Rights Reserved.
  
 This is part of the Gaussian(R) 16 program.  It is based on
 the Gaussian(R) 09 system (copyright 2009, Gaussian, Inc.),
 the Gaussian(R) 03 system (copyright 2003, Gaussian, Inc.),
 the Gaussian(R) 98 system (copyright 1998, Gaussian, Inc.),
 the Gaussian(R) 94 system (copyright 1995, Gaussian, Inc.),
 the Gaussian 92(TM) system (copyright 1992, Gaussian, Inc.),
 the Gaussian 90(TM) system (copyright 1990, Gaussian, Inc.),
 the Gaussian 88(TM) system (copyright 1988, Gaussian, Inc.),
 the Gaussian 86(TM) system (copyright 1986, Carnegie Mellon
 University), and the Gaussian 82(TM) system (copyright 1983,
 Carnegie Mellon University). Gaussian is a federally registered
 trademark of Gaussian, Inc.
  
 This software contains proprietary and confidential information,
 including trade secrets, belonging to Gaussian, Inc.
  
 This software is provided under written license and may be
 used, copied, transmitted, or stored only in accord with that
 written license.
  
 The following legend is applicable only to US Government
 contracts under FAR:
  
                    RESTRICTED RIGHTS LEGEND
  
 Use, reproduction and disclosure by the US Government is
 subject to restrictions as set forth in subparagraphs (a)
 and (c) of the Commercial Computer Software - Restricted
 Rights clause in FAR 52.227-19.
  
 Gaussian, Inc.
 340 Quinnipiac St., Bldg. 40, Wallingford CT 06492
  
  
 ---------------------------------------------------------------
 Warning -- This program may not be used in any manner that
 competes with the business of Gaussian, Inc. or will provide
 assistance to any competitor of Gaussian, Inc.  The licensee
 of this program is prohibited from giving any competitor of
 Gaussian, Inc. access to this program.  By using this program,
 the user acknowledges that Gaussian, Inc. is engaged in the
 business of creating and licensing software in the field of
 computational chemistry and represents and warrants to the
 licensee that it is not a competitor of Gaussian, Inc. and that
 it will not use this program in any manner prohibited above.
 ---------------------------------------------------------------
  

 Cite this work as:
 Gaussian 16, Revision C.01,
 M. J. Frisch, G. W. Trucks, H. B. Schlegel, G. E. Scuseria, 
 M. A. Robb, J. R. Cheeseman, G. Scalmani, V. Barone, 
 G. A. Petersson, H. Nakatsuji, X. Li, M. Caricato, A. V. Marenich, 
 J. Bloino, B. G. Janesko, R. Gomperts, B. Mennucci, H. P. Hratchian, 
 J. V. Ortiz, A. F. Izmaylov, J. L. Sonnenberg, D. Williams-Young, 
 F. Ding, F. Lipparini, F. Egidi, J. Goings, B. Peng, A. Petrone, 
 T. Henderson, D. Ranasinghe, V. G. Zakrzewski, J. Gao, N. Rega, 
 G. Zheng, W. Liang, M. Hada, M. Ehara, K. Toyota, R. Fukuda, 
 J. Hasegawa, M. Ishida, T. Nakajima, Y. Honda, O. Kitao, H. Nakai, 
 T. Vreven, K. Throssell, J. A. Montgomery, Jr., J. E. Peralta, 
 F. Ogliaro, M. J. Bearpark, J. J. Heyd, E. N. Brothers, K. N. Kudin, 
 V. N. Staroverov, T. A. Keith, R. Kobayashi, J. Normand, 
 K. Raghavachari, A. P. Rendell, J. C. Burant, S. S. Iyengar, 
 J. Tomasi, M. Cossi, J. M. Millam, M. Klene, C. Adamo, R. Cammi, 
 J. W. Ochterski, R. L. Martin, K. Morokuma, O. Farkas, 
 J. B. Foresman, and D. J. Fox, Gaussian, Inc., Wallingford CT, 2019.
 
 ******************************************
 Gaussian 16:  ES64L-G16RevC.01  3-Jul-2019
                18-Feb-2024 
 ******************************************
 %chk=IRC_PbiL_collapseTo_QbiL_Forward_endpointOpt.chk
 %mem=1600MB
 %nprocs=4
 Will use up to    4 processors via shared memory.
 ---------------------------------------------
 # opt freq wb97xd/def2tzvpp geom=connectivity
 ---------------------------------------------
 1/18=20,19=15,26=3,38=1,57=2/1,3;
 2/9=110,12=2,17=6,18=5,40=1/2;
 3/5=44,7=202,11=2,25=1,30=1,71=1,74=-58/1,2,3;
 4//1;
 5/5=2,38=5/2;
 6/7=2,8=2,9=2,10=2,28=1/1;
 7//1,2,3,16;
 1/18=20,19=15,26=3/3(2);
 2/9=110/2;
 99//99;
 2/9=110/2;
 3/5=44,7=202,11=2,25=1,30=1,71=1,74=-58/1,2,3;
 4/5=5,16=3,69=1/1;
 5/5=2,38=5/2;
 7//1,2,3,16;
 1/18=20,19=15,26=3/3(-5);
 2/9=110/2;
 6/7=2,8=2,9=2,10=2,19=2,28=1/1;
 99/9=1/99;
 -----------------------------
 IRC for PbiL collapse to QbiL
 -----------------------------
 Symbolic Z-matrix:
 Charge = -1 Multiplicity = 1
 Si                    0.21814  -0.35674   0.12235 
 O                     0.93415  -0.89575  -1.29712 
 H                     0.2809   -1.11667  -1.95831 
 O                     2.73093   1.21965  -0.08126 
 H                     2.6403    0.6401   -0.83656 
 O                    -0.4822    1.16067  -0.1737 
 O                     1.14299  -0.45656   1.35392 
 H                     2.30873   0.69298   0.63201 
 O                    -1.27492  -1.16954   0.11208 
 C                    -2.29964  -0.24289   0.34016 
 H                    -3.24602  -0.61674  -0.06614 
 H                    -2.43446  -0.07393   1.41813 
 C                    -1.86237   1.06119  -0.33938 
 H                    -2.12556   1.02881  -1.4095 
 H                    -2.36541   1.93058   0.09999 
 
 Add virtual bond connecting atoms H8         and O7         Dist= 3.38D+00.

 GradGradGradGradGradGradGradGradGradGradGradGradGradGradGradGradGradGrad
 Berny optimization.
 Initialization pass.
                           ----------------------------
                           !    Initial Parameters    !
                           ! (Angstroms and Degrees)  !
 --------------------------                            --------------------------
 ! Name  Definition              Value          Derivative Info.                !
 --------------------------------------------------------------------------------
 ! R1    R(1,2)                  1.6787         estimate D2E/DX2                !
 ! R2    R(1,6)                  1.6973         estimate D2E/DX2                !
 ! R3    R(1,7)                  1.5434         estimate D2E/DX2                !
 ! R4    R(1,9)                  1.7            estimate D2E/DX2                !
 ! R5    R(2,3)                  0.9554         estimate D2E/DX2                !
 ! R6    R(4,5)                  0.9563         estimate D2E/DX2                !
 ! R7    R(4,8)                  0.982          estimate D2E/DX2                !
 ! R8    R(6,13)                 1.3936         estimate D2E/DX2                !
 ! R9    R(7,8)                  1.7893         estimate D2E/DX2                !
 ! R10   R(9,10)                 1.4003         estimate D2E/DX2                !
 ! R11   R(10,11)                1.0957         estimate D2E/DX2                !
 ! R12   R(10,12)                1.0994         estimate D2E/DX2                !
 ! R13   R(10,13)                1.5341         estimate D2E/DX2                !
 ! R14   R(13,14)                1.1025         estimate D2E/DX2                !
 ! R15   R(13,15)                1.0963         estimate D2E/DX2                !
 ! A1    A(2,1,6)              108.3947         estimate D2E/DX2                !
 ! A2    A(2,1,7)              113.4768         estimate D2E/DX2                !
 ! A3    A(2,1,9)              102.4729         estimate D2E/DX2                !
 ! A4    A(6,1,7)              116.3768         estimate D2E/DX2                !
 ! A5    A(6,1,9)               93.6695         estimate D2E/DX2                !
 ! A6    A(7,1,9)              120.0126         estimate D2E/DX2                !
 ! A7    A(1,2,3)              111.5809         estimate D2E/DX2                !
 ! A8    A(5,4,8)              101.9992         estimate D2E/DX2                !
 ! A9    A(1,6,13)             111.4421         estimate D2E/DX2                !
 ! A10   A(1,7,8)               91.5421         estimate D2E/DX2                !
 ! A11   A(4,8,7)              156.591          estimate D2E/DX2                !
 ! A12   A(1,9,10)             108.9857         estimate D2E/DX2                !
 ! A13   A(9,10,11)            110.2362         estimate D2E/DX2                !
 ! A14   A(9,10,12)            110.5577         estimate D2E/DX2                !
 ! A15   A(9,10,13)            106.3675         estimate D2E/DX2                !
 ! A16   A(11,10,12)           108.0654         estimate D2E/DX2                !
 ! A17   A(11,10,13)           111.8371         estimate D2E/DX2                !
 ! A18   A(12,10,13)           109.7928         estimate D2E/DX2                !
 ! A19   A(6,13,10)            106.8753         estimate D2E/DX2                !
 ! A20   A(6,13,14)            110.7264         estimate D2E/DX2                !
 ! A21   A(6,13,15)            110.4971         estimate D2E/DX2                !
 ! A22   A(10,13,14)           109.6903         estimate D2E/DX2                !
 ! A23   A(10,13,15)           111.4559         estimate D2E/DX2                !
 ! A24   A(14,13,15)           107.6228         estimate D2E/DX2                !
 ! D1    D(6,1,2,3)            -69.2798         estimate D2E/DX2                !
 ! D2    D(7,1,2,3)            159.8091         estimate D2E/DX2                !
 ! D3    D(9,1,2,3)             28.9207         estimate D2E/DX2                !
 ! D4    D(2,1,6,13)           101.9979         estimate D2E/DX2                !
 ! D5    D(7,1,6,13)          -128.6911         estimate D2E/DX2                !
 ! D6    D(9,1,6,13)            -2.4442         estimate D2E/DX2                !
 ! D7    D(2,1,7,8)             62.4927         estimate D2E/DX2                !
 ! D8    D(6,1,7,8)            -64.3346         estimate D2E/DX2                !
 ! D9    D(9,1,7,8)           -175.9858         estimate D2E/DX2                !
 ! D10   D(2,1,9,10)          -129.887          estimate D2E/DX2                !
 ! D11   D(6,1,9,10)           -20.1295         estimate D2E/DX2                !
 ! D12   D(7,1,9,10)           103.3176         estimate D2E/DX2                !
 ! D13   D(5,4,8,7)            -33.7233         estimate D2E/DX2                !
 ! D14   D(1,6,13,10)           22.0185         estimate D2E/DX2                !
 ! D15   D(1,6,13,14)          -97.4042         estimate D2E/DX2                !
 ! D16   D(1,6,13,15)          143.4502         estimate D2E/DX2                !
 ! D17   D(1,7,8,4)            -16.2207         estimate D2E/DX2                !
 ! D18   D(1,9,10,11)          156.1483         estimate D2E/DX2                !
 ! D19   D(1,9,10,12)          -84.4298         estimate D2E/DX2                !
 ! D20   D(1,9,10,13)           34.7185         estimate D2E/DX2                !
 ! D21   D(9,10,13,6)          -36.3043         estimate D2E/DX2                !
 ! D22   D(9,10,13,14)          83.7856         estimate D2E/DX2                !
 ! D23   D(9,10,13,15)        -157.1272         estimate D2E/DX2                !
 ! D24   D(11,10,13,6)        -156.706          estimate D2E/DX2                !
 ! D25   D(11,10,13,14)        -36.6161         estimate D2E/DX2                !
 ! D26   D(11,10,13,15)         82.4711         estimate D2E/DX2                !
 ! D27   D(12,10,13,6)          83.3429         estimate D2E/DX2                !
 ! D28   D(12,10,13,14)       -156.5672         estimate D2E/DX2                !
 ! D29   D(12,10,13,15)        -37.48           estimate D2E/DX2                !
 --------------------------------------------------------------------------------
 Trust Radius=3.00D-01 FncErr=1.00D-07 GrdErr=1.00D-06 EigMax=2.50D+02 EigMin=1.00D-04
 Number of steps in this run=     78 maximum allowed number of steps=    100.
 GradGradGradGradGradGradGradGradGradGradGradGradGradGradGradGradGradGrad

                          Input orientation:                          
 ---------------------------------------------------------------------
 Center     Atomic      Atomic             Coordinates (Angstroms)
 Number     Number       Type             X           Y           Z
 ---------------------------------------------------------------------
      1         14           0        0.218137   -0.356744    0.122351
      2          8           0        0.934146   -0.895748   -1.297118
      3          1           0        0.280901   -1.116669   -1.958312
      4          8           0        2.730930    1.219645   -0.081262
      5          1           0        2.640297    0.640103   -0.836559
      6          8           0       -0.482201    1.160671   -0.173704
      7          8           0        1.142989   -0.456564    1.353918
      8          1           0        2.308735    0.692981    0.632013
      9          8           0       -1.274924   -1.169543    0.112076
     10          6           0       -2.299636   -0.242893    0.340162
     11          1           0       -3.246020   -0.616740   -0.066143
     12          1           0       -2.434461   -0.073934    1.418127
     13          6           0       -1.862369    1.061189   -0.339381
     14          1           0       -2.125558    1.028812   -1.409496
     15          1           0       -2.365410    1.930578    0.099985
 ---------------------------------------------------------------------
                    Distance matrix (angstroms):
                    1          2          3          4          5
     1  Si   0.000000
     2  O    1.678716   0.000000
     3  H    2.215984   0.955360   0.000000
     4  O    2.973313   3.030120   3.870959   0.000000
     5  H    2.789278   2.341347   3.148226   0.956325   0.000000
     6  O    1.697254   2.738057   2.992228   3.215001   3.234248
     7  O    1.543396   2.695272   3.485657   2.718635   2.871028
     8  H    2.394218   2.852210   3.754561   0.982031   1.506464
     9  O    1.699994   2.634536   2.590346   4.668240   4.416297
    10  C    2.529740   3.682968   3.564497   5.255779   5.154347
    11  H    3.479010   4.366570   4.033535   6.252717   6.068107
    12  H    2.965686   4.404026   4.456549   5.531978   5.598806
    13  C    2.559734   3.545047   3.457978   4.603274   4.549560
    14  H    3.123976   3.616400   3.270372   5.038462   4.815883
    15  H    3.450660   4.563670   4.530482   5.148879   5.253527
                    6          7          8          9         10
     6  O    0.000000
     7  O    2.755054   0.000000
     8  H    2.942318   1.789292   0.000000
     9  O    2.477898   2.810127   4.072093   0.000000
    10  C    2.353109   3.595139   4.711488   1.400264   0.000000
    11  H    3.287774   4.615802   5.749617   2.054890   1.095668
    12  H    2.805262   3.598427   4.868680   2.061712   1.099424
    13  C    1.393632   3.768688   4.298522   2.350547   1.534148
    14  H    2.060386   4.530585   4.893209   2.805624   2.169986
    15  H    2.052837   4.424891   4.864394   3.286344   2.187690
                   11         12         13         14         15
    11  H    0.000000
    12  H    1.776605   0.000000
    13  C    2.191939   2.169015   0.000000
    14  H    2.401640   3.050725   1.102480   0.000000
    15  H    2.700352   2.400070   1.096326   1.774611   0.000000
 Stoichiometry    C2H7O5Si(1-)
 Framework group  C1[X(C2H7O5Si)]
 Deg. of freedom    39
 Full point group                 C1      NOp   1
 Largest Abelian subgroup         C1      NOp   1
 Largest concise Abelian subgroup C1      NOp   1
                         Standard orientation:                         
 ---------------------------------------------------------------------
 Center     Atomic      Atomic             Coordinates (Angstroms)
 Number     Number       Type             X           Y           Z
 ---------------------------------------------------------------------
      1         14           0       -0.213257   -0.406009   -0.108903
      2          8           0       -0.894850   -0.898294    1.344084
      3          1           0       -0.232950   -1.003528    2.024912
      4          8           0       -2.866523    0.934490   -0.046972
      5          1           0       -2.732043    0.427043    0.752384
      6          8           0        0.336166    1.189781    0.070704
      7          8           0       -1.107194   -0.689555   -1.334689
      8          1           0       -2.386455    0.396393   -0.713584
      9          8           0        1.349714   -1.069334   -0.024658
     10          6           0        2.285251   -0.069807   -0.318690
     11          1           0        3.256981   -0.318747    0.122056
     12          1           0        2.418555    0.026490   -1.405746
     13          6           0        1.717101    1.235698    0.252689
     14          1           0        1.967174    1.312305    1.323696
     15          1           0        2.141731    2.112115   -0.250812
 ---------------------------------------------------------------------
 Rotational constants (GHZ):           2.8911444           1.2592848           1.1526029
 Standard basis: def2TZVPP (5D, 7F)
 There are   405 symmetry adapted cartesian basis functions of A   symmetry.
 There are   357 symmetry adapted basis functions of A   symmetry.
   357 basis functions,   545 primitive gaussians,   405 cartesian basis functions
    37 alpha electrons       37 beta electrons
       nuclear repulsion energy       523.1037172707 Hartrees.
 NAtoms=   15 NActive=   15 NUniq=   15 SFac= 1.00D+00 NAtFMM=   60 NAOKFM=F Big=F
 Integral buffers will be    131072 words long.
 Raffenetti 2 integral format.
 Two-electron integral symmetry is turned on.
 Nuclear repulsion after empirical dispersion term =      523.0972254557 Hartrees.
 One-electron integrals computed using PRISM.
   1 Symmetry operations used in ECPInt.
 ECPInt:  NShTT=    8911 NPrTT=   25186 LenC2=    8590 LenP2D=   19285.
 LDataN:  DoStor=T MaxTD1= 6 Len=  172
 NBasis=   357 RedAO= T EigKep=  3.10D-04  NBF=   357
 NBsUse=   357 1.00D-06 EigRej= -1.00D+00 NBFU=   357
 ExpMin= 7.01D-02 ExpMax= 4.48D+04 ExpMxC= 1.53D+03 IAcc=3 IRadAn=         5 AccDes= 0.00D+00
 Harris functional with IExCor= 4639 and IRadAn=       5 diagonalized for initial guess.
 HarFok:  IExCor= 4639 AccDes= 0.00D+00 IRadAn=         5 IDoV= 1 UseB2=F ITyADJ=14
 ICtDFT=  3500011 ScaDFX=  1.000000  1.000000  1.000000  1.000000
 FoFCou: FMM=F IPFlag=           0 FMFlag=      100000 FMFlg1=           0
         NFxFlg=           0 DoJE=T BraDBF=F KetDBF=T FulRan=T
         wScrn=  0.000000 ICntrl=       500 IOpCl=  0 I1Cent=   200000004 NGrid=           0
         NMat0=    1 NMatS0=      1 NMatT0=    0 NMatD0=    1 NMtDS0=    0 NMtDT0=    0
 Petite list used in FoFCou.
 Requested convergence on RMS density matrix=1.00D-08 within 128 cycles.
 Requested convergence on MAX density matrix=1.00D-06.
 Requested convergence on             energy=1.00D-06.
 No special actions if energy rises.
 Integral accuracy reduced to 1.0D-05 until final iterations.
 Initial convergence to 1.0D-05 achieved.  Increase integral accuracy.
 SCF Done:  E(RwB97XD) =  -746.338537345     A.U. after   14 cycles
            NFock= 14  Conv=0.78D-08     -V/T= 2.0032

 **********************************************************************

            Population analysis using the SCF Density.

 **********************************************************************

 Orbital symmetries:
       Occupied  (A) (A) (A) (A) (A) (A) (A) (A) (A) (A) (A) (A)
                 (A) (A) (A) (A) (A) (A) (A) (A) (A) (A) (A) (A)
                 (A) (A) (A) (A) (A) (A) (A) (A) (A) (A) (A) (A)
                 (A)
       Virtual   (A) (A) (A) (A) (A) (A) (A) (A) (A) (A) (A) (A)
                 (A) (A) (A) (A) (A) (A) (A) (A) (A) (A) (A) (A)
                 (A) (A) (A) (A) (A) (A) (A) (A) (A) (A) (A) (A)
                 (A) (A) (A) (A) (A) (A) (A) (A) (A) (A) (A) (A)
                 (A) (A) (A) (A) (A) (A) (A) (A) (A) (A) (A) (A)
                 (A) (A) (A) (A) (A) (A) (A) (A) (A) (A) (A) (A)
                 (A) (A) (A) (A) (A) (A) (A) (A) (A) (A) (A) (A)
                 (A) (A) (A) (A) (A) (A) (A) (A) (A) (A) (A) (A)
                 (A) (A) (A) (A) (A) (A) (A) (A) (A) (A) (A) (A)
                 (A) (A) (A) (A) (A) (A) (A) (A) (A) (A) (A) (A)
                 (A) (A) (A) (A) (A) (A) (A) (A) (A) (A) (A) (A)
                 (A) (A) (A) (A) (A) (A) (A) (A) (A) (A) (A) (A)
                 (A) (A) (A) (A) (A) (A) (A) (A) (A) (A) (A) (A)
                 (A) (A) (A) (A) (A) (A) (A) (A) (A) (A) (A) (A)
                 (A) (A) (A) (A) (A) (A) (A) (A) (A) (A) (A) (A)
                 (A) (A) (A) (A) (A) (A) (A) (A) (A) (A) (A) (A)
                 (A) (A) (A) (A) (A) (A) (A) (A) (A) (A) (A) (A)
                 (A) (A) (A) (A) (A) (A) (A) (A) (A) (A) (A) (A)
                 (A) (A) (A) (A) (A) (A) (A) (A) (A) (A) (A) (A)
                 (A) (A) (A) (A) (A) (A) (A) (A) (A) (A) (A) (A)
                 (A) (A) (A) (A) (A) (A) (A) (A) (A) (A) (A) (A)
                 (A) (A) (A) (A) (A) (A) (A) (A) (A) (A) (A) (A)
                 (A) (A) (A) (A) (A) (A) (A) (A) (A) (A) (A) (A)
                 (A) (A) (A) (A) (A) (A) (A) (A) (A) (A) (A) (A)
                 (A) (A) (A) (A) (A) (A) (A) (A) (A) (A) (A) (A)
                 (A) (A) (A) (A) (A) (A) (A) (A) (A) (A) (A) (A)
                 (A) (A) (A) (A) (A) (A) (A) (A)
 The electronic state is 1-A.
 Alpha  occ. eigenvalues --  -66.10022 -19.08388 -19.08222 -19.07658 -19.04688
 Alpha  occ. eigenvalues --  -18.97791 -10.19602 -10.19510  -5.21909  -3.56584
 Alpha  occ. eigenvalues --   -3.56441  -3.56110  -0.99048  -0.93575  -0.92927
 Alpha  occ. eigenvalues --   -0.91332  -0.79936  -0.68291  -0.56431  -0.46663
 Alpha  occ. eigenvalues --   -0.44707  -0.43701  -0.41752  -0.41123  -0.36897
 Alpha  occ. eigenvalues --   -0.35789  -0.30639  -0.29699  -0.26693  -0.26132
 Alpha  occ. eigenvalues --   -0.25586  -0.23267  -0.21941  -0.20886  -0.20498
 Alpha  occ. eigenvalues --   -0.16335  -0.16001
 Alpha virt. eigenvalues --    0.23292   0.25148   0.27263   0.28650   0.30629
 Alpha virt. eigenvalues --    0.31667   0.33181   0.34626   0.36196   0.38188
 Alpha virt. eigenvalues --    0.39696   0.40510   0.43100   0.44088   0.44419
 Alpha virt. eigenvalues --    0.45631   0.46599   0.50031   0.52070   0.53815
 Alpha virt. eigenvalues --    0.54380   0.56757   0.58126   0.58578   0.59231
 Alpha virt. eigenvalues --    0.59743   0.60850   0.62271   0.64053   0.65185
 Alpha virt. eigenvalues --    0.65646   0.66853   0.67297   0.68939   0.69615
 Alpha virt. eigenvalues --    0.71022   0.72011   0.73109   0.74572   0.75470
 Alpha virt. eigenvalues --    0.78240   0.80040   0.81452   0.82093   0.84315
 Alpha virt. eigenvalues --    0.86359   0.88021   0.89544   0.91398   0.93493
 Alpha virt. eigenvalues --    0.94754   0.95919   0.97407   0.98962   0.99348
 Alpha virt. eigenvalues --    1.00433   1.01911   1.02368   1.04911   1.06695
 Alpha virt. eigenvalues --    1.08280   1.10197   1.11365   1.14272   1.17104
 Alpha virt. eigenvalues --    1.18673   1.20872   1.22733   1.23062   1.24608
 Alpha virt. eigenvalues --    1.25472   1.26356   1.27993   1.31274   1.32733
 Alpha virt. eigenvalues --    1.34352   1.36842   1.37524   1.40501   1.40953
 Alpha virt. eigenvalues --    1.41873   1.43292   1.45060   1.47704   1.48600
 Alpha virt. eigenvalues --    1.50682   1.52663   1.55320   1.57069   1.57265
 Alpha virt. eigenvalues --    1.59063   1.59448   1.62516   1.64420   1.66331
 Alpha virt. eigenvalues --    1.71559   1.72226   1.73841   1.75025   1.78167
 Alpha virt. eigenvalues --    1.81195   1.82781   1.86542   1.91917   1.95056
 Alpha virt. eigenvalues --    1.99133   1.99890   2.01483   2.04121   2.05572
 Alpha virt. eigenvalues --    2.09508   2.11147   2.13084   2.14034   2.17415
 Alpha virt. eigenvalues --    2.19484   2.21549   2.22711   2.23100   2.27189
 Alpha virt. eigenvalues --    2.30160   2.30981   2.32207   2.37151   2.37537
 Alpha virt. eigenvalues --    2.39107   2.41144   2.44935   2.46962   2.51848
 Alpha virt. eigenvalues --    2.52234   2.55673   2.56841   2.60193   2.60695
 Alpha virt. eigenvalues --    2.65894   2.67748   2.76522   2.78743   2.80252
 Alpha virt. eigenvalues --    2.82456   2.83997   2.86240   2.94836   2.97088
 Alpha virt. eigenvalues --    2.97535   3.00957   3.02681   3.04064   3.06477
 Alpha virt. eigenvalues --    3.09936   3.12243   3.14655   3.16989   3.18207
 Alpha virt. eigenvalues --    3.19355   3.21272   3.22600   3.24937   3.30217
 Alpha virt. eigenvalues --    3.32797   3.33462   3.35823   3.36816   3.39170
 Alpha virt. eigenvalues --    3.41163   3.42455   3.44049   3.47400   3.49061
 Alpha virt. eigenvalues --    3.52443   3.52659   3.54871   3.58235   3.59468
 Alpha virt. eigenvalues --    3.60103   3.61269   3.64165   3.66018   3.68411
 Alpha virt. eigenvalues --    3.72274   3.73783   3.76825   3.78284   3.81998
 Alpha virt. eigenvalues --    3.85190   3.85354   3.88844   3.90505   3.93628
 Alpha virt. eigenvalues --    3.95300   3.96102   3.97037   3.97424   3.99767
 Alpha virt. eigenvalues --    4.02771   4.06306   4.07535   4.13993   4.15433
 Alpha virt. eigenvalues --    4.16553   4.18711   4.20230   4.22495   4.25484
 Alpha virt. eigenvalues --    4.27687   4.31066   4.32232   4.33915   4.37077
 Alpha virt. eigenvalues --    4.38864   4.40114   4.40544   4.41470   4.45484
 Alpha virt. eigenvalues --    4.47434   4.50446   4.54395   4.58198   4.59213
 Alpha virt. eigenvalues --    4.69553   4.72683   4.77345   4.79405   4.82674
 Alpha virt. eigenvalues --    4.87724   4.89102   4.93314   4.95669   4.97340
 Alpha virt. eigenvalues --    4.99495   5.05608   5.05987   5.10492   5.12757
 Alpha virt. eigenvalues --    5.16132   5.18022   5.19726   5.23738   5.26537
 Alpha virt. eigenvalues --    5.32042   5.32701   5.34791   5.36925   5.45794
 Alpha virt. eigenvalues --    5.47869   5.49957   5.50412   5.52059   5.52432
 Alpha virt. eigenvalues --    5.56928   5.60353   5.61693   5.66629   5.68276
 Alpha virt. eigenvalues --    5.68941   5.73281   5.74151   5.75885   5.77577
 Alpha virt. eigenvalues --    5.79248   5.81001   5.85228   5.85666   5.90147
 Alpha virt. eigenvalues --    5.91633   5.98542   6.07650   6.13847   6.16421
 Alpha virt. eigenvalues --    6.24879   6.28592   6.34939   6.38314   6.44148
 Alpha virt. eigenvalues --    6.47292   6.61475   6.68080   6.70275   6.73939
 Alpha virt. eigenvalues --    6.77874   6.81576   6.83038   6.84858   6.86740
 Alpha virt. eigenvalues --    6.88006   6.89350   6.90344   6.94444   6.96441
 Alpha virt. eigenvalues --    6.97417   6.99241   7.00161   7.05382   7.06732
 Alpha virt. eigenvalues --    7.11325   7.14726   7.18170   7.22423   7.25250
 Alpha virt. eigenvalues --    7.29286   7.31202   7.36631   7.44620   7.53197
 Alpha virt. eigenvalues --    7.58215   7.68890   7.73085   7.74655   7.78940
 Alpha virt. eigenvalues --    7.94881   7.99991  12.59118  23.49240  23.61179
 Alpha virt. eigenvalues --   44.01252  44.04113  44.11628  44.32768  44.40264
          Condensed to atoms (all electrons):
               1          2          3          4          5          6
     1  Si  11.589166   0.379201  -0.017566   0.019433   0.002304   0.332594
     2  O    0.379201   7.860176   0.304249  -0.009749   0.013739  -0.029529
     3  H   -0.017566   0.304249   0.561730   0.000385  -0.000156  -0.000150
     4  O    0.019433  -0.009749   0.000385   7.841360   0.345700  -0.004437
     5  H    0.002304   0.013739  -0.000156   0.345700   0.501897   0.000282
     6  O    0.332594  -0.029529  -0.000150  -0.004437   0.000282   7.978144
     7  O    0.696199  -0.038152   0.002177  -0.051029   0.000570  -0.030189
     8  H    0.004383  -0.001333   0.000219   0.345173  -0.047524   0.000252
     9  O    0.359763  -0.033245   0.005507  -0.000223   0.000103  -0.018221
    10  C   -0.032827  -0.001575  -0.000949   0.000030   0.000016  -0.072745
    11  H   -0.001344  -0.000045  -0.000175  -0.000001   0.000002   0.005496
    12  H   -0.001397  -0.000363   0.000205   0.000016  -0.000002   0.006148
    13  C   -0.060964   0.003020  -0.000256  -0.001031   0.000070   0.337267
    14  H   -0.008342   0.000920   0.001215   0.000039  -0.000003  -0.057525
    15  H    0.002074  -0.000206   0.000024  -0.000019  -0.000007  -0.042926
               7          8          9         10         11         12
     1  Si   0.696199   0.004383   0.359763  -0.032827  -0.001344  -0.001397
     2  O   -0.038152  -0.001333  -0.033245  -0.001575  -0.000045  -0.000363
     3  H    0.002177   0.000219   0.005507  -0.000949  -0.000175   0.000205
     4  O   -0.051029   0.345173  -0.000223   0.000030  -0.000001   0.000016
     5  H    0.000570  -0.047524   0.000103   0.000016   0.000002  -0.000002
     6  O   -0.030189   0.000252  -0.018221  -0.072745   0.005496   0.006148
     7  O    8.117900   0.069521  -0.022970  -0.002359  -0.000178   0.001079
     8  H    0.069521   0.384811   0.000368   0.000059  -0.000005  -0.000025
     9  O   -0.022970   0.000368   8.027063   0.320529  -0.044494  -0.047556
    10  C   -0.002359   0.000059   0.320529   4.710993   0.370134   0.423041
    11  H   -0.000178  -0.000005  -0.044494   0.370134   0.738555  -0.071057
    12  H    0.001079  -0.000025  -0.047556   0.423041  -0.071057   0.715535
    13  C   -0.004222   0.000258  -0.089261   0.294168  -0.013485  -0.063903
    14  H   -0.000374  -0.000009   0.010195  -0.055792  -0.016719   0.016418
    15  H   -0.000142  -0.000029   0.006098  -0.016524   0.008520  -0.013139
              13         14         15
     1  Si  -0.060964  -0.008342   0.002074
     2  O    0.003020   0.000920  -0.000206
     3  H   -0.000256   0.001215   0.000024
     4  O   -0.001031   0.000039  -0.000019
     5  H    0.000070  -0.000003  -0.000007
     6  O    0.337267  -0.057525  -0.042926
     7  O   -0.004222  -0.000374  -0.000142
     8  H    0.000258  -0.000009  -0.000029
     9  O   -0.089261   0.010195   0.006098
    10  C    0.294168  -0.055792  -0.016524
    11  H   -0.013485  -0.016719   0.008520
    12  H   -0.063903   0.016418  -0.013139
    13  C    4.743325   0.398752   0.372910
    14  H    0.398752   0.774941  -0.075440
    15  H    0.372910  -0.075440   0.736536
 Mulliken charges:
               1
     1  Si   0.737323
     2  O   -0.447107
     3  H    0.143542
     4  O   -0.485646
     5  H    0.183008
     6  O   -0.404461
     7  O   -0.737830
     8  H    0.243880
     9  O   -0.473655
    10  C    0.063801
    11  H    0.024796
    12  H    0.035001
    13  C    0.083351
    14  H    0.011726
    15  H    0.022271
 Sum of Mulliken charges =  -1.00000
 Mulliken charges with hydrogens summed into heavy atoms:
               1
     1  Si   0.737323
     2  O   -0.303565
     4  O   -0.058758
     6  O   -0.404461
     7  O   -0.737830
     9  O   -0.473655
    10  C    0.123598
    13  C    0.117348
 Electronic spatial extent (au):  <R**2>=           1150.7271
 Charge=             -1.0000 electrons
 Dipole moment (field-independent basis, Debye):
    X=              6.3981    Y=              0.5688    Z=              3.6133  Tot=              7.3699
 Quadrupole moment (field-independent basis, Debye-Ang):
   XX=            -72.8077   YY=            -66.2084   ZZ=            -59.1908
   XY=              4.8551   XZ=             -3.8939   YZ=             -3.1968
 Traceless Quadrupole moment (field-independent basis, Debye-Ang):
   XX=             -6.7387   YY=             -0.1395   ZZ=              6.8782
   XY=              4.8551   XZ=             -3.8939   YZ=             -3.1968
 Octapole moment (field-independent basis, Debye-Ang**2):
  XXX=             35.0053  YYY=             -3.4653  ZZZ=             19.5726  XYY=              5.7354
  XXY=            -10.0093  XXZ=              7.3201  XZZ=              4.3054  YZZ=              3.4419
  YYZ=              2.7979  XYZ=              0.2425
 Hexadecapole moment (field-independent basis, Debye-Ang**3):
 XXXX=          -1072.3318 YYYY=           -333.4326 ZZZZ=           -225.0456 XXXY=             49.1733
 XXXZ=            -20.9033 YYYX=              5.4382 YYYZ=             -7.7725 ZZZX=             -9.0559
 ZZZY=            -18.7969 XXYY=           -243.1789 XXZZ=           -192.4213 YYZZ=            -93.7239
 XXYZ=             -1.7083 YYXZ=             -2.4056 ZZXY=            -14.7843
 N-N= 5.230972254557D+02 E-N=-2.827449442759D+03  KE= 7.439283078414D+02
   1 Symmetry operations used in ECPInt.
 ECPInt:  NShTT=    8911 NPrTT=   25186 LenC2=    8590 LenP2D=   19285.
 LDataN:  DoStor=T MaxTD1= 7 Len=  274
 Calling FoFJK, ICntrl=      2127 FMM=F ISym2X=0 I1Cent= 0 IOpClX= 0 NMat=1 NMatS=1 NMatT=0.
 ***** Axes restored to original set *****
 -------------------------------------------------------------------
 Center     Atomic                   Forces (Hartrees/Bohr)
 Number     Number              X              Y              Z
 -------------------------------------------------------------------
      1       14          -0.002506960   -0.002016282    0.000756644
      2        8          -0.001282279   -0.000396215   -0.000342177
      3        1           0.001056610    0.001275079    0.000688153
      4        8           0.008017104    0.003451271    0.000775543
      5        1          -0.000480071   -0.000476866   -0.001078119
      6        8          -0.001130649   -0.001014746   -0.000203063
      7        8           0.000722548    0.000605029   -0.000942466
      8        1          -0.000070290   -0.000316231    0.000271405
      9        8          -0.001736384   -0.000567784    0.000867255
     10        6          -0.001406589   -0.000174129   -0.000369535
     11        1          -0.000051454   -0.000001339   -0.000076708
     12        1          -0.000167863    0.000001041   -0.000031765
     13        6          -0.000863849   -0.000348217   -0.000258981
     14        1          -0.000052112   -0.000011938   -0.000021891
     15        1          -0.000047761   -0.000008672   -0.000034295
 -------------------------------------------------------------------
 Cartesian Forces:  Max     0.008017104 RMS     0.001534653

 GradGradGradGradGradGradGradGradGradGradGradGradGradGradGradGradGradGrad
 Berny optimization.
 FormGI is forming the generalized inverse of G from B-inverse, IUseBI=4.
 Internal  Forces:  Max     0.025474035 RMS     0.003654659
 Search for a local minimum.
 Step number   1 out of a maximum of   78
 All quantities printed in internal units (Hartrees-Bohrs-Radians)
 Mixed Optimization -- RFO/linear search
 Second derivative matrix not updated -- first step.
 ITU=  0
     Eigenvalues ---    0.00230   0.00918   0.01266   0.02639   0.03298
     Eigenvalues ---    0.04871   0.04940   0.05088   0.05911   0.06238
     Eigenvalues ---    0.06295   0.10150   0.10360   0.10763   0.11180
     Eigenvalues ---    0.11259   0.13118   0.15318   0.16000   0.16000
     Eigenvalues ---    0.16000   0.16222   0.21439   0.21991   0.25000
     Eigenvalues ---    0.27867   0.33409   0.33746   0.34092   0.34166
     Eigenvalues ---    0.34228   0.35107   0.38579   0.43618   0.45299
     Eigenvalues ---    0.50992   0.56272   0.56484   0.63930
 RFO step:  Lambda=-5.74889393D-03 EMin= 2.30000000D-03
 Linear search not attempted -- first point.
 Iteration  1 RMS(Cart)=  0.14776054 RMS(Int)=  0.00442603
 Iteration  2 RMS(Cart)=  0.01258254 RMS(Int)=  0.00005290
 Iteration  3 RMS(Cart)=  0.00011580 RMS(Int)=  0.00001240
 Iteration  4 RMS(Cart)=  0.00000001 RMS(Int)=  0.00001240
 Variable       Old X    -DE/DX   Delta X   Delta X   Delta X     New X
                                 (Linear)    (Quad)   (Total)
    R1        3.17231  -0.00067   0.00000  -0.00171  -0.00171   3.17060
    R2        3.20734   0.00041   0.00000   0.00125   0.00125   3.20860
    R3        2.91660   0.00392   0.00000   0.00607   0.00607   2.92267
    R4        3.21252   0.00304   0.00000   0.00871   0.00871   3.22123
    R5        1.80537  -0.00149   0.00000  -0.00262  -0.00262   1.80275
    R6        1.80719   0.00119   0.00000   0.00209   0.00209   1.80928
    R7        1.85577   0.00506   0.00000   0.00980   0.00980   1.86557
    R8        2.63358   0.00154   0.00000   0.00307   0.00308   2.63666
    R9        3.38127   0.00659   0.00000   0.09666   0.09666   3.47793
   R10        2.64611   0.00014   0.00000   0.00059   0.00059   2.64670
   R11        2.07051   0.00007   0.00000   0.00021   0.00021   2.07072
   R12        2.07761  -0.00001   0.00000  -0.00003  -0.00003   2.07758
   R13        2.89912  -0.00017   0.00000  -0.00141  -0.00140   2.89772
   R14        2.08339   0.00003   0.00000   0.00010   0.00010   2.08348
   R15        2.07176   0.00000   0.00000   0.00001   0.00001   2.07176
    A1        1.89184  -0.00062   0.00000  -0.00304  -0.00306   1.88878
    A2        1.98054  -0.00058   0.00000  -0.00140  -0.00143   1.97911
    A3        1.78849   0.00061   0.00000   0.00050   0.00047   1.78896
    A4        2.03116   0.00256   0.00000   0.01491   0.01490   2.04606
    A5        1.63484  -0.00181   0.00000  -0.00796  -0.00796   1.62688
    A6        2.09461  -0.00050   0.00000  -0.00521  -0.00518   2.08944
    A7        1.94745   0.00002   0.00000   0.00011   0.00011   1.94756
    A8        1.78022   0.00014   0.00000   0.00084   0.00084   1.78106
    A9        1.94503   0.00088   0.00000   0.00478   0.00477   1.94980
   A10        1.59771   0.02547   0.00000   0.15369   0.15369   1.75140
   A11        2.73303   0.01078   0.00000   0.04217   0.04217   2.77520
   A12        1.90216   0.00164   0.00000   0.00956   0.00955   1.91171
   A13        1.92398   0.00051   0.00000   0.00131   0.00131   1.92529
   A14        1.92960   0.00029   0.00000   0.00141   0.00142   1.93101
   A15        1.85646  -0.00115   0.00000  -0.00447  -0.00448   1.85198
   A16        1.88610  -0.00015   0.00000   0.00018   0.00018   1.88628
   A17        1.95192   0.00016   0.00000   0.00108   0.00109   1.95301
   A18        1.91625   0.00035   0.00000   0.00051   0.00051   1.91675
   A19        1.86533   0.00040   0.00000   0.00159   0.00158   1.86691
   A20        1.93254  -0.00027   0.00000  -0.00051  -0.00050   1.93204
   A21        1.92854   0.00006   0.00000   0.00051   0.00051   1.92905
   A22        1.91446   0.00006   0.00000  -0.00026  -0.00025   1.91421
   A23        1.94527  -0.00029   0.00000  -0.00082  -0.00082   1.94445
   A24        1.87837   0.00002   0.00000  -0.00054  -0.00054   1.87783
    D1       -1.20916   0.00202   0.00000   0.02299   0.02298  -1.18618
    D2        2.78919  -0.00046   0.00000   0.00646   0.00647   2.79567
    D3        0.50476   0.00011   0.00000   0.01368   0.01367   0.51844
    D4        1.78020  -0.00031   0.00000  -0.01028  -0.01026   1.76994
    D5       -2.24608   0.00045   0.00000  -0.00255  -0.00251  -2.24859
    D6       -0.04266  -0.00021   0.00000  -0.00748  -0.00747  -0.05013
    D7        1.09070  -0.00193   0.00000  -0.03565  -0.03563   1.05507
    D8       -1.12285  -0.00282   0.00000  -0.04356  -0.04359  -1.16644
    D9       -3.07153  -0.00204   0.00000  -0.04076  -0.04074  -3.11227
   D10       -2.26696   0.00090   0.00000   0.01273   0.01274  -2.25421
   D11       -0.35133  -0.00012   0.00000   0.00760   0.00760  -0.34372
   D12        1.80323   0.00150   0.00000   0.01788   0.01790   1.82113
   D13       -0.58858   0.00081   0.00000   0.04385   0.04385  -0.54473
   D14        0.38430   0.00040   0.00000   0.00485   0.00486   0.38916
   D15       -1.70002   0.00024   0.00000   0.00448   0.00449  -1.69553
   D16        2.50368   0.00034   0.00000   0.00514   0.00515   2.50883
   D17       -0.28310  -0.00106   0.00000  -0.13141  -0.13141  -0.41452
   D18        2.72530  -0.00010   0.00000  -0.00763  -0.00764   2.71766
   D19       -1.47358   0.00022   0.00000  -0.00568  -0.00568  -1.47926
   D20        0.60595   0.00012   0.00000  -0.00695  -0.00696   0.59900
   D21       -0.63363   0.00023   0.00000   0.00442   0.00442  -0.62921
   D22        1.46233   0.00018   0.00000   0.00461   0.00461   1.46694
   D23       -2.74239   0.00007   0.00000   0.00326   0.00326  -2.73912
   D24       -2.73504   0.00025   0.00000   0.00505   0.00505  -2.72999
   D25       -0.63907   0.00020   0.00000   0.00524   0.00524  -0.63383
   D26        1.43939   0.00009   0.00000   0.00389   0.00390   1.44329
   D27        1.45461   0.00009   0.00000   0.00379   0.00378   1.45839
   D28       -2.73261   0.00005   0.00000   0.00397   0.00397  -2.72864
   D29       -0.65415  -0.00007   0.00000   0.00262   0.00263  -0.65152
         Item               Value     Threshold  Converged?
 Maximum Force            0.025474     0.000450     NO 
 RMS     Force            0.003655     0.000300     NO 
 Maximum Displacement     0.789545     0.001800     NO 
 RMS     Displacement     0.157259     0.001200     NO 
 Predicted change in Energy=-3.050749D-03
 GradGradGradGradGradGradGradGradGradGradGradGradGradGradGradGradGradGrad

                          Input orientation:                          
 ---------------------------------------------------------------------
 Center     Atomic      Atomic             Coordinates (Angstroms)
 Number     Number       Type             X           Y           Z
 ---------------------------------------------------------------------
      1         14           0        0.166970   -0.318259    0.066956
      2          8           0        0.837110   -0.870645   -1.368603
      3          1           0        0.164096   -1.105772   -2.002509
      4          8           0        3.057723    1.210823    0.027137
      5          1           0        3.058106    0.628639   -0.732949
      6          8           0       -0.587129    1.172109   -0.238096
      7          8           0        1.141789   -0.385880    1.265773
      8          1           0        2.484346    0.719258    0.662907
      9          8           0       -1.312530   -1.162345    0.132289
     10          6           0       -2.356996   -0.259151    0.366688
     11          1           0       -3.303725   -0.667972   -0.003857
     12          1           0       -2.467289   -0.065162    1.443211
     13          6           0       -1.970514    1.035715   -0.358077
     14          1           0       -2.265058    0.969704   -1.418484
     15          1           0       -2.481345    1.904082    0.074271
 ---------------------------------------------------------------------
                    Distance matrix (angstroms):
                    1          2          3          4          5
     1  Si   0.000000
     2  O    1.677811   0.000000
     3  H    2.214243   0.953976   0.000000
     4  O    3.270494   3.348391   4.226009   0.000000
     5  H    3.145653   2.754039   3.604893   0.957428   0.000000
     6  O    1.697916   2.734839   2.977622   3.654695   3.718599
     7  O    1.546611   2.695879   3.486516   2.784687   2.948967
     8  H    2.608032   3.060753   3.977278   0.987219   1.511895
     9  O    1.704603   2.637939   2.596342   4.974143   4.801950
    10  C    2.542388   3.686119   3.561709   5.620970   5.596490
    11  H    3.488987   4.364645   4.026421   6.633163   6.533427
    12  H    2.982860   4.412953   4.458705   5.844584   5.978881
    13  C    2.565684   3.540921   3.441901   5.046010   5.058978
    14  H    3.127321   3.607328   3.247996   5.520865   5.377951
    15  H    3.457228   4.559950   4.513380   5.582481   5.741417
                    6          7          8          9         10
     6  O    0.000000
     7  O    2.770940   0.000000
     8  H    3.232776   1.840444   0.000000
     9  O    2.472462   2.812715   4.270627   0.000000
    10  C    2.355143   3.614680   4.948093   1.400575   0.000000
    11  H    3.289477   4.631860   5.989219   2.056161   1.095780
    12  H    2.809383   3.627642   5.073744   2.062958   1.099408
    13  C    1.395261   3.787380   4.581302   2.346246   1.533405
    14  H    2.061487   4.544166   5.191507   2.803184   2.169188
    15  H    2.054607   4.448674   5.138909   3.282145   2.186447
                   11         12         13         14         15
    11  H    0.000000
    12  H    1.776798   0.000000
    13  C    2.192138   2.168722   0.000000
    14  H    2.400412   3.049777   1.102531   0.000000
    15  H    2.701458   2.398357   1.096329   1.774306   0.000000
 Stoichiometry    C2H7O5Si(1-)
 Framework group  C1[X(C2H7O5Si)]
 Deg. of freedom    39
 Full point group                 C1      NOp   1
 Largest Abelian subgroup         C1      NOp   1
 Largest concise Abelian subgroup C1      NOp   1
                         Standard orientation:                         
 ---------------------------------------------------------------------
 Center     Atomic      Atomic             Coordinates (Angstroms)
 Number     Number       Type             X           Y           Z
 ---------------------------------------------------------------------
      1         14           0       -0.173986   -0.368918   -0.106298
      2          8           0       -0.776537   -1.015244    1.319972
      3          1           0       -0.080307   -1.187149    1.949084
      4          8           0       -3.212953    0.837749   -0.037237
      5          1           0       -3.148314    0.245888    0.712557
      6          8           0        0.415448    1.188749    0.224099
      7          8           0       -1.139088   -0.520807   -1.305262
      8          1           0       -2.591560    0.422117   -0.682002
      9          8           0        1.387893   -1.046844   -0.187665
     10          6           0        2.327969   -0.032106   -0.407153
     11          1           0        3.314356   -0.342516   -0.044636
     12          1           0        2.413680    0.191246   -1.480217
     13          6           0        1.805796    1.200666    0.340471
     14          1           0        2.108672    1.148571    1.399304
     15          1           0        2.218584    2.126513   -0.077080
 ---------------------------------------------------------------------
 Rotational constants (GHZ):           2.9719635           1.1322894           1.0569870
 Standard basis: def2TZVPP (5D, 7F)
 There are   405 symmetry adapted cartesian basis functions of A   symmetry.
 There are   357 symmetry adapted basis functions of A   symmetry.
   357 basis functions,   545 primitive gaussians,   405 cartesian basis functions
    37 alpha electrons       37 beta electrons
       nuclear repulsion energy       514.8888069049 Hartrees.
 NAtoms=   15 NActive=   15 NUniq=   15 SFac= 1.00D+00 NAtFMM=   60 NAOKFM=F Big=F
 Integral buffers will be    131072 words long.
 Raffenetti 2 integral format.
 Two-electron integral symmetry is turned on.
 Nuclear repulsion after empirical dispersion term =      514.8824046369 Hartrees.
 One-electron integrals computed using PRISM.
   1 Symmetry operations used in ECPInt.
 ECPInt:  NShTT=    8911 NPrTT=   25186 LenC2=    8518 LenP2D=   19035.
 LDataN:  DoStor=T MaxTD1= 6 Len=  172
 NBasis=   357 RedAO= T EigKep=  3.20D-04  NBF=   357
 NBsUse=   357 1.00D-06 EigRej= -1.00D+00 NBFU=   357
 Initial guess from the checkpoint file:  "IRC_PbiL_collapseTo_QbiL_Forward_endpointOpt.chk"
 B after Tr=     0.000000    0.000000   -0.000000
         Rot=    0.998924   -0.044483   -0.008935   -0.009607 Ang=  -5.32 deg.
 ExpMin= 7.01D-02 ExpMax= 4.48D+04 ExpMxC= 1.53D+03 IAcc=3 IRadAn=         5 AccDes= 0.00D+00
 Harris functional with IExCor= 4639 and IRadAn=       5 diagonalized for initial guess.
 HarFok:  IExCor= 4639 AccDes= 0.00D+00 IRadAn=         5 IDoV= 1 UseB2=F ITyADJ=14
 ICtDFT=  3500011 ScaDFX=  1.000000  1.000000  1.000000  1.000000
 FoFCou: FMM=F IPFlag=           0 FMFlag=      100000 FMFlg1=           0
         NFxFlg=           0 DoJE=T BraDBF=F KetDBF=T FulRan=T
         wScrn=  0.000000 ICntrl=       500 IOpCl=  0 I1Cent=   200000004 NGrid=           0
         NMat0=    1 NMatS0=      1 NMatT0=    0 NMatD0=    1 NMtDS0=    0 NMtDT0=    0
 Petite list used in FoFCou.
 Requested convergence on RMS density matrix=1.00D-08 within 128 cycles.
 Requested convergence on MAX density matrix=1.00D-06.
 Requested convergence on             energy=1.00D-06.
 No special actions if energy rises.
 Integral accuracy reduced to 1.0D-05 until final iterations.
 Initial convergence to 1.0D-05 achieved.  Increase integral accuracy.
 SCF Done:  E(RwB97XD) =  -746.341871304     A.U. after   12 cycles
            NFock= 12  Conv=0.99D-08     -V/T= 2.0033
   1 Symmetry operations used in ECPInt.
 ECPInt:  NShTT=    8911 NPrTT=   25186 LenC2=    8518 LenP2D=   19035.
 LDataN:  DoStor=T MaxTD1= 7 Len=  274
 Calling FoFJK, ICntrl=      2127 FMM=F ISym2X=0 I1Cent= 0 IOpClX= 0 NMat=1 NMatS=1 NMatT=0.
 ***** Axes restored to original set *****
 -------------------------------------------------------------------
 Center     Atomic                   Forces (Hartrees/Bohr)
 Number     Number              X              Y              Z
 -------------------------------------------------------------------
      1       14           0.000316153   -0.003603429    0.001402782
      2        8           0.000052972    0.000893212    0.001793196
      3        1          -0.000050825    0.000880297   -0.000280813
      4        8           0.002090411   -0.002192813    0.004225562
      5        1          -0.001758066    0.000436753    0.001105620
      6        8          -0.000105015    0.000005567    0.000550716
      7        8           0.000149624    0.003705153   -0.004557061
      8        1          -0.000049399    0.000772395   -0.004658303
      9        8          -0.001330282   -0.000744337    0.001561652
     10        6           0.000925674   -0.000647962   -0.000578766
     11        1           0.000083950    0.000084991   -0.000133774
     12        1          -0.000153545   -0.000086687    0.000049483
     13        6          -0.000620294    0.000342902   -0.000489248
     14        1           0.000202665    0.000002310    0.000107923
     15        1           0.000245978    0.000151648   -0.000098969
 -------------------------------------------------------------------
 Cartesian Forces:  Max     0.004658303 RMS     0.001604997

 GradGradGradGradGradGradGradGradGradGradGradGradGradGradGradGradGradGrad
 Berny optimization.
 Using GEDIIS/GDIIS optimizer.
 FormGI is forming the generalized inverse of G from B-inverse, IUseBI=4.
 Internal  Forces:  Max     0.008640546 RMS     0.001478211
 Search for a local minimum.
 Step number   2 out of a maximum of   78
 All quantities printed in internal units (Hartrees-Bohrs-Radians)
 Mixed Optimization -- RFO/linear search
 Update second derivatives using D2CorX and points    1    2
 DE= -3.33D-03 DEPred=-3.05D-03 R= 1.09D+00
 TightC=F SS=  1.41D+00  RLast= 2.48D-01 DXNew= 5.0454D-01 7.4276D-01
 Trust test= 1.09D+00 RLast= 2.48D-01 DXMaxT set to 5.05D-01
 ITU=  1  0
 Use linear search instead of GDIIS.
     Eigenvalues ---    0.00253   0.00920   0.01202   0.02603   0.03264
     Eigenvalues ---    0.04786   0.04860   0.04954   0.05913   0.06293
     Eigenvalues ---    0.06735   0.09992   0.10363   0.10754   0.11151
     Eigenvalues ---    0.11222   0.11505   0.13127   0.15325   0.16000
     Eigenvalues ---    0.16191   0.16484   0.21467   0.22070   0.24316
     Eigenvalues ---    0.27884   0.33410   0.33746   0.34092   0.34166
     Eigenvalues ---    0.34198   0.35097   0.38625   0.43617   0.45333
     Eigenvalues ---    0.52509   0.56378   0.56536   0.64933
 RFO step:  Lambda=-1.39495118D-02 EMin= 2.52914245D-03
 Quartic linear search produced a step of  2.00000.
 Iteration  1 RMS(Cart)=  0.18632170 RMS(Int)=  0.09004951
 Iteration  2 RMS(Cart)=  0.06205966 RMS(Int)=  0.06080666
 Iteration  3 RMS(Cart)=  0.04478844 RMS(Int)=  0.03726671
 Iteration  4 RMS(Cart)=  0.04892675 RMS(Int)=  0.01378188
 Iteration  5 RMS(Cart)=  0.02665413 RMS(Int)=  0.00133109
 Iteration  6 RMS(Cart)=  0.00143999 RMS(Int)=  0.00014477
 Iteration  7 RMS(Cart)=  0.00000253 RMS(Int)=  0.00014476
 Iteration  8 RMS(Cart)=  0.00000000 RMS(Int)=  0.00014476
 Variable       Old X    -DE/DX   Delta X   Delta X   Delta X     New X
                                 (Linear)    (Quad)   (Total)
    R1        3.17060  -0.00188  -0.00342  -0.00981  -0.01324   3.15737
    R2        3.20860  -0.00004   0.00250  -0.00334  -0.00085   3.20774
    R3        2.92267  -0.00286   0.01215  -0.02222  -0.01007   2.91260
    R4        3.22123   0.00104   0.01742  -0.00571   0.01159   3.23282
    R5        1.80275   0.00001  -0.00523   0.00450  -0.00074   1.80202
    R6        1.80928  -0.00114   0.00417  -0.00886  -0.00469   1.80459
    R7        1.86557  -0.00412   0.01961  -0.03753  -0.01792   1.84765
    R8        2.63666  -0.00000   0.00616  -0.00590   0.00035   2.63701
    R9        3.47793  -0.00061   0.19333  -0.04577   0.14755   3.62549
   R10        2.64670  -0.00070   0.00118  -0.00368  -0.00255   2.64415
   R11        2.07072  -0.00006   0.00042  -0.00078  -0.00035   2.07037
   R12        2.07758   0.00005  -0.00006   0.00042   0.00036   2.07794
   R13        2.89772   0.00050  -0.00281   0.00632   0.00361   2.90132
   R14        2.08348  -0.00016   0.00019  -0.00138  -0.00118   2.08230
   R15        2.07176  -0.00003   0.00001  -0.00025  -0.00024   2.07152
    A1        1.88878  -0.00051  -0.00612  -0.00724  -0.01334   1.87544
    A2        1.97911  -0.00054  -0.00286  -0.00576  -0.00877   1.97035
    A3        1.78896   0.00103   0.00093   0.01611   0.01705   1.80600
    A4        2.04606  -0.00002   0.02980  -0.02232   0.00752   2.05358
    A5        1.62688   0.00004  -0.01592   0.01554  -0.00068   1.62620
    A6        2.08944   0.00018  -0.01035   0.00982  -0.00031   2.08913
    A7        1.94756  -0.00014   0.00021  -0.00228  -0.00207   1.94549
    A8        1.78106  -0.00236   0.00168  -0.03737  -0.03569   1.74537
    A9        1.94980   0.00007   0.00954  -0.00572   0.00337   1.95317
   A10        1.75140   0.00864   0.30738  -0.05032   0.25706   2.00846
   A11        2.77520   0.00442   0.08434  -0.01603   0.06831   2.84350
   A12        1.91171  -0.00025   0.01910  -0.00804   0.01032   1.92202
   A13        1.92529  -0.00017   0.00261  -0.00763  -0.00490   1.92039
   A14        1.93101  -0.00006   0.00283  -0.00103   0.00187   1.93288
   A15        1.85198   0.00040  -0.00896   0.01702   0.00775   1.85973
   A16        1.88628   0.00004   0.00036  -0.00078  -0.00046   1.88582
   A17        1.95301  -0.00012   0.00217  -0.00584  -0.00353   1.94948
   A18        1.91675  -0.00009   0.00102  -0.00169  -0.00067   1.91608
   A19        1.86691  -0.00018   0.00316  -0.00219   0.00075   1.86765
   A20        1.93204  -0.00002  -0.00100  -0.00070  -0.00165   1.93039
   A21        1.92905  -0.00015   0.00103  -0.00583  -0.00472   1.92433
   A22        1.91421   0.00016  -0.00050   0.00157   0.00114   1.91534
   A23        1.94445   0.00024  -0.00164   0.00664   0.00502   1.94947
   A24        1.87783  -0.00004  -0.00107   0.00058  -0.00053   1.87730
    D1       -1.18618   0.00011   0.04597   0.02005   0.06629  -1.11988
    D2        2.79567   0.00104   0.01294   0.06174   0.07464   2.87031
    D3        0.51844   0.00039   0.02735   0.04082   0.06794   0.58637
    D4        1.76994   0.00066  -0.02053  -0.00593  -0.02643   1.74351
    D5       -2.24859  -0.00060  -0.00501  -0.04002  -0.04489  -2.29348
    D6       -0.05013  -0.00037  -0.01494  -0.02752  -0.04236  -0.09249
    D7        1.05507  -0.00207  -0.07126  -0.07490  -0.14613   0.90894
    D8       -1.16644  -0.00077  -0.08718  -0.03780  -0.12517  -1.29161
    D9       -3.11227  -0.00094  -0.08148  -0.04882  -0.13015   3.04077
   D10       -2.25421   0.00073   0.02548   0.03958   0.06516  -2.18906
   D11       -0.34372   0.00036   0.01520   0.03828   0.05353  -0.29019
   D12        1.82113   0.00044   0.03580   0.02640   0.06221   1.88334
   D13       -0.54473   0.00216   0.08770   0.34319   0.43089  -0.11384
   D14        0.38916   0.00013   0.00973   0.00935   0.01913   0.40829
   D15       -1.69553   0.00007   0.00898   0.00919   0.01824  -1.67730
   D16        2.50883   0.00023   0.01030   0.01265   0.02295   2.53177
   D17       -0.41452   0.00081  -0.26282  -0.64718  -0.91001  -1.32452
   D18        2.71766  -0.00026  -0.01528  -0.03633  -0.05171   2.66595
   D19       -1.47926  -0.00036  -0.01136  -0.04286  -0.05423  -1.53349
   D20        0.59900  -0.00027  -0.01391  -0.03536  -0.04939   0.54960
   D21       -0.62921  -0.00009   0.00883   0.01123   0.02010  -0.60911
   D22        1.46694  -0.00014   0.00922   0.00997   0.01920   1.48614
   D23       -2.73912   0.00006   0.00653   0.01586   0.02244  -2.71668
   D24       -2.72999  -0.00007   0.01010   0.01306   0.02318  -2.70680
   D25       -0.63383  -0.00012   0.01048   0.01179   0.02228  -0.61155
   D26        1.44329   0.00008   0.00779   0.01768   0.02552   1.46881
   D27        1.45839   0.00002   0.00756   0.01896   0.02649   1.48487
   D28       -2.72864  -0.00003   0.00794   0.01770   0.02558  -2.70306
   D29       -0.65152   0.00017   0.00525   0.02358   0.02882  -0.62270
         Item               Value     Threshold  Converged?
 Maximum Force            0.008641     0.000450     NO 
 RMS     Force            0.001478     0.000300     NO 
 Maximum Displacement     1.485190     0.001800     NO 
 RMS     Displacement     0.329212     0.001200     NO 
 Predicted change in Energy=-4.904643D-03
 GradGradGradGradGradGradGradGradGradGradGradGradGradGradGradGradGradGrad

                          Input orientation:                          
 ---------------------------------------------------------------------
 Center     Atomic      Atomic             Coordinates (Angstroms)
 Number     Number       Type             X           Y           Z
 ---------------------------------------------------------------------
      1         14           0        0.079780   -0.175603   -0.054442
      2          8           0        0.662699   -0.708753   -1.526703
      3          1           0       -0.046362   -0.962984   -2.111446
      4          8           0        3.609101    1.100856    0.157776
      5          1           0        3.844035    0.277319   -0.264736
      6          8           0       -0.819995    1.234448   -0.343491
      7          8           0        1.167349   -0.119406    1.036235
      8          1           0        2.751960    0.849319    0.555276
      9          8           0       -1.317827   -1.131230    0.190697
     10          6           0       -2.427468   -0.310846    0.421987
     11          1           0       -3.343864   -0.821067    0.105421
     12          1           0       -2.521135   -0.074838    1.491866
     13          6           0       -2.191543    0.979372   -0.376054
     14          1           0       -2.536123    0.843383   -1.413824
     15          1           0       -2.745051    1.825175    0.048095
 ---------------------------------------------------------------------
                    Distance matrix (angstroms):
                    1          2          3          4          5
     1  Si   0.000000
     2  O    1.670807   0.000000
     3  H    2.206160   0.953586   0.000000
     4  O    3.759054   3.846224   4.771919   0.000000
     5  H    3.797233   3.561712   4.481504   0.954947   0.000000
     6  O    1.697465   2.715585   2.924531   4.459373   4.761877
     7  O    1.541280   2.677808   3.477444   2.867557   3.002426
     8  H    2.926221   3.335751   4.269245   0.977736   1.480619
     9  O    1.710737   2.655265   2.635297   5.409058   5.369939
    10  C    2.555692   3.674895   3.537404   6.205068   6.336345
    11  H    3.487624   4.327701   3.975947   7.213893   7.280753
    12  H    3.027537   4.432878   4.460623   6.382933   6.612492
    13  C    2.568328   3.510051   3.374334   5.826423   6.077291
    14  H    3.119166   3.557292   3.154131   6.348227   6.507476
    15  H    3.463134   4.529188   4.440762   6.396242   6.775675
                    6          7          8          9         10
     6  O    0.000000
     7  O    2.772382   0.000000
     8  H    3.703372   1.918526   0.000000
     9  O    2.475809   2.813329   4.540777   0.000000
    10  C    2.357511   3.651939   5.309446   1.399224   0.000000
    11  H    3.285815   4.659377   6.336531   2.051414   1.095592
    12  H    2.824295   3.716786   5.434776   2.063239   1.099598
    13  C    1.395446   3.805789   5.032148   2.353557   1.535315
    14  H    2.060010   4.543728   5.642801   2.820963   2.171233
    15  H    2.051375   4.479363   5.605948   3.285976   2.191629
                   11         12         13         14         15
    11  H    0.000000
    12  H    1.776506   0.000000
    13  C    2.191174   2.170049   0.000000
    14  H    2.393939   3.047358   1.101905   0.000000
    15  H    2.713754   2.396802   1.096201   1.773351   0.000000
 Stoichiometry    C2H7O5Si(1-)
 Framework group  C1[X(C2H7O5Si)]
 Deg. of freedom    39
 Full point group                 C1      NOp   1
 Largest Abelian subgroup         C1      NOp   1
 Largest concise Abelian subgroup C1      NOp   1
                         Standard orientation:                         
 ---------------------------------------------------------------------
 Center     Atomic      Atomic             Coordinates (Angstroms)
 Number     Number       Type             X           Y           Z
 ---------------------------------------------------------------------
      1         14           0       -0.117528   -0.261814   -0.097482
      2          8           0       -0.608400   -1.225126    1.176359
      3          1           0        0.136288   -1.548358    1.676645
      4          8           0       -3.764487    0.642193    0.016327
      5          1           0       -3.902779   -0.284043    0.203106
      6          8           0        0.636775    1.108563    0.561671
      7          8           0       -1.229350   -0.034490   -1.140420
      8          1           0       -2.894991    0.597734   -0.428608
      9          8           0        1.366127   -0.963909   -0.579615
     10          6           0        2.378785    0.001672   -0.577649
     11          1           0        3.350244   -0.473714   -0.402727
     12          1           0        2.423213    0.521482   -1.545606
     13          6           0        2.027814    1.001416    0.533442
     14          1           0        2.407996    0.632600    1.499688
     15          1           0        2.480511    1.983320    0.352922
 ---------------------------------------------------------------------
 Rotational constants (GHZ):           3.2440911           0.9487990           0.9176902
 Standard basis: def2TZVPP (5D, 7F)
 There are   405 symmetry adapted cartesian basis functions of A   symmetry.
 There are   357 symmetry adapted basis functions of A   symmetry.
   357 basis functions,   545 primitive gaussians,   405 cartesian basis functions
    37 alpha electrons       37 beta electrons
       nuclear repulsion energy       504.9835967349 Hartrees.
 NAtoms=   15 NActive=   15 NUniq=   15 SFac= 1.00D+00 NAtFMM=   60 NAOKFM=F Big=F
 Integral buffers will be    131072 words long.
 Raffenetti 2 integral format.
 Two-electron integral symmetry is turned on.
 Nuclear repulsion after empirical dispersion term =      504.9775983429 Hartrees.
 One-electron integrals computed using PRISM.
   1 Symmetry operations used in ECPInt.
 ECPInt:  NShTT=    8911 NPrTT=   25186 LenC2=    8386 LenP2D=   18631.
 LDataN:  DoStor=T MaxTD1= 6 Len=  172
 NBasis=   357 RedAO= T EigKep=  3.37D-04  NBF=   357
 NBsUse=   357 1.00D-06 EigRej= -1.00D+00 NBFU=   357
 Initial guess from the checkpoint file:  "IRC_PbiL_collapseTo_QbiL_Forward_endpointOpt.chk"
 B after Tr=     0.000000   -0.000000   -0.000000
         Rot=    0.992871   -0.118068   -0.016125   -0.002632 Ang= -13.69 deg.
 ExpMin= 7.01D-02 ExpMax= 4.48D+04 ExpMxC= 1.53D+03 IAcc=3 IRadAn=         5 AccDes= 0.00D+00
 Harris functional with IExCor= 4639 and IRadAn=       5 diagonalized for initial guess.
 HarFok:  IExCor= 4639 AccDes= 0.00D+00 IRadAn=         5 IDoV= 1 UseB2=F ITyADJ=14
 ICtDFT=  3500011 ScaDFX=  1.000000  1.000000  1.000000  1.000000
 FoFCou: FMM=F IPFlag=           0 FMFlag=      100000 FMFlg1=           0
         NFxFlg=           0 DoJE=T BraDBF=F KetDBF=T FulRan=T
         wScrn=  0.000000 ICntrl=       500 IOpCl=  0 I1Cent=   200000004 NGrid=           0
         NMat0=    1 NMatS0=      1 NMatT0=    0 NMatD0=    1 NMtDS0=    0 NMtDT0=    0
 Petite list used in FoFCou.
 Requested convergence on RMS density matrix=1.00D-08 within 128 cycles.
 Requested convergence on MAX density matrix=1.00D-06.
 Requested convergence on             energy=1.00D-06.
 No special actions if energy rises.
 Integral accuracy reduced to 1.0D-05 until final iterations.
 Initial convergence to 1.0D-05 achieved.  Increase integral accuracy.
 SCF Done:  E(RwB97XD) =  -746.342737643     A.U. after   15 cycles
            NFock= 15  Conv=0.24D-08     -V/T= 2.0033
   1 Symmetry operations used in ECPInt.
 ECPInt:  NShTT=    8911 NPrTT=   25186 LenC2=    8386 LenP2D=   18631.
 LDataN:  DoStor=T MaxTD1= 7 Len=  274
 Calling FoFJK, ICntrl=      2127 FMM=F ISym2X=0 I1Cent= 0 IOpClX= 0 NMat=1 NMatS=1 NMatT=0.
 ***** Axes restored to original set *****
 -------------------------------------------------------------------
 Center     Atomic                   Forces (Hartrees/Bohr)
 Number     Number              X              Y              Z
 -------------------------------------------------------------------
      1       14           0.000029408   -0.003144619   -0.000200743
      2        8          -0.000684382   -0.000946813   -0.000300746
      3        1          -0.000294057    0.000187146   -0.001030980
      4        8          -0.000339659   -0.001163552    0.001950769
      5        1           0.000977631   -0.000216977   -0.001963199
      6        8          -0.000502913    0.001104315    0.000992788
      7        8           0.003727852    0.004649855   -0.000783640
      8        1          -0.004603854   -0.001320576    0.001697150
      9        8           0.001225918    0.001356170    0.000402884
     10        6           0.000878928   -0.000425672   -0.000286192
     11        1          -0.000529547    0.000351211    0.000089195
     12        1           0.000068937   -0.000214093    0.000069299
     13        6           0.000395637    0.000209848   -0.000407745
     14        1          -0.000048657   -0.000098868   -0.000304880
     15        1          -0.000301241   -0.000327377    0.000076040
 -------------------------------------------------------------------
 Cartesian Forces:  Max     0.004649855 RMS     0.001435996

 GradGradGradGradGradGradGradGradGradGradGradGradGradGradGradGradGradGrad
 Berny optimization.
 Using GEDIIS/GDIIS optimizer.
 FormGI is forming the generalized inverse of G from B-inverse, IUseBI=4.
 Internal  Forces:  Max     0.005061669 RMS     0.001003956
 Search for a local minimum.
 Step number   3 out of a maximum of   78
 All quantities printed in internal units (Hartrees-Bohrs-Radians)
 Mixed Optimization -- RFO/linear search
 Update second derivatives using D2CorX and points    2    3
 DE= -8.66D-04 DEPred=-4.90D-03 R= 1.77D-01
 Trust test= 1.77D-01 RLast= 1.10D+00 DXMaxT set to 5.05D-01
 ITU=  0  1  0
 Use linear search instead of GDIIS.
     Eigenvalues ---    0.00156   0.00810   0.00923   0.02362   0.03056
     Eigenvalues ---    0.03996   0.04841   0.04923   0.05901   0.06274
     Eigenvalues ---    0.06598   0.08871   0.10372   0.10480   0.10776
     Eigenvalues ---    0.11198   0.11303   0.13140   0.15434   0.16005
     Eigenvalues ---    0.16222   0.16868   0.21596   0.22128   0.24443
     Eigenvalues ---    0.27904   0.33414   0.33746   0.34092   0.34167
     Eigenvalues ---    0.34348   0.35217   0.38778   0.43675   0.45360
     Eigenvalues ---    0.52792   0.56508   0.56588   0.65276
 RFO step:  Lambda=-1.87687270D-03 EMin= 1.55727262D-03
 Quartic linear search produced a step of -0.34518.
 Iteration  1 RMS(Cart)=  0.04865118 RMS(Int)=  0.06585889
 Iteration  2 RMS(Cart)=  0.05056532 RMS(Int)=  0.04152158
 Iteration  3 RMS(Cart)=  0.04911282 RMS(Int)=  0.01751485
 Iteration  4 RMS(Cart)=  0.03448790 RMS(Int)=  0.00224513
 Iteration  5 RMS(Cart)=  0.00239437 RMS(Int)=  0.00004459
 Iteration  6 RMS(Cart)=  0.00000455 RMS(Int)=  0.00004453
 Iteration  7 RMS(Cart)=  0.00000000 RMS(Int)=  0.00004453
 Variable       Old X    -DE/DX   Delta X   Delta X   Delta X     New X
                                 (Linear)    (Quad)   (Total)
    R1        3.15737   0.00107   0.00457  -0.00143   0.00314   3.16051
    R2        3.20774   0.00086   0.00029   0.00243   0.00273   3.21047
    R3        2.91260   0.00054   0.00348   0.00017   0.00364   2.91624
    R4        3.23282  -0.00181  -0.00400   0.00169  -0.00227   3.23055
    R5        1.80202   0.00080   0.00025   0.00012   0.00038   1.80239
    R6        1.80459   0.00130   0.00162   0.00130   0.00292   1.80750
    R7        1.84765   0.00021   0.00619  -0.00089   0.00529   1.85295
    R8        2.63701  -0.00011  -0.00012   0.00068   0.00052   2.63753
    R9        3.62549  -0.00506  -0.05093  -0.01530  -0.06623   3.55926
   R10        2.64415  -0.00045   0.00088  -0.00153  -0.00064   2.64351
   R11        2.07037   0.00025   0.00012   0.00054   0.00066   2.07103
   R12        2.07794   0.00002  -0.00012   0.00011  -0.00001   2.07792
   R13        2.90132   0.00001  -0.00125   0.00006  -0.00122   2.90010
   R14        2.08230   0.00031   0.00041   0.00047   0.00087   2.08317
   R15        2.07152  -0.00007   0.00008  -0.00021  -0.00013   2.07139
    A1        1.87544  -0.00004   0.00461  -0.00294   0.00164   1.87708
    A2        1.97035   0.00185   0.00303   0.00600   0.00906   1.97940
    A3        1.80600  -0.00075  -0.00588   0.00189  -0.00401   1.80199
    A4        2.05358  -0.00113  -0.00260  -0.00002  -0.00266   2.05091
    A5        1.62620   0.00035   0.00023  -0.00217  -0.00184   1.62436
    A6        2.08913  -0.00054   0.00011  -0.00410  -0.00405   2.08508
    A7        1.94549   0.00088   0.00071   0.00367   0.00438   1.94987
    A8        1.74537   0.00252   0.01232   0.00379   0.01611   1.76148
    A9        1.95317  -0.00057  -0.00116   0.00015  -0.00087   1.95230
   A10        2.00846   0.00321  -0.08873   0.11105   0.02232   2.03078
   A11        2.84350   0.00015  -0.02358   0.02754   0.00396   2.84746
   A12        1.92202   0.00017  -0.00356   0.00424   0.00092   1.92294
   A13        1.92039   0.00024   0.00169   0.00367   0.00533   1.92572
   A14        1.93288  -0.00020  -0.00065  -0.00125  -0.00192   1.93097
   A15        1.85973   0.00026  -0.00267   0.00012  -0.00247   1.85726
   A16        1.88582  -0.00006   0.00016  -0.00131  -0.00114   1.88468
   A17        1.94948  -0.00029   0.00122  -0.00185  -0.00068   1.94881
   A18        1.91608   0.00006   0.00023   0.00064   0.00087   1.91695
   A19        1.86765  -0.00016  -0.00026  -0.00110  -0.00131   1.86635
   A20        1.93039   0.00013   0.00057  -0.00036   0.00020   1.93059
   A21        1.92433   0.00026   0.00163   0.00174   0.00334   1.92767
   A22        1.91534   0.00009  -0.00039   0.00115   0.00074   1.91609
   A23        1.94947  -0.00037  -0.00173  -0.00171  -0.00345   1.94602
   A24        1.87730   0.00006   0.00018   0.00029   0.00048   1.87778
    D1       -1.11988   0.00025  -0.02288   0.02380   0.00083  -1.11906
    D2        2.87031   0.00034  -0.02577   0.02155  -0.00421   2.86610
    D3        0.58637   0.00035  -0.02345   0.02126  -0.00211   0.58426
    D4        1.74351  -0.00106   0.00912  -0.01468  -0.00556   1.73795
    D5       -2.29348   0.00056   0.01549  -0.00903   0.00644  -2.28704
    D6       -0.09249  -0.00037   0.01462  -0.01552  -0.00092  -0.09341
    D7        0.90894   0.00026   0.05044  -0.03351   0.01694   0.92588
    D8       -1.29161  -0.00043   0.04321  -0.03497   0.00828  -1.28333
    D9        3.04077   0.00045   0.04492  -0.02868   0.01619   3.05696
   D10       -2.18906   0.00041  -0.02249   0.01745  -0.00506  -2.19412
   D11       -0.29019   0.00036  -0.01848   0.01408  -0.00442  -0.29461
   D12        1.88334  -0.00104  -0.02147   0.01058  -0.01088   1.87246
   D13       -0.11384   0.00197  -0.14874   0.18330   0.03456  -0.07928
   D14        0.40829   0.00016  -0.00660   0.01192   0.00531   0.41360
   D15       -1.67730   0.00008  -0.00630   0.01140   0.00509  -1.67220
   D16        2.53177  -0.00024  -0.00792   0.01017   0.00225   2.53403
   D17       -1.32452   0.00161   0.31412   0.41753   0.73165  -0.59287
   D18        2.66595  -0.00022   0.01785  -0.00919   0.00869   2.67464
   D19       -1.53349  -0.00027   0.01872  -0.00926   0.00947  -1.52402
   D20        0.54960  -0.00016   0.01705  -0.00911   0.00798   0.55758
   D21       -0.60911  -0.00004  -0.00694  -0.00093  -0.00788  -0.61699
   D22        1.48614   0.00007  -0.00663  -0.00137  -0.00800   1.47814
   D23       -2.71668  -0.00004  -0.00775  -0.00133  -0.00910  -2.72578
   D24       -2.70680  -0.00033  -0.00800  -0.00442  -0.01243  -2.71923
   D25       -0.61155  -0.00022  -0.00769  -0.00486  -0.01255  -0.62410
   D26        1.46881  -0.00032  -0.00881  -0.00483  -0.01365   1.45516
   D27        1.48487  -0.00010  -0.00914  -0.00200  -0.01114   1.47373
   D28       -2.70306   0.00000  -0.00883  -0.00244  -0.01126  -2.71432
   D29       -0.62270  -0.00010  -0.00995  -0.00241  -0.01236  -0.63506
         Item               Value     Threshold  Converged?
 Maximum Force            0.005062     0.000450     NO 
 RMS     Force            0.001004     0.000300     NO 
 Maximum Displacement     0.751906     0.001800     NO 
 RMS     Displacement     0.175063     0.001200     NO 
 Predicted change in Energy=-9.556732D-04
 GradGradGradGradGradGradGradGradGradGradGradGradGradGradGradGradGradGrad

                          Input orientation:                          
 ---------------------------------------------------------------------
 Center     Atomic      Atomic             Coordinates (Angstroms)
 Number     Number       Type             X           Y           Z
 ---------------------------------------------------------------------
      1         14           0        0.104903   -0.239676   -0.018478
      2          8           0        0.694912   -0.803994   -1.478130
      3          1           0       -0.009674   -1.037121   -2.077226
      4          8           0        3.553288    1.054274    0.253980
      5          1           0        3.446143    0.669546   -0.615145
      6          8           0       -0.739625    1.201173   -0.329964
      7          8           0        1.164308   -0.216635    1.103405
      8          1           0        2.771251    0.686878    0.717545
      9          8           0       -1.330698   -1.142051    0.198944
     10          6           0       -2.413710   -0.282224    0.410293
     11          1           0       -3.346316   -0.757409    0.085431
     12          1           0       -2.511433   -0.037214    1.477776
     13          6           0       -2.118285    0.992499   -0.391584
     14          1           0       -2.444487    0.860155   -1.436234
     15          1           0       -2.655019    1.856943    0.016043
 ---------------------------------------------------------------------
                    Distance matrix (angstroms):
                    1          2          3          4          5
     1  Si   0.000000
     2  O    1.672469   0.000000
     3  H    2.210767   0.953785   0.000000
     4  O    3.693223   3.824092   4.743749   0.000000
     5  H    3.513771   3.238107   4.122265   0.956490   0.000000
     6  O    1.698910   2.719720   2.931844   4.334936   4.229020
     7  O    1.543208   2.688800   3.488243   2.836187   2.990904
     8  H    2.917129   3.369699   4.303076   0.980538   1.493936
     9  O    1.709533   2.651407   2.633831   5.355389   5.173282
    10  C    2.555204   3.674496   3.540764   6.116840   6.024556
    11  H    3.491383   4.333408   3.986038   7.135485   6.975996
    12  H    3.020758   4.427865   4.460566   6.282505   6.353940
    13  C    2.569051   3.510277   3.377422   5.708529   5.578273
    14  H    3.117538   3.553446   3.152593   6.234405   5.950634
    15  H    3.466146   4.531577   4.444686   6.264501   6.247599
                    6          7          8          9         10
     6  O    0.000000
     7  O    2.773028   0.000000
     8  H    3.699733   1.883478   0.000000
     9  O    2.473825   2.810605   4.521052   0.000000
    10  C    2.356058   3.645122   5.283690   1.398887   0.000000
    11  H    3.286858   4.655581   6.317449   2.055128   1.095943
    12  H    2.817948   3.699110   5.386001   2.061604   1.099591
    13  C    1.395723   3.804262   5.023060   2.350600   1.534667
    14  H    2.060747   4.542316   5.645592   2.814811   2.171552
    15  H    2.053897   4.479882   5.595138   3.283481   2.188538
                   11         12         13         14         15
    11  H    0.000000
    12  H    1.776045   0.000000
    13  C    2.190385   2.170111   0.000000
    14  H    2.396930   3.049788   1.102368   0.000000
    15  H    2.705096   2.396896   1.096133   1.773984   0.000000
 Stoichiometry    C2H7O5Si(1-)
 Framework group  C1[X(C2H7O5Si)]
 Deg. of freedom    39
 Full point group                 C1      NOp   1
 Largest Abelian subgroup         C1      NOp   1
 Largest concise Abelian subgroup C1      NOp   1
                         Standard orientation:                         
 ---------------------------------------------------------------------
 Center     Atomic      Atomic             Coordinates (Angstroms)
 Number     Number       Type             X           Y           Z
 ---------------------------------------------------------------------
      1         14           0       -0.127451   -0.290776   -0.103458
      2          8           0       -0.605463   -1.243325    1.185460
      3          1           0        0.139953   -1.536393    1.703313
      4          8           0       -3.694752    0.661668   -0.019102
      5          1           0       -3.518649    0.095547    0.731477
      6          8           0        0.580703    1.115803    0.533995
      7          8           0       -1.223752   -0.114094   -1.175092
      8          1           0       -2.897391    0.498617   -0.565989
      9          8           0        1.381775   -0.960246   -0.546798
     10          6           0        2.365821    0.033936   -0.558674
     11          1           0        3.352083   -0.404082   -0.367580
[...]
 GradGradGradGradGradGradGradGradGradGradGradGradGradGradGradGradGradGrad


 ----------------------------------------------------------------------

 Electric dipole moment (input orientation):
 (Debye = 10**-18 statcoulomb cm , SI units = C m)
                  (au)            (Debye)         (10**-30 SI)
   Tot        0.346673D+01      0.881155D+01      0.293922D+02
   x         -0.311814D+01     -0.792552D+01     -0.264367D+02
   y         -0.697868D+00     -0.177380D+01     -0.591677D+01
   z         -0.134477D+01     -0.341806D+01     -0.114014D+02

 Dipole polarizability, Alpha (input orientation).
 (esu units = cm**3 , SI units = C**2 m**2 J**-1)
 Alpha(0;0):
               (au)            (10**-24 esu)      (10**-40 SI)
   iso        0.685799D+02      0.101625D+02      0.113073D+02
   aniso      0.226517D+02      0.335664D+01      0.373477D+01
   xx         0.832227D+02      0.123323D+02      0.137216D+02
   yx         0.340781D+00      0.504986D-01      0.561872D-01
   yy         0.587381D+02      0.870408D+01      0.968460D+01
   zx         0.876094D+00      0.129824D+00      0.144448D+00
   zy         0.172870D+01      0.256167D+00      0.285024D+00
   zz         0.637789D+02      0.945105D+01      0.105157D+02

 ----------------------------------------------------------------------

 Dipole orientation:
    14         -0.00057323         -0.60121725         -0.32929991
     8          3.11377596         -0.03160562         -0.26886227
     1          3.66070242          0.58670005          1.33349297
     8          2.42825859          0.64067462         -6.50143662
     1          3.72595991          0.77597106         -5.24954353
     8         -0.58024291         -3.11848288          1.57669429
     8         -1.07035439         -0.73599708         -3.03348095
     1          0.98113663          0.12392427         -5.43930303
     8         -1.16560876          1.51994655          1.79692423
     6         -2.49095625          0.27816349          3.71754857
     1         -2.38757465          1.36146641          5.47981481
     1         -4.49458643          0.07367875          3.20770590
     6         -1.27595667         -2.33901660          3.99899765
     1          0.39195800         -2.21023878          5.24088081
     1         -2.58519970         -3.70102779          4.84678405

 Electric dipole moment (dipole orientation):
 (Debye = 10**-18 statcoulomb cm , SI units = C m)
                  (au)            (Debye)         (10**-30 SI)
   Tot        0.346673D+01      0.881155D+01      0.293922D+02
   x          0.000000D+00      0.000000D+00      0.000000D+00
   y          0.000000D+00      0.000000D+00      0.000000D+00
   z          0.346673D+01      0.881155D+01      0.293922D+02

 Dipole polarizability, Alpha (dipole orientation).
 (esu units = cm**3 , SI units = C**2 m**2 J**-1)
 Alpha(0;0):
               (au)            (10**-24 esu)      (10**-40 SI)
   iso        0.685799D+02      0.101625D+02      0.113073D+02
   aniso      0.226517D+02      0.335664D+01      0.373477D+01
   xx         0.667871D+02      0.989683D+01      0.110117D+02
   yx         0.171066D+01      0.253494D+00      0.282050D+00
   yy         0.586431D+02      0.869001D+01      0.966894D+01
   zx        -0.644813D+01     -0.955514D+00     -0.106315D+01
   zy        -0.260004D+01     -0.385286D+00     -0.428689D+00
   zz         0.803095D+02      0.119006D+02      0.132412D+02

 ----------------------------------------------------------------------
 Unable to Open any file for archive entry.
 1\1\GINC-GRA102\Freq\RwB97XD\def2TZVPP\C2H7O5Si1(1-)\ARHENDER\18-Feb-2
 024\0\\#N Geom=AllCheck Guess=TCheck SCRF=Check GenChk RwB97XD/def2TZV
 PP Freq\\IRC for PbiL collapse to QbiL\\-1,1\Si,0.1151042428,0.3439797
 332,0.0038236882\O,0.8130674306,-0.1700821844,-1.4302308418\H,0.213803
 221,-0.6961712976,-1.9536023092\O,3.6746674996,0.195803602,0.24703854\
 H,3.3745798324,-0.0966473747,-0.6131897492\O,-1.0938111264,1.474146065
 6,-0.3796728404\O,1.1567754162,0.7751368245,1.0537381317\H,2.814041257
 ,0.4480295493,0.662747384\O,-1.0076225172,-0.8917876686,0.3478467824\C
 ,-2.3000361129,-0.3669512004,0.4521366061\H,-3.0412117936,-1.118336247
 6,0.1565867025\H,-2.5137304446,-0.0692699794,1.4886713224\C,-2.3464960
 743,0.8637046188,-0.4627332331\H,-2.5605550103,0.5501110574,-1.4978104
 12\H,-3.1330198205,1.5634785018,-0.1586927717\\Version=ES64L-G16RevC.0
 1\State=1-A\HF=-746.3460961\RMSD=4.454e-09\RMSF=3.408e-06\ZeroPoint=0.
 1089739\Thermal=0.1191765\ETot=-746.2269196\HTot=-746.2259754\GTot=-74
 6.2742562\Dipole=-3.1181396,-0.697868,-1.3447697\DipoleDeriv=2.7298567
 ,0.0117083,0.0092907,0.0777897,1.5157636,0.0903138,0.1529422,0.1633417
 ,1.8225348,-0.8354942,0.1414669,0.2307756,0.1589099,-0.6300935,-0.1456
 839,0.2844804,-0.174571,-1.0976177,0.1921073,-0.0846751,-0.1031716,-0.
 0814622,0.2469146,-0.0414925,-0.1038056,-0.027574,0.261166,-1.0655456,
 0.0763789,0.1459008,0.1238665,-0.6575428,0.042852,0.2388652,0.0368727,
 -0.5092125,0.3218917,-0.0346314,-0.0976868,-0.0237313,0.2638645,-0.042
 2598,-0.0673192,-0.044754,0.1408661,-1.5066869,0.0504117,-0.1400386,0.
 0324072,-0.8074271,0.0589776,-0.1672658,0.0943578,-0.5588798,-1.566807
 ,-0.0257127,-0.1165841,-0.0515973,-0.7955338,-0.0931053,-0.1839073,-0.
 0978268,-0.9711554,1.0019523,-0.0917492,-0.0974822,-0.1642601,0.254877
 9,0.020685,-0.2361294,0.0298002,0.258697,-1.4880873,-0.0650023,0.17708
 51,-0.0993511,-0.8134988,0.1041856,0.1054605,0.0715179,-0.5745277,0.87
 71285,0.0132894,-0.1080702,-0.2160467,0.3136541,0.0956905,-0.0520568,0
 .0691898,0.3379287,-0.189093,-0.1297777,-0.0208013,-0.1690653,-0.10443
 4,-0.0153234,-0.0757354,-0.0651541,0.0123612,-0.0544474,0.0163253,0.05
 23912,0.0664768,-0.0070999,-0.0750813,0.1311545,-0.0332201,-0.2357954,
 0.8487271,0.0184449,0.0880912,0.2623048,0.3222411,0.1096465,0.031622,0
 .0870524,0.3777673,-0.0645827,-0.0178952,-0.0462004,-0.0775391,-0.0223
 138,-0.093372,-0.1373341,-0.0498235,-0.2749908,-0.2009198,0.1214182,0.
 0265005,0.1612979,-0.0793721,-0.0160328,0.0790288,-0.0592089,0.0108583
 \Polar=83.2227024,0.3407813,58.7380693,0.8760938,1.7286973,63.7788684\
 Quadrupole=-11.0885527,4.5270645,6.5614882,-0.8828765,-4.4862638,1.372
 9045\PG=C01 [X(C2H7O5Si1)]\NImag=0\\0.61062959,0.06914300,0.34492892,0
 .15972331,0.10757315,0.53297477,-0.07542426,0.01050673,0.04330643,0.31
 031218,0.02459490,-0.05640869,-0.05627724,0.16593449,0.22743307,0.0651
 6830,-0.04615088,-0.17172378,0.10355367,0.23568450,0.37846524,0.004099
 29,0.00657099,0.00968483,-0.22576091,-0.19483799,-0.19386272,0.2251813
 1,-0.00895272,-0.00365002,-0.00653902,-0.18113957,-0.17370930,-0.17685
 106,0.18858168,0.17666417,-0.01685426,-0.01639695,-0.01722432,-0.16681
 097,-0.16498104,-0.18002786,0.18256156,0.18013638,0.19523395,0.0096313
 7,0.00521941,0.01266346,-0.00079454,-0.00151884,-0.00406352,-0.0004955
 8,0.00019797,0.00011087,0.43907980,-0.00122421,-0.00374602,-0.00372460
 ,-0.00092564,0.00193290,0.00078429,0.00026192,-0.00003307,0.00009872,-
 0.04307252,0.09713498,-0.00118358,-0.00256369,-0.00771484,-0.00176170,
 0.00043824,0.00222878,-0.00012750,0.00019124,0.00024015,0.00870652,0.1
 9769795,0.54231103,-0.00403779,0.00133324,0.00273609,0.00128416,-0.000
 06575,0.00000788,0.00061152,-0.00032087,-0.00028615,-0.09148676,-0.053
 83615,-0.16754679,0.08352437,0.00110867,0.00159394,0.00037053,0.000304
 42,-0.00156885,-0.00035802,-0.00041092,0.00005527,0.00004800,-0.035305
 09,-0.05598412,-0.14491628,0.04024374,0.05890142,0.00214289,0.00024514
 ,0.00236226,0.00007011,-0.00017569,-0.00176588,-0.00014102,-0.00002922
 ,-0.00007300,-0.11853247,-0.15036344,-0.43665591,0.12998997,0.15937702
 ,0.46183747,-0.10670613,0.05932562,-0.02391595,-0.00962665,0.01708445,
 0.00706450,-0.00198048,-0.00020888,-0.00010306,-0.00394926,0.00068773,
 0.00124670,0.00084345,-0.00017216,-0.00026547,0.42588510,0.05594103,-0
 .10623695,0.02132343,0.01105836,-0.00226292,-0.00285419,-0.00035704,0.
 00072591,0.00155652,0.00043020,0.00033901,0.00001751,-0.00036621,-0.00
 020661,-0.00000616,0.02578286,0.25533233,-0.02227021,0.02126107,-0.046
 90772,0.01272076,-0.00969558,0.00318788,-0.00034662,0.00233154,0.00047
 458,-0.00227893,0.00055472,0.00135707,-0.00024137,-0.00007848,-0.00036
 101,0.04837065,-0.03336784,0.08682742,-0.24831021,-0.08266915,-0.19857
 217,0.00870104,-0.00047564,-0.00140787,0.00063282,0.00086460,0.0018882
 8,-0.03358094,0.00947242,0.01347294,-0.00110338,-0.00074888,-0.0017551
 7,-0.01651875,0.00021303,-0.01391214,0.28072448,-0.08331821,-0.0808351
 9,-0.08494469,-0.00391268,0.00367286,-0.01108137,0.00016130,0.00163184
 ,-0.00119684,0.00483051,0.00616866,-0.00169007,-0.00082678,-0.00094535
 ,0.00092896,0.01235918,0.00749624,0.00529396,0.08627784,0.07562531,-0.
 19901326,-0.08374065,-0.24945385,-0.01211678,-0.01281966,-0.01844688,0
 .00166706,-0.00024877,-0.00349979,0.00425483,-0.00112747,0.00556089,-0
 .00217113,0.00101620,0.00084601,-0.01173955,-0.00168498,0.00199260,0.2
 1611803,0.09766743,0.26805606,-0.01462547,-0.00775721,-0.01898193,-0.0
 0131281,0.00247115,0.00563517,0.00023472,0.00005838,0.00044198,-0.3166
 7750,0.08815708,0.14670823,0.00992321,-0.00495378,-0.01138622,0.004965
 63,-0.00035302,0.00333286,0.01569921,-0.00006935,0.00340133,0.29950016
 ,-0.00012375,0.00325630,0.00384704,0.00081317,-0.00113287,-0.00099234,
 -0.00002690,-0.00011840,-0.00009255,0.07088015,-0.04680631,-0.04969377
 ,0.01372208,-0.00156470,-0.00991357,-0.00052327,-0.00007096,-0.0005517
 1,-0.00402342,-0.00993705,-0.00103667,-0.07987672,0.05754762,-0.002339
 83,0.00258564,0.00652229,0.00136168,-0.00056967,-0.00186317,0.00027644
 ,-0.00013959,-0.00019667,0.10049367,-0.04447725,-0.10846691,0.03804447
 ,-0.01543522,-0.02582415,-0.00156681,-0.00009286,-0.00137708,-0.004320
 42,-0.00061746,-0.01166010,-0.13135046,0.05928925,0.14394422,-0.095662
 75,-0.05761479,0.01372278,-0.01268245,-0.01135411,0.01942314,-0.001787
 18,-0.00020544,-0.00286165,-0.00329181,0.00073151,0.00075832,0.0009069
 2,-0.00011784,-0.00025306,0.01682163,-0.01173613,0.00404370,-0.0116600
 4,-0.01691899,-0.00103364,0.00399848,-0.00115735,-0.00075438,0.4232273
 4,-0.05363711,-0.11298239,0.01921826,-0.00267894,0.00623651,0.00039876
 ,-0.00041628,-0.00178028,0.00139568,-0.00175759,0.00105458,0.00056126,
 0.00012609,-0.00030613,-0.00005669,0.01464287,-0.02498262,0.01164858,-
 0.00948497,0.00158851,0.00043477,0.00245420,-0.00109992,-0.00063956,-0
 .01629648,0.24983551,0.01565562,0.01892891,-0.04744370,0.01724889,0.00
 709365,-0.00671707,-0.00049776,0.00165062,0.00443979,-0.00101736,0.000
 51885,0.00094264,-0.00050127,-0.00003468,-0.00031305,-0.00458433,0.010
 84429,0.00623364,-0.00873530,-0.00470135,0.00740093,0.00173055,-0.0008
 3626,-0.00081658,-0.05159441,-0.03579667,0.08714095,-0.04119039,-0.031
 45343,0.01435238,0.00379631,0.00297532,-0.00445371,-0.00052572,-0.0002
 3700,0.00243570,0.00144128,-0.00005375,-0.00035360,-0.00040410,-0.0000
 4202,0.00015331,-0.03229251,-0.02117103,0.01487698,0.00510778,0.004799
 88,0.00039921,-0.00160729,0.00023281,0.00027420,-0.22136973,0.04611921
 ,0.01748819,0.54105007,-0.00881809,0.01284069,-0.00150486,-0.00194686,
 -0.00186495,0.00345205,0.00002704,0.00026727,-0.00080963,-0.00050422,0
 .00006059,0.00010295,0.00015021,0.00000356,-0.00004484,-0.01679124,-0.
 03362757,0.01406838,-0.00234403,-0.00438324,-0.00076488,0.00059451,-0.
 00017924,-0.00008644,0.06574361,-0.09838180,-0.00491005,0.07801265,0.5
 0307238,0.00737496,0.00126954,0.00066386,0.00160240,0.00244022,-0.0021
 5487,0.00053990,-0.00015208,0.00033234,-0.00025392,0.00003430,0.000049
 43,0.00004590,0.00000746,-0.00004024,0.00192696,0.00358851,0.00600810,
 -0.00141961,-0.00221171,-0.00104935,0.00032328,-0.00008786,-0.00006559
 ,0.00994920,-0.00623635,-0.06870924,-0.00990861,0.05025735,0.54855151,
 0.00081604,0.00571287,-0.00368581,-0.00074352,-0.00022103,0.00139677,-
 0.00002460,-0.00007000,-0.00027298,-0.00044603,0.00011162,0.00012735,0
 .00010060,-0.00002579,-0.00003983,0.00207129,-0.00006521,-0.00003115,-
 0.00176591,-0.00164020,-0.00026797,0.00054631,-0.00013997,-0.00012906,
 -0.04080059,-0.01604425,-0.00320901,-0.14289981,-0.10992805,-0.0437503
 1,0.17577519,0.00300739,-0.00278821,0.00083056,-0.00033853,0.00044385,
 0.00009415,0.00000804,-0.00007996,-0.00009549,-0.00017848,0.00004882,0
 .00003859,0.00004530,-0.00001799,-0.00001198,-0.00291130,-0.00383704,0
 .00412318,-0.00042906,0.00067535,-0.00020089,0.00020113,-0.00003621,-0
 .00004023,0.01392024,0.01481285,0.00465931,-0.11470115,-0.17772482,-0.
 04979793,0.12274194,0.18490043,0.00064644,0.00181869,-0.00102954,0.000
 01630,-0.00017822,-0.00002304,0.00007917,0.00004301,-0.00008172,-0.000
 06072,0.00000558,0.00001777,0.00001743,0.00000204,-0.00000788,0.002346
 58,0.00404599,-0.00125358,0.00003510,-0.00010570,0.00028764,0.00006300
 ,-0.00000564,-0.00001291,0.00067213,0.00422372,0.00521062,-0.04636354,
 -0.05283946,-0.07367762,0.04828059,0.05386682,0.07257602,0.00196799,0.
 00682076,0.00220707,-0.00158842,-0.00130573,0.00128370,0.00004237,0.00
 003087,-0.00074514,-0.00005745,-0.00003779,-0.00005242,0.00008419,0.00
 001398,0.00001130,0.00157258,-0.00050702,0.00000187,-0.00004760,-0.000
 61838,-0.00089182,0.00001622,0.00002377,0.00004279,-0.02595856,0.01496
 519,0.03357094,-0.05162503,0.00200268,0.02934501,0.00494411,-0.0054752
 3,-0.01891290,0.06906086,-0.00193793,-0.00358377,0.00044503,0.00063420
 ,0.00055854,-0.00076873,0.00000286,-0.00010073,0.00035021,0.00016212,-
 0.00002290,-0.00001953,-0.00005454,-0.00000120,0.00001090,0.00021998,0
 .00139438,-0.00218577,0.00056147,0.00044762,0.00016793,-0.00018043,0.0
 0004061,0.00001530,0.01479409,-0.00047246,-0.01181020,0.00335022,-0.06
 962437,-0.06020493,0.00122964,-0.00538914,-0.02316808,-0.01649438,0.07
 206310,-0.00218369,-0.00360987,-0.00032664,0.00068543,0.00031929,-0.00
 043789,-0.00013705,0.00006526,0.00031477,0.00019196,-0.00001313,0.0000
 0109,-0.00007955,0.00000015,0.00000574,0.00086559,0.00078794,0.0021173
 4,0.00069966,0.00076243,0.00054222,-0.00020399,0.00003047,0.00000688,0
 .01331767,-0.00278350,0.00525084,0.03100396,-0.05752630,-0.26590407,0.
 00005512,-0.00220990,-0.00840687,-0.04269224,0.06619001,0.28823950,-0.
 04526288,0.02734932,-0.01408193,0.00489835,-0.00516482,-0.00169358,0.0
 0020327,0.00111941,0.00058535,0.00137247,-0.00042401,-0.00024366,-0.00
 036767,0.00014537,0.00006737,-0.21553557,-0.05490435,-0.01553745,0.005
 15683,-0.00285772,0.00287925,-0.00158903,0.00033695,0.00025100,-0.0351
 0585,0.02092212,-0.01560999,-0.06076819,-0.00775262,0.00309919,0.00247
 846,-0.01685175,0.01349361,0.00034166,-0.00166819,-0.00086950,0.553699
 84,0.00413006,0.01528676,-0.00174839,0.00193295,-0.00460887,-0.0017436
 4,0.00067565,0.00006111,-0.00013558,0.00074579,-0.00020943,-0.00023433
 ,-0.00014993,0.00005868,0.00005037,-0.07451585,-0.10606770,-0.00450474
 ,0.00353277,-0.00246787,0.00291406,-0.00094105,0.00014019,0.00029165,0
 .01718373,-0.03142691,0.01248894,0.01313257,-0.12628325,0.04607217,-0.
 00085166,-0.01183398,0.01243629,-0.00018830,0.00651998,-0.00650334,-0.
 07426873,0.49251323,-0.00968207,0.00101688,0.00115547,0.00100183,-0.00
 220947,-0.00238944,0.00110541,-0.00074325,0.00030557,0.00007638,-0.000
 06362,-0.00002068,-0.00004018,0.00001562,0.00003202,-0.00461065,-0.004
 11919,-0.06942272,-0.00094366,0.00162268,-0.00048704,-0.00010438,0.000
 12154,-0.00004584,-0.00133214,0.00273119,0.00625091,-0.00700613,0.0462
 1101,-0.12849272,0.00004033,-0.01250010,0.00553855,-0.00241159,0.02739
 802,-0.02085125,0.00400627,0.04801817,0.53875818,0.00244201,-0.0069297
 2,-0.00230528,0.00018620,0.00032969,0.00100532,-0.00033018,0.00035448,
 0.00000523,-0.00035200,0.00009485,0.00016418,0.00000889,-0.00002285,-0
 .00004015,-0.02439717,-0.01603699,-0.03234778,-0.00172816,0.00126119,-
 0.00028862,0.00046272,-0.00007925,-0.00017647,0.00160665,0.00054967,0.
 00025870,0.00022864,-0.00036569,0.00032768,0.00051937,0.00005806,0.000
 41623,0.00075314,-0.00051320,0.00007048,-0.05248920,-0.00165171,-0.027
 97602,0.06809665,0.00270054,-0.00437265,0.00004305,-0.00048582,0.00064
 490,0.00055515,-0.00004362,0.00001217,-0.00008483,-0.00026291,0.000058
 08,0.00009528,0.00004450,-0.00001130,-0.00002633,-0.01730121,-0.002663
 01,-0.01381125,-0.00104028,0.00066737,-0.00040891,0.00033190,-0.000052
 13,-0.00009757,-0.00041649,0.00153877,-0.00211335,0.00168784,0.0064498
 7,0.02740409,0.00007527,0.00157053,-0.00056375,0.00088096,-0.00335441,
 0.00390098,-0.00214417,-0.06886432,-0.05957971,0.01695445,0.07335542,0
 .00332016,-0.00400388,-0.00064936,-0.00074727,0.00096436,0.00120931,-0
 .00051958,0.00010260,-0.00018215,-0.00033542,0.00008435,0.00014676,0.0
 0004704,-0.00001869,-0.00004187,-0.01449717,-0.00387323,0.00586054,-0.
 00115329,0.00046859,-0.00015245,0.00043330,-0.00008312,-0.00014032,-0.
 00112702,0.00093606,0.00231542,0.00116932,-0.00692133,-0.02145155,0.00
 076075,0.00077032,0.00091869,-0.00039675,0.00415375,-0.00144253,-0.027
 62419,-0.05687031,-0.25618852,0.04082593,0.06677874,0.27935526,0.00163
 360,-0.00555764,0.00314672,-0.00124469,0.00155392,0.00094295,-0.000100
 66,-0.00007290,-0.00009477,-0.00039303,0.00005694,0.00008500,0.0001123
 9,-0.00001682,-0.00002155,-0.04115316,0.01207153,0.00361884,-0.0013071
 7,0.00047240,-0.00119695,0.00046542,-0.00005829,-0.00010682,0.00175794
 ,0.00053626,-0.00020346,0.00105870,0.00192010,0.00079799,-0.00057090,0
 .00090340,-0.00072943,0.00049394,-0.00010592,-0.00072386,-0.15703247,0
 .11123371,0.04787658,0.00499244,-0.00098095,-0.00015580,0.19128764,-0.
 00261357,-0.00330271,0.00108775,0.00024371,0.00063381,-0.00016868,-0.0
 0019673,0.00005402,0.00020743,0.00013351,0.00000423,-0.00002535,-0.000
 04492,-0.00000661,0.00001555,-0.01767878,0.01466749,0.00491395,0.00029
 331,0.00059494,-0.00016752,-0.00013680,0.00001308,0.00001399,0.0034444
 3,-0.00363421,0.00401800,0.01734789,-0.01062512,-0.01238280,-0.0008851
 8,-0.00074446,0.00041871,-0.00011137,0.00152474,0.00058951,0.11616321,
 -0.16281763,-0.04791976,0.00599702,-0.00497931,-0.00248818,-0.12195572
 ,0.16861773,-0.00050478,0.00176692,-0.00120490,-0.00013079,-0.00003369
 ,0.00045867,-0.00028212,0.00018232,-0.00005564,0.00004466,-0.00000925,
 0.00000274,-0.00002235,0.00000436,-0.00000051,-0.00053799,0.00383425,0
 .00526296,0.00000562,-0.00019487,0.00006311,-0.00004272,0.00000519,-0.
 00000408,-0.00293062,0.00396450,-0.00118609,-0.01406768,0.01131605,0.0
 0594001,0.00072521,0.00047360,-0.00005614,-0.00035981,-0.00057390,0.00
 089088,0.05127826,-0.05053132,-0.07414249,0.02006057,-0.02209158,-0.00
 955722,-0.05323545,0.05188742,0.07358871\\-0.00000161,0.00000835,0.000
 00625,0.00000050,0.00000136,-0.00000394,0.00000177,0.00000334,-0.00000
 127,0.00000513,0.00000776,0.00000526,-0.00000484,0.00000435,-0.0000043
 4,0.00000009,-0.00000563,0.00000023,-0.00000426,-0.00000082,-0.0000008
 2,0.00000186,-0.00000006,-0.00000340,-0.00000159,0.00000070,0.00000359
 ,0.00000425,-0.00000574,-0.00000088,0.00000145,-0.00000346,-0.00000185
 ,0.00000022,-0.00000540,0.00000012,-0.00000138,-0.00000069,-0.00000136
 ,-0.00000032,-0.00000065,0.00000055,-0.00000129,-0.00000342,0.00000185
 \\\@
 The archive entry for this job was punched.


    UPON JULIA'S CLOTHES

 WHENAS IN SILKS MY JULIA GOES,
 THEN, THEN, METHINKS, HOW SWEETLY FLOWS
 THAT LIQUEFACTION OF HER CLOTHES.

 NEXT, WHEN I CAST MINE EYES, AND SEE
 THAT BRAVE VIBRATION, EACH WAY FREE,
 O, HOW THAT GLITTERING TAKETH ME!
     -- ROBERT HERRICK, 1648
 Job cpu time:       0 days  1 hours 38 minutes  0.2 seconds.
 Elapsed time:       0 days  0 hours 24 minutes 37.1 seconds.
 File lengths (MBytes):  RWF=    176 Int=      0 D2E=      0 Chk=     11 Scr=      1
 Normal termination of Gaussian 16 at Sun Feb 18 19:40:09 2024.
