 Entering Gaussian System, Link 0=/opt/software/gaussian/g16.c01/g16
 Initial command:
 /opt/software/gaussian/g16.c01/l1.exe "/scratch/arhender/17934792/Gau-12288.inp" -scrdir="/scratch/arhender/17934792/"
 Entering Link 1 = /opt/software/gaussian/g16.c01/l1.exe PID=     12299.
  
 Copyright (c) 1988-2019, Gaussian, Inc.  All Rights Reserved.
  
 This is part of the Gaussian(R) 16 program.  It is based on
 the Gaussian(R) 09 system (copyright 2009, Gaussian, Inc.),
 the Gaussian(R) 03 system (copyright 2003, Gaussian, Inc.),
 the Gaussian(R) 98 system (copyright 1998, Gaussian, Inc.),
 the Gaussian(R) 94 system (copyright 1995, Gaussian, Inc.),
 the Gaussian 92(TM) system (copyright 1992, Gaussian, Inc.),
 the Gaussian 90(TM) system (copyright 1990, Gaussian, Inc.),
 the Gaussian 88(TM) system (copyright 1988, Gaussian, Inc.),
 the Gaussian 86(TM) system (copyright 1986, Carnegie Mellon
 University), and the Gaussian 82(TM) system (copyright 1983,
 Carnegie Mellon University). Gaussian is a federally registered
 trademark of Gaussian, Inc.
  
 This software contains proprietary and confidential information,
 including trade secrets, belonging to Gaussian, Inc.
  
 This software is provided under written license and may be
 used, copied, transmitted, or stored only in accord with that
 written license.
  
 The following legend is applicable only to US Government
 contracts under FAR:
  
                    RESTRICTED RIGHTS LEGEND
  
 Use, reproduction and disclosure by the US Government is
 subject to restrictions as set forth in subparagraphs (a)
 and (c) of the Commercial Computer Software - Restricted
 Rights clause in FAR 52.227-19.
  
 Gaussian, Inc.
 340 Quinnipiac St., Bldg. 40, Wallingford CT 06492
  
  
 ---------------------------------------------------------------
 Warning -- This program may not be used in any manner that
 competes with the business of Gaussian, Inc. or will provide
 assistance to any competitor of Gaussian, Inc.  The licensee
 of this program is prohibited from giving any competitor of
 Gaussian, Inc. access to this program.  By using this program,
 the user acknowledges that Gaussian, Inc. is engaged in the
 business of creating and licensing software in the field of
 computational chemistry and represents and warrants to the
 licensee that it is not a competitor of Gaussian, Inc. and that
 it will not use this program in any manner prohibited above.
 ---------------------------------------------------------------
  

 Cite this work as:
 Gaussian 16, Revision C.01,
 M. J. Frisch, G. W. Trucks, H. B. Schlegel, G. E. Scuseria, 
 M. A. Robb, J. R. Cheeseman, G. Scalmani, V. Barone, 
 G. A. Petersson, H. Nakatsuji, X. Li, M. Caricato, A. V. Marenich, 
 J. Bloino, B. G. Janesko, R. Gomperts, B. Mennucci, H. P. Hratchian, 
 J. V. Ortiz, A. F. Izmaylov, J. L. Sonnenberg, D. Williams-Young, 
 F. Ding, F. Lipparini, F. Egidi, J. Goings, B. Peng, A. Petrone, 
 T. Henderson, D. Ranasinghe, V. G. Zakrzewski, J. Gao, N. Rega, 
 G. Zheng, W. Liang, M. Hada, M. Ehara, K. Toyota, R. Fukuda, 
 J. Hasegawa, M. Ishida, T. Nakajima, Y. Honda, O. Kitao, H. Nakai, 
 T. Vreven, K. Throssell, J. A. Montgomery, Jr., J. E. Peralta, 
 F. Ogliaro, M. J. Bearpark, J. J. Heyd, E. N. Brothers, K. N. Kudin, 
 V. N. Staroverov, T. A. Keith, R. Kobayashi, J. Normand, 
 K. Raghavachari, A. P. Rendell, J. C. Burant, S. S. Iyengar, 
 J. Tomasi, M. Cossi, J. M. Millam, M. Klene, C. Adamo, R. Cammi, 
 J. W. Ochterski, R. L. Martin, K. Morokuma, O. Farkas, 
 J. B. Foresman, and D. J. Fox, Gaussian, Inc., Wallingford CT, 2019.
 
 ******************************************
 Gaussian 16:  ES64L-G16RevC.01  3-Jul-2019
                18-Mar-2024 
 ******************************************
 %chk=IRC_EGdepattackQbiL_reverse.chk
 %mem=1600MB
 %nprocs=4
 Will use up to    4 processors via shared memory.
 ----------------------------------------------------------------------
 # irc=(reverse,calcfc,maxpoints=100,maxcycle=100) wb97xd/def2tzvpp geo
 m=connectivity
 ----------------------------------------------------------------------
 1/6=100,10=4,18=10,22=2,26=3,38=1,42=100,44=3,57=2,172=1/1,23;
 2/12=2,17=6,18=5,29=1,40=1/2;
 3/5=44,7=202,11=2,25=1,30=1,71=2,74=-58,140=1/1,2,3;
 4//1;
 5/5=2,38=5/2;
 8/6=4,10=90,11=11/1;
 11/6=1,8=1,9=11,15=111,16=1/1,2,10;
 10/6=1,13=1/2;
 6/7=2,8=2,9=2,10=2,28=1/1;
 7/10=1,25=1/1,2,3,16;
 1/6=100,10=4,18=10,22=2,26=3,42=100,44=3/23(2);
 2/29=1/2;
 99/5=20/99;
 2/29=1/2;
 3/5=44,7=202,11=2,25=1,30=1,71=2,74=-58,140=1/1,2,3;
 4/5=5,16=3,69=1/1;
 5/5=2,38=5/2;
 8/6=4,10=90,11=11/1;
 11/6=1,8=1,9=11,15=111,16=1/1,2,10;
 10/6=1,13=1/2;
 7/10=1,25=1/1,2,3,16;
 1/6=100,18=10,22=2,26=3,42=100,44=3/23(-8);
 2/29=1/2;
 6/7=2,8=2,9=2,10=2,19=2,28=1/1;
 99/5=20,9=1/99;
 ----------------------------
 IRC for EGOdep attack on QL2
 ----------------------------
 Symbolic Z-matrix:
 Charge = -1 Multiplicity = 1
 Si                    1.04648   0.59962  -0.02306 
 O                     1.74932  -0.61699  -0.92915 
 O                     2.31215   1.35616   0.78559 
 H                     2.67068   0.77251   1.44881 
 O                     0.546     1.9761   -0.75954 
 O                     0.51321  -0.39502   1.23397 
 C                    -2.02082  -0.68161  -0.76321 
 H                    -1.78985  -1.76812  -0.71753 
 H                    -2.7651   -0.57361  -1.57703 
 C                    -2.72088  -0.3098    0.54775 
 H                    -2.10177  -0.62793   1.39603 
 H                    -3.69814  -0.79901   0.62147 
 O                    -0.9294    0.10396  -1.00156 
 H                    -0.24857   1.69272  -1.23908 
 O                    -2.92762   1.08758   0.59988 
 H                    -2.14037   1.43449   0.16086 
 C                     0.62217  -1.74484   0.86139 
 H                    -0.34571  -2.24861   0.95566 
 H                     1.32361  -2.23935   1.54611 
 C                     1.14256  -1.83864  -0.60052 
 H                     1.88087  -2.64223  -0.69202 
 H                     0.31612  -2.04045  -1.28642 
 
 IRC-IRC-IRC-IRC-IRC-IRC-IRC-IRC-IRC-IRC-IRC-IRC-IRC-IRC-IRC-IRC-IRC-IRC
 ------------------------------------------------------------------------
 INPUT DATA FOR L123
 ------------------------------------------------------------------------
 GENERAL PARAMETERS:
 Rxn path following direction = Reverse
 Maximum points per path      = 100
 Step size                    =   0.100 bohr
 Integration scheme           = HPC                                 
    Redo corrector integration= Yes                                 
    DWI Weight Power          =  2
    DWI will use Hessian update vectors when possible.
    Max correction cycles     = 100
 Initial Hessian              = CalcFC
 Hessian evaluation           = All updating
 Hessian updating method      = Bofill                              
 ------------------------------------------------------------------------
 IRC-IRC-IRC-IRC-IRC-IRC-IRC-IRC-IRC-IRC-IRC-IRC-IRC-IRC-IRC-IRC-IRC-IRC
                          Input orientation:                          
 ---------------------------------------------------------------------
 Center     Atomic      Atomic             Coordinates (Angstroms)
 Number     Number       Type             X           Y           Z
 ---------------------------------------------------------------------
      1         14           0        1.046479    0.599618   -0.023055
      2          8           0        1.749323   -0.616987   -0.929148
      3          8           0        2.312148    1.356157    0.785587
      4          1           0        2.670684    0.772505    1.448813
      5          8           0        0.546000    1.976099   -0.759538
      6          8           0        0.513210   -0.395022    1.233971
      7          6           0       -2.020822   -0.681612   -0.763211
      8          1           0       -1.789852   -1.768124   -0.717529
      9          1           0       -2.765100   -0.573608   -1.577032
     10          6           0       -2.720878   -0.309797    0.547745
     11          1           0       -2.101769   -0.627934    1.396033
     12          1           0       -3.698137   -0.799009    0.621470
     13          8           0       -0.929396    0.103959   -1.001561
     14          1           0       -0.248565    1.692721   -1.239076
     15          8           0       -2.927620    1.087581    0.599876
     16          1           0       -2.140372    1.434493    0.160860
     17          6           0        0.622173   -1.744840    0.861385
     18          1           0       -0.345711   -2.248614    0.955656
     19          1           0        1.323605   -2.239350    1.546111
     20          6           0        1.142561   -1.838641   -0.600520
     21          1           0        1.880873   -2.642227   -0.692017
     22          1           0        0.316121   -2.040450   -1.286415
 ---------------------------------------------------------------------
                    Distance matrix (angstroms):
                    1          2          3          4          5
     1  Si   0.000000
     2  O    1.671862   0.000000
     3  O    1.681717   2.674020   0.000000
     4  H    2.198710   2.904185   0.953450   0.000000
     5  O    1.639386   2.863712   2.427142   3.292375   0.000000
     6  O    1.689319   2.501265   2.550265   2.462513   3.097962
     7  C    3.405542   3.774348   5.032485   5.386811   3.694864
     8  H    3.759424   3.727688   5.370930   5.571734   4.413295
     9  H    4.280121   4.560883   5.923209   6.365179   4.258249
    10  C    3.917375   4.717868   5.306913   5.572454   4.196046
    11  H    3.664991   4.498610   4.877697   4.973964   4.293967
    12  H    4.988281   5.666778   6.387112   6.611810   5.255579
    13  O    2.259919   2.774985   3.907621   4.405890   2.395887
    14  H    2.085838   3.069587   3.281735   4.073519   0.970357
    15  O    4.052112   5.207424   5.249932   5.671065   3.834515
    16  H    3.299524   4.530609   4.496816   5.024272   2.890859
    17  C    2.541408   2.397609   3.532413   3.298256   4.059382
    18  H    3.317905   3.256357   4.481909   4.297558   4.645992
    19  H    3.255583   2.990017   3.805691   3.300812   4.867309
    20  C    2.507550   1.403066   3.673685   3.654177   3.864377
    21  H    3.413690   2.043314   4.284435   4.106988   4.807846
    22  H    3.016531   2.051330   4.451321   4.575823   4.057476
                    6          7          8          9         10
     6  O    0.000000
     7  C    3.239165   0.000000
     8  H    3.316302   1.111729   0.000000
     9  H    4.322146   1.108115   1.765424   0.000000
    10  C    3.307188   1.531969   2.143466   2.141548   0.000000
    11  H    2.630328   2.161427   2.421667   3.046650   1.097315
    12  H    4.274787   2.178189   2.524610   2.398911   1.095353
    13  O    2.706972   1.365702   2.079845   2.039626   2.404361
    14  H    3.324896   3.000800   3.824268   3.403441   3.648992
    15  O    3.799934   2.410463   3.344417   2.743153   1.413551
    16  H    3.397085   2.312163   3.339339   2.728190   1.878620
    17  C    1.404529   3.279510   2.882946   4.334891   3.651535
    18  H    2.061797   2.866356   2.261849   3.882473   3.093028
    19  H    2.038558   4.352552   3.878110   5.407978   4.591051
    20  C    2.417742   3.372266   2.935594   4.221812   4.310689
    21  H    3.260347   4.367185   3.773451   5.162122   5.305973
    22  H    3.016392   2.753450   2.198389   3.424910   3.947489
                   11         12         13         14         15
    11  H    0.000000
    12  H    1.782584   0.000000
    13  O    2.767414   3.333993   0.000000
    14  H    3.970341   4.644340   1.744737   0.000000
    15  O    2.063707   2.037985   2.743176   3.305340   0.000000
    16  H    2.404319   2.761761   2.141963   2.367580   0.965838
    17  C    2.992188   4.429135   3.048933   4.121522   4.548849
    18  H    2.429871   3.667669   3.115443   4.512251   4.233560
    19  H    3.788452   5.305416   4.130102   5.068547   5.480579
    20  C    3.997213   5.099652   2.868368   3.848831   5.154619
    21  H    4.927349   6.020636   3.941442   4.860613   6.221098
    22  H    3.877747   4.614701   2.496186   3.775934   4.885133
                   16         17         18         19         20
    16  H    0.000000
    17  C    4.269725   0.000000
    18  H    4.173462   1.095205   0.000000
    19  H    5.235951   1.097906   1.770689   0.000000
    20  C    4.697952   1.554596   2.191966   2.191203   0.000000
    21  H    5.789426   2.191503   2.797755   2.341383   1.095092
    22  H    4.494907   2.189543   2.346963   3.012937   1.092786
                   21         22
    21  H    0.000000
    22  H    1.778734   0.000000
 Symmetry turned off by external request.
 Stoichiometry    C4H11O6Si(1-)
 Framework group  C1[X(C4H11O6Si)]
 Deg. of freedom    60
 Full point group                 C1      NOp   1
 Rotational constants (GHZ):           1.3965599           0.7812234           0.6529476
 Standard basis: def2TZVPP (5D, 7F)
   506 basis functions,   766 primitive gaussians,   573 cartesian basis functions
    49 alpha electrons       49 beta electrons
       nuclear repulsion energy       861.2819602580 Hartrees.
 NAtoms=   22 NActive=   22 NUniq=   22 SFac= 1.00D+00 NAtFMM=   60 NAOKFM=F Big=F
 Integral buffers will be    131072 words long.
 Raffenetti 2 integral format.
 Two-electron integral symmetry is turned off.
 Nuclear repulsion after empirical dispersion term =      861.2670362660 Hartrees.
 One-electron integrals computed using PRISM.
   1 Symmetry operations used in ECPInt.
 ECPInt:  NShTT=   18145 NPrTT=   50058 LenC2=   17288 LenP2D=   37028.
 LDataN:  DoStor=T MaxTD1= 6 Len=  172
 NBasis=   506 RedAO= T EigKep=  2.08D-04  NBF=   506
 NBsUse=   506 1.00D-06 EigRej= -1.00D+00 NBFU=   506
 ExpMin= 7.01D-02 ExpMax= 4.48D+04 ExpMxC= 1.53D+03 IAcc=3 IRadAn=         5 AccDes= 0.00D+00
 Harris functional with IExCor= 4639 and IRadAn=       5 diagonalized for initial guess.
 HarFok:  IExCor= 4639 AccDes= 0.00D+00 IRadAn=         5 IDoV= 1 UseB2=F ITyADJ=14
 ICtDFT=  3500011 ScaDFX=  1.000000  1.000000  1.000000  1.000000
 FoFCou: FMM=F IPFlag=           0 FMFlag=      100000 FMFlg1=           0
         NFxFlg=           0 DoJE=T BraDBF=F KetDBF=T FulRan=T
         wScrn=  0.000000 ICntrl=       500 IOpCl=  0 I1Cent=   200000004 NGrid=           0
         NMat0=    1 NMatS0=      1 NMatT0=    0 NMatD0=    1 NMtDS0=    0 NMtDT0=    0
 Symmetry not used in FoFCou.
 Requested convergence on RMS density matrix=1.00D-08 within 128 cycles.
 Requested convergence on MAX density matrix=1.00D-06.
 Requested convergence on             energy=1.00D-06.
 No special actions if energy rises.
 Integral accuracy reduced to 1.0D-05 until final iterations.
 Initial convergence to 1.0D-05 achieved.  Increase integral accuracy.
 SCF Done:  E(RwB97XD) =  -900.173853886     A.U. after   14 cycles
            NFock= 14  Conv=0.64D-08     -V/T= 2.0036
 DoSCS=F DFT=T ScalE2(SS,OS)=  1.000000  1.000000
 Range of M.O.s used for correlation:     1   506
 NBasis=   506 NAE=    49 NBE=    49 NFC=     0 NFV=     0
 NROrb=    506 NOA=    49 NOB=    49 NVA=   457 NVB=   457

 **** Warning!!: The largest alpha MO coefficient is  0.13902433D+02

   1 Symmetry operations used in ECPInt.
 ECPInt:  NShTT=   18145 NPrTT=   50058 LenC2=   17288 LenP2D=   37028.
 LDataN:  DoStor=T MaxTD1= 7 Len=  274
 Symmetrizing basis deriv contribution to polar:
 IMax=3 JMax=2 DiffMx= 0.00D+00
 G2DrvN: will do    23 centers at a time, making    1 passes.
 Calling FoFCou, ICntrl=  3107 FMM=F I1Cent=   0 AccDes= 0.00D+00.
 End of G2Drv F.D. properties file   721 does not exist.
 End of G2Drv F.D. properties file   722 does not exist.
 End of G2Drv F.D. properties file   788 does not exist.
          IDoAtm=1111111111111111111111
          Differentiating once with respect to nuclear coordinates.
 CalDSu exits because no D1Ps are significant.
          There are    69 degrees of freedom in the 1st order CPHF.  IDoFFX=6 NUNeed=     0.
     63 vectors produced by pass  0 Test12= 3.25D-14 1.45D-09 XBig12= 8.43D-02 4.74D-02.
 AX will form    63 AO Fock derivatives at one time.
     63 vectors produced by pass  1 Test12= 3.25D-14 1.45D-09 XBig12= 2.74D-02 2.20D-02.
     63 vectors produced by pass  2 Test12= 3.25D-14 1.45D-09 XBig12= 8.63D-04 4.37D-03.
     63 vectors produced by pass  3 Test12= 3.25D-14 1.45D-09 XBig12= 1.42D-05 5.40D-04.
     63 vectors produced by pass  4 Test12= 3.25D-14 1.45D-09 XBig12= 1.62D-07 4.88D-05.
     63 vectors produced by pass  5 Test12= 3.25D-14 1.45D-09 XBig12= 1.53D-09 4.48D-06.
     63 vectors produced by pass  6 Test12= 3.25D-14 1.45D-09 XBig12= 1.08D-11 2.71D-07.
     29 vectors produced by pass  7 Test12= 3.25D-14 1.45D-09 XBig12= 7.04D-14 2.32D-08.
      3 vectors produced by pass  8 Test12= 3.25D-14 1.45D-09 XBig12= 7.95D-16 1.82D-09.
 InvSVY:  IOpt=1 It=  1 EMax= 1.94D-16
 Solved reduced A of dimension   473 with    69 vectors.
 End of Minotr F.D. properties file   721 does not exist.
 End of Minotr F.D. properties file   722 does not exist.
 End of Minotr F.D. properties file   788 does not exist.

 **********************************************************************

            Population analysis using the SCF Density.

 **********************************************************************

 Alpha  occ. eigenvalues --  -66.15083 -19.09284 -19.08829 -19.08760 -19.07181
 Alpha  occ. eigenvalues --  -19.07099 -19.01600 -10.19861 -10.19346 -10.17167
 Alpha  occ. eigenvalues --  -10.16338  -5.26436  -3.61111  -3.60936  -3.60769
 Alpha  occ. eigenvalues --   -0.99651  -0.97478  -0.94102  -0.93832  -0.91950
 Alpha  occ. eigenvalues --   -0.87890  -0.68590  -0.65865  -0.56735  -0.53855
 Alpha  occ. eigenvalues --   -0.49205  -0.45428  -0.44601  -0.43797  -0.41805
 Alpha  occ. eigenvalues --   -0.39407  -0.38863  -0.37543  -0.37060  -0.35808
 Alpha  occ. eigenvalues --   -0.34322  -0.32839  -0.30109  -0.28153  -0.27462
 Alpha  occ. eigenvalues --   -0.26392  -0.25892  -0.25394  -0.24677  -0.22736
 Alpha  occ. eigenvalues --   -0.21375  -0.20081  -0.15696  -0.15033
 Alpha virt. eigenvalues --    0.23550   0.24335   0.25871   0.27050   0.28653
 Alpha virt. eigenvalues --    0.28812   0.29786   0.31099   0.32603   0.33066
 Alpha virt. eigenvalues --    0.33652   0.35995   0.36700   0.37457   0.37740
 Alpha virt. eigenvalues --    0.39392   0.40251   0.40855   0.41461   0.42400
 Alpha virt. eigenvalues --    0.43325   0.44620   0.45755   0.46405   0.47285
 Alpha virt. eigenvalues --    0.49811   0.52676   0.53365   0.53950   0.54907
 Alpha virt. eigenvalues --    0.55876   0.56722   0.57195   0.58239   0.58328
 Alpha virt. eigenvalues --    0.58886   0.60722   0.60870   0.61432   0.61624
 Alpha virt. eigenvalues --    0.62598   0.63848   0.64689   0.65514   0.65929
 Alpha virt. eigenvalues --    0.67394   0.67587   0.67932   0.69527   0.70555
 Alpha virt. eigenvalues --    0.71418   0.71852   0.73085   0.73957   0.74305
 Alpha virt. eigenvalues --    0.75751   0.76602   0.77730   0.78413   0.79386
 Alpha virt. eigenvalues --    0.79793   0.81201   0.83916   0.84292   0.85121
 Alpha virt. eigenvalues --    0.87146   0.88537   0.89283   0.90574   0.92541
 Alpha virt. eigenvalues --    0.93012   0.93749   0.95399   0.96321   0.99566
 Alpha virt. eigenvalues --    0.99833   1.01541   1.02026   1.03570   1.04170
 Alpha virt. eigenvalues --    1.04684   1.05522   1.06491   1.08052   1.08858
 Alpha virt. eigenvalues --    1.10126   1.11644   1.12989   1.13749   1.14665
 Alpha virt. eigenvalues --    1.15491   1.16999   1.19048   1.21020   1.21829
 Alpha virt. eigenvalues --    1.22142   1.24610   1.24858   1.24997   1.26188
 Alpha virt. eigenvalues --    1.27494   1.28526   1.29551   1.30497   1.31774
 Alpha virt. eigenvalues --    1.32843   1.33469   1.35175   1.36082   1.37761
 Alpha virt. eigenvalues --    1.39104   1.40042   1.41837   1.42198   1.44084
 Alpha virt. eigenvalues --    1.45599   1.46609   1.47508   1.48332   1.49468
 Alpha virt. eigenvalues --    1.51047   1.52694   1.52793   1.55022   1.55283
 Alpha virt. eigenvalues --    1.57269   1.58080   1.58946   1.59647   1.60674
 Alpha virt. eigenvalues --    1.60877   1.63124   1.64043   1.64923   1.67362
 Alpha virt. eigenvalues --    1.70271   1.70370   1.72601   1.73555   1.75115
 Alpha virt. eigenvalues --    1.76114   1.77531   1.79101   1.80083   1.81276
 Alpha virt. eigenvalues --    1.85033   1.86290   1.87700   1.90840   1.92163
 Alpha virt. eigenvalues --    1.94192   1.96805   1.98389   2.00164   2.05417
 Alpha virt. eigenvalues --    2.07443   2.08164   2.11192   2.12340   2.13599
 Alpha virt. eigenvalues --    2.13908   2.16453   2.16937   2.19354   2.19910
 Alpha virt. eigenvalues --    2.20619   2.23112   2.24441   2.24869   2.26171
 Alpha virt. eigenvalues --    2.26697   2.28387   2.30547   2.31276   2.32572
 Alpha virt. eigenvalues --    2.36890   2.37729   2.39983   2.43102   2.44702
 Alpha virt. eigenvalues --    2.47058   2.49304   2.50528   2.52319   2.53409
 Alpha virt. eigenvalues --    2.56292   2.58616   2.60209   2.62845   2.63781
 Alpha virt. eigenvalues --    2.68667   2.72198   2.73635   2.75643   2.76176
 Alpha virt. eigenvalues --    2.80502   2.82246   2.83568   2.85414   2.86261
 Alpha virt. eigenvalues --    2.86561   2.89307   2.91221   2.91684   2.94648
 Alpha virt. eigenvalues --    2.95472   2.96684   2.98097   2.99345   3.01525
 Alpha virt. eigenvalues --    3.03245   3.04138   3.06042   3.07844   3.09248
 Alpha virt. eigenvalues --    3.09480   3.11355   3.13405   3.14228   3.15940
 Alpha virt. eigenvalues --    3.17781   3.20569   3.21797   3.23144   3.24052
 Alpha virt. eigenvalues --    3.25276   3.26208   3.27294   3.28431   3.29536
 Alpha virt. eigenvalues --    3.31522   3.32311   3.34978   3.36165   3.37130
 Alpha virt. eigenvalues --    3.39325   3.40769   3.41500   3.42872   3.44563
 Alpha virt. eigenvalues --    3.45498   3.46135   3.48380   3.48993   3.50733
 Alpha virt. eigenvalues --    3.53617   3.55174   3.55834   3.56770   3.59462
 Alpha virt. eigenvalues --    3.61186   3.61855   3.62481   3.64066   3.64619
 Alpha virt. eigenvalues --    3.66358   3.67003   3.68539   3.71751   3.74069
 Alpha virt. eigenvalues --    3.76060   3.77178   3.78838   3.79225   3.81362
 Alpha virt. eigenvalues --    3.82144   3.84282   3.85199   3.87563   3.88257
 Alpha virt. eigenvalues --    3.89655   3.90761   3.91450   3.91788   3.93354
 Alpha virt. eigenvalues --    3.94581   3.95943   3.97765   3.99014   4.00875
 Alpha virt. eigenvalues --    4.02019   4.02532   4.03964   4.05659   4.06394
 Alpha virt. eigenvalues --    4.07526   4.08986   4.09838   4.12247   4.16284
 Alpha virt. eigenvalues --    4.17416   4.18316   4.20497   4.23297   4.24882
 Alpha virt. eigenvalues --    4.25168   4.26575   4.27878   4.29311   4.31074
 Alpha virt. eigenvalues --    4.32357   4.33612   4.34295   4.36208   4.37660
 Alpha virt. eigenvalues --    4.39415   4.39677   4.41156   4.41811   4.42311
 Alpha virt. eigenvalues --    4.45324   4.48239   4.48738   4.51197   4.52417
 Alpha virt. eigenvalues --    4.54470   4.56585   4.57861   4.58719   4.61213
 Alpha virt. eigenvalues --    4.63370   4.65274   4.67187   4.70168   4.71062
 Alpha virt. eigenvalues --    4.73845   4.77359   4.79667   4.81420   4.84242
 Alpha virt. eigenvalues --    4.86981   4.89014   4.91588   4.92143   4.93764
 Alpha virt. eigenvalues --    4.97966   4.99779   5.00256   5.02766   5.04128
 Alpha virt. eigenvalues --    5.05296   5.09467   5.10121   5.13046   5.14847
 Alpha virt. eigenvalues --    5.16173   5.17705   5.19159   5.19865   5.21099
 Alpha virt. eigenvalues --    5.23779   5.26523   5.27620   5.30185   5.30932
 Alpha virt. eigenvalues --    5.34329   5.34345   5.37636   5.39530   5.44136
 Alpha virt. eigenvalues --    5.45814   5.48410   5.50225   5.51225   5.52648
 Alpha virt. eigenvalues --    5.54657   5.55987   5.58441   5.58931   5.61057
 Alpha virt. eigenvalues --    5.64095   5.65083   5.68042   5.69056   5.71592
 Alpha virt. eigenvalues --    5.72488   5.73379   5.73827   5.75207   5.78846
 Alpha virt. eigenvalues --    5.82058   5.82939   5.84370   5.85604   5.87890
 Alpha virt. eigenvalues --    5.89142   5.93182   5.94430   5.97374   5.98529
 Alpha virt. eigenvalues --    5.99765   6.08112   6.15375   6.16485   6.20865
 Alpha virt. eigenvalues --    6.23347   6.28224   6.30837   6.30999   6.34832
 Alpha virt. eigenvalues --    6.38355   6.46121   6.48819   6.57685   6.68052
 Alpha virt. eigenvalues --    6.71681   6.73088   6.77387   6.83430   6.83800
 Alpha virt. eigenvalues --    6.84795   6.86116   6.88416   6.89336   6.90846
 Alpha virt. eigenvalues --    6.91405   6.92857   6.93271   6.96048   6.97351
 Alpha virt. eigenvalues --    6.99428   7.00110   7.01613   7.04806   7.07151
 Alpha virt. eigenvalues --    7.14874   7.16043   7.19522   7.20316   7.26779
 Alpha virt. eigenvalues --    7.33049   7.33804   7.35059   7.36579   7.42370
 Alpha virt. eigenvalues --    7.48585   7.52978   7.57804   7.59298   7.60982
 Alpha virt. eigenvalues --    7.64425   7.70069   7.74946   7.78525   7.83927
 Alpha virt. eigenvalues --    8.00200  12.62117  23.47932  23.56363  23.61683
 Alpha virt. eigenvalues --   23.70228  44.01775  44.06279  44.25690  44.38720
 Alpha virt. eigenvalues --   44.46607  44.55867
          Condensed to atoms (all electrons):
               1          2          3          4          5          6
     1  Si  11.506026   0.390783   0.471075  -0.030722   0.457674   0.346851
     2  O    0.390783   7.960020  -0.038526  -0.000417  -0.020293  -0.014024
     3  O    0.471075  -0.038526   7.813496   0.314972  -0.042269  -0.048695
     4  H   -0.030722  -0.000417   0.314972   0.569027   0.003562   0.003920
     5  O    0.457674  -0.020293  -0.042269   0.003562   7.826291  -0.010854
     6  O    0.346851  -0.014024  -0.048695   0.003920  -0.010854   8.052004
     7  C   -0.014856   0.004495   0.000164  -0.000055   0.003598   0.003926
     8  H   -0.013240   0.001781   0.000018  -0.000012  -0.000574   0.001587
     9  H    0.002391  -0.000264  -0.000002   0.000002   0.000338  -0.000647
    10  C    0.002685  -0.001245  -0.000168   0.000005  -0.001877  -0.003069
    11  H   -0.006593   0.000131   0.000063  -0.000008   0.000174   0.011061
    12  H    0.000661   0.000001  -0.000001  -0.000000  -0.000025   0.000437
    13  O    0.145795  -0.027102   0.000084   0.000162  -0.081505  -0.030730
    14  H   -0.041487   0.000199   0.002845  -0.000481   0.314023   0.001573
    15  O    0.004423  -0.000010  -0.000008   0.000005  -0.000507  -0.000384
    16  H   -0.000235   0.000092  -0.000165  -0.000020   0.006634   0.000063
    17  C   -0.039111  -0.084709   0.004129   0.000402  -0.001400   0.278073
    18  H   -0.001502   0.005833  -0.000373   0.000238  -0.000015  -0.052448
    19  H    0.005760   0.006473   0.000453  -0.000692  -0.000025  -0.046622
    20  C   -0.048370   0.311445  -0.004684  -0.001083  -0.001499  -0.062814
    21  H   -0.000704  -0.042857   0.000126   0.000134  -0.000171   0.003946
    22  H   -0.003081  -0.045818  -0.000343  -0.000052   0.000407   0.006581
               7          8          9         10         11         12
     1  Si  -0.014856  -0.013240   0.002391   0.002685  -0.006593   0.000661
     2  O    0.004495   0.001781  -0.000264  -0.001245   0.000131   0.000001
     3  O    0.000164   0.000018  -0.000002  -0.000168   0.000063  -0.000001
     4  H   -0.000055  -0.000012   0.000002   0.000005  -0.000008  -0.000000
     5  O    0.003598  -0.000574   0.000338  -0.001877   0.000174  -0.000025
     6  O    0.003926   0.001587  -0.000647  -0.003069   0.011061   0.000437
     7  C    4.650868   0.372662   0.375874   0.364331  -0.044496  -0.016227
     8  H    0.372662   0.925636  -0.065388  -0.106756  -0.003253   0.008786
     9  H    0.375874  -0.065388   0.763506  -0.067652   0.014571  -0.009679
    10  C    0.364331  -0.106756  -0.067652   4.852328   0.400332   0.362671
    11  H   -0.044496  -0.003253   0.014571   0.400332   0.699982  -0.054593
    12  H   -0.016227   0.008786  -0.009679   0.362671  -0.054593   0.701241
    13  O    0.311047  -0.081040  -0.038166  -0.110530   0.003133   0.008610
    14  H    0.005045   0.002767  -0.003130  -0.002254   0.000072  -0.000101
    15  O   -0.053831   0.007987   0.007749   0.289874  -0.052810  -0.038113
    16  H   -0.012728   0.004594   0.001475  -0.082095   0.002358   0.012018
    17  C   -0.004183  -0.011071   0.000729  -0.000111  -0.004244   0.000264
    18  H   -0.001397   0.001929   0.000188   0.001324  -0.004581  -0.000739
    19  H   -0.000040   0.000214  -0.000016   0.000311   0.000134   0.000023
    20  C   -0.012505   0.003266   0.000382   0.000144   0.000984   0.000168
    21  H    0.001873  -0.001525  -0.000004  -0.000096  -0.000010  -0.000005
    22  H   -0.013318  -0.005054   0.000455   0.003129  -0.000447  -0.000052
              13         14         15         16         17         18
     1  Si   0.145795  -0.041487   0.004423  -0.000235  -0.039111  -0.001502
     2  O   -0.027102   0.000199  -0.000010   0.000092  -0.084709   0.005833
     3  O    0.000084   0.002845  -0.000008  -0.000165   0.004129  -0.000373
     4  H    0.000162  -0.000481   0.000005  -0.000020   0.000402   0.000238
     5  O   -0.081505   0.314023  -0.000507   0.006634  -0.001400  -0.000015
     6  O   -0.030730   0.001573  -0.000384   0.000063   0.278073  -0.052448
     7  C    0.311047   0.005045  -0.053831  -0.012728  -0.004183  -0.001397
     8  H   -0.081040   0.002767   0.007987   0.004594  -0.011071   0.001929
     9  H   -0.038166  -0.003130   0.007749   0.001475   0.000729   0.000188
    10  C   -0.110530  -0.002254   0.289874  -0.082095  -0.000111   0.001324
    11  H    0.003133   0.000072  -0.052810   0.002358  -0.004244  -0.004581
    12  H    0.008610  -0.000101  -0.038113   0.012018   0.000264  -0.000739
    13  O    8.492304   0.045451  -0.016162   0.042212   0.012968  -0.000741
    14  H    0.045451   0.475224  -0.000375   0.002770  -0.001088   0.000036
    15  O   -0.016162  -0.000375   7.936036   0.345235   0.000068  -0.000062
    16  H    0.042212   0.002770   0.345235   0.479611  -0.000496   0.000006
    17  C    0.012968  -0.001088   0.000068  -0.000496   4.779412   0.406967
    18  H   -0.000741   0.000036  -0.000062   0.000006   0.406967   0.737613
    19  H   -0.000012   0.000020  -0.000006   0.000000   0.400260  -0.066101
    20  C    0.010248  -0.000920  -0.000031   0.000158   0.286950  -0.046628
    21  H    0.001347  -0.000098   0.000003  -0.000009  -0.015167   0.010800
    22  H    0.007919   0.000405   0.000001  -0.000079  -0.058967  -0.015895
              19         20         21         22
     1  Si   0.005760  -0.048370  -0.000704  -0.003081
     2  O    0.006473   0.311445  -0.042857  -0.045818
     3  O    0.000453  -0.004684   0.000126  -0.000343
     4  H   -0.000692  -0.001083   0.000134  -0.000052
     5  O   -0.000025  -0.001499  -0.000171   0.000407
     6  O   -0.046622  -0.062814   0.003946   0.006581
     7  C   -0.000040  -0.012505   0.001873  -0.013318
     8  H    0.000214   0.003266  -0.001525  -0.005054
     9  H   -0.000016   0.000382  -0.000004   0.000455
    10  C    0.000311   0.000144  -0.000096   0.003129
    11  H    0.000134   0.000984  -0.000010  -0.000447
    12  H    0.000023   0.000168  -0.000005  -0.000052
    13  O   -0.000012   0.010248   0.001347   0.007919
    14  H    0.000020  -0.000920  -0.000098   0.000405
    15  O   -0.000006  -0.000031   0.000003   0.000001
    16  H    0.000000   0.000158  -0.000009  -0.000079
    17  C    0.400260   0.286950  -0.015167  -0.058967
    18  H   -0.066101  -0.046628   0.010800  -0.015895
    19  H    0.696322  -0.030775  -0.024167   0.014021
    20  C   -0.030775   4.705027   0.383552   0.439129
    21  H   -0.024167   0.383552   0.718710  -0.068405
    22  H    0.014021   0.439129  -0.068405   0.686542
 Mulliken charges:
               1
     1  Si   0.865776
     2  O   -0.405989
     3  O   -0.472191
     4  H    0.141113
     5  O   -0.451686
     6  O   -0.439736
     7  C    0.079754
     8  H   -0.043316
     9  H    0.017289
    10  C    0.098719
    11  H    0.038040
    12  H    0.024655
    13  O   -0.695293
    14  H    0.199503
    15  O   -0.429085
    16  H    0.198601
    17  C    0.050326
    18  H    0.025548
    19  H    0.044466
    20  C    0.067855
    21  H    0.032728
    22  H    0.052923
 Sum of Mulliken charges =  -1.00000
 Mulliken charges with hydrogens summed into heavy atoms:
               1
     1  Si   0.865776
     2  O   -0.405989
     3  O   -0.331078
     5  O   -0.252183
     6  O   -0.439736
     7  C    0.053727
    10  C    0.161415
    13  O   -0.695293
    15  O   -0.230484
    17  C    0.120340
    20  C    0.153505
 APT charges:
               1
     1  Si   0.350379
     2  O   -0.308743
     3  O   -0.556828
     4  H    0.477825
     5  O   -0.418571
     6  O   -0.393187
     7  C   -0.627208
     8  H    0.127518
     9  H    0.425452
    10  C   -0.581213
    11  H    0.097359
    12  H    0.608366
    13  O   -0.613073
    14  H    0.289319
    15  O   -0.152688
    16  H    0.011907
    17  C   -0.620064
    18  H    0.252467
    19  H    0.489919
    20  C   -0.636197
    21  H    0.530545
    22  H    0.246717
 Sum of APT charges =  -1.00000
 APT charges with hydrogens summed into heavy atoms:
               1
     1  Si   0.350379
     2  O   -0.308743
     3  O   -0.079003
     5  O   -0.129253
     6  O   -0.393187
     7  C   -0.074238
    10  C    0.124512
    13  O   -0.613073
    15  O   -0.140781
    17  C    0.122322
    20  C    0.141065
 Electronic spatial extent (au):  <R**2>=           1951.8480
 Charge=             -1.0000 electrons
 Dipole moment (field-independent basis, Debye):
    X=              0.5382    Y=             -4.7704    Z=              1.1719  Tot=              4.9417
 Quadrupole moment (field-independent basis, Debye-Ang):
   XX=            -97.2143   YY=            -84.4645   ZZ=            -81.7964
   XY=             -2.4394   XZ=              5.0540   YZ=             -2.2693
 Traceless Quadrupole moment (field-independent basis, Debye-Ang):
   XX=             -9.3892   YY=              3.3606   ZZ=              6.0287
   XY=             -2.4394   XZ=              5.0540   YZ=             -2.2693
 Octapole moment (field-independent basis, Debye-Ang**2):
  XXX=             40.3297  YYY=             -7.9411  ZZZ=              3.4874  XYY=             -5.9192
  XXY=            -24.4511  XXZ=              2.8297  XZZ=              9.0038  YZZ=              5.5484
  YYZ=             -1.2637  XYZ=              3.1770
 Hexadecapole moment (field-independent basis, Debye-Ang**3):
 XXXX=          -1598.9169 YYYY=           -780.6283 ZZZZ=           -387.8009 XXXY=             29.9895
 XXXZ=             54.4517 YYYX=            -42.4153 YYYZ=             -0.6912 ZZZX=             12.8516
 ZZZY=             -2.5406 XXYY=           -408.7917 XXZZ=           -305.6727 YYZZ=           -190.1244
 XXYZ=            -27.2405 YYXZ=              3.1319 ZZXY=              1.1754
 N-N= 8.612670362660D+02 E-N=-3.866363173138D+03  KE= 8.969765678005D+02
  Exact polarizability:       0.000       0.000       0.000       0.000       0.000       0.000
 Approx polarizability:     101.947       3.305     107.908       1.539      -2.173      94.714
   1 Symmetry operations used in ECPInt.
 ECPInt:  NShTT=   18145 NPrTT=   50058 LenC2=   17288 LenP2D=   37028.
 LDataN:  DoStor=T MaxTD1= 8 Len=  415
 Calling FoFJK, ICntrl=    100127 FMM=F ISym2X=0 I1Cent= 0 IOpClX= 0 NMat=1 NMatS=1 NMatT=0.
 -------------------------------------------------------------------
 Center     Atomic                   Forces (Hartrees/Bohr)
 Number     Number              X              Y              Z
 -------------------------------------------------------------------
      1       14          -0.000001129    0.000001139   -0.000001211
      2        8          -0.000000500    0.000000237   -0.000001407
      3        8          -0.000000584    0.000002475   -0.000003102
      4        1           0.000000325    0.000002399   -0.000002273
      5        8          -0.000001898   -0.000000291   -0.000002106
      6        8           0.000000580    0.000001219   -0.000000951
      7        6          -0.000000580   -0.000001429    0.000001713
      8        1           0.000000428   -0.000001455    0.000001686
      9        1          -0.000000890   -0.000002452    0.000001511
     10        6          -0.000000081   -0.000001456    0.000001134
     11        1           0.000001221   -0.000000120    0.000001323
     12        1           0.000000730   -0.000001559    0.000002178
     13        8          -0.000000711   -0.000001215   -0.000000103
     14        1          -0.000001793   -0.000000535   -0.000001445
     15        8           0.000000168   -0.000000609    0.000000244
     16        1          -0.000001640   -0.000001133    0.000000239
     17        6           0.000001715    0.000000840    0.000000766
     18        1           0.000001562    0.000000568    0.000001196
     19        1           0.000001750    0.000002236   -0.000000058
     20        6           0.000000573    0.000000483    0.000000088
     21        1           0.000000914    0.000000788    0.000000068
     22        1          -0.000000160   -0.000000130    0.000000510
 -------------------------------------------------------------------
 Cartesian Forces:  Max     0.000003102 RMS     0.000001286
 IRC-IRC-IRC-IRC-IRC-IRC-IRC-IRC-IRC-IRC-IRC-IRC-IRC-IRC-IRC-IRC-IRC-IRC
          ******** Start new reaction path calculation ********
 Supplied step size of   0.1000 bohr.
    Integration on MW PES will use step size of   0.2630 sqrt(amu)*bohr.
 Point Number:   0          Path Number:   1
 Calculating another point on the path.
 IRC-IRC-IRC-IRC-IRC-IRC-IRC-IRC-IRC-IRC-IRC-IRC-IRC-IRC-IRC-IRC-IRC-IRC
                          Input orientation:                          
 ---------------------------------------------------------------------
 Center     Atomic      Atomic             Coordinates (Angstroms)
 Number     Number       Type             X           Y           Z
 ---------------------------------------------------------------------
      1         14           0        1.021893    0.553098   -0.014588
      2          8           0        1.714537   -0.664657   -0.924484
      3          8           0        2.286332    1.310535    0.789523
      4          1           0        2.649910    0.728504    1.451451
      5          8           0        0.503332    1.920207   -0.750813
      6          8           0        0.478061   -0.439201    1.236384
      7          6           0       -2.070434   -0.733054   -0.765218
      8          1           0       -1.840899   -1.820556   -0.719801
      9          1           0       -2.820520   -0.625680   -1.574512
     10          6           0       -2.762761   -0.360061    0.550036
     11          1           0       -2.140035   -0.679937    1.395156
     12          1           0       -3.741028   -0.846565    0.629192
     13          8           0       -0.979139    0.048947   -1.008004
     14          1           0       -0.292688    1.624851   -1.223868
     15          8           0       -2.964973    1.037916    0.603673
     16          1           0       -2.179272    1.381515    0.159047
     17          6           0        0.582011   -1.789965    0.863741
     18          1           0       -0.388232   -2.288855    0.956868
     19          1           0        1.280744   -2.286920    1.549357
     20          6           0        1.102887   -1.884959   -0.597508
     21          1           0        1.838703   -2.690741   -0.689300
     22          1           0        0.275925   -2.081714   -1.283899
 ---------------------------------------------------------------------
                    Distance matrix (angstroms):
                    1          2          3          4          5
     1  Si   0.000000
     2  O    1.670507   0.000000
     3  O    1.679021   2.676967   0.000000
     4  H    2.197835   2.908760   0.953466   0.000000
     5  O    1.637046   2.859843   2.433809   3.298169   0.000000
     6  O    1.686814   2.499811   2.555603   2.475220   3.084866
     7  C    3.432217   3.788937   5.057162   5.415849   3.696522
     8  H    3.785120   3.744212   5.395908   5.601732   4.414713
     9  H    4.311266   4.581572   5.951263   6.396551   4.267085
    10  C    3.933988   4.723683   5.323682   5.594151   4.190369
    11  H    3.674989   4.498743   4.890961   4.993040   4.284078
    12  H    5.005889   5.675402   6.403738   6.633328   5.251099
    13  O    2.290234   2.787848   3.935227   4.436294   2.401142
    14  H    2.083059   3.059482   3.286926   4.076721   0.971939
    15  O    4.063544   5.208823   5.261660   5.686947   3.826515
    16  H    3.311175   4.530188   4.510450   5.041600   2.883470
    17  C    2.540650   2.397223   3.538830   3.311238   4.047018
    18  H    3.317963   3.255632   4.487417   4.310380   4.628960
    19  H    3.252481   2.989950   3.811855   3.313152   4.857476
    20  C    2.508082   1.403626   3.679073   3.663564   3.855160
    21  H    3.412464   2.043464   4.289231   4.114864   4.800817
    22  H    3.018253   2.051057   4.455129   4.584241   4.043670
                    6          7          8          9         10
     6  O    0.000000
     7  C    3.253857   0.000000
     8  H    3.333523   1.112389   0.000000
     9  H    4.337805   1.108655   1.765762   0.000000
    10  C    3.313648   1.532428   2.143680   2.141866   0.000000
    11  H    2.633930   2.162148   2.421474   3.047118   1.097423
    12  H    4.281979   2.179025   2.525655   2.398424   1.095427
    13  O    2.720109   1.364330   2.078637   2.041259   2.403348
    14  H    3.302606   2.988387   3.810757   3.402613   3.631511
    15  O    3.799563   2.410477   3.344546   2.744615   1.413543
    16  H    3.396628   2.310306   3.337683   2.728599   1.877875
    17  C    1.405074   3.287253   2.894656   4.344865   3.651101
    18  H    2.061508   2.866339   2.267325   3.884593   3.086122
    19  H    2.038705   4.359146   3.887317   5.416517   4.589267
    20  C    2.417392   3.380085   2.947029   4.234790   4.311080
    21  H    3.260221   4.372603   3.781220   5.172663   5.304856
    22  H    3.015052   2.755596   2.206208   3.434015   3.944746
                   11         12         13         14         15
    11  H    0.000000
    12  H    1.782595   0.000000
    13  O    2.766609   3.333224   0.000000
    14  H    3.947661   4.629555   1.732422   0.000000
    15  O    2.063489   2.038181   2.742098   3.290214   0.000000
    16  H    2.403974   2.761242   2.139641   2.351779   0.965960
    17  C    2.987323   4.430991   3.053230   4.096850   4.543747
    18  H    2.418579   3.664534   3.110500   4.481276   4.222765
    19  H    3.782579   5.304670   4.135631   5.046625   5.474940
    20  C    3.992409   5.103584   2.871120   3.828671   5.151070
    21  H    4.921245   6.022691   3.943057   4.842822   6.216910
    22  H    3.870294   4.617512   2.488176   3.750406   4.878364
                   16         17         18         19         20
    16  H    0.000000
    17  C    4.263749   0.000000
    18  H    4.161245   1.094959   0.000000
    19  H    5.230879   1.097845   1.771025   0.000000
    20  C    4.691992   1.554215   2.191496   2.191401   0.000000
    21  H    5.783346   2.191486   2.798325   2.342216   1.095051
    22  H    4.483752   2.188873   2.346284   3.013157   1.092572
                   21         22
    21  H    0.000000
    22  H    1.779533   0.000000
 Symmetry turned off by external request.
 Stoichiometry    C4H11O6Si(1-)
 Framework group  C1[X(C4H11O6Si)]
 Deg. of freedom    60
 Full point group                 C1      NOp   1
 Rotational constants (GHZ):           1.3985592           0.7772983           0.6509169
 Standard basis: def2TZVPP (5D, 7F)
   506 basis functions,   766 primitive gaussians,   573 cartesian basis functions
    49 alpha electrons       49 beta electrons
       nuclear repulsion energy       860.5443351102 Hartrees.
 NAtoms=   22 NActive=   22 NUniq=   22 SFac= 1.00D+00 NAtFMM=   60 NAOKFM=F Big=F
 Integral buffers will be    131072 words long.
 Raffenetti 2 integral format.
 Two-electron integral symmetry is turned off.
 Nuclear repulsion after empirical dispersion term =      860.5294081552 Hartrees.
 One-electron integrals computed using PRISM.
   1 Symmetry operations used in ECPInt.
 ECPInt:  NShTT=   18145 NPrTT=   50058 LenC2=   17287 LenP2D=   37008.
 LDataN:  DoStor=T MaxTD1= 6 Len=  172
 NBasis=   506 RedAO= T EigKep=  2.08D-04  NBF=   506
 NBsUse=   506 1.00D-06 EigRej= -1.00D+00 NBFU=   506
 Initial guess from the checkpoint file:  "IRC_EGdepattackQbiL_reverse.chk"
 B after Tr=    -0.070826   -0.092363    0.006273
         Rot=    1.000000    0.000005   -0.000034    0.000021 Ang=   0.00 deg.
 ExpMin= 7.01D-02 ExpMax= 4.48D+04 ExpMxC= 1.53D+03 IAcc=3 IRadAn=         5 AccDes= 0.00D+00
 Harris functional with IExCor= 4639 and IRadAn=       5 diagonalized for initial guess.
 HarFok:  IExCor= 4639 AccDes= 0.00D+00 IRadAn=         5 IDoV= 1 UseB2=F ITyADJ=14
 ICtDFT=  3500011 ScaDFX=  1.000000  1.000000  1.000000  1.000000
 FoFCou: FMM=F IPFlag=           0 FMFlag=      100000 FMFlg1=           0
         NFxFlg=           0 DoJE=T BraDBF=F KetDBF=T FulRan=T
         wScrn=  0.000000 ICntrl=       500 IOpCl=  0 I1Cent=   200000004 NGrid=           0
         NMat0=    1 NMatS0=      1 NMatT0=    0 NMatD0=    1 NMtDS0=    0 NMtDT0=    0
 Symmetry not used in FoFCou.
 Requested convergence on RMS density matrix=1.00D-08 within 128 cycles.
 Requested convergence on MAX density matrix=1.00D-06.
 Requested convergence on             energy=1.00D-06.
 No special actions if energy rises.
 Integral accuracy reduced to 1.0D-05 until final iterations.
 Initial convergence to 1.0D-05 achieved.  Increase integral accuracy.
 SCF Done:  E(RwB97XD) =  -900.173888438     A.U. after   11 cycles
            NFock= 11  Conv=0.42D-08     -V/T= 2.0036
 DoSCS=F DFT=T ScalE2(SS,OS)=  1.000000  1.000000
 Range of M.O.s used for correlation:     1   506
 NBasis=   506 NAE=    49 NBE=    49 NFC=     0 NFV=     0
 NROrb=    506 NOA=    49 NOB=    49 NVA=   457 NVB=   457

 **** Warning!!: The largest alpha MO coefficient is  0.13970089D+02

 Symmetrizing basis deriv contribution to polar:
 IMax=3 JMax=2 DiffMx= 0.00D+00
   1 Symmetry operations used in ECPInt.
 ECPInt:  NShTT=   18145 NPrTT=   50058 LenC2=   17287 LenP2D=   37008.
 LDataN:  DoStor=T MaxTD1= 7 Len=  274
 Calling FoFJK, ICntrl=      2127 FMM=F ISym2X=0 I1Cent= 0 IOpClX= 0 NMat=1 NMatS=1 NMatT=0.
 -------------------------------------------------------------------
 Center     Atomic                   Forces (Hartrees/Bohr)
 Number     Number              X              Y              Z
 -------------------------------------------------------------------
      1       14           0.000592910    0.000097653    0.000225912
      2        8           0.000084031    0.000032876    0.000043496
      3        8           0.000378676    0.000099174    0.000034123
      4        1           0.000027560    0.000021967   -0.000014661
      5        8          -0.000192630   -0.000254734    0.000159814
      6        8           0.000063731    0.000128025   -0.000033800
      7        6          -0.000317883   -0.000067937   -0.000116289
      8        1          -0.000029590   -0.000001364   -0.000006359
      9        1          -0.000023708   -0.000005725    0.000010955
     10        6          -0.000114853   -0.000038121   -0.000026280
     11        1          -0.000004497   -0.000006592   -0.000014844
     12        1           0.000000801    0.000004685    0.000009056
     13        8          -0.000352756   -0.000165868   -0.000288352
     14        1           0.000044808   -0.000007755    0.000052606
     15        8           0.000020025   -0.000027740    0.000000594
     16        1          -0.000024504   -0.000012964    0.000001806
     17        6          -0.000070611    0.000094252   -0.000018084
     18        1          -0.000003482    0.000022186   -0.000003512
     19        1          -0.000012000    0.000004891   -0.000002234
     20        6          -0.000058142    0.000067147   -0.000013414
     21        1          -0.000011842    0.000003073   -0.000002113
     22        1           0.000003957    0.000012872    0.000001581
 -------------------------------------------------------------------
 Cartesian Forces:  Max     0.000592910 RMS     0.000130781
 IRC-IRC-IRC-IRC-IRC-IRC-IRC-IRC-IRC-IRC-IRC-IRC-IRC-IRC-IRC-IRC-IRC-IRC
 Pt  1 Step number   1 out of a maximum of 100
 Modified Bulirsch-Stoer Extrapolation Cycles:
    EPS =    0.000010000000000
      PEZero:  N= 2 I= 1 D=  6.85D-04 Err=  1.03D-02
      PEZero:  N= 3 I= 2 D=  6.85D-04 Err=  1.61D-02
      PEZero:  N= 3 I= 1 D=  1.37D-03 Err=  1.39D-02
      PEZero:  N= 4 I= 3 D=  3.42D-04 Err=  2.73D-02
      PEZero:  N= 4 I= 2 D=  1.03D-03 Err=  2.02D-02
      PEZero:  N= 4 I= 1 D=  1.71D-03 Err=  1.59D-02
      PEZero:  N= 5 I= 4 D=  3.42D-04 Err=  4.02D-02
      PEZero:  N= 5 I= 3 D=  6.85D-04 Err=  3.31D-02
      PEZero:  N= 5 I= 2 D=  1.37D-03 Err=  2.29D-02
      PEZero:  N= 5 I= 1 D=  2.05D-03 Err=  1.76D-02
      PEZero:  N= 6 I= 5 D=  1.71D-04 Err=  2.46D-02
      PEZero:  N= 6 I= 4 D=  5.14D-04 Err=  7.34D-03
      PEZero:  N= 6 I= 3 D=  8.56D-04 Err=  2.86D-02
      PEZero:  N= 7 I= 6 D=  1.71D-04 Err=  1.18D-03
      PEZero:  N= 7 I= 5 D=  3.42D-04 Err=  2.29D-02
      PEZero:  N= 8 I= 7 D=  8.56D-05 Err=  1.24D-04
      PEZero:  N= 8 I= 6 D=  2.57D-04 Err=  1.02D-03
      PEZero:  N= 9 I= 8 D=  8.56D-05 Err=  8.24D-05
      PEZero:  N= 9 I= 7 D=  1.71D-04 Err=  8.38D-07
      PEZero:  N= 9 I= 6 D=  3.42D-04 Err=  3.67D-03
 Maximum DWI energy   std dev =  0.000000290 at pt   135
 Maximum DWI gradient std dev =  0.165810651 at pt     1
 CORRECTOR INTEGRATION CONVERGENCE:
   Recorrection delta-x convergence threshold:    0.010000
   Delta-x Convergence Met
 Point Number:   1          Path Number:   1
   CHANGE IN THE REACTION COORDINATE =    0.26297
   NET REACTION COORDINATE UP TO THIS POINT =    0.26297
  # OF POINTS ALONG THE PATH =   1
  # OF STEPS =   1

 Calculating another point on the path.
 IRC-IRC-IRC-IRC-IRC-IRC-IRC-IRC-IRC-IRC-IRC-IRC-IRC-IRC-IRC-IRC-IRC-IRC
                          Input orientation:                          
 ---------------------------------------------------------------------
 Center     Atomic      Atomic             Coordinates (Angstroms)
 Number     Number       Type             X           Y           Z
 ---------------------------------------------------------------------
      1         14           0        1.034385    0.555279   -0.009555
      2          8           0        1.717060   -0.663541   -0.923178
      3          8           0        2.298112    1.313608    0.789696
      4          1           0        2.667433    0.733010    1.449731
      5          8           0        0.498016    1.913297   -0.744955
      6          8           0        0.480167   -0.434540    1.235459
      7          6           0       -2.082939   -0.735538   -0.770569
      8          1           0       -1.854895   -1.824016   -0.725547
      9          1           0       -2.838680   -0.628557   -1.575346
     10          6           0       -2.767553   -0.361579    0.548947
     11          1           0       -2.141187   -0.683299    1.390819
     12          1           0       -3.746756   -0.845446    0.633507
     13          8           0       -0.991632    0.042960   -1.017604
     14          1           0       -0.299395    1.606691   -1.211680
     15          8           0       -2.965268    1.036958    0.604240
     16          1           0       -2.181159    1.377356    0.154125
     17          6           0        0.578992   -1.786197    0.862714
     18          1           0       -0.393645   -2.280094    0.954645
     19          1           0        1.274953   -2.285685    1.549220
     20          6           0        1.100432   -1.882425   -0.597875
     21          1           0        1.833714   -2.690436   -0.689894
     22          1           0        0.273031   -2.074167   -1.284817
 ---------------------------------------------------------------------
                    Distance matrix (angstroms):
                    1          2          3          4          5
     1  Si   0.000000
     2  O    1.669214   0.000000
     3  O    1.676566   2.679679   0.000000
     4  H    2.197260   2.912776   0.953487   0.000000
     5  O    1.634845   2.856209   2.440314   3.303952   0.000000
     6  O    1.684327   2.498410   2.561181   2.488618   3.071595
     7  C    3.458765   3.803743   5.082031   5.445402   3.698420
     8  H    3.810725   3.760933   5.421080   5.632200   4.416342
     9  H    4.342096   4.602316   5.979303   6.428238   4.275992
    10  C    3.950606   4.729703   5.340897   5.616816   4.184876
    11  H    3.685021   4.499004   4.904728   5.013206   4.274252
    12  H    5.023432   5.684157   6.420774   6.655792   5.246800
    13  O    2.320211   2.800905   3.962738   4.466841   2.406564
    14  H    2.080755   3.050128   3.292180   4.080257   0.973501
    15  O    4.075044   5.210460   5.273907   5.703908   3.818721
    16  H    3.323000   4.530116   4.524587   5.059904   2.876379
    17  C    2.539832   2.396865   3.545348   3.324543   4.034528
    18  H    3.317875   3.254925   4.493046   4.323669   4.611749
    19  H    3.249420   2.989910   3.818199   3.325872   4.847507
    20  C    2.508562   1.404183   3.684348   3.672695   3.846043
    21  H    3.411225   2.043608   4.293859   4.122265   4.793901
    22  H    3.019923   2.050821   4.458876   4.592512   4.030129
                    6          7          8          9         10
     6  O    0.000000
     7  C    3.268678   0.000000
     8  H    3.350925   1.113021   0.000000
     9  H    4.353505   1.109169   1.766101   0.000000
    10  C    3.320288   1.532862   2.143829   2.142185   0.000000
    11  H    2.637710   2.162803   2.421198   3.047560   1.097537
    12  H    4.289297   2.179861   2.526612   2.398056   1.095498
    13  O    2.733219   1.363098   2.077527   2.042938   2.402422
    14  H    3.280675   2.976851   3.798112   3.402433   3.614650
    15  O    3.799311   2.410466   3.344613   2.746007   1.413525
    16  H    3.396308   2.308469   3.336024   2.728935   1.877135
    17  C    1.405589   3.295053   2.906511   4.354853   3.650665
    18  H    2.061182   2.866309   2.272950   3.886724   3.079080
    19  H    2.038840   4.365754   3.896620   5.425031   4.587438
    20  C    2.417067   3.388071   2.958660   4.247851   4.311553
    21  H    3.260082   4.378162   3.789167   5.183303   5.303769
    22  H    3.013813   2.758074   2.214368   3.443390   3.942182
                   11         12         13         14         15
    11  H    0.000000
    12  H    1.782601   0.000000
    13  O    2.765759   3.332588   0.000000
    14  H    3.925462   4.615407   1.721079   0.000000
    15  O    2.063274   2.038387   2.741103   3.275521   0.000000
    16  H    2.403603   2.760752   2.137414   2.336461   0.966075
    17  C    2.982390   4.432792   3.057494   4.072636   4.538589
    18  H    2.407053   3.661243   3.105468   4.450724   4.211752
    19  H    3.776605   5.303808   4.141084   5.025110   5.469224
    20  C    3.987593   5.107530   2.874023   3.809226   5.147601
    21  H    4.915058   6.024701   3.944797   4.825735   6.212767
    22  H    3.862898   4.620434   2.480524   3.725820   4.871777
                   16         17         18         19         20
    16  H    0.000000
    17  C    4.257770   0.000000
    18  H    4.148853   1.094719   0.000000
    19  H    5.225789   1.097789   1.771375   0.000000
    20  C    4.686205   1.553860   2.191056   2.191596   0.000000
    21  H    5.777414   2.191476   2.798931   2.343004   1.095012
    22  H    4.472875   2.188248   2.345646   3.013362   1.092358
                   21         22
    21  H    0.000000
    22  H    1.780296   0.000000
 Symmetry turned off by external request.
 Stoichiometry    C4H11O6Si(1-)
 Framework group  C1[X(C4H11O6Si)]
 Deg. of freedom    60
 Full point group                 C1      NOp   1
 Rotational constants (GHZ):           1.4007141           0.7733360           0.6488146
 Standard basis: def2TZVPP (5D, 7F)
   506 basis functions,   766 primitive gaussians,   573 cartesian basis functions
    49 alpha electrons       49 beta electrons
       nuclear repulsion energy       859.8050688966 Hartrees.
 NAtoms=   22 NActive=   22 NUniq=   22 SFac= 1.00D+00 NAtFMM=   60 NAOKFM=F Big=F
 Integral buffers will be    131072 words long.
 Raffenetti 2 integral format.
 Two-electron integral symmetry is turned off.
 Nuclear repulsion after empirical dispersion term =      859.7901400918 Hartrees.
 One-electron integrals computed using PRISM.
   1 Symmetry operations used in ECPInt.
 ECPInt:  NShTT=   18145 NPrTT=   50058 LenC2=   17286 LenP2D=   36993.
 LDataN:  DoStor=T MaxTD1= 6 Len=  172
 NBasis=   506 RedAO= T EigKep=  2.08D-04  NBF=   506
 NBsUse=   506 1.00D-06 EigRej= -1.00D+00 NBFU=   506
 Initial guess from the checkpoint file:  "IRC_EGdepattackQbiL_reverse.chk"
 B after Tr=    -0.000471   -0.000087   -0.000051
         Rot=    1.000000   -0.000024   -0.000054    0.000034 Ang=  -0.01 deg.
 ExpMin= 7.01D-02 ExpMax= 4.48D+04 ExpMxC= 1.53D+03 IAcc=3 IRadAn=         5 AccDes= 0.00D+00
 Harris functional with IExCor= 4639 and IRadAn=       5 diagonalized for initial guess.
 HarFok:  IExCor= 4639 AccDes= 0.00D+00 IRadAn=         5 IDoV= 1 UseB2=F ITyADJ=14
 ICtDFT=  3500011 ScaDFX=  1.000000  1.000000  1.000000  1.000000
 FoFCou: FMM=F IPFlag=           0 FMFlag=      100000 FMFlg1=           0
         NFxFlg=           0 DoJE=T BraDBF=F KetDBF=T FulRan=T
         wScrn=  0.000000 ICntrl=       500 IOpCl=  0 I1Cent=   200000004 NGrid=           0
         NMat0=    1 NMatS0=      1 NMatT0=    0 NMatD0=    1 NMtDS0=    0 NMtDT0=    0
 Symmetry not used in FoFCou.
 Requested convergence on RMS density matrix=1.00D-08 within 128 cycles.
 Requested convergence on MAX density matrix=1.00D-06.
 Requested convergence on             energy=1.00D-06.
 No special actions if energy rises.
 Integral accuracy reduced to 1.0D-05 until final iterations.
 Initial convergence to 1.0D-05 achieved.  Increase integral accuracy.
 SCF Done:  E(RwB97XD) =  -900.173987547     A.U. after   11 cycles
            NFock= 11  Conv=0.37D-08     -V/T= 2.0036
 DoSCS=F DFT=T ScalE2(SS,OS)=  1.000000  1.000000
 Range of M.O.s used for correlation:     1   506
 NBasis=   506 NAE=    49 NBE=    49 NFC=     0 NFV=     0
 NROrb=    506 NOA=    49 NOB=    49 NVA=   457 NVB=   457

 **** Warning!!: The largest alpha MO coefficient is  0.14051955D+02

 Symmetrizing basis deriv contribution to polar:
 IMax=3 JMax=2 DiffMx= 0.00D+00
   1 Symmetry operations used in ECPInt.
 ECPInt:  NShTT=   18145 NPrTT=   50058 LenC2=   17286 LenP2D=   36993.
 LDataN:  DoStor=T MaxTD1= 7 Len=  274
 Calling FoFJK, ICntrl=      2127 FMM=F ISym2X=0 I1Cent= 0 IOpClX= 0 NMat=1 NMatS=1 NMatT=0.
 -------------------------------------------------------------------
 Center     Atomic                   Forces (Hartrees/Bohr)
 Number     Number              X              Y              Z
 -------------------------------------------------------------------
      1       14           0.001192370    0.000370753    0.000429240
      2        8           0.000157800    0.000052924    0.000084775
      3        8           0.000699463    0.000165451    0.000056269
      4        1           0.000044682    0.000039031   -0.000032950
      5        8          -0.000369503   -0.000558740    0.000318548
      6        8           0.000120169    0.000224348   -0.000050259
      7        6          -0.000574327   -0.000123671   -0.000208489
      8        1          -0.000056659    0.000006724   -0.000016129
      9        1          -0.000037866   -0.000001264    0.000016147
     10        6          -0.000211027   -0.000068757   -0.000049541
     11        1          -0.000009916   -0.000013856   -0.000034410
     12        1           0.000001094    0.000012719    0.000010124
     13        8          -0.000712688   -0.000338824   -0.000560944
     14        1           0.000056827   -0.000059459    0.000097484
     15        8           0.000030812   -0.000051608    0.000001837
     16        1          -0.000043205   -0.000020904    0.000004835
     17        6          -0.000131225    0.000172584   -0.000029960
     18        1          -0.000015706    0.000041610   -0.000007983
     19        1          -0.000028063    0.000002136   -0.000005206
     20        6          -0.000101055    0.000123979   -0.000021349
     21        1          -0.000024529    0.000003307   -0.000003596
     22        1           0.000012552    0.000021517    0.000001559
 -------------------------------------------------------------------
 Cartesian Forces:  Max     0.001192370 RMS     0.000258350
 IRC-IRC-IRC-IRC-IRC-IRC-IRC-IRC-IRC-IRC-IRC-IRC-IRC-IRC-IRC-IRC-IRC-IRC
 Pt  2 Step number   1 out of a maximum of 100
 Modified Bulirsch-Stoer Extrapolation Cycles:
    EPS =    0.000010000000000
      PEZero:  N= 2 I= 1 D=  1.37D-03 Err=  1.44D-02
      PEZero:  N= 3 I= 2 D=  1.37D-03 Err=  2.74D-02
      PEZero:  N= 3 I= 1 D=  2.74D-03 Err=  2.68D-02
      PEZero:  N= 4 I= 3 D=  6.85D-04 Err=  5.04D-02
      PEZero:  N= 4 I= 2 D=  2.05D-03 Err=  3.97D-02
      PEZero:  N= 4 I= 1 D=  3.42D-03 Err=  3.16D-02
      PEZero:  N= 5 I= 4 D=  6.85D-04 Err=  7.57D-02
      PEZero:  N= 5 I= 3 D=  1.37D-03 Err=  6.33D-02
      PEZero:  N= 5 I= 2 D=  2.74D-03 Err=  4.34D-02
      PEZero:  N= 5 I= 1 D=  4.11D-03 Err=  3.29D-02
      PEZero:  N= 6 I= 5 D=  3.42D-04 Err=  4.18D-02
      PEZero:  N= 6 I= 4 D=  1.03D-03 Err=  2.00D-02
      PEZero:  N= 6 I= 3 D=  1.71D-03 Err=  6.19D-02
      PEZero:  N= 7 I= 6 D=  3.42D-04 Err=  2.32D-06
      PEZero:  N= 7 I= 5 D=  6.85D-04 Err=  4.18D-02
 Maximum DWI energy   std dev =  0.000000298 at pt   128
 Maximum DWI gradient std dev =  0.097323619 at pt   218
 CORRECTOR INTEGRATION CONVERGENCE:
   Recorrection delta-x convergence threshold:    0.010000
   Delta-x Convergence Met
 Point Number:   2          Path Number:   1
   CHANGE IN THE REACTION COORDINATE =    0.26289
   NET REACTION COORDINATE UP TO THIS POINT =    0.52585
  # OF POINTS ALONG THE PATH =   2
  # OF STEPS =   1

 Calculating another point on the path.
 IRC-IRC-IRC-IRC-IRC-IRC-IRC-IRC-IRC-IRC-IRC-IRC-IRC-IRC-IRC-IRC-IRC-IRC
                          Input orientation:                          
 ---------------------------------------------------------------------
 Center     Atomic      Atomic             Coordinates (Angstroms)
 Number     Number       Type             X           Y           Z
 ---------------------------------------------------------------------
      1         14           0        1.046806    0.557647   -0.004560
      2          8           0        1.719805   -0.662322   -0.921696
      3          8           0        2.309586    1.316919    0.790101
      4          1           0        2.684253    0.737720    1.448347
      5          8           0        0.492364    1.905766   -0.739544
      6          8           0        0.482419   -0.430008    1.234559
      7          6           0       -2.095499   -0.737927   -0.775832
      8          1           0       -1.869248   -1.827387   -0.731282
      9          1           0       -2.856710   -0.630925   -1.576094
     10          6           0       -2.772253   -0.362921    0.547845
     11          1           0       -2.142238   -0.686602    1.386361
     12          1           0       -3.752362   -0.844087    0.637753
     13          8           0       -1.003974    0.036724   -1.027174
     14          1           0       -0.306302    1.587129   -1.199560
     15          8           0       -2.965479    1.036147    0.604846
     16          1           0       -2.182945    1.373597    0.149662
     17          6           0        0.575754   -1.782470    0.861560
     18          1           0       -0.399556   -2.270935    0.951704
     19          1           0        1.268333   -2.284996    1.549189
     20          6           0        1.098408   -1.879866   -0.598186
     21          1           0        1.829356   -2.689953   -0.690094
     22          1           0        0.270970   -2.066969   -1.286015
 ---------------------------------------------------------------------
                    Distance matrix (angstroms):
                    1          2          3          4          5
     1  Si   0.000000
     2  O    1.668050   0.000000
     3  O    1.674095   2.682440   0.000000
     4  H    2.196497   2.916742   0.953486   0.000000
     5  O    1.632492   2.852168   2.447212   3.309920   0.000000
     6  O    1.682086   2.496905   2.566679   2.501474   3.058271
     7  C    3.485319   3.818840   5.106791   5.474535   3.699657
     8  H    3.836650   3.778219   5.446459   5.662590   4.417432
     9  H    4.372625   4.623171   6.006961   6.459311   4.283796
    10  C    3.967090   4.735797   5.357764   5.638774   4.178760
    11  H    3.694971   4.499232   4.918165   5.032648   4.263914
    12  H    5.040777   5.692937   6.437419   6.677513   5.241787
    13  O    2.350064   2.814030   3.990121   4.496957   2.411447
    14  H    2.078162   3.040122   3.297670   4.083665   0.975198
    15  O    4.086412   5.212198   5.285778   5.720142   3.810551
    16  H    3.334793   4.530367   4.538304   5.077454   2.869001
    17  C    2.539331   2.396578   3.552111   3.337880   4.021638
    18  H    3.317722   3.254067   4.498695   4.336881   4.593547
    19  H    3.247127   2.990347   3.825470   3.339433   4.837656
    20  C    2.509288   1.404709   3.689679   3.681706   3.836441
    21  H    3.410168   2.043753   4.298444   4.129494   4.786504
    22  H    3.022029   2.050582   4.462837   4.600755   4.016250
                    6          7          8          9         10
     6  O    0.000000
     7  C    3.283618   0.000000
     8  H    3.368610   1.113596   0.000000
     9  H    4.369201   1.109644   1.766439   0.000000
    10  C    3.327005   1.533215   2.143884   2.142446   0.000000
    11  H    2.641534   2.163307   2.420810   3.047902   1.097632
    12  H    4.296627   2.180525   2.527301   2.397655   1.095544
    13  O    2.746387   1.361868   2.076334   2.044430   2.401502
    14  H    3.258199   2.964230   3.784311   3.400900   3.596809
    15  O    3.799230   2.410493   3.344665   2.747264   1.413498
    16  H    3.396197   2.307102   3.334781   2.729524   1.876521
    17  C    1.406055   3.302683   2.918424   4.364633   3.650025
    18  H    2.060800   2.865435   2.277975   3.888059   3.071369
    19  H    2.039027   4.372014   3.905684   5.433168   4.585127
    20  C    2.416710   3.396561   2.971103   4.261351   4.312369
    21  H    3.259736   4.384318   3.798078   5.194594   5.303053
    22  H    3.012913   2.761668   2.223885   3.453802   3.940561
                   11         12         13         14         15
    11  H    0.000000
    12  H    1.782614   0.000000
    13  O    2.764777   3.331883   0.000000
    14  H    3.902243   4.600202   1.708865   0.000000
    15  O    2.063093   2.038516   2.740408   3.260474   0.000000
    16  H    2.403227   2.760330   2.135917   2.321161   0.966139
    17  C    2.977217   4.434325   3.061426   4.047275   4.533303
    18  H    2.394991   3.657290   3.099447   4.418291   4.200127
    19  H    3.770062   5.302292   4.146253   5.002844   5.463235
    20  C    3.982976   5.111786   2.877041   3.788789   5.144473
    21  H    4.909036   6.027103   3.946664   4.807704   6.208956
    22  H    3.856238   4.624232   2.473461   3.700426   4.866136
                   16         17         18         19         20
    16  H    0.000000
    17  C    4.251821   0.000000
    18  H    4.135984   1.094511   0.000000
    19  H    5.220661   1.097739   1.771733   0.000000
    20  C    4.680981   1.553549   2.190660   2.191854   0.000000
    21  H    5.772018   2.191501   2.799844   2.343742   1.094976
    22  H    4.463223   2.187673   2.344907   3.013411   1.092140
                   21         22
    21  H    0.000000
    22  H    1.780955   0.000000
 Symmetry turned off by external request.
 Stoichiometry    C4H11O6Si(1-)
 Framework group  C1[X(C4H11O6Si)]
 Deg. of freedom    60
 Full point group                 C1      NOp   1
 Rotational constants (GHZ):           1.4029445           0.7694034           0.6467317
 Standard basis: def2TZVPP (5D, 7F)
   506 basis functions,   766 primitive gaussians,   573 cartesian basis functions
    49 alpha electrons       49 beta electrons
       nuclear repulsion energy       859.0866294811 Hartrees.
 NAtoms=   22 NActive=   22 NUniq=   22 SFac= 1.00D+00 NAtFMM=   60 NAOKFM=F Big=F
 Integral buffers will be    131072 words long.
 Raffenetti 2 integral format.
 Two-electron integral symmetry is turned off.
 Nuclear repulsion after empirical dispersion term =      859.0716984288 Hartrees.
 One-electron integrals computed using PRISM.
   1 Symmetry operations used in ECPInt.
 ECPInt:  NShTT=   18145 NPrTT=   50058 LenC2=   17286 LenP2D=   36986.
 LDataN:  DoStor=T MaxTD1= 6 Len=  172
 NBasis=   506 RedAO= T EigKep=  2.08D-04  NBF=   506
 NBsUse=   506 1.00D-06 EigRej= -1.00D+00 NBFU=   506
 Initial guess from the checkpoint file:  "IRC_EGdepattackQbiL_reverse.chk"
 B after Tr=    -0.000483   -0.000089   -0.000052
         Rot=    1.000000    0.000002   -0.000039    0.000022 Ang=   0.01 deg.
 ExpMin= 7.01D-02 ExpMax= 4.48D+04 ExpMxC= 1.53D+03 IAcc=3 IRadAn=         5 AccDes= 0.00D+00
 Harris functional with IExCor= 4639 and IRadAn=       5 diagonalized for initial guess.
 HarFok:  IExCor= 4639 AccDes= 0.00D+00 IRadAn=         5 IDoV= 1 UseB2=F ITyADJ=14
 ICtDFT=  3500011 ScaDFX=  1.000000  1.000000  1.000000  1.000000
 FoFCou: FMM=F IPFlag=           0 FMFlag=      100000 FMFlg1=           0
         NFxFlg=           0 DoJE=T BraDBF=F KetDBF=T FulRan=T
         wScrn=  0.000000 ICntrl=       500 IOpCl=  0 I1Cent=   200000004 NGrid=           0
         NMat0=    1 NMatS0=      1 NMatT0=    0 NMatD0=    1 NMtDS0=    0 NMtDT0=    0
 Symmetry not used in FoFCou.
 Requested convergence on RMS density matrix=1.00D-08 within 128 cycles.
 Requested convergence on MAX density matrix=1.00D-06.
 Requested convergence on             energy=1.00D-06.
 No special actions if energy rises.
 Integral accuracy reduced to 1.0D-05 until final iterations.
 Initial convergence to 1.0D-05 achieved.  Increase integral accuracy.
 SCF Done:  E(RwB97XD) =  -900.174151348     A.U. after   11 cycles
            NFock= 11  Conv=0.36D-08     -V/T= 2.0036
 DoSCS=F DFT=T ScalE2(SS,OS)=  1.000000  1.000000
 Range of M.O.s used for correlation:     1   506
 NBasis=   506 NAE=    49 NBE=    49 NFC=     0 NFV=     0
 NROrb=    506 NOA=    49 NOB=    49 NVA=   457 NVB=   457

 **** Warning!!: The largest alpha MO coefficient is  0.14152561D+02

 Symmetrizing basis deriv contribution to polar:
 IMax=3 JMax=2 DiffMx= 0.00D+00
   1 Symmetry operations used in ECPInt.
 ECPInt:  NShTT=   18145 NPrTT=   50058 LenC2=   17286 LenP2D=   36986.
 LDataN:  DoStor=T MaxTD1= 7 Len=  274
 Calling FoFJK, ICntrl=      2127 FMM=F ISym2X=0 I1Cent= 0 IOpClX= 0 NMat=1 NMatS=1 NMatT=0.
 -------------------------------------------------------------------
 Center     Atomic                   Forces (Hartrees/Bohr)
 Number     Number              X              Y              Z
 -------------------------------------------------------------------
      1       14           0.001765342    0.000390778    0.000678133
      2        8           0.000242529    0.000087255    0.000130954
      3        8           0.001004429    0.000276707    0.000065115
      4        1           0.000076312    0.000046415   -0.000031685
      5        8          -0.000529754   -0.000726466    0.000448835
      6        8           0.000191661    0.000338774   -0.000062682
      7        6          -0.000837997   -0.000172603   -0.000305991
      8        1          -0.000088651    0.000003453   -0.000027317
      9        1          -0.000068353   -0.000005112    0.000015268
     10        6          -0.000306733   -0.000094984   -0.000073778
     11        1          -0.000005575   -0.000022467   -0.000041153
     12        1          -0.000007799    0.000013612    0.000020146
     13        8          -0.001034351   -0.000457574   -0.000855599
     14        1           0.000033449   -0.000117869    0.000121688
     15        8           0.000019410   -0.000075889    0.000020093
     16        1          -0.000042104   -0.000021834   -0.000004129
     17        6          -0.000204938    0.000252907   -0.000053190
     18        1          -0.000024638    0.000064507   -0.000013002
     19        1          -0.000042771    0.000007384   -0.000007852
     20        6          -0.000125159    0.000175144   -0.000020649
     21        1          -0.000028746    0.000004077   -0.000002872
     22        1           0.000014437    0.000033783   -0.000000332
 -------------------------------------------------------------------
 Cartesian Forces:  Max     0.001765342 RMS     0.000374201
 IRC-IRC-IRC-IRC-IRC-IRC-IRC-IRC-IRC-IRC-IRC-IRC-IRC-IRC-IRC-IRC-IRC-IRC
 Pt  3 Step number   1 out of a maximum of 100
 Modified Bulirsch-Stoer Extrapolation Cycles:
    EPS =    0.000010000000000
      PEZero:  N= 2 I= 1 D=  1.37D-03 Err=  3.62D-02
      PEZero:  N= 3 I= 2 D=  1.37D-03 Err=  5.74D-02
      PEZero:  N= 3 I= 1 D=  2.74D-03 Err=  4.98D-02
      PEZero:  N= 4 I= 3 D=  6.85D-04 Err=  7.48D-02
      PEZero:  N= 4 I= 2 D=  2.05D-03 Err=  4.24D-02
      PEZero:  N= 4 I= 1 D=  3.42D-03 Err=  2.09D-02
      PEZero:  N= 5 I= 4 D=  6.85D-04 Err=  9.27D-05
      PEZero:  N= 5 I= 3 D=  1.37D-03 Err=  7.46D-02
      PEZero:  N= 6 I= 5 D=  3.42D-04 Err=  2.94D-06
      PEZero:  N= 6 I= 4 D=  1.03D-03 Err=  9.35D-05
 Maximum DWI energy   std dev =  0.000000242 at pt    37
 Maximum DWI gradient std dev =  0.057345464 at pt    74
 CORRECTOR INTEGRATION CONVERGENCE:
   Recorrection delta-x convergence threshold:    0.010000
   Delta-x Convergence Met
 Point Number:   3          Path Number:   1
   CHANGE IN THE REACTION COORDINATE =    0.26290
   NET REACTION COORDINATE UP TO THIS POINT =    0.78876
  # OF POINTS ALONG THE PATH =   3
  # OF STEPS =   1

 Calculating another point on the path.
 IRC-IRC-IRC-IRC-IRC-IRC-IRC-IRC-IRC-IRC-IRC-IRC-IRC-IRC-IRC-IRC-IRC-IRC
                          Input orientation:                          
 ---------------------------------------------------------------------
 Center     Atomic      Atomic             Coordinates (Angstroms)
 Number     Number       Type             X           Y           Z
 ---------------------------------------------------------------------
      1         14           0        1.059103    0.559911    0.000404
      2          8           0        1.722704   -0.661167   -0.920089
      3          8           0        2.320963    1.320336    0.790461
      4          1           0        2.701245    0.742570    1.446763
      5          8           0        0.486521    1.898000   -0.734169
      6          8           0        0.484722   -0.425578    1.233738
      7          6           0       -2.108094   -0.740053   -0.781168
      8          1           0       -1.883703   -1.830452   -0.737309
      9          1           0       -2.874796   -0.632796   -1.576767
     10          6           0       -2.776700   -0.364199    0.546747
     11          1           0       -2.142691   -0.689770    1.381664
     12          1           0       -3.757533   -0.842905    0.642250
     13          8           0       -1.016319    0.030816   -1.037022
     14          1           0       -0.313452    1.566727   -1.186993
     15          8           0       -2.965796    1.035323    0.605513
     16          1           0       -2.184974    1.370235    0.145447
     17          6           0        0.572428   -1.778773    0.860456
     18          1           0       -0.405700   -2.261531    0.948525
     19          1           0        1.261303   -2.284519    1.549356
     20          6           0        1.096704   -1.877399   -0.598337
     21          1           0        1.825456   -2.689459   -0.689870
     22          1           0        0.269493   -2.060141   -1.287259
 ---------------------------------------------------------------------
                    Distance matrix (angstroms):
                    1          2          3          4          5
     1  Si   0.000000
     2  O    1.666945   0.000000
     3  O    1.671744   2.685191   0.000000
     4  H    2.195894   2.920618   0.953499   0.000000
     5  O    1.630316   2.848166   2.454255   3.316095   0.000000
     6  O    1.679945   2.495410   2.572254   2.514543   3.044942
     7  C    3.511680   3.834128   5.131448   5.503779   3.700480
     8  H    3.862403   3.795630   5.471815   5.693185   4.418067
     9  H    4.402907   4.644249   6.034435   6.490424   4.291078
    10  C    3.983197   4.741776   5.374311   5.660640   4.172157
    11  H    3.704196   4.498908   4.930949   5.051688   4.252770
    12  H    5.057652   5.701485   6.453657   6.699014   5.236323
    13  O    2.379826   2.827501   4.017462   4.527258   2.415910
    14  H    2.075452   3.029964   3.303207   4.087090   0.977112
    15  O    4.097803   5.214171   5.297665   5.736616   3.802295
    16  H    3.346894   4.531215   4.552142   5.095343   2.861668
    17  C    2.538894   2.396356   3.559038   3.351535   4.008599
    18  H    3.317395   3.253150   4.504380   4.350399   4.574845
    19  H    3.245138   2.991041   3.833247   3.353689   4.827861
    20  C    2.510056   1.405212   3.695007   3.690694   3.826801
    21  H    3.409132   2.043900   4.302948   4.136548   4.779068
    22  H    3.024273   2.050308   4.466886   4.609065   4.002485
                    6          7          8          9         10
     6  O    0.000000
     7  C    3.298702   0.000000
     8  H    3.386462   1.114112   0.000000
     9  H    4.385002   1.110097   1.766731   0.000000
[...]
    20  C    2.404262   3.600710   3.260191   4.555397   4.339733
    21  H    3.263996   4.519518   3.993830   5.420850   5.290128
    22  H    2.964039   2.854144   2.458847   3.678925   3.894011
                   11         12         13         14         15
    11  H    0.000000
    12  H    1.781256   0.000000
    13  O    2.764880   3.338893   0.000000
    14  H    3.357817   4.258060   1.489966   0.000000
    15  O    2.059943   2.034822   2.796705   3.006663   0.000000
    16  H    2.403337   2.768699   2.230388   2.119677   0.963876
    17  C    2.906039   4.464527   3.242530   3.556159   4.522156
    18  H    2.241850   3.614054   3.114571   3.796879   4.093408
    19  H    3.698086   5.286955   4.339429   4.569877   5.449101
    20  C    3.888218   5.174649   2.997209   3.371103   5.140147
    21  H    4.789769   6.037024   4.015020   4.432778   6.184166
    22  H    3.698577   4.661853   2.348900   3.126968   4.768067
                   16         17         18         19         20
    16  H    0.000000
    17  C    4.280275   0.000000
    18  H    4.056588   1.092312   0.000000
    19  H    5.265491   1.097546   1.775627   0.000000
    20  C    4.696945   1.548132   2.182880   2.194886   0.000000
    21  H    5.778771   2.192541   2.792205   2.363207   1.093906
    22  H    4.347943   2.176532   2.337231   3.023821   1.090621
                   21         22
    21  H    0.000000
    22  H    1.794042   0.000000
 Symmetry turned off by external request.
 Stoichiometry    C4H11O6Si(1-)
 Framework group  C1[X(C4H11O6Si)]
 Deg. of freedom    60
 Full point group                 C1      NOp   1
 Rotational constants (GHZ):           1.4468075           0.6926088           0.6017353
 Standard basis: def2TZVPP (5D, 7F)
   506 basis functions,   766 primitive gaussians,   573 cartesian basis functions
    49 alpha electrons       49 beta electrons
       nuclear repulsion energy       844.4769043594 Hartrees.
 NAtoms=   22 NActive=   22 NUniq=   22 SFac= 1.00D+00 NAtFMM=   60 NAOKFM=F Big=F
 Integral buffers will be    131072 words long.
 Raffenetti 2 integral format.
 Two-electron integral symmetry is turned off.
 Nuclear repulsion after empirical dispersion term =      844.4620730556 Hartrees.
 One-electron integrals computed using PRISM.
   1 Symmetry operations used in ECPInt.
 ECPInt:  NShTT=   18145 NPrTT=   50058 LenC2=   17179 LenP2D=   36703.
 LDataN:  DoStor=T MaxTD1= 6 Len=  172
 NBasis=   506 RedAO= T EigKep=  2.07D-04  NBF=   506
 NBsUse=   506 1.00D-06 EigRej= -1.00D+00 NBFU=   506
 Initial guess from the checkpoint file:  "IRC_EGdepattackQbiL_reverse.chk"
 B after Tr=     0.000122   -0.000036   -0.000025
         Rot=    1.000000   -0.000010   -0.000018   -0.000012 Ang=  -0.00 deg.
 ExpMin= 7.01D-02 ExpMax= 4.48D+04 ExpMxC= 1.53D+03 IAcc=3 IRadAn=         5 AccDes= 0.00D+00
 Harris functional with IExCor= 4639 and IRadAn=       5 diagonalized for initial guess.
 HarFok:  IExCor= 4639 AccDes= 0.00D+00 IRadAn=         5 IDoV= 1 UseB2=F ITyADJ=14
 ICtDFT=  3500011 ScaDFX=  1.000000  1.000000  1.000000  1.000000
 FoFCou: FMM=F IPFlag=           0 FMFlag=      100000 FMFlg1=           0
         NFxFlg=           0 DoJE=T BraDBF=F KetDBF=T FulRan=T
         wScrn=  0.000000 ICntrl=       500 IOpCl=  0 I1Cent=   200000004 NGrid=           0
         NMat0=    1 NMatS0=      1 NMatT0=    0 NMatD0=    1 NMtDS0=    0 NMtDT0=    0
 Symmetry not used in FoFCou.
 Requested convergence on RMS density matrix=1.00D-08 within 128 cycles.
 Requested convergence on MAX density matrix=1.00D-06.
 Requested convergence on             energy=1.00D-06.
 No special actions if energy rises.
 Integral accuracy reduced to 1.0D-05 until final iterations.
 Initial convergence to 1.0D-05 achieved.  Increase integral accuracy.
 SCF Done:  E(RwB97XD) =  -900.182763657     A.U. after    9 cycles
            NFock=  9  Conv=0.98D-08     -V/T= 2.0035
 DoSCS=F DFT=T ScalE2(SS,OS)=  1.000000  1.000000
 Range of M.O.s used for correlation:     1   506
 NBasis=   506 NAE=    49 NBE=    49 NFC=     0 NFV=     0
 NROrb=    506 NOA=    49 NOB=    49 NVA=   457 NVB=   457

 **** Warning!!: The largest alpha MO coefficient is  0.12671359D+02

 Symmetrizing basis deriv contribution to polar:
 IMax=3 JMax=2 DiffMx= 0.00D+00
   1 Symmetry operations used in ECPInt.
 ECPInt:  NShTT=   18145 NPrTT=   50058 LenC2=   17179 LenP2D=   36703.
 LDataN:  DoStor=T MaxTD1= 7 Len=  274
 Calling FoFJK, ICntrl=      2127 FMM=F ISym2X=0 I1Cent= 0 IOpClX= 0 NMat=1 NMatS=1 NMatT=0.
 -------------------------------------------------------------------
 Center     Atomic                   Forces (Hartrees/Bohr)
 Number     Number              X              Y              Z
 -------------------------------------------------------------------
      1       14           0.002091671   -0.000274333    0.001466530
      2        8           0.001417292    0.000047569    0.000873849
      3        8           0.003852743   -0.001439403    0.001901435
      4        1          -0.002583067    0.002507468   -0.002640924
      5        8          -0.001626076   -0.001905126    0.001093827
      6        8           0.000874381   -0.000202183    0.000441598
      7        6          -0.001332358    0.000335082   -0.000528678
      8        1          -0.000078795   -0.000026894   -0.000034300
      9        1          -0.000212778    0.000024084   -0.000027835
     10        6           0.000032051    0.000495814   -0.000105746
     11        1           0.000107883    0.000035675    0.000003624
     12        1          -0.000049432   -0.000019814    0.000080996
     13        8          -0.002036716   -0.000216535   -0.002388811
     14        1          -0.000181471   -0.000205888    0.000049854
     15        8          -0.000755167    0.000504769   -0.000021056
     16        1          -0.000036922    0.000054293   -0.000030508
     17        6           0.000456895   -0.000113913    0.000016497
     18        1           0.000005899   -0.000002775    0.000001901
     19        1           0.000033477   -0.000017941   -0.000019001
     20        6           0.000113433    0.000378509   -0.000028932
     21        1          -0.000012359   -0.000061432   -0.000052374
     22        1          -0.000080585    0.000102973   -0.000051946
 -------------------------------------------------------------------
 Cartesian Forces:  Max     0.003852743 RMS     0.001044688
 IRC-IRC-IRC-IRC-IRC-IRC-IRC-IRC-IRC-IRC-IRC-IRC-IRC-IRC-IRC-IRC-IRC-IRC
 Error in corrector energy =          -0.0000411581
 Magnitude of corrector gradient =     0.0059182708
 Magnitude of analytic gradient =      0.0084870882
 Magnitude of difference =             0.0065494101
 Angle between gradients (degrees)=   50.3055
 Pt 23 Step number  99 out of a maximum of 100
 Modified Bulirsch-Stoer Extrapolation Cycles:
    EPS =    0.000010000000000
      PEZero:  N= 2 I= 1 D=  1.37D-03 Err=  7.81D-05
      PEZero:  N= 3 I= 2 D=  1.37D-03 Err=  3.62D-05
      PEZero:  N= 3 I= 1 D=  2.74D-03 Err=  6.16D-05
      PEZero:  N= 4 I= 3 D=  6.85D-04 Err=  2.71D-05
      PEZero:  N= 4 I= 2 D=  2.05D-03 Err=  1.47D-07
      PEZero:  N= 4 I= 1 D=  3.42D-03 Err=  2.18D-05
 Maximum DWI energy   std dev =  0.000005692 at pt    97
 Maximum DWI gradient std dev =  0.622501743 at pt    36
 CORRECTOR INTEGRATION CONVERGENCE:
   Recorrection delta-x convergence threshold:    0.010000
   Delta-x Convergence NOT Met
 IRC-IRC-IRC-IRC-IRC-IRC-IRC-IRC-IRC-IRC-IRC-IRC-IRC-IRC-IRC-IRC-IRC-IRC
                          Input orientation:                          
 ---------------------------------------------------------------------
 Center     Atomic      Atomic             Coordinates (Angstroms)
 Number     Number       Type             X           Y           Z
 ---------------------------------------------------------------------
      1         14           0        1.250119    0.588120    0.087061
      2          8           0        1.829663   -0.647301   -0.858492
      3          8           0        2.511177    1.398362    0.772724
      4          1           0        3.056050    0.834397    1.309505
      5          8           0        0.353207    1.710525   -0.614228
      6          8           0        0.549289   -0.379919    1.241797
      7          6           0       -2.344442   -0.749303   -0.870049
      8          1           0       -2.169629   -1.853372   -0.838354
      9          1           0       -3.205260   -0.616409   -1.565448
     10          6           0       -2.841110   -0.354935    0.525746
     11          1           0       -2.120672   -0.691090    1.283443
     12          1           0       -3.812149   -0.816934    0.737940
     13          8           0       -1.248348   -0.056503   -1.262064
     14          1           0       -0.445769    1.160926   -0.958438
     15          8           0       -3.003447    1.046340    0.615725
     16          1           0       -2.270937    1.391023    0.092526
     17          6           0        0.556202   -1.733289    0.846527
     18          1           0       -0.454547   -2.142667    0.909466
     19          1           0        1.200895   -2.296437    1.533370
     20          6           0        1.082990   -1.822193   -0.606451
     21          1           0        1.734460   -2.691743   -0.734886
     22          1           0        0.245085   -1.867885   -1.303520
 ---------------------------------------------------------------------
                    Distance matrix (angstroms):
                    1          2          3          4          5
     1  Si   0.000000
     2  O    1.660183   0.000000
     3  O    1.648300   2.703713   0.000000
     4  H    2.194632   2.898217   0.950304   0.000000
     5  O    1.598765   2.792657   2.584166   3.431284   0.000000
     6  O    1.661830   2.474280   2.689111   2.786216   2.802363
     7  C    3.952926   4.175366   5.557715   6.035219   3.659714
     8  H    4.302552   4.177241   5.922777   6.256606   4.372219
     9  H    4.902252   5.084406   6.496460   7.040894   4.356849
    10  C    4.221368   4.880339   5.637554   6.066736   3.971062
    11  H    3.798676   4.493879   5.106923   5.396873   3.935606
    12  H    5.293806   5.865783   6.700238   7.087012   5.056343
    13  O    2.911703   3.160074   4.515642   5.092594   2.471247
    14  H    2.072971   2.908137   3.434650   4.184844   1.029030
    15  O    4.310716   5.329229   5.528077   6.102766   3.636077
    16  H    3.611443   4.676978   4.830252   5.492510   2.736370
    17  C    2.539143   2.389175   3.692507   3.613391   3.746314
    18  H    3.322564   3.252600   4.620942   4.620306   4.221516
    19  H    3.227213   2.972541   3.993364   3.646071   4.624554
    20  C    2.513663   1.414714   3.783361   3.823784   3.607318
    21  H    3.415799   2.050386   4.427768   4.284832   4.615450
    22  H    2.995959   2.049088   4.484900   4.693799   3.645797
                    6          7          8          9         10
     6  O    0.000000
     7  C    3.601390   0.000000
     8  H    3.727010   1.118272   0.000000
     9  H    4.693952   1.114562   1.769541   0.000000
    10  C    3.465279   1.533117   2.134705   2.138706   0.000000
    11  H    2.688355   2.165868   2.419776   3.049276   1.098242
    12  H    4.412142   2.178157   2.501355   2.390423   1.096078
    13  O    3.099261   1.354647   2.063256   2.057921   2.412927
    14  H    2.864503   2.694763   3.474493   3.337989   3.199734
    15  O    3.879190   2.422012   3.349317   2.750086   1.413514
    16  H    3.522888   2.347967   3.376818   2.766156   1.887100
    17  C    1.409927   3.511210   3.206774   4.605827   3.680283
    18  H    2.055580   2.946156   2.465780   4.002635   3.006477
    19  H    2.045152   4.554060   4.145095   5.642639   4.595926
    20  C    2.404374   3.601092   3.261024   4.556608   4.339732
    21  H    3.264419   4.519821   3.994431   5.421963   5.290151
    22  H    2.963987   2.853904   2.459153   3.679630   3.893562
                   11         12         13         14         15
    11  H    0.000000
    12  H    1.781714   0.000000
    13  O    2.764643   3.339363   0.000000
    14  H    3.355785   4.257011   1.489448   0.000000
    15  O    2.060049   2.034877   2.796913   3.005468   0.000000
    16  H    2.403343   2.768929   2.230680   2.118658   0.963906
    17  C    2.905638   4.464750   3.242556   3.555041   4.522245
    18  H    2.241184   3.613929   3.114119   3.795111   4.093035
    19  H    3.697623   5.286989   4.339418   4.568803   5.449103
    20  C    3.887743   5.174971   2.997103   3.370459   5.140152
    21  H    4.789395   6.037301   4.014916   4.432429   6.184268
    22  H    3.697841   4.661888   2.348013   3.125708   4.767511
                   16         17         18         19         20
    16  H    0.000000
    17  C    4.280486   0.000000
    18  H    4.056307   1.092321   0.000000
    19  H    5.265645   1.097506   1.775779   0.000000
    20  C    4.697037   1.548081   2.182826   2.194913   0.000000
    21  H    5.778996   2.192667   2.792334   2.363460   1.094086
    22  H    4.347389   2.176606   2.337156   3.024100   1.090907
                   21         22
    21  H    0.000000
    22  H    1.794527   0.000000
 Symmetry turned off by external request.
 Stoichiometry    C4H11O6Si(1-)
 Framework group  C1[X(C4H11O6Si)]
 Deg. of freedom    60
 Full point group                 C1      NOp   1
 Rotational constants (GHZ):           1.4468364           0.6924479           0.6016478
 Standard basis: def2TZVPP (5D, 7F)
   506 basis functions,   766 primitive gaussians,   573 cartesian basis functions
    49 alpha electrons       49 beta electrons
       nuclear repulsion energy       844.4675624139 Hartrees.
 NAtoms=   22 NActive=   22 NUniq=   22 SFac= 1.00D+00 NAtFMM=   60 NAOKFM=F Big=F
 Integral buffers will be    131072 words long.
 Raffenetti 2 integral format.
 Two-electron integral symmetry is turned off.
 Nuclear repulsion after empirical dispersion term =      844.4527298390 Hartrees.
 One-electron integrals computed using PRISM.
   1 Symmetry operations used in ECPInt.
 ECPInt:  NShTT=   18145 NPrTT=   50058 LenC2=   17180 LenP2D=   36705.
 LDataN:  DoStor=T MaxTD1= 6 Len=  172
 NBasis=   506 RedAO= T EigKep=  2.07D-04  NBF=   506
 NBsUse=   506 1.00D-06 EigRej= -1.00D+00 NBFU=   506
 Initial guess from the checkpoint file:  "IRC_EGdepattackQbiL_reverse.chk"
 B after Tr=    -0.000122    0.000036    0.000025
         Rot=    1.000000    0.000010    0.000018    0.000012 Ang=   0.00 deg.
 ExpMin= 7.01D-02 ExpMax= 4.48D+04 ExpMxC= 1.53D+03 IAcc=3 IRadAn=         5 AccDes= 0.00D+00
 Harris functional with IExCor= 4639 and IRadAn=       5 diagonalized for initial guess.
 HarFok:  IExCor= 4639 AccDes= 0.00D+00 IRadAn=         5 IDoV= 1 UseB2=F ITyADJ=14
 ICtDFT=  3500011 ScaDFX=  1.000000  1.000000  1.000000  1.000000
 FoFCou: FMM=F IPFlag=           0 FMFlag=      100000 FMFlg1=           0
         NFxFlg=           0 DoJE=T BraDBF=F KetDBF=T FulRan=T
         wScrn=  0.000000 ICntrl=       500 IOpCl=  0 I1Cent=   200000004 NGrid=           0
         NMat0=    1 NMatS0=      1 NMatT0=    0 NMatD0=    1 NMtDS0=    0 NMtDT0=    0
 Symmetry not used in FoFCou.
 Requested convergence on RMS density matrix=1.00D-08 within 128 cycles.
 Requested convergence on MAX density matrix=1.00D-06.
 Requested convergence on             energy=1.00D-06.
 No special actions if energy rises.
 Integral accuracy reduced to 1.0D-05 until final iterations.
 Initial convergence to 1.0D-05 achieved.  Increase integral accuracy.
 SCF Done:  E(RwB97XD) =  -900.182771032     A.U. after    9 cycles
            NFock=  9  Conv=0.97D-08     -V/T= 2.0035
 DoSCS=F DFT=T ScalE2(SS,OS)=  1.000000  1.000000
 Range of M.O.s used for correlation:     1   506
 NBasis=   506 NAE=    49 NBE=    49 NFC=     0 NFV=     0
 NROrb=    506 NOA=    49 NOB=    49 NVA=   457 NVB=   457

 **** Warning!!: The largest alpha MO coefficient is  0.12774885D+02

 Symmetrizing basis deriv contribution to polar:
 IMax=3 JMax=2 DiffMx= 0.00D+00
   1 Symmetry operations used in ECPInt.
 ECPInt:  NShTT=   18145 NPrTT=   50058 LenC2=   17180 LenP2D=   36705.
 LDataN:  DoStor=T MaxTD1= 7 Len=  274
 Calling FoFJK, ICntrl=      2127 FMM=F ISym2X=0 I1Cent= 0 IOpClX= 0 NMat=1 NMatS=1 NMatT=0.
 -------------------------------------------------------------------
 Center     Atomic                   Forces (Hartrees/Bohr)
 Number     Number              X              Y              Z
 -------------------------------------------------------------------
      1       14           0.001821626    0.000329188    0.001087680
      2        8           0.001416759   -0.000085434    0.000835655
      3        8          -0.001291857    0.002781731   -0.002470632
      4        1           0.002458480   -0.002028738    0.001918439
      5        8          -0.001539739   -0.002341797    0.001240363
      6        8           0.000992417   -0.000246690    0.000516838
      7        6          -0.001522927    0.000273294   -0.000468498
      8        1          -0.000088286    0.000052788   -0.000026147
      9        1           0.000020663    0.000039893    0.000074852
     10        6           0.000012663    0.000381668   -0.000078234
     11        1           0.000006269    0.000061602   -0.000093304
     12        1           0.000110103    0.000028674    0.000035155
     13        8          -0.002110165   -0.000196809   -0.002407263
     14        1          -0.000006384   -0.000103457    0.000004107
     15        8          -0.000720773    0.000528600   -0.000039811
     16        1          -0.000068901    0.000051560   -0.000004886
     17        6           0.000431049   -0.000027821    0.000028489
     18        1           0.000032971   -0.000003860    0.000014962
     19        1           0.000028804   -0.000018420   -0.000013985
     20        6           0.000024758    0.000394859   -0.000175499
     21        1          -0.000069902    0.000053370   -0.000044078
     22        1           0.000062374    0.000075797    0.000065797
 -------------------------------------------------------------------
 Cartesian Forces:  Max     0.002781731 RMS     0.000966854
 IRC-IRC-IRC-IRC-IRC-IRC-IRC-IRC-IRC-IRC-IRC-IRC-IRC-IRC-IRC-IRC-IRC-IRC
 Error in corrector energy =          -0.0000335590
 Magnitude of corrector gradient =     0.0061808268
 Magnitude of analytic gradient =      0.0078547591
 Magnitude of difference =             0.0054586097
 Angle between gradients (degrees)=   43.7812
 Pt 23 Step number 100 out of a maximum of 100
 Modified Bulirsch-Stoer Extrapolation Cycles:
    EPS =    0.000010000000000
      PEZero:  N= 2 I= 1 D=  1.37D-03 Err=  2.25D-04
      PEZero:  N= 3 I= 2 D=  1.37D-03 Err=  1.19D-04
      PEZero:  N= 3 I= 1 D=  2.74D-03 Err=  4.62D-05
      PEZero:  N= 4 I= 3 D=  6.85D-04 Err=  8.90D-05
      PEZero:  N= 4 I= 2 D=  2.05D-03 Err=  3.78D-07
      PEZero:  N= 4 I= 1 D=  3.42D-03 Err=  2.73D-05
 Maximum DWI energy   std dev =  0.000003994 at pt    -1
 Maximum DWI gradient std dev =  0.171887192 at pt    79
 CORRECTOR INTEGRATION CONVERGENCE:
   Recorrection delta-x convergence threshold:    0.010000
   Delta-x Convergence NOT Met
 Maximum number of corrector steps exceded.
 Error termination via Lnk1e in /opt/software/gaussian/g16.c01/l123.exe at Wed Mar 20 02:31:00 2024.
 Job cpu time:       5 days 16 hours 13 minutes 18.7 seconds.
 Elapsed time:       1 days 10 hours 28 minutes 47.1 seconds.
 File lengths (MBytes):  RWF=    436 Int=      0 D2E=      0 Chk=     21 Scr=      1
