 Entering Gaussian System, Link 0=/opt/software/gaussian/g16.c01/g16
 Initial command:
 /opt/software/gaussian/g16.c01/l1.exe "/scratch/arhender/23776152/Gau-133822.inp" -scrdir="/scratch/arhender/23776152/"
 Entering Link 1 = /opt/software/gaussian/g16.c01/l1.exe PID=    133823.
  
 Copyright (c) 1988-2019, Gaussian, Inc.  All Rights Reserved.
  
 This is part of the Gaussian(R) 16 program.  It is based on
 the Gaussian(R) 09 system (copyright 2009, Gaussian, Inc.),
 the Gaussian(R) 03 system (copyright 2003, Gaussian, Inc.),
 the Gaussian(R) 98 system (copyright 1998, Gaussian, Inc.),
 the Gaussian(R) 94 system (copyright 1995, Gaussian, Inc.),
 the Gaussian 92(TM) system (copyright 1992, Gaussian, Inc.),
 the Gaussian 90(TM) system (copyright 1990, Gaussian, Inc.),
 the Gaussian 88(TM) system (copyright 1988, Gaussian, Inc.),
 the Gaussian 86(TM) system (copyright 1986, Carnegie Mellon
 University), and the Gaussian 82(TM) system (copyright 1983,
 Carnegie Mellon University). Gaussian is a federally registered
 trademark of Gaussian, Inc.
  
 This software contains proprietary and confidential information,
 including trade secrets, belonging to Gaussian, Inc.
  
 This software is provided under written license and may be
 used, copied, transmitted, or stored only in accord with that
 written license.
  
 The following legend is applicable only to US Government
 contracts under FAR:
  
                    RESTRICTED RIGHTS LEGEND
  
 Use, reproduction and disclosure by the US Government is
 subject to restrictions as set forth in subparagraphs (a)
 and (c) of the Commercial Computer Software - Restricted
 Rights clause in FAR 52.227-19.
  
 Gaussian, Inc.
 340 Quinnipiac St., Bldg. 40, Wallingford CT 06492
  
  
 ---------------------------------------------------------------
 Warning -- This program may not be used in any manner that
 competes with the business of Gaussian, Inc. or will provide
 assistance to any competitor of Gaussian, Inc.  The licensee
 of this program is prohibited from giving any competitor of
 Gaussian, Inc. access to this program.  By using this program,
 the user acknowledges that Gaussian, Inc. is engaged in the
 business of creating and licensing software in the field of
 computational chemistry and represents and warrants to the
 licensee that it is not a competitor of Gaussian, Inc. and that
 it will not use this program in any manner prohibited above.
 ---------------------------------------------------------------
  

 Cite this work as:
 Gaussian 16, Revision C.01,
 M. J. Frisch, G. W. Trucks, H. B. Schlegel, G. E. Scuseria, 
 M. A. Robb, J. R. Cheeseman, G. Scalmani, V. Barone, 
 G. A. Petersson, H. Nakatsuji, X. Li, M. Caricato, A. V. Marenich, 
 J. Bloino, B. G. Janesko, R. Gomperts, B. Mennucci, H. P. Hratchian, 
 J. V. Ortiz, A. F. Izmaylov, J. L. Sonnenberg, D. Williams-Young, 
 F. Ding, F. Lipparini, F. Egidi, J. Goings, B. Peng, A. Petrone, 
 T. Henderson, D. Ranasinghe, V. G. Zakrzewski, J. Gao, N. Rega, 
 G. Zheng, W. Liang, M. Hada, M. Ehara, K. Toyota, R. Fukuda, 
 J. Hasegawa, M. Ishida, T. Nakajima, Y. Honda, O. Kitao, H. Nakai, 
 T. Vreven, K. Throssell, J. A. Montgomery, Jr., J. E. Peralta, 
 F. Ogliaro, M. J. Bearpark, J. J. Heyd, E. N. Brothers, K. N. Kudin, 
 V. N. Staroverov, T. A. Keith, R. Kobayashi, J. Normand, 
 K. Raghavachari, A. P. Rendell, J. C. Burant, S. S. Iyengar, 
 J. Tomasi, M. Cossi, J. M. Millam, M. Klene, C. Adamo, R. Cammi, 
 J. W. Ochterski, R. L. Martin, K. Morokuma, O. Farkas, 
 J. B. Foresman, and D. J. Fox, Gaussian, Inc., Wallingford CT, 2019.
 
 ******************************************
 Gaussian 16:  ES64L-G16RevC.01  3-Jul-2019
                28-Jan-2024 
 ******************************************
 %chk=IRC_PmonoL1toHbiL1_forward.chk
 %mem=1600MB
 %nprocs=4
 Will use up to    4 processors via shared memory.
 ----------------------------------------------------------------------
 # irc=(forward,calcfc,maxpoints=30) wb97xd/Def2TZVPP geom=connectivity
 ----------------------------------------------------------------------
 1/10=4,18=10,22=1,26=3,38=1,42=30,44=3,57=2,172=1/1,23;
 2/12=2,17=6,18=5,29=1,40=1/2;
 3/5=44,7=202,11=2,25=1,30=1,71=2,74=-58,140=1/1,2,3;
 4//1;
 5/5=2,38=5/2;
 8/6=4,10=90,11=11/1;
 11/6=1,8=1,9=11,15=111,16=1/1,2,10;
 10/6=1,13=1/2;
 6/7=2,8=2,9=2,10=2,28=1/1;
 7/10=1,25=1/1,2,3,16;
 1/10=4,18=10,22=1,26=3,42=30,44=3/23(2);
 2/29=1/2;
 99/5=20/99;
 2/29=1/2;
 3/5=44,7=202,11=2,25=1,30=1,71=2,74=-58,140=1/1,2,3;
 4/5=5,16=3,69=1/1;
 5/5=2,38=5/2;
 8/6=4,10=90,11=11/1;
 11/6=1,8=1,9=11,15=111,16=1/1,2,10;
 10/6=1,13=1/2;
 7/10=1,25=1/1,2,3,16;
 1/18=10,22=1,26=3,42=30,44=3/23(-8);
 2/29=1/2;
 6/7=2,8=2,9=2,10=2,19=2,28=1/1;
 99/5=20,9=1/99;
 ----------------------------------------------
 IRC Forward of possible PL1 collapse to HL1 TS
 ----------------------------------------------
 Symbolic Z-matrix:
 Charge = -2 Multiplicity = 1
 Si                   -0.64801   1.7894    0. 
 O                    -0.9371    1.81203   1.75819 
 O                    -0.83539   1.26367  -1.64401 
 O                     0.49486   3.06154  -0.15873 
 O                    -1.99953   3.01986  -0.21693 
 O                    -2.62937   0.39965   0.237 
 O                     0.48769   0.473     0.27048 
 C                    -3.62075   1.24812  -0.12364 
 H                    -4.6122    1.0298    0.36696 
 H                    -3.83714   1.22785  -1.22501 
 C                    -3.25833   2.70597   0.22353 
 H                    -3.34642   2.82106   1.32713 
 H                    -4.01248   3.38769  -0.22777 
 H                     0.54456   0.45577   1.22437 
 H                    -1.69032   1.21232   1.7983 
 H                    -0.06217   3.83713  -0.21148 
 H                    -1.47001   0.55166  -1.53586 
 
 IRC-IRC-IRC-IRC-IRC-IRC-IRC-IRC-IRC-IRC-IRC-IRC-IRC-IRC-IRC-IRC-IRC-IRC
 ------------------------------------------------------------------------
 INPUT DATA FOR L123
 ------------------------------------------------------------------------
 GENERAL PARAMETERS:
 Rxn path following direction = Forward
 Maximum points per path      =  30
 Step size                    =   0.100 bohr
 Integration scheme           = HPC                                 
    Redo corrector integration= Yes                                 
    DWI Weight Power          =  2
    DWI will use Hessian update vectors when possible.
    Max correction cycles     =  20
 Initial Hessian              = CalcFC
 Hessian evaluation           = All updating
 Hessian updating method      = Bofill                              
 ------------------------------------------------------------------------
 IRC-IRC-IRC-IRC-IRC-IRC-IRC-IRC-IRC-IRC-IRC-IRC-IRC-IRC-IRC-IRC-IRC-IRC
                          Input orientation:                          
 ---------------------------------------------------------------------
 Center     Atomic      Atomic             Coordinates (Angstroms)
 Number     Number       Type             X           Y           Z
 ---------------------------------------------------------------------
      1         14           0       -0.648012    1.789396    0.000000
      2          8           0       -0.937101    1.812026    1.758192
      3          8           0       -0.835390    1.263671   -1.644011
      4          8           0        0.494861    3.061539   -0.158725
      5          8           0       -1.999530    3.019855   -0.216927
      6          8           0       -2.629373    0.399651    0.236999
      7          8           0        0.487690    0.472997    0.270482
      8          6           0       -3.620746    1.248121   -0.123637
      9          1           0       -4.612203    1.029795    0.366956
     10          1           0       -3.837144    1.227853   -1.225012
     11          6           0       -3.258329    2.705973    0.223534
     12          1           0       -3.346417    2.821057    1.327125
     13          1           0       -4.012485    3.387694   -0.227766
     14          1           0        0.544557    0.455772    1.224370
     15          1           0       -1.690317    1.212322    1.798297
     16          1           0       -0.062175    3.837133   -0.211480
     17          1           0       -1.470006    0.551663   -1.535859
 ---------------------------------------------------------------------
                    Distance matrix (angstroms):
                    1          2          3          4          5
     1  Si   0.000000
     2  O    1.781944   0.000000
     3  O    1.736165   3.447611   0.000000
     4  O    1.717469   2.699327   2.684767   0.000000
     5  O    1.840567   2.547293   2.544793   2.495418   0.000000
     6  O    2.431738   2.678174   2.739179   4.123480   2.732804
     7  O    1.759513   2.456890   2.457842   2.623894   3.593093
     8  C    3.024138   3.325841   3.173324   4.497548   2.403349
     9  H    4.052957   4.006719   4.285207   5.521452   3.335764
    10  H    3.462159   4.201311   3.031067   4.823447   2.757595
    11  C    2.775578   2.922741   3.382099   3.789325   1.370074
    12  H    3.179147   2.647407   4.190269   4.125651   2.058573
    13  H    3.731771   3.985567   4.075679   4.519658   2.046316
    14  H    2.167915   2.078389   3.283986   2.950499   3.888989
    15  H    2.157148   0.963633   3.547255   3.467642   2.724686
    16  H    2.140363   2.957391   3.045113   0.956357   2.102693
    17  H    2.136942   3.566970   0.959890   3.472273   2.848148
                    6          7          8          9         10
     6  O    0.000000
     7  O    3.118106   0.000000
     8  C    1.353802   4.199452   0.000000
     9  H    2.084607   5.131105   1.127535   0.000000
    10  H    2.069325   4.637941   1.122616   1.781658   0.000000
    11  C    2.390583   4.361312   1.541819   2.159425   2.148988
    12  H    2.750588   4.618469   2.157335   2.394318   3.048363
    13  H    3.325268   5.384727   2.177631   2.504604   2.385405
    14  H    3.324437   0.955737   4.449122   5.258977   5.078866
    15  H    1.994972   2.761256   2.724274   3.258753   3.708032
    16  H    4.313690   3.442681   4.401605   5.377591   4.699572
    17  H    2.123738   2.664888   2.665541   3.704419   2.481371
                   11         12         13         14         15
    11  C    0.000000
    12  H    1.113066   0.000000
    13  H    1.112280   1.783931   0.000000
    14  H    4.530675   4.554647   5.609946   0.000000
    15  H    2.677598   2.356416   3.772219   2.428255   0.000000
    16  H    3.418210   3.766426   3.975828   3.723358   3.685062
    17  H    3.306753   4.107036   4.027205   3.418556   3.406113
                   16         17
    16  H    0.000000
    17  H    3.811861   0.000000
 Symmetry turned off by external request.
 Stoichiometry    C2H8O6Si(2-)
 Framework group  C1[X(C2H8O6Si)]
 Deg. of freedom    45
 Full point group                 C1      NOp   1
 Rotational constants (GHZ):           2.0550382           1.2380411           1.1484973
 Standard basis: def2TZVPP (5D, 7F)
   402 basis functions,   613 primitive gaussians,   456 cartesian basis functions
    42 alpha electrons       42 beta electrons
       nuclear repulsion energy       659.7009954701 Hartrees.
 NAtoms=   17 NActive=   17 NUniq=   17 SFac= 1.00D+00 NAtFMM=   60 NAOKFM=F Big=F
 Integral buffers will be    131072 words long.
 Raffenetti 2 integral format.
 Two-electron integral symmetry is turned off.
 Nuclear repulsion after empirical dispersion term =      659.6918526123 Hartrees.
 One-electron integrals computed using PRISM.
   1 Symmetry operations used in ECPInt.
 ECPInt:  NShTT=   11325 NPrTT=   31861 LenC2=   10993 LenP2D=   24453.
 LDataN:  DoStor=T MaxTD1= 6 Len=  172
 NBasis=   402 RedAO= T EigKep=  2.83D-04  NBF=   402
 NBsUse=   402 1.00D-06 EigRej= -1.00D+00 NBFU=   402
 ExpMin= 7.01D-02 ExpMax= 4.48D+04 ExpMxC= 1.53D+03 IAcc=3 IRadAn=         5 AccDes= 0.00D+00
 Harris functional with IExCor= 4639 and IRadAn=       5 diagonalized for initial guess.
 HarFok:  IExCor= 4639 AccDes= 0.00D+00 IRadAn=         5 IDoV= 1 UseB2=F ITyADJ=14
 ICtDFT=  3500011 ScaDFX=  1.000000  1.000000  1.000000  1.000000
 FoFCou: FMM=F IPFlag=           0 FMFlag=      100000 FMFlg1=           0
         NFxFlg=           0 DoJE=T BraDBF=F KetDBF=T FulRan=T
         wScrn=  0.000000 ICntrl=       500 IOpCl=  0 I1Cent=   200000004 NGrid=           0
         NMat0=    1 NMatS0=      1 NMatT0=    0 NMatD0=    1 NMtDS0=    0 NMtDT0=    0
 Symmetry not used in FoFCou.
 Requested convergence on RMS density matrix=1.00D-08 within 128 cycles.
 Requested convergence on MAX density matrix=1.00D-06.
 Requested convergence on             energy=1.00D-06.
 No special actions if energy rises.
 Integral accuracy reduced to 1.0D-05 until final iterations.
 Initial convergence to 1.0D-05 achieved.  Increase integral accuracy.
 SCF Done:  E(RwB97XD) =  -822.053320188     A.U. after   16 cycles
            NFock= 16  Conv=0.44D-08     -V/T= 2.0033
 DoSCS=F DFT=T ScalE2(SS,OS)=  1.000000  1.000000
 Range of M.O.s used for correlation:     1   402
 NBasis=   402 NAE=    42 NBE=    42 NFC=     0 NFV=     0
 NROrb=    402 NOA=    42 NOB=    42 NVA=   360 NVB=   360

 **** Warning!!: The largest alpha MO coefficient is  0.11483635D+02

   1 Symmetry operations used in ECPInt.
 ECPInt:  NShTT=   11325 NPrTT=   31861 LenC2=   10993 LenP2D=   24453.
 LDataN:  DoStor=T MaxTD1= 7 Len=  274
 Symmetrizing basis deriv contribution to polar:
 IMax=3 JMax=2 DiffMx= 0.00D+00
 G2DrvN: will do    18 centers at a time, making    1 passes.
 Calling FoFCou, ICntrl=  3107 FMM=F I1Cent=   0 AccDes= 0.00D+00.
 End of G2Drv F.D. properties file   721 does not exist.
 End of G2Drv F.D. properties file   722 does not exist.
 End of G2Drv F.D. properties file   788 does not exist.
          IDoAtm=11111111111111111
          Differentiating once with respect to nuclear coordinates.
 CalDSu exits because no D1Ps are significant.
          There are    54 degrees of freedom in the 1st order CPHF.  IDoFFX=6 NUNeed=     0.
     48 vectors produced by pass  0 Test12= 2.80D-14 1.85D-09 XBig12= 8.38D-02 4.84D-02.
 AX will form    48 AO Fock derivatives at one time.
     48 vectors produced by pass  1 Test12= 2.80D-14 1.85D-09 XBig12= 2.69D-02 2.14D-02.
     48 vectors produced by pass  2 Test12= 2.80D-14 1.85D-09 XBig12= 6.55D-04 3.83D-03.
     48 vectors produced by pass  3 Test12= 2.80D-14 1.85D-09 XBig12= 8.80D-06 3.86D-04.
     48 vectors produced by pass  4 Test12= 2.80D-14 1.85D-09 XBig12= 1.16D-07 4.79D-05.
     48 vectors produced by pass  5 Test12= 2.80D-14 1.85D-09 XBig12= 1.21D-09 3.73D-06.
     48 vectors produced by pass  6 Test12= 2.80D-14 1.85D-09 XBig12= 9.61D-12 3.57D-07.
     28 vectors produced by pass  7 Test12= 2.80D-14 1.85D-09 XBig12= 6.68D-14 2.49D-08.
      3 vectors produced by pass  8 Test12= 2.80D-14 1.85D-09 XBig12= 6.17D-16 2.84D-09.
 InvSVY:  IOpt=1 It=  1 EMax= 2.22D-16
 Solved reduced A of dimension   367 with    54 vectors.
 End of Minotr F.D. properties file   721 does not exist.
 End of Minotr F.D. properties file   722 does not exist.
 End of Minotr F.D. properties file   788 does not exist.

 **********************************************************************

            Population analysis using the SCF Density.

 **********************************************************************

 Alpha  occ. eigenvalues --  -65.96156 -18.88207 -18.87206 -18.86339 -18.86253
 Alpha  occ. eigenvalues --  -18.85768 -18.84299 -10.00653 -10.00199  -5.06805
 Alpha  occ. eigenvalues --   -3.41549  -3.41277  -3.41214  -0.77344  -0.73819
 Alpha  occ. eigenvalues --   -0.72566  -0.71128  -0.70474  -0.69031  -0.47536
 Alpha  occ. eigenvalues --   -0.35445  -0.27932  -0.24665  -0.22820  -0.21718
 Alpha  occ. eigenvalues --   -0.21449  -0.19389  -0.17837  -0.15832  -0.14349
 Alpha  occ. eigenvalues --   -0.11374  -0.09952  -0.08864  -0.08228  -0.05170
 Alpha  occ. eigenvalues --   -0.04664  -0.03136  -0.02759  -0.01224   0.00457
 Alpha  occ. eigenvalues --    0.01983   0.03094
 Alpha virt. eigenvalues --    0.38617   0.41826   0.42128   0.43219   0.45001
 Alpha virt. eigenvalues --    0.46429   0.48898   0.50147   0.51769   0.53765
 Alpha virt. eigenvalues --    0.54768   0.55544   0.55856   0.56771   0.58599
 Alpha virt. eigenvalues --    0.59815   0.67959   0.68580   0.70498   0.71364
 Alpha virt. eigenvalues --    0.72445   0.73034   0.73986   0.74912   0.75456
 Alpha virt. eigenvalues --    0.75839   0.76641   0.77052   0.78902   0.79262
 Alpha virt. eigenvalues --    0.80283   0.81321   0.82980   0.84616   0.85133
 Alpha virt. eigenvalues --    0.85357   0.86357   0.87894   0.89682   0.90550
 Alpha virt. eigenvalues --    0.91930   0.92470   0.94563   0.95685   0.96689
 Alpha virt. eigenvalues --    0.98080   0.99886   1.01205   1.02162   1.04761
 Alpha virt. eigenvalues --    1.06838   1.07177   1.08643   1.09816   1.10780
 Alpha virt. eigenvalues --    1.12102   1.13835   1.15292   1.16365   1.17973
 Alpha virt. eigenvalues --    1.18435   1.19659   1.21824   1.22827   1.24699
 Alpha virt. eigenvalues --    1.26829   1.28851   1.30360   1.30789   1.31383
 Alpha virt. eigenvalues --    1.33283   1.35144   1.37942   1.39157   1.40453
 Alpha virt. eigenvalues --    1.43240   1.43916   1.46088   1.46326   1.47952
 Alpha virt. eigenvalues --    1.49584   1.51603   1.52542   1.53197   1.55694
 Alpha virt. eigenvalues --    1.56869   1.58403   1.60008   1.62753   1.63212
 Alpha virt. eigenvalues --    1.66813   1.67760   1.70582   1.70805   1.72548
 Alpha virt. eigenvalues --    1.73565   1.74700   1.75910   1.76507   1.77415
 Alpha virt. eigenvalues --    1.80196   1.81247   1.83104   1.87180   1.87643
 Alpha virt. eigenvalues --    1.91089   1.91847   1.93106   1.96786   1.99212
 Alpha virt. eigenvalues --    2.03728   2.06906   2.09019   2.10991   2.16952
 Alpha virt. eigenvalues --    2.20145   2.20534   2.24855   2.26171   2.29979
 Alpha virt. eigenvalues --    2.31820   2.32871   2.34257   2.36581   2.37779
 Alpha virt. eigenvalues --    2.38210   2.40225   2.41426   2.43606   2.44014
 Alpha virt. eigenvalues --    2.44883   2.46311   2.48988   2.51284   2.52007
 Alpha virt. eigenvalues --    2.52804   2.54942   2.55960   2.58609   2.63650
 Alpha virt. eigenvalues --    2.65313   2.68806   2.69354   2.70581   2.73236
 Alpha virt. eigenvalues --    2.77816   2.79268   2.80087   2.83415   2.85932
 Alpha virt. eigenvalues --    2.91341   2.93717   2.96759   3.01322   3.02040
 Alpha virt. eigenvalues --    3.04189   3.05770   3.08207   3.11877   3.15853
 Alpha virt. eigenvalues --    3.18366   3.21590   3.21924   3.22715   3.25693
 Alpha virt. eigenvalues --    3.29619   3.31707   3.33259   3.34082   3.37620
 Alpha virt. eigenvalues --    3.38997   3.39790   3.42685   3.44709   3.46635
 Alpha virt. eigenvalues --    3.47695   3.49787   3.51105   3.52188   3.53585
 Alpha virt. eigenvalues --    3.54784   3.59514   3.61135   3.62827   3.65531
 Alpha virt. eigenvalues --    3.66969   3.68437   3.72256   3.72697   3.73356
 Alpha virt. eigenvalues --    3.75918   3.78600   3.80310   3.80555   3.82948
 Alpha virt. eigenvalues --    3.84207   3.85195   3.85965   3.88674   3.91446
 Alpha virt. eigenvalues --    3.92301   3.94001   3.95240   3.98769   3.99339
 Alpha virt. eigenvalues --    4.01539   4.03241   4.06345   4.08276   4.10893
 Alpha virt. eigenvalues --    4.12080   4.12626   4.14637   4.16991   4.19763
 Alpha virt. eigenvalues --    4.23265   4.24245   4.26742   4.27679   4.34640
 Alpha virt. eigenvalues --    4.35932   4.38052   4.38509   4.39183   4.40906
 Alpha virt. eigenvalues --    4.42091   4.44758   4.45829   4.48275   4.48433
 Alpha virt. eigenvalues --    4.51615   4.52736   4.55671   4.56576   4.59467
 Alpha virt. eigenvalues --    4.60307   4.64594   4.65375   4.66266   4.67954
 Alpha virt. eigenvalues --    4.69193   4.70344   4.71291   4.72342   4.75564
 Alpha virt. eigenvalues --    4.78281   4.79973   4.84444   4.86584   4.95081
 Alpha virt. eigenvalues --    4.97314   5.00711   5.01480   5.03189   5.08141
 Alpha virt. eigenvalues --    5.10017   5.18247   5.21041   5.23593   5.28604
 Alpha virt. eigenvalues --    5.30818   5.33940   5.34960   5.36345   5.37762
 Alpha virt. eigenvalues --    5.40186   5.42375   5.45117   5.47686   5.54245
 Alpha virt. eigenvalues --    5.55255   5.62587   5.63793   5.66240   5.69122
 Alpha virt. eigenvalues --    5.71295   5.72559   5.75291   5.76716   5.78043
 Alpha virt. eigenvalues --    5.78921   5.82482   5.83461   5.85317   5.87183
 Alpha virt. eigenvalues --    5.91006   5.91688   5.92904   5.93857   5.96567
 Alpha virt. eigenvalues --    5.98747   5.99826   6.00998   6.02590   6.03377
 Alpha virt. eigenvalues --    6.09172   6.12170   6.13658   6.25614   6.40181
 Alpha virt. eigenvalues --    6.44519   6.51658   6.55846   6.59509   6.65333
 Alpha virt. eigenvalues --    6.67555   6.85563   6.87799   6.90870   6.92377
 Alpha virt. eigenvalues --    6.93920   6.95260   6.96630   6.98037   6.99982
 Alpha virt. eigenvalues --    7.02509   7.03344   7.05863   7.07235   7.07846
 Alpha virt. eigenvalues --    7.09129   7.11461   7.12807   7.14522   7.15758
 Alpha virt. eigenvalues --    7.15996   7.18464   7.19634   7.23419   7.24787
 Alpha virt. eigenvalues --    7.26436   7.30902   7.32463   7.35899   7.42661
 Alpha virt. eigenvalues --    7.46887   7.48178   7.52086   7.54257   7.59811
 Alpha virt. eigenvalues --    7.62995   7.64434   7.67100   7.80749   7.81811
 Alpha virt. eigenvalues --    7.82855   7.88366   7.95104   8.01342   8.03725
 Alpha virt. eigenvalues --    8.12723  12.10895  23.73075  23.84253  44.20103
 Alpha virt. eigenvalues --   44.22386  44.32694  44.38753  44.53920  44.69490
          Condensed to atoms (all electrons):
               1          2          3          4          5          6
     1  Si  11.524311   0.291046   0.349085   0.423532   0.246847   0.105013
     2  O    0.291046   8.199142   0.003308  -0.039539  -0.062141  -0.056357
     3  O    0.349085   0.003308   8.087385  -0.043993  -0.053415  -0.047073
     4  O    0.423532  -0.039539  -0.043993   8.030833  -0.075274   0.000383
     5  O    0.246847  -0.062141  -0.053415  -0.075274   8.275307   0.000596
     6  O    0.105013  -0.056357  -0.047073   0.000383   0.000596   8.541035
     7  O    0.413695  -0.099839  -0.088882  -0.060891   0.004218  -0.013927
     8  C   -0.045671   0.004231   0.029164  -0.002870  -0.137412   0.393097
     9  H    0.006838  -0.000464  -0.000871   0.000028   0.010093  -0.040821
    10  H    0.004593  -0.001613   0.011642  -0.000061   0.020887  -0.084969
    11  C   -0.064479   0.018714  -0.010301   0.001422   0.374720  -0.189821
    12  H    0.004795   0.017486  -0.001015   0.000584  -0.076706   0.017359
    13  H    0.003541   0.000053  -0.000686  -0.000306  -0.037851   0.015091
    14  H   -0.063187   0.030360   0.006347   0.002244   0.000465   0.002243
    15  H   -0.050881   0.297921  -0.000979   0.001420   0.010387   0.054559
    16  H   -0.050535   0.002809   0.002640   0.295168   0.020165  -0.000392
    17  H   -0.047809  -0.001391   0.305570   0.002212   0.004912   0.032295
               7          8          9         10         11         12
     1  Si   0.413695  -0.045671   0.006838   0.004593  -0.064479   0.004795
     2  O   -0.099839   0.004231  -0.000464  -0.001613   0.018714   0.017486
     3  O   -0.088882   0.029164  -0.000871   0.011642  -0.010301  -0.001015
     4  O   -0.060891  -0.002870   0.000028  -0.000061   0.001422   0.000584
     5  O    0.004218  -0.137412   0.010093   0.020887   0.374720  -0.076706
     6  O   -0.013927   0.393097  -0.040821  -0.084969  -0.189821   0.017359
     7  O    8.098964   0.000552  -0.000104   0.000189  -0.002863   0.000392
     8  C    0.000552   4.954064   0.174223   0.347183   0.248971  -0.122461
     9  H   -0.000104   0.174223   1.118205  -0.129268  -0.036885  -0.006583
    10  H    0.000189   0.347183  -0.129268   1.073742  -0.171851   0.031971
    11  C   -0.002863   0.248971  -0.036885  -0.171851   5.151971   0.332836
    12  H    0.000392  -0.122461  -0.006583   0.031971   0.332836   0.946432
    13  H    0.000024  -0.005163   0.022002  -0.006588   0.217602  -0.093791
    14  H    0.293896  -0.000040   0.000005   0.000050  -0.000792  -0.000065
    15  H    0.005794   0.003107  -0.004556   0.006025  -0.030726   0.011110
    16  H    0.003363   0.001744  -0.000083  -0.000174   0.002874  -0.000862
    17  H    0.001630  -0.005446   0.001664  -0.015652   0.010860  -0.000470
              13         14         15         16         17
     1  Si   0.003541  -0.063187  -0.050881  -0.050535  -0.047809
     2  O    0.000053   0.030360   0.297921   0.002809  -0.001391
     3  O   -0.000686   0.006347  -0.000979   0.002640   0.305570
     4  O   -0.000306   0.002244   0.001420   0.295168   0.002212
     5  O   -0.037851   0.000465   0.010387   0.020165   0.004912
     6  O    0.015091   0.002243   0.054559  -0.000392   0.032295
     7  O    0.000024   0.293896   0.005794   0.003363   0.001630
     8  C   -0.005163  -0.000040   0.003107   0.001744  -0.005446
     9  H    0.022002   0.000005  -0.004556  -0.000083   0.001664
    10  H   -0.006588   0.000050   0.006025  -0.000174  -0.015652
    11  C    0.217602  -0.000792  -0.030726   0.002874   0.010860
    12  H   -0.093791  -0.000065   0.011110  -0.000862  -0.000470
    13  H    0.956645  -0.000004   0.000936  -0.001082  -0.000397
    14  H   -0.000004   0.614501   0.002730  -0.000901  -0.000922
    15  H    0.000936   0.002730   0.538256  -0.000748  -0.002051
    16  H   -0.001082  -0.000901  -0.000748   0.597505  -0.000362
    17  H   -0.000397  -0.000922  -0.002051  -0.000362   0.547308
 Mulliken charges:
               1
     1  Si   0.949266
     2  O   -0.603727
     3  O   -0.547925
     4  O   -0.534892
     5  O   -0.525798
     6  O   -0.728311
     7  O   -0.556211
     8  C    0.162727
     9  H   -0.113422
    10  H   -0.086105
    11  C    0.147746
    12  H   -0.061010
    13  H   -0.070026
    14  H    0.113071
    15  H    0.157696
    16  H    0.128870
    17  H    0.168050
 Sum of Mulliken charges =  -2.00000
 Mulliken charges with hydrogens summed into heavy atoms:
               1
     1  Si   0.949266
     2  O   -0.446030
     3  O   -0.379875
     4  O   -0.406021
     5  O   -0.525798
     6  O   -0.728311
     7  O   -0.443140
     8  C   -0.036800
    11  C    0.016710
 APT charges:
               1
     1  Si   0.099510
     2  O   -0.487048
     3  O   -0.473385
     4  O   -0.791498
     5  O   -0.329453
     6  O   -0.666807
     7  O   -0.758255
     8  C   -0.382033
     9  H    0.203008
    10  H    0.123668
    11  C   -0.709134
    12  H    0.229117
    13  H    0.479106
    14  H    0.324195
    15  H    0.245509
    16  H    0.608171
    17  H    0.285328
 Sum of APT charges =  -2.00000
 APT charges with hydrogens summed into heavy atoms:
               1
     1  Si   0.099510
     2  O   -0.241539
     3  O   -0.188056
     4  O   -0.183327
     5  O   -0.329453
     6  O   -0.666807
     7  O   -0.434059
     8  C   -0.055357
    11  C   -0.000911
 Electronic spatial extent (au):  <R**2>=           2739.7756
 Charge=             -2.0000 electrons
 Dipole moment (field-independent basis, Debye):
    X=             10.7769    Y=            -15.3013    Z=              0.4800  Tot=             18.7217
 Quadrupole moment (field-independent basis, Debye-Ang):
   XX=           -107.6606   YY=           -104.5250   ZZ=            -79.8144
   XY=             15.6032   XZ=              1.7958   YZ=             -0.4504
 Traceless Quadrupole moment (field-independent basis, Debye-Ang):
   XX=            -10.3273   YY=             -7.1917   ZZ=             17.5189
   XY=             15.6032   XZ=              1.7958   YZ=             -0.4504
 Octapole moment (field-independent basis, Debye-Ang**2):
  XXX=            424.6178  YYY=           -447.2687  ZZZ=             -8.9381  XYY=            140.5885
  XXY=           -177.7545  XXZ=             -4.7549  XZZ=            109.3871  YZZ=           -145.9515
  YYZ=             -8.1002  XYZ=              0.2531
 Hexadecapole moment (field-independent basis, Debye-Ang**3):
 XXXX=          -2324.0759 YYYY=          -1897.4443 ZZZZ=           -408.0455 XXXY=            700.5780
 XXXZ=             21.1050 YYYX=            647.0785 YYYZ=            -35.0781 ZZZX=             15.1786
 ZZZY=            -31.5203 XXYY=           -749.5886 XXZZ=           -372.3692 YYZZ=           -392.3041
 XXYZ=             -3.3862 YYXZ=              9.9619 ZZXY=            199.9994
 N-N= 6.596918526123D+02 E-N=-3.297104594669D+03  KE= 8.193378705053D+02
  Exact polarizability:       0.000       0.000       0.000       0.000       0.000       0.000
 Approx polarizability:      94.573      -1.617      83.422       0.118      -1.252      85.775
   1 Symmetry operations used in ECPInt.
 ECPInt:  NShTT=   11325 NPrTT=   31861 LenC2=   10993 LenP2D=   24453.
 LDataN:  DoStor=T MaxTD1= 8 Len=  415
 Calling FoFJK, ICntrl=    100127 FMM=F ISym2X=0 I1Cent= 0 IOpClX= 0 NMat=1 NMatS=1 NMatT=0.
 -------------------------------------------------------------------
 Center     Atomic                   Forces (Hartrees/Bohr)
 Number     Number              X              Y              Z
 -------------------------------------------------------------------
      1       14           0.000000105    0.000001016   -0.000000834
      2        8          -0.000001035    0.000001310   -0.000002471
      3        8           0.000000148   -0.000000143    0.000000568
      4        8          -0.000000924    0.000000818   -0.000002121
      5        8           0.000000330   -0.000002378   -0.000001178
      6        8          -0.000002133   -0.000000900    0.000001110
      7        8           0.000001219    0.000000631    0.000001319
      8        6          -0.000000396   -0.000000677    0.000001511
      9        1           0.000000338   -0.000000415    0.000001991
     10        1          -0.000000099   -0.000002468    0.000001300
     11        6          -0.000001040    0.000000439   -0.000000839
     12        1          -0.000000481    0.000001019   -0.000001343
     13        1          -0.000000762   -0.000001296   -0.000001342
     14        1           0.000000762    0.000002323    0.000001365
     15        1           0.000004918    0.000004356    0.000003774
     16        1          -0.000000700   -0.000000233   -0.000003294
     17        1          -0.000000251   -0.000003402    0.000000486
 -------------------------------------------------------------------
 Cartesian Forces:  Max     0.000004918 RMS     0.000001697
 IRC-IRC-IRC-IRC-IRC-IRC-IRC-IRC-IRC-IRC-IRC-IRC-IRC-IRC-IRC-IRC-IRC-IRC
          ******** Start new reaction path calculation ********
 Supplied step size of   0.1000 bohr.
    Integration on MW PES will use step size of   0.2813 sqrt(amu)*bohr.
 Point Number:   0          Path Number:   1
 Calculating another point on the path.
 IRC-IRC-IRC-IRC-IRC-IRC-IRC-IRC-IRC-IRC-IRC-IRC-IRC-IRC-IRC-IRC-IRC-IRC
                          Input orientation:                          
 ---------------------------------------------------------------------
 Center     Atomic      Atomic             Coordinates (Angstroms)
 Number     Number       Type             X           Y           Z
 ---------------------------------------------------------------------
      1         14           0        0.680908    0.046816   -0.042880
      2          8           0        0.379276    0.056402    1.709997
      3          8           0        0.482630   -0.489365   -1.680154
      4          8           0        1.818186    1.321027   -0.202350
      5          8           0       -0.675883    1.270680   -0.260442
      6          8           0       -1.330741   -1.357468    0.196390
      7          8           0        1.820330   -1.266591    0.227324
      8          6           0       -2.309004   -0.496238   -0.167083
      9          1           0       -3.306494   -0.701383    0.319133
     10          1           0       -2.522427   -0.512897   -1.269488
     11          6           0       -1.935371    0.958959    0.181512
     12          1           0       -2.021022    1.072478    1.285272
     13          1           0       -2.687269    1.644921   -0.267216
     14          1           0        1.874202   -1.287628    1.181287
     15          1           0       -0.375508   -0.543156    1.739813
     16          1           0        1.258353    2.094410   -0.259710
     17          1           0       -0.162971   -1.191002   -1.563991
 ---------------------------------------------------------------------
                    Distance matrix (angstroms):
                    1          2          3          4          5
     1  Si   0.000000
     2  O    1.778666   0.000000
     3  O    1.734206   3.435356   0.000000
     4  O    1.715356   2.706808   2.691679   0.000000
     5  O    1.840124   2.543710   2.540767   2.495253   0.000000
     6  O    2.464953   2.685925   2.750152   4.153200   2.746761
     7  O    1.759639   2.454642   2.456011   2.623050   3.592595
     8  C    3.041366   3.325010   3.175320   4.509700   2.407862
     9  H    4.073111   4.011688   4.289472   5.533935   3.338421
    10  H    3.475515   4.197775   3.033080   4.831458   2.758450
    11  C    2.779797   2.916928   3.377894   3.790465   1.370694
    12  H    3.180628   2.640877   4.183466   4.124841   2.058619
    13  H    3.734820   3.979505   4.074289   4.517547   2.045916
    14  H    2.168704   2.078642   3.280479   2.953417   3.889274
    15  H    2.154548   0.964395   3.526396   3.472675   2.716845
    16  H    2.138480   2.967491   3.048820   0.956464   2.102332
    17  H    2.134972   3.545285   0.960515   3.476973   2.832349
                    6          7          8          9         10
     6  O    0.000000
     7  O    3.152532   0.000000
     8  C    1.353081   4.219052   0.000000
     9  H    2.085453   5.158703   1.128485   0.000000
    10  H    2.069352   4.654894   1.122998   1.781574   0.000000
    11  C    2.394082   4.365828   1.542309   2.157696   2.148580
    12  H    2.750780   4.620225   2.157113   2.394253   3.048216
    13  H    3.327076   5.388869   2.176619   2.496475   2.384931
    14  H    3.353589   0.955715   4.465827   5.284563   5.092824
    15  H    1.989404   2.762731   2.716038   3.260989   3.696765
    16  H    4.338997   3.442288   4.409770   5.384175   4.702339
    17  H    2.119042   2.673575   2.653207   3.696975   2.472569
                   11         12         13         14         15
    11  C    0.000000
    12  H    1.112884   0.000000
    13  H    1.112318   1.783759   0.000000
    14  H    4.534264   4.555621   5.612933   0.000000
    15  H    2.667925   2.350447   3.762989   2.434622   0.000000
    16  H    3.418157   3.766379   3.971149   3.727456   3.691118
    17  H    3.287935   4.085829   4.012002   3.419936   3.373425
                   16         17
    16  H    0.000000
    17  H    3.809887   0.000000
 Symmetry turned off by external request.
 Stoichiometry    C2H8O6Si(2-)
 Framework group  C1[X(C2H8O6Si)]
 Deg. of freedom    45
 Full point group                 C1      NOp   1
 Rotational constants (GHZ):           2.0583100           1.2327454           1.1411768
 Standard basis: def2TZVPP (5D, 7F)
   402 basis functions,   613 primitive gaussians,   456 cartesian basis functions
    42 alpha electrons       42 beta electrons
       nuclear repulsion energy       659.0541390361 Hartrees.
 NAtoms=   17 NActive=   17 NUniq=   17 SFac= 1.00D+00 NAtFMM=   60 NAOKFM=F Big=F
 Integral buffers will be    131072 words long.
 Raffenetti 2 integral format.
 Two-electron integral symmetry is turned off.
 Nuclear repulsion after empirical dispersion term =      659.0449921290 Hartrees.
 One-electron integrals computed using PRISM.
   1 Symmetry operations used in ECPInt.
 ECPInt:  NShTT=   11325 NPrTT=   31861 LenC2=   10992 LenP2D=   24455.
 LDataN:  DoStor=T MaxTD1= 6 Len=  172
 NBasis=   402 RedAO= T EigKep=  2.83D-04  NBF=   402
 NBsUse=   402 1.00D-06 EigRej= -1.00D+00 NBFU=   402
 Initial guess from the checkpoint file:  "IRC_PmonoL1toHbiL1_forward.chk"
 B after Tr=     2.494189   -3.301810   -0.081134
         Rot=    1.000000   -0.000028   -0.000026    0.000097 Ang=  -0.01 deg.
 ExpMin= 7.01D-02 ExpMax= 4.48D+04 ExpMxC= 1.53D+03 IAcc=3 IRadAn=         5 AccDes= 0.00D+00
 Harris functional with IExCor= 4639 and IRadAn=       5 diagonalized for initial guess.
 HarFok:  IExCor= 4639 AccDes= 0.00D+00 IRadAn=         5 IDoV= 1 UseB2=F ITyADJ=14
 ICtDFT=  3500011 ScaDFX=  1.000000  1.000000  1.000000  1.000000
 FoFCou: FMM=F IPFlag=           0 FMFlag=      100000 FMFlg1=           0
         NFxFlg=           0 DoJE=T BraDBF=F KetDBF=T FulRan=T
         wScrn=  0.000000 ICntrl=       500 IOpCl=  0 I1Cent=   200000004 NGrid=           0
         NMat0=    1 NMatS0=      1 NMatT0=    0 NMatD0=    1 NMtDS0=    0 NMtDT0=    0
 Symmetry not used in FoFCou.
 Requested convergence on RMS density matrix=1.00D-08 within 128 cycles.
 Requested convergence on MAX density matrix=1.00D-06.
 Requested convergence on             energy=1.00D-06.
 No special actions if energy rises.
 Integral accuracy reduced to 1.0D-05 until final iterations.
 Initial convergence to 1.0D-05 achieved.  Increase integral accuracy.
 SCF Done:  E(RwB97XD) =  -822.053348084     A.U. after   12 cycles
            NFock= 12  Conv=0.86D-08     -V/T= 2.0033
 DoSCS=F DFT=T ScalE2(SS,OS)=  1.000000  1.000000
 Range of M.O.s used for correlation:     1   402
 NBasis=   402 NAE=    42 NBE=    42 NFC=     0 NFV=     0
 NROrb=    402 NOA=    42 NOB=    42 NVA=   360 NVB=   360

 **** Warning!!: The largest alpha MO coefficient is  0.11314335D+02

 Symmetrizing basis deriv contribution to polar:
 IMax=3 JMax=2 DiffMx= 0.00D+00
   1 Symmetry operations used in ECPInt.
 ECPInt:  NShTT=   11325 NPrTT=   31861 LenC2=   10992 LenP2D=   24455.
 LDataN:  DoStor=T MaxTD1= 7 Len=  274
 Calling FoFJK, ICntrl=      2127 FMM=F ISym2X=0 I1Cent= 0 IOpClX= 0 NMat=1 NMatS=1 NMatT=0.
 -------------------------------------------------------------------
 Center     Atomic                   Forces (Hartrees/Bohr)
 Number     Number              X              Y              Z
 -------------------------------------------------------------------
      1       14           0.000248928    0.000109986   -0.000007660
      2        8          -0.000117131   -0.000220834   -0.000129792
      3        8          -0.000140497   -0.000232379    0.000171762
      4        8           0.000060223    0.000168322   -0.000023916
      5        8           0.000074302   -0.000016541   -0.000028305
      6        8          -0.000513259   -0.000138894    0.000029595
      7        8           0.000295824    0.000182306    0.000010187
      8        6          -0.000146978    0.000019932    0.000010713
      9        1           0.000038895    0.000028975   -0.000021954
     10        1           0.000003483   -0.000001202    0.000014191
     11        6           0.000043073   -0.000017802    0.000014387
     12        1           0.000007219   -0.000002579   -0.000004342
     13        1           0.000011129   -0.000003669    0.000005039
     14        1           0.000014611    0.000008384   -0.000011588
     15        1           0.000022796    0.000018626   -0.000015795
     16        1           0.000009720   -0.000008930   -0.000008529
     17        1           0.000087663    0.000106298   -0.000003993
 -------------------------------------------------------------------
 Cartesian Forces:  Max     0.000513259 RMS     0.000121174
 IRC-IRC-IRC-IRC-IRC-IRC-IRC-IRC-IRC-IRC-IRC-IRC-IRC-IRC-IRC-IRC-IRC-IRC
 Pt  1 Step number   1 out of a maximum of  20
 Modified Bulirsch-Stoer Extrapolation Cycles:
    EPS =    0.000010000000000
      PEZero:  N= 2 I= 1 D=  7.32D-04 Err=  9.52D-03
      PEZero:  N= 3 I= 2 D=  7.32D-04 Err=  1.43D-02
      PEZero:  N= 3 I= 1 D=  1.46D-03 Err=  1.19D-02
      PEZero:  N= 4 I= 3 D=  3.66D-04 Err=  2.36D-02
      PEZero:  N= 4 I= 2 D=  1.10D-03 Err=  1.72D-02
      PEZero:  N= 4 I= 1 D=  1.83D-03 Err=  1.35D-02
      PEZero:  N= 5 I= 4 D=  3.66D-04 Err=  3.53D-02
      PEZero:  N= 5 I= 3 D=  7.32D-04 Err=  2.93D-02
      PEZero:  N= 5 I= 2 D=  1.46D-03 Err=  2.07D-02
      PEZero:  N= 5 I= 1 D=  2.20D-03 Err=  1.62D-02
      PEZero:  N= 6 I= 5 D=  1.83D-04 Err=  5.89D-02
      PEZero:  N= 6 I= 4 D=  5.49D-04 Err=  4.32D-02
      PEZero:  N= 6 I= 3 D=  9.16D-04 Err=  3.42D-02
      PEZero:  N= 6 I= 2 D=  1.65D-03 Err=  2.35D-02
      PEZero:  N= 6 I= 1 D=  2.38D-03 Err=  1.80D-02
      PEZero:  N= 7 I= 6 D=  1.83D-04 Err=  2.64D-02
      PEZero:  N= 7 I= 5 D=  3.66D-04 Err=  1.93D-02
      PEZero:  N= 7 I= 4 D=  7.32D-04 Err=  4.09D-02
      PEZero:  N= 8 I= 7 D=  9.16D-05 Err=  4.37D-04
      PEZero:  N= 8 I= 6 D=  2.75D-04 Err=  2.58D-02
      PEZero:  N= 9 I= 8 D=  9.16D-05 Err=  1.17D-04
      PEZero:  N= 9 I= 7 D=  1.83D-04 Err=  2.62D-04
      PEZero:  N=10 I= 9 D=  4.58D-05 Err=  8.27D-05
      PEZero:  N=10 I= 8 D=  1.37D-04 Err=  6.79D-06
      PEZero:  N=10 I= 7 D=  2.29D-04 Err=  1.16D-02
 Maximum DWI energy   std dev =  0.000000157 at pt     2
 Maximum DWI gradient std dev =  0.409571696 at pt     5
 CORRECTOR INTEGRATION CONVERGENCE:
   Recorrection delta-x convergence threshold:    0.010000
   Delta-x Convergence Met
 Point Number:   1          Path Number:   1
   CHANGE IN THE REACTION COORDINATE =    0.28116
   NET REACTION COORDINATE UP TO THIS POINT =    0.28116
  # OF POINTS ALONG THE PATH =   1
  # OF STEPS =   1

 Calculating another point on the path.
 IRC-IRC-IRC-IRC-IRC-IRC-IRC-IRC-IRC-IRC-IRC-IRC-IRC-IRC-IRC-IRC-IRC-IRC
                          Input orientation:                          
 ---------------------------------------------------------------------
 Center     Atomic      Atomic             Coordinates (Angstroms)
 Number     Number       Type             X           Y           Z
 ---------------------------------------------------------------------
      1         14           0        0.689080    0.051015   -0.042992
      2          8           0        0.375071    0.047636    1.704469
      3          8           0        0.480354   -0.495881   -1.673419
      4          8           0        1.820677    1.327653   -0.203444
      5          8           0       -0.672647    1.268842   -0.261577
      6          8           0       -1.352088   -1.366805    0.198741
      7          8           0        1.833608   -1.258353    0.227100
      8          6           0       -2.317429   -0.493313   -0.167740
      9          1           0       -3.320503   -0.685419    0.314357
     10          1           0       -2.527878   -0.506924   -1.271095
     11          6           0       -1.932814    0.959291    0.181850
     12          1           0       -2.016132    1.071547    1.285733
     13          1           0       -2.682518    1.649220   -0.264557
     14          1           0        1.884746   -1.282731    1.181109
     15          1           0       -0.381455   -0.551367    1.724280
     16          1           0        1.257884    2.098629   -0.265908
     17          1           0       -0.175003   -1.187873   -1.549708
 ---------------------------------------------------------------------
                    Distance matrix (angstroms):
                    1          2          3          4          5
     1  Si   0.000000
     2  O    1.775453   0.000000
     3  O    1.732326   3.422956   0.000000
     4  O    1.713494   2.714471   2.698624   0.000000
     5  O    1.839886   2.540550   2.537116   2.494695   0.000000
     6  O    2.497002   2.692757   2.760677   4.181902   2.760465
     7  O    1.759926   2.452663   2.454513   2.621634   3.592608
     8  C    3.057933   3.323755   3.177211   4.521185   2.412323
     9  H    4.092285   4.015850   4.293448   5.545477   3.340955
    10  H    3.488317   4.193881   3.035037   4.838955   2.759412
    11  C    2.783855   2.911326   3.373860   3.791153   1.371303
    12  H    3.182007   2.634688   4.176824   4.123632   2.058651
    13  H    3.737783   3.973787   4.073096   4.515075   2.045551
    14  H    2.169544   2.079159   3.277161   2.955537   3.890004
    15  H    2.152246   0.965158   3.505731   3.477963   2.709535
    16  H    2.136809   2.977972   3.052396   0.956578   2.101313
    17  H    2.133467   3.524023   0.961068   3.481816   2.818223
                    6          7          8          9         10
     6  O    0.000000
     7  O    3.187668   0.000000
     8  C    1.352472   4.239374   0.000000
     9  H    2.086220   5.186592   1.129371   0.000000
    10  H    2.069371   4.672451   1.123328   1.781508   0.000000
    11  C    2.397551   4.371033   1.542790   2.155994   2.148241
    12  H    2.751012   4.622730   2.156884   2.394136   3.048085
    13  H    3.328828   5.393617   2.175571   2.488514   2.384531
    14  H    3.383669   0.955690   4.483398   5.310618   5.107489
    15  H    1.983516   2.765480   2.707601   3.262492   3.685292
    16  H    4.363151   3.441489   4.417088   5.389737   4.704392
    17  H    2.115330   2.682636   2.642393   3.690714   2.465226
                   11         12         13         14         15
    11  C    0.000000
    12  H    1.112700   0.000000
    13  H    1.112356   1.783585   0.000000
    14  H    4.538607   4.557458   5.616600   0.000000
    15  H    2.658550   2.344854   3.754057   2.442457   0.000000
    16  H    3.417474   3.765855   3.965947   3.731007   3.697399
    17  H    3.270857   4.066259   3.998542   3.421832   3.341670
                   16         17
    16  H    0.000000
    17  H    3.808203   0.000000
 Symmetry turned off by external request.
 Stoichiometry    C2H8O6Si(2-)
 Framework group  C1[X(C2H8O6Si)]
 Deg. of freedom    45
 Full point group                 C1      NOp   1
 Rotational constants (GHZ):           2.0618671           1.2274312           1.1339552
 Standard basis: def2TZVPP (5D, 7F)
   402 basis functions,   613 primitive gaussians,   456 cartesian basis functions
    42 alpha electrons       42 beta electrons
       nuclear repulsion energy       658.4223329227 Hartrees.
 NAtoms=   17 NActive=   17 NUniq=   17 SFac= 1.00D+00 NAtFMM=   60 NAOKFM=F Big=F
 Integral buffers will be    131072 words long.
 Raffenetti 2 integral format.
 Two-electron integral symmetry is turned off.
 Nuclear repulsion after empirical dispersion term =      658.4131830565 Hartrees.
 One-electron integrals computed using PRISM.
   1 Symmetry operations used in ECPInt.
 ECPInt:  NShTT=   11325 NPrTT=   31861 LenC2=   10990 LenP2D=   24449.
 LDataN:  DoStor=T MaxTD1= 6 Len=  172
 NBasis=   402 RedAO= T EigKep=  2.83D-04  NBF=   402
 NBsUse=   402 1.00D-06 EigRej= -1.00D+00 NBFU=   402
 Initial guess from the checkpoint file:  "IRC_PmonoL1toHbiL1_forward.chk"
 B after Tr=    -0.000211    0.000332   -0.000129
         Rot=    1.000000    0.000075   -0.000012    0.000056 Ang=   0.01 deg.
 ExpMin= 7.01D-02 ExpMax= 4.48D+04 ExpMxC= 1.53D+03 IAcc=3 IRadAn=         5 AccDes= 0.00D+00
 Harris functional with IExCor= 4639 and IRadAn=       5 diagonalized for initial guess.
 HarFok:  IExCor= 4639 AccDes= 0.00D+00 IRadAn=         5 IDoV= 1 UseB2=F ITyADJ=14
 ICtDFT=  3500011 ScaDFX=  1.000000  1.000000  1.000000  1.000000
 FoFCou: FMM=F IPFlag=           0 FMFlag=      100000 FMFlg1=           0
         NFxFlg=           0 DoJE=T BraDBF=F KetDBF=T FulRan=T
         wScrn=  0.000000 ICntrl=       500 IOpCl=  0 I1Cent=   200000004 NGrid=           0
         NMat0=    1 NMatS0=      1 NMatT0=    0 NMatD0=    1 NMtDS0=    0 NMtDT0=    0
 Symmetry not used in FoFCou.
 Requested convergence on RMS density matrix=1.00D-08 within 128 cycles.
 Requested convergence on MAX density matrix=1.00D-06.
 Requested convergence on             energy=1.00D-06.
 No special actions if energy rises.
 Integral accuracy reduced to 1.0D-05 until final iterations.
 Initial convergence to 1.0D-05 achieved.  Increase integral accuracy.
 SCF Done:  E(RwB97XD) =  -822.053427714     A.U. after   12 cycles
            NFock= 12  Conv=0.61D-08     -V/T= 2.0033
 DoSCS=F DFT=T ScalE2(SS,OS)=  1.000000  1.000000
 Range of M.O.s used for correlation:     1   402
 NBasis=   402 NAE=    42 NBE=    42 NFC=     0 NFV=     0
 NROrb=    402 NOA=    42 NOB=    42 NVA=   360 NVB=   360

 **** Warning!!: The largest alpha MO coefficient is  0.11843253D+02

 Symmetrizing basis deriv contribution to polar:
 IMax=3 JMax=2 DiffMx= 0.00D+00
   1 Symmetry operations used in ECPInt.
 ECPInt:  NShTT=   11325 NPrTT=   31861 LenC2=   10990 LenP2D=   24449.
 LDataN:  DoStor=T MaxTD1= 7 Len=  274
 Calling FoFJK, ICntrl=      2127 FMM=F ISym2X=0 I1Cent= 0 IOpClX= 0 NMat=1 NMatS=1 NMatT=0.
 -------------------------------------------------------------------
 Center     Atomic                   Forces (Hartrees/Bohr)
 Number     Number              X              Y              Z
 -------------------------------------------------------------------
      1       14           0.000537901    0.000209991   -0.000055485
      2        8          -0.000214573   -0.000419762   -0.000231090
      3        8          -0.000256757   -0.000435905    0.000339724
      4        8           0.000090690    0.000316957   -0.000051373
      5        8           0.000123544   -0.000026134   -0.000050779
      6        8          -0.001006557   -0.000235725    0.000061951
      7        8           0.000563735    0.000359699    0.000015267
      8        6          -0.000267725    0.000018980    0.000025452
      9        1           0.000077901    0.000052300   -0.000047378
     10        1           0.000007675    0.000002537    0.000024142
     11        6           0.000079724   -0.000040379    0.000026396
     12        1           0.000014037   -0.000007627   -0.000002706
     13        1           0.000021766   -0.000005417    0.000012141
     14        1           0.000026221    0.000010281   -0.000021403
     15        1           0.000035667    0.000032914   -0.000039083
     16        1           0.000022527   -0.000024005   -0.000005179
     17        1           0.000144224    0.000191295   -0.000000597
 -------------------------------------------------------------------
 Cartesian Forces:  Max     0.001006557 RMS     0.000233933
 IRC-IRC-IRC-IRC-IRC-IRC-IRC-IRC-IRC-IRC-IRC-IRC-IRC-IRC-IRC-IRC-IRC-IRC
 Pt  2 Step number   1 out of a maximum of  20
 Modified Bulirsch-Stoer Extrapolation Cycles:
    EPS =    0.000010000000000
      PEZero:  N= 2 I= 1 D=  1.46D-03 Err=  7.69D-03
      PEZero:  N= 3 I= 2 D=  1.46D-03 Err=  2.23D-02
      PEZero:  N= 3 I= 1 D=  2.93D-03 Err=  2.58D-02
      PEZero:  N= 4 I= 3 D=  7.32D-04 Err=  4.18D-02
      PEZero:  N= 4 I= 2 D=  2.20D-03 Err=  3.34D-02
      PEZero:  N= 4 I= 1 D=  3.66D-03 Err=  2.66D-02
      PEZero:  N= 5 I= 4 D=  7.32D-04 Err=  6.60D-02
      PEZero:  N= 5 I= 3 D=  1.46D-03 Err=  5.72D-02
      PEZero:  N= 5 I= 2 D=  2.93D-03 Err=  4.05D-02
      PEZero:  N= 5 I= 1 D=  4.39D-03 Err=  3.16D-02
      PEZero:  N= 6 I= 5 D=  3.66D-04 Err=  1.13D-01
      PEZero:  N= 6 I= 4 D=  1.10D-03 Err=  8.48D-02
      PEZero:  N= 6 I= 3 D=  1.83D-03 Err=  6.75D-02
      PEZero:  N= 6 I= 2 D=  3.29D-03 Err=  4.65D-02
      PEZero:  N= 6 I= 1 D=  4.76D-03 Err=  3.56D-02
      PEZero:  N= 7 I= 6 D=  3.66D-04 Err=  4.93D-02
      PEZero:  N= 7 I= 5 D=  7.32D-04 Err=  3.92D-02
      PEZero:  N= 7 I= 4 D=  1.46D-03 Err=  8.16D-02
      PEZero:  N= 8 I= 7 D=  1.83D-04 Err=  1.78D-06
      PEZero:  N= 8 I= 6 D=  5.49D-04 Err=  4.93D-02
 Maximum DWI energy   std dev =  0.000000339 at pt   192
 Maximum DWI gradient std dev =  0.274954044 at pt   286
 CORRECTOR INTEGRATION CONVERGENCE:
   Recorrection delta-x convergence threshold:    0.010000
   Delta-x Convergence Met
 Point Number:   2          Path Number:   1
   CHANGE IN THE REACTION COORDINATE =    0.28113
   NET REACTION COORDINATE UP TO THIS POINT =    0.56229
  # OF POINTS ALONG THE PATH =   2
  # OF STEPS =   1

 Calculating another point on the path.
 IRC-IRC-IRC-IRC-IRC-IRC-IRC-IRC-IRC-IRC-IRC-IRC-IRC-IRC-IRC-IRC-IRC-IRC
                          Input orientation:                          
 ---------------------------------------------------------------------
 Center     Atomic      Atomic             Coordinates (Angstroms)
 Number     Number       Type             X           Y           Z
 ---------------------------------------------------------------------
      1         14           0        0.697110    0.054894   -0.043219
      2          8           0        0.371030    0.038523    1.698878
      3          8           0        0.477957   -0.502527   -1.666606
      4          8           0        1.822906    1.334220   -0.204610
      5          8           0       -0.669568    1.267261   -0.262579
      6          8           0       -1.373439   -1.375556    0.201240
      7          8           0        1.847398   -1.249886    0.226713
      8          6           0       -2.325749   -0.490246   -0.168512
      9          1           0       -3.334114   -0.669571    0.309159
     10          1           0       -2.532760   -0.500816   -1.272856
     11          6           0       -1.930334    0.959584    0.182375
     12          1           0       -2.011218    1.070147    1.286441
     13          1           0       -2.677966    1.653526   -0.261362
     14          1           0        1.895685   -1.277728    1.180741
     15          1           0       -0.387756   -0.559074    1.708833
     16          1           0        1.257058    2.102750   -0.270638
     17          1           0       -0.186594   -1.184952   -1.535900
 ---------------------------------------------------------------------
                    Distance matrix (angstroms):
                    1          2          3          4          5
     1  Si   0.000000
     2  O    1.772427   0.000000
     3  O    1.730356   3.410374   0.000000
     4  O    1.711765   2.722139   2.705543   0.000000
     5  O    1.840044   2.537706   2.533823   2.494048   0.000000
     6  O    2.528462   2.699206   2.771046   4.210015   2.773995
     7  O    1.760250   2.450905   2.453278   2.619971   3.593126
     8  C    3.074175   3.322553   3.178868   4.532254   2.416736
     9  H    4.110935   4.020051   4.296910   5.556438   3.343353
    10  H    3.500411   4.189759   3.036356   4.845651   2.760115
    11  C    2.787978   2.905926   3.369921   3.791692   1.371926
    12  H    3.183359   2.628584   4.170106   4.122315   2.058723
    13  H    3.740901   3.968267   4.072238   4.512541   2.045205
    14  H    2.170379   2.079797   3.273878   2.957493   3.891101
    15  H    2.150251   0.965908   3.485146   3.483225   2.702107
    16  H    2.135176   2.987486   3.056664   0.956651   2.099999
    17  H    2.132193   3.503087   0.961465   3.486639   2.804989
                    6          7          8          9         10
     6  O    0.000000
     7  O    3.223389   0.000000
     8  C    1.351808   4.260096   0.000000
     9  H    2.086698   5.214560   1.130100   0.000000
    10  H    2.069337   4.689946   1.123628   1.781409   0.000000
    11  C    2.400702   4.376641   1.543205   2.154256   2.147878
    12  H    2.750616   4.625419   2.156535   2.394108   3.047938
    13  H    3.330335   5.398791   2.174496   2.480484   2.384406
    14  H    3.414113   0.955655   4.501235   5.336695   5.121997
    15  H    1.977638   2.769444   2.699070   3.263790   3.673541
    16  H    4.386433   3.440353   4.423863   5.394515   4.705923
    17  H    2.112483   2.692238   2.632176   3.684663   2.457993
                   11         12         13         14         15
    11  C    0.000000
    12  H    1.112532   0.000000
    13  H    1.112390   1.783417   0.000000
    14  H    4.543206   4.559340   5.620515   0.000000
    15  H    2.648763   2.338462   3.744640   2.451418   0.000000
    16  H    3.416360   3.764624   3.960593   3.733895   3.702571
    17  H    3.254556   4.047262   3.986018   3.424125   3.310662
                   16         17
    16  H    0.000000
    17  H    3.807099   0.000000
 Symmetry turned off by external request.
 Stoichiometry    C2H8O6Si(2-)
 Framework group  C1[X(C2H8O6Si)]
 Deg. of freedom    45
 Full point group                 C1      NOp   1
 Rotational constants (GHZ):           2.0656729           1.2220527           1.1267750
 Standard basis: def2TZVPP (5D, 7F)
   402 basis functions,   613 primitive gaussians,   456 cartesian basis functions
    42 alpha electrons       42 beta electrons
       nuclear repulsion energy       657.8010045965 Hartrees.
 NAtoms=   17 NActive=   17 NUniq=   17 SFac= 1.00D+00 NAtFMM=   60 NAOKFM=F Big=F
 Integral buffers will be    131072 words long.
 Raffenetti 2 integral format.
 Two-electron integral symmetry is turned off.
 Nuclear repulsion after empirical dispersion term =      657.7918521504 Hartrees.
 One-electron integrals computed using PRISM.
   1 Symmetry operations used in ECPInt.
 ECPInt:  NShTT=   11325 NPrTT=   31861 LenC2=   10985 LenP2D=   24444.
 LDataN:  DoStor=T MaxTD1= 6 Len=  172
 NBasis=   402 RedAO= T EigKep=  2.83D-04  NBF=   402
 NBsUse=   402 1.00D-06 EigRej= -1.00D+00 NBFU=   402
 Initial guess from the checkpoint file:  "IRC_PmonoL1toHbiL1_forward.chk"
 B after Tr=    -0.000209    0.000340   -0.000124
         Rot=    1.000000    0.000043   -0.000034    0.000052 Ang=   0.01 deg.
 ExpMin= 7.01D-02 ExpMax= 4.48D+04 ExpMxC= 1.53D+03 IAcc=3 IRadAn=         5 AccDes= 0.00D+00
 Harris functional with IExCor= 4639 and IRadAn=       5 diagonalized for initial guess.
 HarFok:  IExCor= 4639 AccDes= 0.00D+00 IRadAn=         5 IDoV= 1 UseB2=F ITyADJ=14
 ICtDFT=  3500011 ScaDFX=  1.000000  1.000000  1.000000  1.000000
 FoFCou: FMM=F IPFlag=           0 FMFlag=      100000 FMFlg1=           0
         NFxFlg=           0 DoJE=T BraDBF=F KetDBF=T FulRan=T
         wScrn=  0.000000 ICntrl=       500 IOpCl=  0 I1Cent=   200000004 NGrid=           0
         NMat0=    1 NMatS0=      1 NMatT0=    0 NMatD0=    1 NMtDS0=    0 NMtDT0=    0
 Symmetry not used in FoFCou.
 Requested convergence on RMS density matrix=1.00D-08 within 128 cycles.
 Requested convergence on MAX density matrix=1.00D-06.
 Requested convergence on             energy=1.00D-06.
 No special actions if energy rises.
 Integral accuracy reduced to 1.0D-05 until final iterations.
 Initial convergence to 1.0D-05 achieved.  Increase integral accuracy.
 SCF Done:  E(RwB97XD) =  -822.053561044     A.U. after   12 cycles
            NFock= 12  Conv=0.49D-08     -V/T= 2.0033
 DoSCS=F DFT=T ScalE2(SS,OS)=  1.000000  1.000000
 Range of M.O.s used for correlation:     1   402
 NBasis=   402 NAE=    42 NBE=    42 NFC=     0 NFV=     0
 NROrb=    402 NOA=    42 NOB=    42 NVA=   360 NVB=   360

 **** Warning!!: The largest alpha MO coefficient is  0.11469338D+02

 Symmetrizing basis deriv contribution to polar:
 IMax=3 JMax=2 DiffMx= 0.00D+00
   1 Symmetry operations used in ECPInt.
 ECPInt:  NShTT=   11325 NPrTT=   31861 LenC2=   10985 LenP2D=   24444.
 LDataN:  DoStor=T MaxTD1= 7 Len=  274
 Calling FoFJK, ICntrl=      2127 FMM=F ISym2X=0 I1Cent= 0 IOpClX= 0 NMat=1 NMatS=1 NMatT=0.
 -------------------------------------------------------------------
 Center     Atomic                   Forces (Hartrees/Bohr)
 Number     Number              X              Y              Z
 -------------------------------------------------------------------
      1       14           0.000867433    0.000377571   -0.000009110
      2        8          -0.000305630   -0.000627348   -0.000386344
      3        8          -0.000293283   -0.000556111    0.000476085
      4        8           0.000132597    0.000414784   -0.000072041
      5        8           0.000175038   -0.000055614   -0.000061466
      6        8          -0.001442046   -0.000414515    0.000080407
      7        8           0.000833793    0.000529792    0.000002366
      8        6          -0.000368165    0.000067447    0.000015093
      9        1           0.000059945    0.000071061   -0.000050869
     10        1           0.000002775    0.000006765    0.000024237
     11        6           0.000117388   -0.000015273    0.000034058
     12        1           0.000016508   -0.000007734   -0.000003567
     13        1           0.000025659   -0.000002057    0.000015732
     14        1           0.000038170    0.000016743   -0.000025023
     15        1           0.000032157    0.000022989   -0.000052307
     16        1           0.000005713   -0.000002206   -0.000015360
     17        1           0.000101948    0.000173706    0.000028108
 -------------------------------------------------------------------
 Cartesian Forces:  Max     0.001442046 RMS     0.000338282
 IRC-IRC-IRC-IRC-IRC-IRC-IRC-IRC-IRC-IRC-IRC-IRC-IRC-IRC-IRC-IRC-IRC-IRC
 Pt  3 Step number   1 out of a maximum of  20
 Modified Bulirsch-Stoer Extrapolation Cycles:
    EPS =    0.000010000000000
      PEZero:  N= 2 I= 1 D=  1.46D-03 Err=  2.98D-02
      PEZero:  N= 3 I= 2 D=  1.46D-03 Err=  5.03D-02
      PEZero:  N= 3 I= 1 D=  2.93D-03 Err=  4.55D-02
      PEZero:  N= 4 I= 3 D=  7.32D-04 Err=  8.70D-02
      PEZero:  N= 4 I= 2 D=  2.20D-03 Err=  6.58D-02
      PEZero:  N= 4 I= 1 D=  3.66D-03 Err=  5.16D-02
      PEZero:  N= 5 I= 4 D=  7.32D-04 Err=  8.07D-02
      PEZero:  N= 5 I= 3 D=  1.46D-03 Err=  3.40D-02
      PEZero:  N= 5 I= 2 D=  2.93D-03 Err=  1.33D-03
      PEZero:  N= 5 I= 1 D=  4.39D-03 Err=  1.61D-02
      PEZero:  N= 6 I= 5 D=  3.66D-04 Err=  3.45D-06
      PEZero:  N= 6 I= 4 D=  1.10D-03 Err=  8.07D-02
 Maximum DWI energy   std dev =  0.000000451 at pt   107
 Maximum DWI gradient std dev =  0.157503256 at pt   111
 CORRECTOR INTEGRATION CONVERGENCE:
   Recorrection delta-x convergence threshold:    0.010000
   Delta-x Convergence Met
 Point Number:   3          Path Number:   1
   CHANGE IN THE REACTION COORDINATE =    0.28117
   NET REACTION COORDINATE UP TO THIS POINT =    0.84346
  # OF POINTS ALONG THE PATH =   3
  # OF STEPS =   1

 Calculating another point on the path.
 IRC-IRC-IRC-IRC-IRC-IRC-IRC-IRC-IRC-IRC-IRC-IRC-IRC-IRC-IRC-IRC-IRC-IRC
                          Input orientation:                          
 ---------------------------------------------------------------------
 Center     Atomic      Atomic             Coordinates (Angstroms)
 Number     Number       Type             X           Y           Z
 ---------------------------------------------------------------------
      1         14           0        0.705186    0.058690   -0.043332
      2          8           0        0.366905    0.029119    1.693082
      3          8           0        0.475424   -0.509174   -1.659584
      4          8           0        1.825085    1.340704   -0.205721
      5          8           0       -0.666546    1.265976   -0.263442
      6          8           0       -1.394685   -1.384129    0.203341
      7          8           0        1.861263   -1.241460    0.226305
      8          6           0       -2.333905   -0.487132   -0.169299
      9          1           0       -3.347199   -0.653790    0.304177
     10          1           0       -2.537691   -0.494698   -1.274554
     11          6           0       -1.927862    0.959939    0.182933
     12          1           0       -2.006487    1.068776    1.287176
     13          1           0       -2.673578    1.657665   -0.258173
     14          1           0        1.906651   -1.272989    1.180322
     15          1           0       -0.394198   -0.566832    1.693381
     16          1           0        1.256058    2.106694   -0.275529
     17          1           0       -0.198532   -1.181601   -1.521891
 ---------------------------------------------------------------------
                    Distance matrix (angstroms):
                    1          2          3          4          5
     1  Si   0.000000
     2  O    1.769305   0.000000
     3  O    1.728448   3.397338   0.000000
     4  O    1.710001   2.729835   2.712444   0.000000
     5  O    1.840553   2.534920   2.530704   2.493419   0.000000
     6  O    2.559694   2.705512   2.780889   4.237802   2.787674
     7  O    1.760571   2.449267   2.452218   2.618307   3.594010
     8  C    3.090285   3.321047   3.180215   4.543073   2.421226
     9  H    4.129190   4.023679   4.299967   5.566913   3.345683
    10  H    3.512605   4.185442   3.037650   4.852311   2.761069
    11  C    2.792201   2.900506   3.365850   3.792182   1.372526
    12  H    3.184917   2.622716   4.163317   4.121120   2.058822
    13  H    3.744185   3.962839   4.071284   4.510119   2.044902
    14  H    2.171225   2.080679   3.270610   2.959588   3.892575
    15  H    2.148510   0.966662   3.464382   3.488624   2.694905
    16  H    2.133471   2.997056   3.060681   0.956768   2.098419
    17  H    2.131001   3.481611   0.961943   3.491325   2.791659
                    6          7          8          9         10
     6  O    0.000000
     7  O    3.259153   0.000000
     8  C    1.351148   4.280765   0.000000
     9  H    2.087073   5.242089   1.130804   0.000000
    10  H    2.069233   4.707550   1.123910   1.781292   0.000000
    11  C    2.404028   4.382409   1.543681   2.152519   2.147586
    12  H    2.750589   4.628405   2.156239   2.393956   3.047800
    13  H    3.331827   5.404112   2.173345   2.472413   2.384148
    14  H    3.444657   0.955616   4.519000   5.362274   5.136568
    15  H    1.972097   2.773903   2.690426   3.264608   3.661748
    16  H    4.409263   3.439222   4.430243   5.398732   4.707210
    17  H    2.109081   2.702320   2.621376   3.677935   2.450444
                   11         12         13         14         15
    11  C    0.000000
    12  H    1.112376   0.000000
    13  H    1.112424   1.783228   0.000000
    14  H    4.547994   4.561571   5.624633   0.000000
    15  H    2.639054   2.332314   3.735307   2.460853   0.000000
    16  H    3.415053   3.763446   3.955246   3.736982   3.707789
    17  H    3.237777   4.027872   3.972941   3.426675   3.279359
                   16         17
    16  H    0.000000
    17  H    3.805540   0.000000
 Symmetry turned off by external request.
 Stoichiometry    C2H8O6Si(2-)
 Framework group  C1[X(C2H8O6Si)]
 Deg. of freedom    45
 Full point group                 C1      NOp   1
 Rotational constants (GHZ):           2.0696406           1.2167326           1.1196103
 Standard basis: def2TZVPP (5D, 7F)
   402 basis functions,   613 primitive gaussians,   456 cartesian basis functions
    42 alpha electrons       42 beta electrons
       nuclear repulsion energy       657.1924398505 Hartrees.
 NAtoms=   17 NActive=   17 NUniq=   17 SFac= 1.00D+00 NAtFMM=   60 NAOKFM=F Big=F
 Integral buffers will be    131072 words long.
 Raffenetti 2 integral format.
 Two-electron integral symmetry is turned off.
 Nuclear repulsion after empirical dispersion term =      657.1832849369 Hartrees.
 One-electron integrals computed using PRISM.
   1 Symmetry operations used in ECPInt.
 ECPInt:  NShTT=   11325 NPrTT=   31861 LenC2=   10984 LenP2D=   24430.
 LDataN:  DoStor=T MaxTD1= 6 Len=  172
 NBasis=   402 RedAO= T EigKep=  2.83D-04  NBF=   402
 NBsUse=   402 1.00D-06 EigRej= -1.00D+00 NBFU=   402
 Initial guess from the checkpoint file:  "IRC_PmonoL1toHbiL1_forward.chk"
 B after Tr=    -0.000210    0.000332   -0.000118
         Rot=    1.000000    0.000004   -0.000029    0.000062 Ang=   0.01 deg.
 ExpMin= 7.01D-02 ExpMax= 4.48D+04 ExpMxC= 1.53D+03 IAcc=3 IRadAn=         5 AccDes= 0.00D+00
 Harris functional with IExCor= 4639 and IRadAn=       5 diagonalized for initial guess.
 HarFok:  IExCor= 4639 AccDes= 0.00D+00 IRadAn=         5 IDoV= 1 UseB2=F ITyADJ=14
 ICtDFT=  3500011 ScaDFX=  1.000000  1.000000  1.000000  1.000000
 FoFCou: FMM=F IPFlag=           0 FMFlag=      100000 FMFlg1=           0
         NFxFlg=           0 DoJE=T BraDBF=F KetDBF=T FulRan=T
         wScrn=  0.000000 ICntrl=       500 IOpCl=  0 I1Cent=   200000004 NGrid=           0
         NMat0=    1 NMatS0=      1 NMatT0=    0 NMatD0=    1 NMtDS0=    0 NMtDT0=    0
 Symmetry not used in FoFCou.
 Requested convergence on RMS density matrix=1.00D-08 within 128 cycles.
 Requested convergence on MAX density matrix=1.00D-06.
 Requested convergence on             energy=1.00D-06.
 No special actions if energy rises.
 Integral accuracy reduced to 1.0D-05 until final iterations.
 Initial convergence to 1.0D-05 achieved.  Increase integral accuracy.
 SCF Done:  E(RwB97XD) =  -822.053744564     A.U. after   12 cycles
            NFock= 12  Conv=0.70D-08     -V/T= 2.0033
 DoSCS=F DFT=T ScalE2(SS,OS)=  1.000000  1.000000
 Range of M.O.s used for correlation:     1   402
 NBasis=   402 NAE=    42 NBE=    42 NFC=     0 NFV=     0
 NROrb=    402 NOA=    42 NOB=    42 NVA=   360 NVB=   360

 **** Warning!!: The largest alpha MO coefficient is  0.11792261D+02

 Symmetrizing basis deriv contribution to polar:
 IMax=3 JMax=2 DiffMx= 0.00D+00
   1 Symmetry operations used in ECPInt.
 ECPInt:  NShTT=   11325 NPrTT=   31861 LenC2=   10984 LenP2D=   24430.
 LDataN:  DoStor=T MaxTD1= 7 Len=  274
 Calling FoFJK, ICntrl=      2127 FMM=F ISym2X=0 I1Cent= 0 IOpClX= 0 NMat=1 NMatS=1 NMatT=0.
 -------------------------------------------------------------------
 Center     Atomic                   Forces (Hartrees/Bohr)
 Number     Number              X              Y              Z
 -------------------------------------------------------------------
      1       14           0.000958594    0.000407888   -0.000000535
      2        8          -0.000386123   -0.000839031   -0.000499343
      3        8          -0.000362970   -0.000716281    0.000625418
      4        8           0.000164450    0.000562400   -0.000092372
      5        8           0.000233128   -0.000106764   -0.000069027
      6        8          -0.001726662   -0.000524662    0.000111793
      7        8           0.001146793    0.000720675   -0.000004757
      8        6          -0.000494311    0.000156083   -0.000015165
      9        1           0.000042851    0.000088433   -0.000055139
     10        1          -0.000003880    0.000017394    0.000019588
     11        6           0.000171870    0.000010578    0.000039173
     12        1           0.000022608   -0.000009187   -0.000001325
     13        1           0.000029369    0.000005252    0.000019330
     14        1           0.000053082    0.000023539   -0.000027906
     15        1           0.000021737    0.000011272   -0.000071937
     16        1           0.000012463   -0.000008376   -0.000018648
     17        1           0.000117004    0.000200788    0.000040852
 -------------------------------------------------------------------
 Cartesian Forces:  Max     0.001726662 RMS     0.000423136
 IRC-IRC-IRC-IRC-IRC-IRC-IRC-IRC-IRC-IRC-IRC-IRC-IRC-IRC-IRC-IRC-IRC-IRC
 Pt  4 Step number   1 out of a maximum of  20
 Modified Bulirsch-Stoer Extrapolation Cycles:
    EPS =    0.000010000000000
      PEZero:  N= 2 I= 1 D=  1.46D-03 Err=  4.95D-02
      PEZero:  N= 3 I= 2 D=  1.46D-03 Err=  7.43D-02
      PEZero:  N= 3 I= 1 D=  2.93D-03 Err=  6.20D-02
      PEZero:  N= 4 I= 3 D=  7.32D-04 Err=  8.71D-02
      PEZero:  N= 4 I= 2 D=  2.20D-03 Err=  4.18D-02
      PEZero:  N= 4 I= 1 D=  3.66D-03 Err=  1.29D-02
      PEZero:  N= 5 I= 4 D=  7.32D-04 Err=  1.20D-05
      PEZero:  N= 5 I= 3 D=  1.46D-03 Err=  8.71D-02
      PEZero:  N= 6 I= 5 D=  3.66D-04 Err=  9.02D-06
      PEZero:  N= 6 I= 4 D=  1.10D-03 Err=  1.32D-08
      PEZero:  N= 6 I= 3 D=  1.83D-03 Err=  2.51D-02
 Maximum DWI energy   std dev =  0.000000435 at pt    31
 Maximum DWI gradient std dev =  0.126354427 at pt   112
 CORRECTOR INTEGRATION CONVERGENCE:
   Recorrection delta-x convergence threshold:    0.010000
   Delta-x Convergence Met
 Point Number:   4          Path Number:   1
   CHANGE IN THE REACTION COORDINATE =    0.28114
   NET REACTION COORDINATE UP TO THIS POINT =    1.12459
  # OF POINTS ALONG THE PATH =   4
  # OF STEPS =   1

 Calculating another point on the path.
 IRC-IRC-IRC-IRC-IRC-IRC-IRC-IRC-IRC-IRC-IRC-IRC-IRC-IRC-IRC-IRC-IRC-IRC
                          Input orientation:                          
 ---------------------------------------------------------------------
 Center     Atomic      Atomic             Coordinates (Angstroms)
 Number     Number       Type             X           Y           Z
 ---------------------------------------------------------------------
      1         14           0        0.712599    0.061935   -0.043334
      2          8           0        0.362460    0.018848    1.687243
      3          8           0        0.472763   -0.516362   -1.652359
      4          8           0        1.826731    1.347097   -0.206766
      5          8           0       -0.663517    1.264745   -0.264302
      6          8           0       -1.415227   -1.391699    0.205059
      7          8           0        1.876200   -1.232332    0.225864
      8          6           0       -2.341854   -0.483485   -0.170206
      9          1           0       -3.359549   -0.638041    0.299282
     10          1           0       -2.542459   -0.488090   -1.276283
     11          6           0       -1.925314    0.960676    0.183559
     12          1           0       -2.001613    1.067616    1.288008
     13          1           0       -2.669079    1.662293   -0.254767
     14          1           0        1.919045   -1.267300    1.179820
     15          1           0       -0.401074   -0.575140    1.677982
     16          1           0        1.254449    2.110433   -0.280298
     17          1           0       -0.210123   -1.178847   -1.508040
 ---------------------------------------------------------------------
                    Distance matrix (angstroms):
                    1          2          3          4          5
     1  Si   0.000000
     2  O    1.766169   0.000000
     3  O    1.726531   3.384015   0.000000
     4  O    1.708696   2.737810   2.719458   0.000000
     5  O    1.840998   2.532472   2.527881   2.492273   0.000000
     6  O    2.588898   2.710476   2.789395   4.263906   2.800368
     7  O    1.761126   2.447956   2.451524   2.615927   3.595250
     8  C    3.105360   3.319001   3.181184   4.552962   2.425279
     9  H    4.146051   4.026325   4.302363   5.576231   3.347657
    10  H    3.523931   4.180673   3.038716   4.858147   2.761695
    11  C    2.796033   2.895171   3.361996   3.792033   1.373014
    12  H    3.186033   2.616895   4.156596   4.119305   2.058889
    13  H    3.747211   3.957593   4.070746   4.507100   2.044606
    14  H    2.172208   2.081973   3.267550   2.960779   3.894402
    15  H    2.146873   0.967415   3.443577   3.494337   2.688219
    16  H    2.132158   3.006924   3.064905   0.956868   2.096196
    17  H    2.129864   3.460081   0.962314   3.496067   2.779136
                    6          7          8          9         10
     6  O    0.000000
     7  O    3.295348   0.000000
     8  C    1.350672   4.302281   0.000000
     9  H    2.087407   5.269880   1.131375   0.000000
    10  H    2.069187   4.725980   1.124131   1.781159   0.000000
    11  C    2.407140   4.388916   1.544104   2.150888   2.147307
    12  H    2.750429   4.631991   2.155938   2.393917   3.047675
    13  H    3.333235   5.410122   2.172232   2.464804   2.384046
    14  H    3.476062   0.955558   4.537863   5.388402   5.152148
    15  H    1.965904   2.779663   2.681572   3.264559   3.649766
    16  H    4.430313   3.437566   4.435530   5.401759   4.707528
    17  H    2.105300   2.713306   2.611055   3.671208   2.443491
                   11         12         13         14         15
    11  C    0.000000
    12  H    1.112235   0.000000
    13  H    1.112467   1.783062   0.000000
    14  H    4.553626   4.564547   5.629515   0.000000
    15  H    2.629704   2.326467   3.726322   2.471883   0.000000
    16  H    3.412916   3.761514   3.949120   3.739347   3.713209
    17  H    3.221948   4.009229   3.960964   3.430128   3.248333
                   16         17
    16  H    0.000000
    17  H    3.804167   0.000000
 Symmetry turned off by external request.
 Stoichiometry    C2H8O6Si(2-)
 Framework group  C1[X(C2H8O6Si)]
 Deg. of freedom    45
 Full point group                 C1      NOp   1
 Rotational constants (GHZ):           2.0741673           1.2115549           1.1127109
 Standard basis: def2TZVPP (5D, 7F)
   402 basis functions,   613 primitive gaussians,   456 cartesian basis functions
    42 alpha electrons       42 beta electrons
       nuclear repulsion energy       656.6316672367 Hartrees.
 NAtoms=   17 NActive=   17 NUniq=   17 SFac= 1.00D+00 NAtFMM=   60 NAOKFM=F Big=F
 Integral buffers will be    131072 words long.
 Raffenetti 2 integral format.
 Two-electron integral symmetry is turned off.
 Nuclear repulsion after empirical dispersion term =      656.6225112843 Hartrees.
 One-electron integrals computed using PRISM.
   1 Symmetry operations used in ECPInt.
 ECPInt:  NShTT=   11325 NPrTT=   31861 LenC2=   10981 LenP2D=   24416.
 LDataN:  DoStor=T MaxTD1= 6 Len=  172
 NBasis=   402 RedAO= T EigKep=  2.83D-04  NBF=   402
 NBsUse=   402 1.00D-06 EigRej= -1.00D+00 NBFU=   402
 Initial guess from the checkpoint file:  "IRC_PmonoL1toHbiL1_forward.chk"
 B after Tr=    -0.000194    0.000348   -0.000116
         Rot=    1.000000   -0.000022   -0.000020    0.000056 Ang=  -0.01 deg.
 ExpMin= 7.01D-02 ExpMax= 4.48D+04 ExpMxC= 1.53D+03 IAcc=3 IRadAn=         5 AccDes= 0.00D+00
 Harris functional with IExCor= 4639 and IRadAn=       5 diagonalized for initial guess.
 HarFok:  IExCor= 4639 AccDes= 0.00D+00 IRadAn=         5 IDoV= 1 UseB2=F ITyADJ=14
 ICtDFT=  3500011 ScaDFX=  1.000000  1.000000  1.000000  1.000000
 FoFCou: FMM=F IPFlag=           0 FMFlag=      100000 FMFlg1=           0
         NFxFlg=           0 DoJE=T BraDBF=F KetDBF=T FulRan=T
         wScrn=  0.000000 ICntrl=       500 IOpCl=  0 I1Cent=   200000004 NGrid=           0
         NMat0=    1 NMatS0=      1 NMatT0=    0 NMatD0=    1 NMtDS0=    0 NMtDT0=    0
 Symmetry not used in FoFCou.
 Requested convergence on RMS density matrix=1.00D-08 within 128 cycles.
 Requested convergence on MAX density matrix=1.00D-06.
 Requested convergence on             energy=1.00D-06.
 No special actions if energy rises.
 Integral accuracy reduced to 1.0D-05 until final iterations.
[...]
 CORRECTOR INTEGRATION CONVERGENCE:
   Recorrection delta-x convergence threshold:    0.010000
   Delta-x Convergence NOT Met
 IRC-IRC-IRC-IRC-IRC-IRC-IRC-IRC-IRC-IRC-IRC-IRC-IRC-IRC-IRC-IRC-IRC-IRC
                          Input orientation:                          
 ---------------------------------------------------------------------
 Center     Atomic      Atomic             Coordinates (Angstroms)
 Number     Number       Type             X           Y           Z
 ---------------------------------------------------------------------
      1         14           0        0.834394    0.080394   -0.036805
      2          8           0        0.279974   -0.262655    1.544584
      3          8           0        0.410523   -0.719425   -1.466618
      4          8           0        1.807072    1.457398   -0.237287
      5          8           0       -0.618874    1.262424   -0.275338
      6          8           0       -1.762324   -1.442098    0.210442
      7          8           0        2.226638   -0.984058    0.222862
      8          6           0       -2.482628   -0.373442   -0.191195
      9          1           0       -3.537975   -0.344284    0.226707
     10          1           0       -2.633410   -0.335214   -1.305458
     11          6           0       -1.887288    1.004771    0.195628
     12          1           0       -1.928690    1.068389    1.304452
     13          1           0       -2.592419    1.777165   -0.187146
     14          1           0        2.156640   -1.187832    1.156711
     15          1           0       -0.555403   -0.752290    1.365459
     16          1           0        1.152116    2.148140   -0.354973
     17          1           0       -0.422485   -1.153009   -1.219823
 ---------------------------------------------------------------------
                    Distance matrix (angstroms):
                    1          2          3          4          5
     1  Si   0.000000
     2  O    1.710513   0.000000
     3  O    1.692260   3.048445   0.000000
     4  O    1.697774   2.909583   2.863593   0.000000
     5  O    1.888407   2.538880   2.531113   2.434066   0.000000
     6  O    3.020275   2.709613   2.838318   4.620403   2.976222
     7  O    1.771674   2.461071   2.494524   2.519619   3.659484
     8  C    3.351484   3.264533   3.180681   4.664293   2.481273
     9  H    4.400841   4.039827   4.312623   5.659583   3.369675
    10  H    3.715895   4.076249   3.072314   4.906355   2.769828
    11  C    2.883757   2.850101   3.319013   3.747077   1.377341
    12  H    3.226413   2.589892   4.043145   4.060074   2.061311
    13  H    3.826838   3.925608   4.109462   4.411382   2.041474
    14  H    2.186598   2.127974   3.185936   3.010427   3.969635
    15  H    2.142719   0.984725   2.992449   3.610098   2.599099
    16  H    2.116070   3.190749   3.163645   0.959136   1.981727
    17  H    2.121452   2.987997   0.970982   3.570788   2.600949
                    6          7          8          9         10
     6  O    0.000000
     7  O    4.015193   0.000000
     8  C    1.349880   4.766706   0.000000
     9  H    2.087677   5.800007   1.135451   0.000000
    10  H    2.069284   5.135837   1.125068   1.779283   0.000000
    11  C    2.450103   4.569526   1.550333   2.132061   2.146046
    12  H    2.743552   4.759110   2.150043   2.397286   3.046040
    13  H    3.348251   5.569181   2.153411   2.359215   2.390491
    14  H    4.039598   0.958383   4.899275   5.831391   5.452872
    15  H    1.807362   3.016454   2.506171   3.218534   3.409671
    16  H    4.658698   3.361422   4.426801   5.342985   4.626086
    17  H    1.981009   3.021214   2.431047   3.528847   2.358879
                   11         12         13         14         15
    11  C    0.000000
    12  H    1.111419   0.000000
    13  H    1.113696   1.779821   0.000000
    14  H    4.699419   4.669291   5.757666   0.000000
    15  H    2.495934   2.281340   3.599744   2.754714   0.000000
    16  H    3.293696   3.662092   3.766608   3.797759   3.779948
    17  H    2.967350   3.684457   3.789585   3.507280   2.619527
                   16         17
    16  H    0.000000
    17  H    3.758314   0.000000
 Symmetry turned off by external request.
 Stoichiometry    C2H8O6Si(2-)
 Framework group  C1[X(C2H8O6Si)]
 Deg. of freedom    45
 Full point group                 C1      NOp   1
 Rotational constants (GHZ):           2.2121360           1.1228525           0.9930996
 Standard basis: def2TZVPP (5D, 7F)
   402 basis functions,   613 primitive gaussians,   456 cartesian basis functions
    42 alpha electrons       42 beta electrons
       nuclear repulsion energy       648.5703055424 Hartrees.
 NAtoms=   17 NActive=   17 NUniq=   17 SFac= 1.00D+00 NAtFMM=   60 NAOKFM=F Big=F
 Integral buffers will be    131072 words long.
 Raffenetti 2 integral format.
 Two-electron integral symmetry is turned off.
 Nuclear repulsion after empirical dispersion term =      648.5611519773 Hartrees.
 One-electron integrals computed using PRISM.
   1 Symmetry operations used in ECPInt.
 ECPInt:  NShTT=   11325 NPrTT=   31861 LenC2=   10924 LenP2D=   24284.
 LDataN:  DoStor=T MaxTD1= 6 Len=  172
 NBasis=   402 RedAO= T EigKep=  2.82D-04  NBF=   402
 NBsUse=   402 1.00D-06 EigRej= -1.00D+00 NBFU=   402
 Initial guess from the checkpoint file:  "IRC_PmonoL1toHbiL1_forward.chk"
 B after Tr=    -0.000145   -0.000132    0.000035
         Rot=    1.000000   -0.000059    0.000045    0.000030 Ang=  -0.01 deg.
 ExpMin= 7.01D-02 ExpMax= 4.48D+04 ExpMxC= 1.53D+03 IAcc=3 IRadAn=         5 AccDes= 0.00D+00
 Harris functional with IExCor= 4639 and IRadAn=       5 diagonalized for initial guess.
 HarFok:  IExCor= 4639 AccDes= 0.00D+00 IRadAn=         5 IDoV= 1 UseB2=F ITyADJ=14
 ICtDFT=  3500011 ScaDFX=  1.000000  1.000000  1.000000  1.000000
 FoFCou: FMM=F IPFlag=           0 FMFlag=      100000 FMFlg1=           0
         NFxFlg=           0 DoJE=T BraDBF=F KetDBF=T FulRan=T
         wScrn=  0.000000 ICntrl=       500 IOpCl=  0 I1Cent=   200000004 NGrid=           0
         NMat0=    1 NMatS0=      1 NMatT0=    0 NMatD0=    1 NMtDS0=    0 NMtDT0=    0
 Symmetry not used in FoFCou.
 Requested convergence on RMS density matrix=1.00D-08 within 128 cycles.
 Requested convergence on MAX density matrix=1.00D-06.
 Requested convergence on             energy=1.00D-06.
 No special actions if energy rises.
 Integral accuracy reduced to 1.0D-05 until final iterations.
 Initial convergence to 1.0D-05 achieved.  Increase integral accuracy.
 SCF Done:  E(RwB97XD) =  -822.066045688     A.U. after   11 cycles
            NFock= 11  Conv=0.28D-08     -V/T= 2.0033
 DoSCS=F DFT=T ScalE2(SS,OS)=  1.000000  1.000000
 Range of M.O.s used for correlation:     1   402
 NBasis=   402 NAE=    42 NBE=    42 NFC=     0 NFV=     0
 NROrb=    402 NOA=    42 NOB=    42 NVA=   360 NVB=   360

 **** Warning!!: The largest alpha MO coefficient is  0.11034249D+02

 Symmetrizing basis deriv contribution to polar:
 IMax=3 JMax=2 DiffMx= 0.00D+00
   1 Symmetry operations used in ECPInt.
 ECPInt:  NShTT=   11325 NPrTT=   31861 LenC2=   10924 LenP2D=   24284.
 LDataN:  DoStor=T MaxTD1= 7 Len=  274
 Calling FoFJK, ICntrl=      2127 FMM=F ISym2X=0 I1Cent= 0 IOpClX= 0 NMat=1 NMatS=1 NMatT=0.
 -------------------------------------------------------------------
 Center     Atomic                   Forces (Hartrees/Bohr)
 Number     Number              X              Y              Z
 -------------------------------------------------------------------
      1       14           0.002506569   -0.000237832    0.000369983
      2        8          -0.001510453   -0.004919798   -0.002444750
      3        8          -0.000241049   -0.003099594    0.002735762
      4        8          -0.000837565    0.001297265   -0.000844901
      5        8           0.000342663   -0.000135769    0.000037985
      6        8          -0.003972242    0.000563682   -0.000361208
      7        8           0.004435740    0.003320308    0.004686304
      8        6          -0.001413382    0.001437220   -0.000268456
      9        1           0.000020271    0.000135122   -0.000050514
     10        1          -0.000031629    0.000083307    0.000022226
     11        6           0.000223036    0.000619795    0.000252200
     12        1           0.000035798    0.000002873    0.000010304
     13        1           0.000055833    0.000063250    0.000059590
     14        1           0.000285605    0.000808734   -0.004411230
     15        1           0.000687388    0.000227851    0.000025454
     16        1          -0.000057972   -0.000043683   -0.000075436
     17        1          -0.000528613   -0.000122732    0.000256689
 -------------------------------------------------------------------
 Cartesian Forces:  Max     0.004919798 RMS     0.001737582
 IRC-IRC-IRC-IRC-IRC-IRC-IRC-IRC-IRC-IRC-IRC-IRC-IRC-IRC-IRC-IRC-IRC-IRC
 Error in corrector energy =          -0.0000469818
 Magnitude of corrector gradient =     0.0113381471
 Magnitude of analytic gradient =      0.0124088147
 Magnitude of difference =             0.0068733877
 Angle between gradients (degrees)=   33.2613
 Pt 26 Step number  19 out of a maximum of  20
 Modified Bulirsch-Stoer Extrapolation Cycles:
    EPS =    0.000010000000000
      PEZero:  N= 2 I= 1 D=  1.46D-03 Err=  9.53D-05
      PEZero:  N= 3 I= 2 D=  1.46D-03 Err=  6.32D-05
      PEZero:  N= 3 I= 1 D=  2.93D-03 Err=  4.51D-07
 Maximum DWI energy   std dev =  0.000006595 at pt    70
 Maximum DWI gradient std dev =  0.402582095 at pt    28
 CORRECTOR INTEGRATION CONVERGENCE:
   Recorrection delta-x convergence threshold:    0.010000
   Delta-x Convergence NOT Met
 IRC-IRC-IRC-IRC-IRC-IRC-IRC-IRC-IRC-IRC-IRC-IRC-IRC-IRC-IRC-IRC-IRC-IRC
                          Input orientation:                          
 ---------------------------------------------------------------------
 Center     Atomic      Atomic             Coordinates (Angstroms)
 Number     Number       Type             X           Y           Z
 ---------------------------------------------------------------------
      1         14           0        0.834248    0.080205   -0.036853
      2          8           0        0.279935   -0.262714    1.543913
      3          8           0        0.410631   -0.719981   -1.466341
      4          8           0        1.807020    1.457372   -0.237327
      5          8           0       -0.618871    1.262427   -0.275388
      6          8           0       -1.762481   -1.441733    0.210335
      7          8           0        2.225995   -0.984480    0.223474
      8          6           0       -2.482692   -0.373264   -0.191186
      9          1           0       -3.537713   -0.343881    0.226699
     10          1           0       -2.633520   -0.334977   -1.305395
     11          6           0       -1.887245    1.004792    0.195696
     12          1           0       -1.928342    1.068219    1.304510
     13          1           0       -2.592193    1.777402   -0.186876
     14          1           0        2.169824   -1.174302    1.152817
     15          1           0       -0.551364   -0.755802    1.367033
     16          1           0        1.151744    2.147786   -0.355187
     17          1           0       -0.425353   -1.150779   -1.218853
 ---------------------------------------------------------------------
                    Distance matrix (angstroms):
                    1          2          3          4          5
     1  Si   0.000000
     2  O    1.709877   0.000000
     3  O    1.692094   3.047590   0.000000
     4  O    1.697959   2.909210   2.863781   0.000000
     5  O    1.888413   2.538457   2.531439   2.434009   0.000000
     6  O    3.019999   2.709239   2.838060   4.620232   2.975945
     7  O    1.771520   2.460012   2.494189   2.520025   3.659333
     8  C    3.351350   3.264185   3.180810   4.664224   2.481210
     9  H    4.400381   4.039316   4.312453   5.659152   3.369266
    10  H    3.715776   4.075783   3.072619   4.906291   2.769734
    11  C    2.883655   2.849725   3.319253   3.746990   1.377341
    12  H    3.226040   2.589437   4.043027   4.059757   2.061191
    13  H    3.826680   3.925152   4.109854   4.411126   2.041331
    14  H    2.184689   2.134392   3.187657   2.998305   3.969161
    15  H    2.142364   0.982589   2.992444   3.610275   2.602951
    16  H    2.115901   3.190164   3.163542   0.959140   1.981239
    17  H    2.121094   2.986464   0.972475   3.570622   2.598295
                    6          7          8          9         10
     6  O    0.000000
     7  O    4.014622   0.000000
     8  C    1.349648   4.766263   0.000000
     9  H    2.087342   5.799199   1.135148   0.000000
    10  H    2.069072   5.135581   1.125023   1.779032   0.000000
    11  C    2.449748   4.569105   1.550250   2.131648   2.145969
    12  H    2.743098   4.758228   2.149950   2.397035   3.045955
    13  H    3.347989   5.568781   2.153457   2.359003   2.390595
    14  H    4.052507   0.950192   4.908555   5.841513   5.460714
    15  H    1.809766   3.012265   2.510859   3.223092   3.413846
    16  H    4.658022   3.361541   4.426253   5.342097   4.625499
    17  H    1.978672   3.022848   2.427606   3.525264   2.355637
                   11         12         13         14         15
    11  C    0.000000
    12  H    1.111387   0.000000
    13  H    1.113660   1.779851   0.000000
    14  H    4.703652   4.674064   5.760567   0.000000
    15  H    2.501260   2.286271   3.605099   2.761502   0.000000
    16  H    3.293230   3.661556   3.765976   3.787721   3.781196
    17  H    2.963876   3.681072   3.786082   3.515724   2.618910
                   16         17
    16  H    0.000000
    17  H    3.756819   0.000000
 Symmetry turned off by external request.
 Stoichiometry    C2H8O6Si(2-)
 Framework group  C1[X(C2H8O6Si)]
 Deg. of freedom    45
 Full point group                 C1      NOp   1
 Rotational constants (GHZ):           2.2128360           1.1229565           0.9931443
 Standard basis: def2TZVPP (5D, 7F)
   402 basis functions,   613 primitive gaussians,   456 cartesian basis functions
    42 alpha electrons       42 beta electrons
       nuclear repulsion energy       648.6545346995 Hartrees.
 NAtoms=   17 NActive=   17 NUniq=   17 SFac= 1.00D+00 NAtFMM=   60 NAOKFM=F Big=F
 Integral buffers will be    131072 words long.
 Raffenetti 2 integral format.
 Two-electron integral symmetry is turned off.
 Nuclear repulsion after empirical dispersion term =      648.6453793741 Hartrees.
 One-electron integrals computed using PRISM.
   1 Symmetry operations used in ECPInt.
 ECPInt:  NShTT=   11325 NPrTT=   31861 LenC2=   10924 LenP2D=   24284.
 LDataN:  DoStor=T MaxTD1= 6 Len=  172
 NBasis=   402 RedAO= T EigKep=  2.81D-04  NBF=   402
 NBsUse=   402 1.00D-06 EigRej= -1.00D+00 NBFU=   402
 Initial guess from the checkpoint file:  "IRC_PmonoL1toHbiL1_forward.chk"
 B after Tr=     0.000145    0.000134   -0.000035
         Rot=    1.000000    0.000059   -0.000045   -0.000030 Ang=   0.01 deg.
 ExpMin= 7.01D-02 ExpMax= 4.48D+04 ExpMxC= 1.53D+03 IAcc=3 IRadAn=         5 AccDes= 0.00D+00
 Harris functional with IExCor= 4639 and IRadAn=       5 diagonalized for initial guess.
 HarFok:  IExCor= 4639 AccDes= 0.00D+00 IRadAn=         5 IDoV= 1 UseB2=F ITyADJ=14
 ICtDFT=  3500011 ScaDFX=  1.000000  1.000000  1.000000  1.000000
 FoFCou: FMM=F IPFlag=           0 FMFlag=      100000 FMFlg1=           0
         NFxFlg=           0 DoJE=T BraDBF=F KetDBF=T FulRan=T
         wScrn=  0.000000 ICntrl=       500 IOpCl=  0 I1Cent=   200000004 NGrid=           0
         NMat0=    1 NMatS0=      1 NMatT0=    0 NMatD0=    1 NMtDS0=    0 NMtDT0=    0
 Symmetry not used in FoFCou.
 Requested convergence on RMS density matrix=1.00D-08 within 128 cycles.
 Requested convergence on MAX density matrix=1.00D-06.
 Requested convergence on             energy=1.00D-06.
 No special actions if energy rises.
 Integral accuracy reduced to 1.0D-05 until final iterations.
 Initial convergence to 1.0D-05 achieved.  Increase integral accuracy.
 SCF Done:  E(RwB97XD) =  -822.066044452     A.U. after   11 cycles
            NFock= 11  Conv=0.22D-08     -V/T= 2.0033
 DoSCS=F DFT=T ScalE2(SS,OS)=  1.000000  1.000000
 Range of M.O.s used for correlation:     1   402
 NBasis=   402 NAE=    42 NBE=    42 NFC=     0 NFV=     0
 NROrb=    402 NOA=    42 NOB=    42 NVA=   360 NVB=   360

 **** Warning!!: The largest alpha MO coefficient is  0.11091638D+02

 Symmetrizing basis deriv contribution to polar:
 IMax=3 JMax=2 DiffMx= 0.00D+00
   1 Symmetry operations used in ECPInt.
 ECPInt:  NShTT=   11325 NPrTT=   31861 LenC2=   10924 LenP2D=   24284.
 LDataN:  DoStor=T MaxTD1= 7 Len=  274
 Calling FoFJK, ICntrl=      2127 FMM=F ISym2X=0 I1Cent= 0 IOpClX= 0 NMat=1 NMatS=1 NMatT=0.
 -------------------------------------------------------------------
 Center     Atomic                   Forces (Hartrees/Bohr)
 Number     Number              X              Y              Z
 -------------------------------------------------------------------
      1       14           0.002450407   -0.000300747    0.000131960
      2        8          -0.000067138   -0.004119855   -0.001815043
      3        8          -0.001310565   -0.003621088    0.003140066
      4        8          -0.000866146    0.001254408   -0.000770472
      5        8           0.000391659   -0.000136124   -0.000034821
      6        8          -0.003923734    0.000329123   -0.000469851
      7        8           0.005045876    0.005184646   -0.003809830
      8        6          -0.001334304    0.001537419   -0.000236725
      9        1          -0.000133688    0.000123760    0.000000630
     10        1          -0.000056117    0.000102239   -0.000040251
     11        6           0.000266007    0.000649282    0.000295214
     12        1           0.000030138   -0.000011620    0.000018176
     13        1           0.000023676    0.000074868    0.000051128
     14        1          -0.000325205   -0.001063947    0.003962946
     15        1          -0.000750040   -0.000328187   -0.000315289
     16        1          -0.000058264   -0.000005923   -0.000058020
     17        1           0.000617439    0.000331746   -0.000049818
 -------------------------------------------------------------------
 Cartesian Forces:  Max     0.005184646 RMS     0.001770105
 IRC-IRC-IRC-IRC-IRC-IRC-IRC-IRC-IRC-IRC-IRC-IRC-IRC-IRC-IRC-IRC-IRC-IRC
 Error in corrector energy =          -0.0000479085
 Magnitude of corrector gradient =     0.0110535155
 Magnitude of analytic gradient =      0.0126410784
 Magnitude of difference =             0.0063902201
 Angle between gradients (degrees)=   30.3567
 Pt 26 Step number  20 out of a maximum of  20
 Modified Bulirsch-Stoer Extrapolation Cycles:
    EPS =    0.000010000000000
      PEZero:  N= 2 I= 1 D=  1.46D-03 Err=  1.77D-04
      PEZero:  N= 3 I= 2 D=  1.46D-03 Err=  1.17D-04
      PEZero:  N= 3 I= 1 D=  2.93D-03 Err=  7.99D-07
 Maximum DWI energy   std dev =  0.000004398 at pt    -1
 Maximum DWI gradient std dev =  0.193757908 at pt    38
 CORRECTOR INTEGRATION CONVERGENCE:
   Recorrection delta-x convergence threshold:    0.010000
   Delta-x Convergence NOT Met
 Maximum number of corrector steps exceded.
 Error termination via Lnk1e in /opt/software/gaussian/g16.c01/l123.exe at Mon Jan 29 00:32:29 2024.
 Job cpu time:       1 days 14 hours 32 minutes 22.2 seconds.
 Elapsed time:       0 days 10 hours 24 minutes 13.7 seconds.
 File lengths (MBytes):  RWF=    243 Int=      0 D2E=      0 Chk=     14 Scr=      1
