 Entering Gaussian System, Link 0=/opt/software/gaussian/g16.c01/g16
 Initial command:
 /opt/software/gaussian/g16.c01/l1.exe "/scratch/arhender/17680926/Gau-10444.inp" -scrdir="/scratch/arhender/17680926/"
 Entering Link 1 = /opt/software/gaussian/g16.c01/l1.exe PID=     10446.
  
 Copyright (c) 1988-2019, Gaussian, Inc.  All Rights Reserved.
  
 This is part of the Gaussian(R) 16 program.  It is based on
 the Gaussian(R) 09 system (copyright 2009, Gaussian, Inc.),
 the Gaussian(R) 03 system (copyright 2003, Gaussian, Inc.),
 the Gaussian(R) 98 system (copyright 1998, Gaussian, Inc.),
 the Gaussian(R) 94 system (copyright 1995, Gaussian, Inc.),
 the Gaussian 92(TM) system (copyright 1992, Gaussian, Inc.),
 the Gaussian 90(TM) system (copyright 1990, Gaussian, Inc.),
 the Gaussian 88(TM) system (copyright 1988, Gaussian, Inc.),
 the Gaussian 86(TM) system (copyright 1986, Carnegie Mellon
 University), and the Gaussian 82(TM) system (copyright 1983,
 Carnegie Mellon University). Gaussian is a federally registered
 trademark of Gaussian, Inc.
  
 This software contains proprietary and confidential information,
 including trade secrets, belonging to Gaussian, Inc.
  
 This software is provided under written license and may be
 used, copied, transmitted, or stored only in accord with that
 written license.
  
 The following legend is applicable only to US Government
 contracts under FAR:
  
                    RESTRICTED RIGHTS LEGEND
  
 Use, reproduction and disclosure by the US Government is
 subject to restrictions as set forth in subparagraphs (a)
 and (c) of the Commercial Computer Software - Restricted
 Rights clause in FAR 52.227-19.
  
 Gaussian, Inc.
 340 Quinnipiac St., Bldg. 40, Wallingford CT 06492
  
  
 ---------------------------------------------------------------
 Warning -- This program may not be used in any manner that
 competes with the business of Gaussian, Inc. or will provide
 assistance to any competitor of Gaussian, Inc.  The licensee
 of this program is prohibited from giving any competitor of
 Gaussian, Inc. access to this program.  By using this program,
 the user acknowledges that Gaussian, Inc. is engaged in the
 business of creating and licensing software in the field of
 computational chemistry and represents and warrants to the
 licensee that it is not a competitor of Gaussian, Inc. and that
 it will not use this program in any manner prohibited above.
 ---------------------------------------------------------------
  

 Cite this work as:
 Gaussian 16, Revision C.01,
 M. J. Frisch, G. W. Trucks, H. B. Schlegel, G. E. Scuseria, 
 M. A. Robb, J. R. Cheeseman, G. Scalmani, V. Barone, 
 G. A. Petersson, H. Nakatsuji, X. Li, M. Caricato, A. V. Marenich, 
 J. Bloino, B. G. Janesko, R. Gomperts, B. Mennucci, H. P. Hratchian, 
 J. V. Ortiz, A. F. Izmaylov, J. L. Sonnenberg, D. Williams-Young, 
 F. Ding, F. Lipparini, F. Egidi, J. Goings, B. Peng, A. Petrone, 
 T. Henderson, D. Ranasinghe, V. G. Zakrzewski, J. Gao, N. Rega, 
 G. Zheng, W. Liang, M. Hada, M. Ehara, K. Toyota, R. Fukuda, 
 J. Hasegawa, M. Ishida, T. Nakajima, Y. Honda, O. Kitao, H. Nakai, 
 T. Vreven, K. Throssell, J. A. Montgomery, Jr., J. E. Peralta, 
 F. Ogliaro, M. J. Bearpark, J. J. Heyd, E. N. Brothers, K. N. Kudin, 
 V. N. Staroverov, T. A. Keith, R. Kobayashi, J. Normand, 
 K. Raghavachari, A. P. Rendell, J. C. Burant, S. S. Iyengar, 
 J. Tomasi, M. Cossi, J. M. Millam, M. Klene, C. Adamo, R. Cammi, 
 J. W. Ochterski, R. L. Martin, K. Morokuma, O. Farkas, 
 J. B. Foresman, and D. J. Fox, Gaussian, Inc., Wallingford CT, 2019.
 
 ******************************************
 Gaussian 16:  ES64L-G16RevC.01  3-Jul-2019
                10-Mar-2024 
 ******************************************
 %chk=QbiLmL_to_PbiL2_IRCforward_ReactantOpt.chk
 %mem=1600MB
 %nprocs=4
 Will use up to    4 processors via shared memory.
 ---------------------------------------------
 # opt freq wb97xd/def2tzvpp geom=connectivity
 ---------------------------------------------
 1/18=20,19=15,26=3,38=1,57=2/1,3;
 2/9=110,12=2,17=6,18=5,40=1/2;
 3/5=44,7=202,11=2,25=1,30=1,71=1,74=-58/1,2,3;
 4//1;
 5/5=2,38=5/2;
 6/7=2,8=2,9=2,10=2,28=1/1;
 7//1,2,3,16;
 1/18=20,19=15,26=3/3(2);
 2/9=110/2;
 99//99;
 2/9=110/2;
 3/5=44,7=202,11=2,25=1,30=1,71=1,74=-58/1,2,3;
 4/5=5,16=3,69=1/1;
 5/5=2,38=5/2;
 7//1,2,3,16;
 1/18=20,19=15,26=3/3(-5);
 2/9=110/2;
 6/7=2,8=2,9=2,10=2,19=2,28=1/1;
 99/9=1/99;
 ----------------------------------------------------------------------
 convert QmonoL to QbiL attacking OH deprotonated TS to QbiLmonoL to Qb
  iL2
 ----------------------------------------------------------------------
 Symbolic Z-matrix:
 Charge = -1 Multiplicity = 1
 Si                    0.2942    0.32421  -0.27212 
 O                     0.96233  -0.17282   1.20393 
 O                    -0.36064   1.73121  -0.28961 
 H                    -1.62946   1.28335   0.61838 
 O                     1.70945   0.10238  -1.15489 
 O                    -0.66839  -0.92617  -0.8162 
 C                    -1.90158  -1.29765  -0.27128 
 H                    -1.74395  -1.87947   0.64829 
 H                    -2.4087   -1.94876  -0.99648 
 C                    -2.82478  -0.12947   0.05868 
 H                    -3.02535   0.42926  -0.8666 
 H                    -3.77755  -0.54931   0.40835 
 O                    -2.32028   0.70746   1.05419 
 C                     2.78737  -0.09831  -0.2844 
 H                     3.5401   -0.73908  -0.75685 
 H                     3.26339   0.86183  -0.03829 
 C                     2.22137  -0.74011   0.99044 
 H                     2.1384   -1.82878   0.85315 
 H                     2.87197  -0.55637   1.85309 
 

 GradGradGradGradGradGradGradGradGradGradGradGradGradGradGradGradGradGrad
 Berny optimization.
 Initialization pass.
                           ----------------------------
                           !    Initial Parameters    !
                           ! (Angstroms and Degrees)  !
 --------------------------                            --------------------------
 ! Name  Definition              Value          Derivative Info.                !
 --------------------------------------------------------------------------------
 ! R1    R(1,2)                  1.6947         estimate D2E/DX2                !
 ! R2    R(1,3)                  1.552          estimate D2E/DX2                !
 ! R3    R(1,5)                  1.6827         estimate D2E/DX2                !
 ! R4    R(1,6)                  1.6691         estimate D2E/DX2                !
 ! R5    R(2,17)                 1.3973         estimate D2E/DX2                !
 ! R6    R(4,13)                 0.9994         estimate D2E/DX2                !
 ! R7    R(5,14)                 1.4            estimate D2E/DX2                !
 ! R8    R(6,7)                  1.3985         estimate D2E/DX2                !
 ! R9    R(7,8)                  1.0995         estimate D2E/DX2                !
 ! R10   R(7,9)                  1.0986         estimate D2E/DX2                !
 ! R11   R(7,10)                 1.5251         estimate D2E/DX2                !
 ! R12   R(10,11)                1.0993         estimate D2E/DX2                !
 ! R13   R(10,12)                1.0983         estimate D2E/DX2                !
 ! R14   R(10,13)                1.395          estimate D2E/DX2                !
 ! R15   R(14,15)                1.0956         estimate D2E/DX2                !
 ! R16   R(14,16)                1.0996         estimate D2E/DX2                !
 ! R17   R(14,17)                1.5354         estimate D2E/DX2                !
 ! R18   R(17,18)                1.1004         estimate D2E/DX2                !
 ! R19   R(17,19)                1.096          estimate D2E/DX2                !
 ! A1    A(2,1,3)              116.2334         estimate D2E/DX2                !
 ! A2    A(2,1,5)               94.9723         estimate D2E/DX2                !
 ! A3    A(2,1,6)              106.9512         estimate D2E/DX2                !
 ! A4    A(3,1,5)              117.9351         estimate D2E/DX2                !
 ! A5    A(3,1,6)              115.6022         estimate D2E/DX2                !
 ! A6    A(5,1,6)              102.4316         estimate D2E/DX2                !
 ! A7    A(1,2,17)             109.9508         estimate D2E/DX2                !
 ! A8    A(1,5,14)             109.8942         estimate D2E/DX2                !
 ! A9    A(1,6,7)              125.4873         estimate D2E/DX2                !
 ! A10   A(6,7,8)              109.8782         estimate D2E/DX2                !
 ! A11   A(6,7,9)              107.8946         estimate D2E/DX2                !
 ! A12   A(6,7,10)             114.4966         estimate D2E/DX2                !
 ! A13   A(8,7,9)              107.7355         estimate D2E/DX2                !
 ! A14   A(8,7,10)             108.1291         estimate D2E/DX2                !
 ! A15   A(9,7,10)             108.5026         estimate D2E/DX2                !
 ! A16   A(7,10,11)            108.5205         estimate D2E/DX2                !
 ! A17   A(7,10,12)            107.53           estimate D2E/DX2                !
 ! A18   A(7,10,13)            113.2676         estimate D2E/DX2                !
 ! A19   A(11,10,12)           107.6965         estimate D2E/DX2                !
 ! A20   A(11,10,13)           111.2049         estimate D2E/DX2                !
 ! A21   A(12,10,13)           108.4132         estimate D2E/DX2                !
 ! A22   A(4,13,10)            106.5291         estimate D2E/DX2                !
 ! A23   A(5,14,15)            110.1638         estimate D2E/DX2                !
 ! A24   A(5,14,16)            110.3241         estimate D2E/DX2                !
 ! A25   A(5,14,17)            106.999          estimate D2E/DX2                !
 ! A26   A(15,14,16)           108.0453         estimate D2E/DX2                !
 ! A27   A(15,14,17)           111.5201         estimate D2E/DX2                !
 ! A28   A(16,14,17)           109.8004         estimate D2E/DX2                !
 ! A29   A(2,17,14)            106.8161         estimate D2E/DX2                !
 ! A30   A(2,17,18)            110.6569         estimate D2E/DX2                !
 ! A31   A(2,17,19)            110.2764         estimate D2E/DX2                !
 ! A32   A(14,17,18)           109.7393         estimate D2E/DX2                !
 ! A33   A(14,17,19)           111.384          estimate D2E/DX2                !
 ! A34   A(18,17,19)           107.987          estimate D2E/DX2                !
 ! D1    D(3,1,2,17)          -134.9472         estimate D2E/DX2                !
 ! D2    D(5,1,2,17)           -10.3983         estimate D2E/DX2                !
 ! D3    D(6,1,2,17)            94.2225         estimate D2E/DX2                !
 ! D4    D(2,1,5,14)           -11.9062         estimate D2E/DX2                !
 ! D5    D(3,1,5,14)           111.3477         estimate D2E/DX2                !
 ! D6    D(6,1,5,14)          -120.5005         estimate D2E/DX2                !
 ! D7    D(2,1,6,7)             72.1391         estimate D2E/DX2                !
 ! D8    D(3,1,6,7)            -59.044          estimate D2E/DX2                !
 ! D9    D(5,1,6,7)            171.3447         estimate D2E/DX2                !
 ! D10   D(1,2,17,14)           27.3618         estimate D2E/DX2                !
 ! D11   D(1,2,17,18)          -92.0454         estimate D2E/DX2                !
 ! D12   D(1,2,17,19)          148.5415         estimate D2E/DX2                !
 ! D13   D(1,5,14,15)          149.9265         estimate D2E/DX2                !
 ! D14   D(1,5,14,16)          -90.87           estimate D2E/DX2                !
 ! D15   D(1,5,14,17)           28.5343         estimate D2E/DX2                !
 ! D16   D(1,6,7,8)            -78.2231         estimate D2E/DX2                !
 ! D17   D(1,6,7,9)            164.5745         estimate D2E/DX2                !
 ! D18   D(1,6,7,10)            43.6711         estimate D2E/DX2                !
 ! D19   D(6,7,10,11)           59.8185         estimate D2E/DX2                !
 ! D20   D(6,7,10,12)          176.0504         estimate D2E/DX2                !
 ! D21   D(6,7,10,13)          -64.1873         estimate D2E/DX2                !
 ! D22   D(8,7,10,11)         -177.337          estimate D2E/DX2                !
 ! D23   D(8,7,10,12)          -61.1051         estimate D2E/DX2                !
 ! D24   D(8,7,10,13)           58.6572         estimate D2E/DX2                !
 ! D25   D(9,7,10,11)          -60.7488         estimate D2E/DX2                !
 ! D26   D(9,7,10,12)           55.4832         estimate D2E/DX2                !
 ! D27   D(9,7,10,13)          175.2454         estimate D2E/DX2                !
 ! D28   D(7,10,13,4)           77.9549         estimate D2E/DX2                !
 ! D29   D(11,10,13,4)         -44.5726         estimate D2E/DX2                !
 ! D30   D(12,10,13,4)        -162.789          estimate D2E/DX2                !
 ! D31   D(5,14,17,2)          -35.9            estimate D2E/DX2                !
 ! D32   D(5,14,17,18)          84.099          estimate D2E/DX2                !
 ! D33   D(5,14,17,19)        -156.3735         estimate D2E/DX2                !
 ! D34   D(15,14,17,2)        -156.4315         estimate D2E/DX2                !
 ! D35   D(15,14,17,18)        -36.4326         estimate D2E/DX2                !
 ! D36   D(15,14,17,19)         83.095          estimate D2E/DX2                !
 ! D37   D(16,14,17,2)          83.8414         estimate D2E/DX2                !
 ! D38   D(16,14,17,18)       -156.1597         estimate D2E/DX2                !
 ! D39   D(16,14,17,19)        -36.6321         estimate D2E/DX2                !
 --------------------------------------------------------------------------------
 Trust Radius=3.00D-01 FncErr=1.00D-07 GrdErr=1.00D-06 EigMax=2.50D+02 EigMin=1.00D-04
 Number of steps in this run=    102 maximum allowed number of steps=    114.
 GradGradGradGradGradGradGradGradGradGradGradGradGradGradGradGradGradGrad

                          Input orientation:                          
 ---------------------------------------------------------------------
 Center     Atomic      Atomic             Coordinates (Angstroms)
 Number     Number       Type             X           Y           Z
 ---------------------------------------------------------------------
      1         14           0        0.294197    0.324212   -0.272119
      2          8           0        0.962330   -0.172815    1.203928
      3          8           0       -0.360640    1.731205   -0.289611
      4          1           0       -1.629457    1.283347    0.618378
      5          8           0        1.709448    0.102380   -1.154885
      6          8           0       -0.668385   -0.926165   -0.816198
      7          6           0       -1.901578   -1.297654   -0.271283
      8          1           0       -1.743946   -1.879469    0.648288
      9          1           0       -2.408700   -1.948759   -0.996477
     10          6           0       -2.824784   -0.129469    0.058679
     11          1           0       -3.025351    0.429259   -0.866603
     12          1           0       -3.777551   -0.549313    0.408347
     13          8           0       -2.320279    0.707458    1.054190
     14          6           0        2.787366   -0.098308   -0.284403
     15          1           0        3.540103   -0.739082   -0.756849
     16          1           0        3.263391    0.861826   -0.038293
     17          6           0        2.221367   -0.740106    0.990437
     18          1           0        2.138402   -1.828784    0.853151
     19          1           0        2.871970   -0.556371    1.853086
 ---------------------------------------------------------------------
                    Distance matrix (angstroms):
                    1          2          3          4          5
     1  Si   0.000000
     2  O    1.694743   0.000000
     3  O    1.552014   2.757934   0.000000
     4  H    2.326665   3.029957   1.623243   0.000000
     5  O    1.682683   2.489561   2.772550   3.960736   0.000000
     6  O    1.669140   2.703271   2.726466   2.804213   2.612796
     7  C    2.729813   3.412254   3.398354   2.743558   3.972450
     8  H    3.139647   3.247358   3.978713   3.165029   4.370937
     9  H    3.605100   4.399955   4.270403   3.696145   4.603413
    10  C    3.169116   3.956729   3.107317   1.933421   4.699548
    11  H    3.373995   4.533342   3.021369   2.209786   4.754816
    12  H    4.219622   4.820910   4.166916   2.831442   5.742435
    13  O    2.956596   3.401885   2.587285   0.999407   4.635173
    14  C    2.528748   2.356149   3.641028   4.715115   1.399972
    15  H    3.449850   3.287890   4.640735   5.718900   2.053726
    16  H    3.026519   2.812201   3.735315   4.954680   2.058707
    17  C    2.537874   1.397345   3.796401   4.365963   2.360985
    18  H    3.050035   2.061170   4.497181   4.892570   2.818795
    19  H    3.454973   2.053106   4.502657   5.017162   3.291398
                    6          7          8          9         10
     6  O    0.000000
     7  C    1.398464   0.000000
     8  H    2.051911   1.099531   0.000000
     9  H    2.026548   1.098643   1.775373   0.000000
    10  C    2.459714   1.525071   2.139708   2.143897   0.000000
    11  H    2.719376   2.144645   3.044194   2.460101   1.099341
    12  H    3.362803   2.131006   2.441810   2.409509   1.098318
    13  O    2.982588   2.439808   2.681251   3.356865   1.394996
    14  C    3.593100   4.839917   4.957342   5.561503   5.622713
    15  H    4.213062   5.491782   5.585344   6.075278   6.445813
    16  H    4.388725   5.603083   5.749740   6.402353   6.169112
    17  C    3.413095   4.347582   4.139918   5.181331   5.167658
    18  H    3.388141   4.227043   3.888080   4.910362   5.305853
    19  H    4.449263   5.277235   4.950637   6.159889   5.987917
                   11         12         13         14         15
    11  H    0.000000
    12  H    1.774516   0.000000
    13  O    2.064938   2.029835   0.000000
    14  C    5.865574   6.616755   5.341266   0.000000
    15  H    6.669502   7.412271   6.302096   1.095632   0.000000
    16  H    6.357790   7.194836   5.691636   1.099558   1.776457
    17  C    5.687184   6.030112   4.767185   1.535408   2.189081
    18  H    5.892424   6.069052   5.133496   2.170191   2.396730
    19  H    6.568605   6.804664   5.403235   2.187656   2.700286
                   16         17         18         19
    16  H    0.000000
    17  C    2.170319   0.000000
    18  H    3.049534   1.100432   0.000000
    19  H    2.396207   1.095995   1.776802   0.000000
 Stoichiometry    C4H9O5Si(1-)
 Framework group  C1[X(C4H9O5Si)]
 Deg. of freedom    51
 Full point group                 C1      NOp   1
 Largest Abelian subgroup         C1      NOp   1
 Largest concise Abelian subgroup C1      NOp   1
                         Standard orientation:                         
 ---------------------------------------------------------------------
 Center     Atomic      Atomic             Coordinates (Angstroms)
 Number     Number       Type             X           Y           Z
 ---------------------------------------------------------------------
      1         14           0        0.297556    0.340982   -0.296533
      2          8           0        0.940925   -0.048727    1.222136
      3          8           0       -0.386611    1.728917   -0.416103
      4          1           0       -1.666766    1.309070    0.489352
      5          8           0        1.737788    0.097482   -1.131914
      6          8           0       -0.624884   -0.962190   -0.783232
      7          6           0       -1.862445   -1.327406   -0.244008
      8          1           0       -1.714290   -1.847672    0.713249
      9          1           0       -2.338169   -2.033380   -0.938489
     10          6           0       -2.817988   -0.162461   -0.008043
     11          1           0       -3.008427    0.333437   -0.970524
     12          1           0       -3.769596   -0.581569    0.345642
     13          8           0       -2.355271    0.745540    0.944555
     14          6           0        2.798776   -0.024517   -0.226739
     15          1           0        3.576046   -0.675865   -0.641477
     16          1           0        3.248188    0.959571   -0.030202
     17          6           0        2.216517   -0.599237    1.072548
     18          1           0        2.160128   -1.695917    1.001382
     19          1           0        2.842376   -0.347875    1.936448
 ---------------------------------------------------------------------
 Rotational constants (GHZ):           2.3907021           0.8152364           0.7918120
 Standard basis: def2TZVPP (5D, 7F)
 There are   507 symmetry adapted cartesian basis functions of A   symmetry.
 There are   447 symmetry adapted basis functions of A   symmetry.
   447 basis functions,   681 primitive gaussians,   507 cartesian basis functions
    44 alpha electrons       44 beta electrons
       nuclear repulsion energy       718.2063071555 Hartrees.
 NAtoms=   19 NActive=   19 NUniq=   19 SFac= 1.00D+00 NAtFMM=   60 NAOKFM=F Big=F
 Integral buffers will be    131072 words long.
 Raffenetti 2 integral format.
 Two-electron integral symmetry is turned on.
 Nuclear repulsion after empirical dispersion term =      718.1964489240 Hartrees.
 One-electron integrals computed using PRISM.
   1 Symmetry operations used in ECPInt.
 ECPInt:  NShTT=   14028 NPrTT=   39320 LenC2=   13268 LenP2D=   29011.
 LDataN:  DoStor=T MaxTD1= 6 Len=  172
 NBasis=   447 RedAO= T EigKep=  2.80D-04  NBF=   447
 NBsUse=   447 1.00D-06 EigRej= -1.00D+00 NBFU=   447
 ExpMin= 7.01D-02 ExpMax= 4.48D+04 ExpMxC= 1.53D+03 IAcc=3 IRadAn=         5 AccDes= 0.00D+00
 Harris functional with IExCor= 4639 and IRadAn=       5 diagonalized for initial guess.
 HarFok:  IExCor= 4639 AccDes= 0.00D+00 IRadAn=         5 IDoV= 1 UseB2=F ITyADJ=14
 ICtDFT=  3500011 ScaDFX=  1.000000  1.000000  1.000000  1.000000
 FoFCou: FMM=F IPFlag=           0 FMFlag=      100000 FMFlg1=           0
         NFxFlg=           0 DoJE=T BraDBF=F KetDBF=T FulRan=T
         wScrn=  0.000000 ICntrl=       500 IOpCl=  0 I1Cent=   200000004 NGrid=           0
         NMat0=    1 NMatS0=      1 NMatT0=    0 NMatD0=    1 NMtDS0=    0 NMtDT0=    0
 Petite list used in FoFCou.
 Requested convergence on RMS density matrix=1.00D-08 within 128 cycles.
 Requested convergence on MAX density matrix=1.00D-06.
 Requested convergence on             energy=1.00D-06.
 No special actions if energy rises.
 Integral accuracy reduced to 1.0D-05 until final iterations.
 Initial convergence to 1.0D-05 achieved.  Increase integral accuracy.
 SCF Done:  E(RwB97XD) =  -823.738246227     A.U. after   14 cycles
            NFock= 14  Conv=0.85D-08     -V/T= 2.0035

 **********************************************************************

            Population analysis using the SCF Density.

 **********************************************************************

 Orbital symmetries:
       Occupied  (A) (A) (A) (A) (A) (A) (A) (A) (A) (A) (A) (A)
                 (A) (A) (A) (A) (A) (A) (A) (A) (A) (A) (A) (A)
                 (A) (A) (A) (A) (A) (A) (A) (A) (A) (A) (A) (A)
                 (A) (A) (A) (A) (A) (A) (A) (A)
       Virtual   (A) (A) (A) (A) (A) (A) (A) (A) (A) (A) (A) (A)
                 (A) (A) (A) (A) (A) (A) (A) (A) (A) (A) (A) (A)
                 (A) (A) (A) (A) (A) (A) (A) (A) (A) (A) (A) (A)
                 (A) (A) (A) (A) (A) (A) (A) (A) (A) (A) (A) (A)
                 (A) (A) (A) (A) (A) (A) (A) (A) (A) (A) (A) (A)
                 (A) (A) (A) (A) (A) (A) (A) (A) (A) (A) (A) (A)
                 (A) (A) (A) (A) (A) (A) (A) (A) (A) (A) (A) (A)
                 (A) (A) (A) (A) (A) (A) (A) (A) (A) (A) (A) (A)
                 (A) (A) (A) (A) (A) (A) (A) (A) (A) (A) (A) (A)
                 (A) (A) (A) (A) (A) (A) (A) (A) (A) (A) (A) (A)
                 (A) (A) (A) (A) (A) (A) (A) (A) (A) (A) (A) (A)
                 (A) (A) (A) (A) (A) (A) (A) (A) (A) (A) (A) (A)
                 (A) (A) (A) (A) (A) (A) (A) (A) (A) (A) (A) (A)
                 (A) (A) (A) (A) (A) (A) (A) (A) (A) (A) (A) (A)
                 (A) (A) (A) (A) (A) (A) (A) (A) (A) (A) (A) (A)
                 (A) (A) (A) (A) (A) (A) (A) (A) (A) (A) (A) (A)
                 (A) (A) (A) (A) (A) (A) (A) (A) (A) (A) (A) (A)
                 (A) (A) (A) (A) (A) (A) (A) (A) (A) (A) (A) (A)
                 (A) (A) (A) (A) (A) (A) (A) (A) (A) (A) (A) (A)
                 (A) (A) (A) (A) (A) (A) (A) (A) (A) (A) (A) (A)
                 (A) (A) (A) (A) (A) (A) (A) (A) (A) (A) (A) (A)
                 (A) (A) (A) (A) (A) (A) (A) (A) (A) (A) (A) (A)
                 (A) (A) (A) (A) (A) (A) (A) (A) (A) (A) (A) (A)
                 (A) (A) (A) (A) (A) (A) (A) (A) (A) (A) (A) (A)
                 (A) (A) (A) (A) (A) (A) (A) (A) (A) (A) (A) (A)
                 (A) (A) (A) (A) (A) (A) (A) (A) (A) (A) (A) (A)
                 (A) (A) (A) (A) (A) (A) (A) (A) (A) (A) (A) (A)
                 (A) (A) (A) (A) (A) (A) (A) (A) (A) (A) (A) (A)
                 (A) (A) (A) (A) (A) (A) (A) (A) (A) (A) (A) (A)
                 (A) (A) (A) (A) (A) (A) (A) (A) (A) (A) (A) (A)
                 (A) (A) (A) (A) (A) (A) (A) (A) (A) (A) (A) (A)
                 (A) (A) (A) (A) (A) (A) (A) (A) (A) (A) (A) (A)
                 (A) (A) (A) (A) (A) (A) (A) (A) (A) (A) (A) (A)
                 (A) (A) (A) (A) (A) (A) (A)
 The electronic state is 1-A.
 Alpha  occ. eigenvalues --  -66.10319 -19.08149 -19.07833 -19.07819 -19.06427
 Alpha  occ. eigenvalues --  -18.98517 -10.19498 -10.19378 -10.18507 -10.17629
 Alpha  occ. eigenvalues --   -5.22194  -3.56870  -3.56712  -3.56416  -0.99040
 Alpha  occ. eigenvalues --   -0.96144  -0.93733  -0.92947  -0.80931  -0.68540
 Alpha  occ. eigenvalues --   -0.67550  -0.56645  -0.55715  -0.46364  -0.44528
 Alpha  occ. eigenvalues --   -0.44411  -0.42844  -0.41158  -0.39718  -0.36828
 Alpha  occ. eigenvalues --   -0.35814  -0.35398  -0.33499  -0.28471  -0.26124
 Alpha  occ. eigenvalues --   -0.25914  -0.25232  -0.25146  -0.22684  -0.21457
 Alpha  occ. eigenvalues --   -0.20514  -0.18866  -0.16762  -0.15848
 Alpha virt. eigenvalues --    0.24275   0.25533   0.27015   0.27692   0.28749
 Alpha virt. eigenvalues --    0.29585   0.30701   0.32479   0.33190   0.33520
 Alpha virt. eigenvalues --    0.34096   0.35383   0.37423   0.38565   0.39791
 Alpha virt. eigenvalues --    0.40301   0.41046   0.42267   0.43368   0.44117
 Alpha virt. eigenvalues --    0.44933   0.47274   0.49805   0.50747   0.52268
 Alpha virt. eigenvalues --    0.52638   0.53546   0.54313   0.54837   0.56960
 Alpha virt. eigenvalues --    0.57456   0.57948   0.59080   0.59335   0.59943
 Alpha virt. eigenvalues --    0.60942   0.61367   0.61523   0.62999   0.63344
 Alpha virt. eigenvalues --    0.63965   0.65200   0.66464   0.67506   0.68445
 Alpha virt. eigenvalues --    0.69789   0.70635   0.70998   0.72756   0.74265
 Alpha virt. eigenvalues --    0.75056   0.76747   0.77526   0.79380   0.80902
 Alpha virt. eigenvalues --    0.83451   0.85588   0.86075   0.88616   0.88923
 Alpha virt. eigenvalues --    0.91972   0.92253   0.93526   0.95039   0.95153
 Alpha virt. eigenvalues --    0.96551   0.97871   0.99093   0.99738   1.01158
 Alpha virt. eigenvalues --    1.01398   1.03109   1.05067   1.05852   1.06375
 Alpha virt. eigenvalues --    1.07492   1.08127   1.10217   1.10758   1.14396
 Alpha virt. eigenvalues --    1.16031   1.19092   1.19781   1.20937   1.21259
 Alpha virt. eigenvalues --    1.21445   1.23243   1.23965   1.24718   1.25991
 Alpha virt. eigenvalues --    1.27096   1.28233   1.30323   1.31166   1.31769
 Alpha virt. eigenvalues --    1.33229   1.33902   1.36052   1.37802   1.38902
 Alpha virt. eigenvalues --    1.39634   1.41127   1.42278   1.42513   1.44828
 Alpha virt. eigenvalues --    1.45725   1.47570   1.49362   1.49753   1.51869
 Alpha virt. eigenvalues --    1.53067   1.54707   1.56988   1.57486   1.58387
 Alpha virt. eigenvalues --    1.59279   1.59966   1.62607   1.63244   1.64765
 Alpha virt. eigenvalues --    1.66025   1.68270   1.68959   1.70441   1.72310
 Alpha virt. eigenvalues --    1.73106   1.74228   1.75126   1.76899   1.79581
 Alpha virt. eigenvalues --    1.80526   1.80782   1.83217   1.83899   1.88146
 Alpha virt. eigenvalues --    1.91506   1.95607   1.98219   2.01566   2.03561
 Alpha virt. eigenvalues --    2.04854   2.06624   2.10418   2.12562   2.14048
 Alpha virt. eigenvalues --    2.15520   2.15857   2.19954   2.21012   2.22418
 Alpha virt. eigenvalues --    2.23942   2.25182   2.28757   2.31509   2.32029
 Alpha virt. eigenvalues --    2.35638   2.37956   2.38623   2.39735   2.41791
 Alpha virt. eigenvalues --    2.43451   2.46045   2.47800   2.49658   2.53980
 Alpha virt. eigenvalues --    2.54393   2.55433   2.56886   2.58532   2.60675
 Alpha virt. eigenvalues --    2.64280   2.66601   2.68213   2.69291   2.73224
 Alpha virt. eigenvalues --    2.80734   2.81996   2.82398   2.84133   2.85021
 Alpha virt. eigenvalues --    2.86686   2.88341   2.91874   2.96211   2.97037
 Alpha virt. eigenvalues --    2.97866   3.00003   3.01110   3.02469   3.03858
 Alpha virt. eigenvalues --    3.05585   3.07475   3.08628   3.12223   3.13607
 Alpha virt. eigenvalues --    3.14902   3.16006   3.17992   3.18720   3.19161
 Alpha virt. eigenvalues --    3.19787   3.20697   3.23494   3.26094   3.27124
 Alpha virt. eigenvalues --    3.27923   3.28740   3.30417   3.32066   3.33201
 Alpha virt. eigenvalues --    3.34064   3.36000   3.37468   3.38991   3.39338
 Alpha virt. eigenvalues --    3.40714   3.40832   3.42205   3.44126   3.45763
 Alpha virt. eigenvalues --    3.47967   3.51053   3.52237   3.53793   3.56138
 Alpha virt. eigenvalues --    3.58559   3.60305   3.62646   3.65541   3.66627
 Alpha virt. eigenvalues --    3.68846   3.71857   3.74184   3.75140   3.76521
 Alpha virt. eigenvalues --    3.78493   3.79829   3.83530   3.83854   3.85983
 Alpha virt. eigenvalues --    3.86831   3.88539   3.89101   3.90620   3.91397
 Alpha virt. eigenvalues --    3.93781   3.94495   3.95624   3.95823   3.99888
 Alpha virt. eigenvalues --    4.02271   4.02580   4.04804   4.06087   4.06772
 Alpha virt. eigenvalues --    4.07725   4.14087   4.15421   4.16536   4.17429
 Alpha virt. eigenvalues --    4.19641   4.20269   4.20767   4.23647   4.25279
 Alpha virt. eigenvalues --    4.26041   4.29290   4.32333   4.34121   4.34638
 Alpha virt. eigenvalues --    4.37074   4.38216   4.38959   4.40429   4.42206
 Alpha virt. eigenvalues --    4.45594   4.46448   4.47847   4.51776   4.53390
 Alpha virt. eigenvalues --    4.54067   4.56641   4.58434   4.58820   4.66329
 Alpha virt. eigenvalues --    4.70439   4.71913   4.76310   4.77289   4.78360
 Alpha virt. eigenvalues --    4.80707   4.82279   4.87062   4.88810   4.89527
 Alpha virt. eigenvalues --    4.93437   4.94320   4.97131   4.99177   4.99900
 Alpha virt. eigenvalues --    5.01071   5.05630   5.06422   5.08480   5.11217
 Alpha virt. eigenvalues --    5.12576   5.14000   5.16836   5.17912   5.20965
 Alpha virt. eigenvalues --    5.22790   5.25266   5.25929   5.31882   5.32717
 Alpha virt. eigenvalues --    5.34596   5.36719   5.39566   5.43396   5.46177
 Alpha virt. eigenvalues --    5.48557   5.50799   5.51646   5.54950   5.56697
 Alpha virt. eigenvalues --    5.57653   5.58850   5.60677   5.61579   5.64055
 Alpha virt. eigenvalues --    5.66954   5.68132   5.68946   5.71799   5.72493
 Alpha virt. eigenvalues --    5.73664   5.75260   5.77138   5.79769   5.82480
 Alpha virt. eigenvalues --    5.82869   5.85722   5.85804   5.87341   5.90083
 Alpha virt. eigenvalues --    5.92585   5.94369   6.04121   6.06396   6.08744
 Alpha virt. eigenvalues --    6.10453   6.16721   6.17375   6.24313   6.25478
 Alpha virt. eigenvalues --    6.29251   6.32360   6.34200   6.36586   6.39518
 Alpha virt. eigenvalues --    6.43583   6.51049   6.67515   6.76033   6.85948
 Alpha virt. eigenvalues --    6.89181   6.90018   6.93519   6.95324   6.97648
 Alpha virt. eigenvalues --    6.99289   7.02454   7.03333   7.05302   7.07929
 Alpha virt. eigenvalues --    7.13911   7.15581   7.17970   7.20906   7.22706
 Alpha virt. eigenvalues --    7.25372   7.26032   7.31071   7.35174   7.37730
 Alpha virt. eigenvalues --    7.39789   7.44084   7.53952   7.71424   7.75697
 Alpha virt. eigenvalues --    7.82731   7.87711   8.01917  12.62623  23.49284
 Alpha virt. eigenvalues --   23.56849  23.61102  23.65540  44.09113  44.28941
 Alpha virt. eigenvalues --   44.34243  44.42549  44.45640
          Condensed to atoms (all electrons):
               1          2          3          4          5          6
     1  Si  11.598716   0.348900   0.671745  -0.016037   0.404548   0.406420
     2  O    0.348900   7.975250  -0.031437   0.000137  -0.018801  -0.023835
     3  O    0.671745  -0.031437   8.114191   0.097468  -0.024594  -0.034865
     4  H   -0.016037   0.000137   0.097468   0.402851   0.000595  -0.001288
     5  O    0.404548  -0.018801  -0.024594   0.000595   7.963896  -0.027751
     6  O    0.406420  -0.023835  -0.034865  -0.001288  -0.027751   7.932778
     7  C   -0.092621   0.004898  -0.020245   0.019139  -0.000999   0.325415
     8  H    0.002942   0.004770  -0.000272  -0.002660  -0.000049  -0.055123
     9  H    0.004660   0.000025  -0.000360  -0.001280  -0.000105  -0.047229
    10  C    0.009507  -0.002137   0.025472  -0.039455   0.000096  -0.077921
    11  H    0.010266   0.000004   0.002098  -0.015248  -0.000008   0.005641
    12  H    0.001834   0.000087  -0.000287   0.005337   0.000009   0.005291
    13  O    0.020439  -0.000925  -0.072315   0.315873  -0.000146   0.003809
    14  C   -0.035116  -0.079577  -0.001342  -0.000378   0.324505  -0.003565
    15  H   -0.001993   0.004833  -0.000185  -0.000002  -0.042808   0.000174
    16  H    0.003565   0.007999   0.000344  -0.000029  -0.052820  -0.000395
    17  C   -0.071318   0.332932  -0.003938   0.000018  -0.083692   0.005318
    18  H    0.002086  -0.052525  -0.000389  -0.000035   0.007748   0.002176
    19  H    0.001703  -0.043194  -0.000126  -0.000000   0.005892  -0.000194
               7          8          9         10         11         12
     1  Si  -0.092621   0.002942   0.004660   0.009507   0.010266   0.001834
     2  O    0.004898   0.004770   0.000025  -0.002137   0.000004   0.000087
     3  O   -0.020245  -0.000272  -0.000360   0.025472   0.002098  -0.000287
     4  H    0.019139  -0.002660  -0.001280  -0.039455  -0.015248   0.005337
     5  O   -0.000999  -0.000049  -0.000105   0.000096  -0.000008   0.000009
     6  O    0.325415  -0.055123  -0.047229  -0.077921   0.005641   0.005291
     7  C    4.896359   0.409469   0.346553   0.225269  -0.082141  -0.031841
     8  H    0.409469   0.711449  -0.058085  -0.062734   0.015287  -0.007297
     9  H    0.346553  -0.058085   0.744160  -0.014926  -0.003464   0.004616
    10  C    0.225269  -0.062734  -0.014926   4.769453   0.429879   0.374886
    11  H   -0.082141   0.015287  -0.003464   0.429879   0.697016  -0.049483
    12  H   -0.031841  -0.007297   0.004616   0.374886  -0.049483   0.710856
    13  O   -0.090541   0.009023   0.007797   0.308940  -0.049555  -0.037544
    14  C   -0.001090   0.000798   0.000052  -0.000204   0.000084   0.000003
    15  H    0.000114  -0.000010  -0.000002   0.000004   0.000000   0.000000
    16  H   -0.000182  -0.000004  -0.000003   0.000013   0.000001   0.000000
    17  C    0.001555  -0.001075   0.000215   0.000100  -0.000111   0.000037
    18  H   -0.000591  -0.000775  -0.000058   0.000224   0.000006  -0.000002
    19  H    0.000049   0.000015  -0.000001  -0.000002  -0.000001   0.000000
              13         14         15         16         17         18
     1  Si   0.020439  -0.035116  -0.001993   0.003565  -0.071318   0.002086
     2  O   -0.000925  -0.079577   0.004833   0.007999   0.332932  -0.052525
     3  O   -0.072315  -0.001342  -0.000185   0.000344  -0.003938  -0.000389
     4  H    0.315873  -0.000378  -0.000002  -0.000029   0.000018  -0.000035
     5  O   -0.000146   0.324505  -0.042808  -0.052820  -0.083692   0.007748
     6  O    0.003809  -0.003565   0.000174  -0.000395   0.005318   0.002176
     7  C   -0.090541  -0.001090   0.000114  -0.000182   0.001555  -0.000591
     8  H    0.009023   0.000798  -0.000010  -0.000004  -0.001075  -0.000775
     9  H    0.007797   0.000052  -0.000002  -0.000003   0.000215  -0.000058
    10  C    0.308940  -0.000204   0.000004   0.000013   0.000100   0.000224
    11  H   -0.049555   0.000084   0.000000   0.000001  -0.000111   0.000006
    12  H   -0.037544   0.000003   0.000000   0.000000   0.000037  -0.000002
    13  O    8.036820   0.000148  -0.000001   0.000009  -0.000245   0.000017
    14  C    0.000148   4.724316   0.367370   0.419044   0.290859  -0.057490
    15  H   -0.000001   0.367370   0.742848  -0.076189  -0.009322  -0.016485
    16  H    0.000009   0.419044  -0.076189   0.732365  -0.064945   0.016816
    17  C   -0.000245   0.290859  -0.009322  -0.064945   4.750336   0.402794
    18  H    0.000017  -0.057490  -0.016485   0.016816   0.402794   0.748249
    19  H   -0.000005  -0.014670   0.009177  -0.016598   0.372232  -0.074962
              19
     1  Si   0.001703
     2  O   -0.043194
     3  O   -0.000126
     4  H   -0.000000
     5  O    0.005892
     6  O   -0.000194
     7  C    0.000049
     8  H    0.000015
     9  H   -0.000001
    10  C   -0.000002
    11  H   -0.000001
    12  H    0.000000
    13  O   -0.000005
    14  C   -0.014670
    15  H    0.009177
    16  H   -0.016598
    17  C    0.372232
    18  H   -0.074962
    19  H    0.736243
 Mulliken charges:
               1
     1  Si   0.729755
     2  O   -0.427403
     3  O   -0.720964
     4  H    0.234993
     5  O   -0.455515
     6  O   -0.414855
     7  C    0.091429
     8  H    0.034332
     9  H    0.017436
    10  C    0.053536
    11  H    0.039730
    12  H    0.023498
    13  O   -0.451599
    14  C    0.066253
    15  H    0.022476
    16  H    0.031009
    17  C    0.078251
    18  H    0.023196
    19  H    0.024442
 Sum of Mulliken charges =  -1.00000
 Mulliken charges with hydrogens summed into heavy atoms:
               1
     1  Si   0.729755
     2  O   -0.427403
     3  O   -0.720964
     5  O   -0.455515
     6  O   -0.414855
     7  C    0.143197
    10  C    0.116763
    13  O   -0.216606
    14  C    0.119738
    17  C    0.125889
 Electronic spatial extent (au):  <R**2>=           1648.3281
 Charge=             -1.0000 electrons
 Dipole moment (field-independent basis, Debye):
    X=              1.9909    Y=             -4.2411    Z=              0.4214  Tot=              4.7041
 Quadrupole moment (field-independent basis, Debye-Ang):
   XX=            -75.1625   YY=            -78.7823   ZZ=            -77.5127
   XY=              3.9243   XZ=              5.9070   YZ=             -0.2708
 Traceless Quadrupole moment (field-independent basis, Debye-Ang):
   XX=              1.9900   YY=             -1.6298   ZZ=             -0.3602
   XY=              3.9243   XZ=              5.9070   YZ=             -0.2708
 Octapole moment (field-independent basis, Debye-Ang**2):
  XXX=             18.4212  YYY=            -13.0577  ZZZ=             -2.8658  XYY=              5.4833
  XXY=             -8.1334  XXZ=             -5.6901  XZZ=              0.0972  YZZ=             -0.7931
  YYZ=              5.8694  XYZ=              4.0713
 Hexadecapole moment (field-independent basis, Debye-Ang**3):
 XXXX=          -1568.0812 YYYY=           -418.2936 ZZZZ=           -323.9450 XXXY=             17.1853
 XXXZ=             28.6666 YYYX=             -0.2304 YYYZ=             12.0083 ZZZX=              5.9338
 ZZZY=              1.3530 XXYY=           -320.6309 XXZZ=           -327.5230 YYZZ=           -119.9483
 XXYZ=             -7.0644 YYXZ=             -3.1449 ZZXY=              3.5017
 N-N= 7.181964489240D+02 E-N=-3.398624375913D+03  KE= 8.208712566141D+02
   1 Symmetry operations used in ECPInt.
 ECPInt:  NShTT=   14028 NPrTT=   39320 LenC2=   13268 LenP2D=   29011.
 LDataN:  DoStor=T MaxTD1= 7 Len=  274
 Calling FoFJK, ICntrl=      2127 FMM=F ISym2X=0 I1Cent= 0 IOpClX= 0 NMat=1 NMatS=1 NMatT=0.
 ***** Axes restored to original set *****
 -------------------------------------------------------------------
 Center     Atomic                   Forces (Hartrees/Bohr)
 Number     Number              X              Y              Z
 -------------------------------------------------------------------
      1       14           0.002070406    0.000763862   -0.001463943
      2        8           0.001031888    0.000437418   -0.000821371
      3        8          -0.001115907   -0.000764428    0.001151717
      4        1           0.000541815    0.000055734   -0.000060581
      5        8           0.001397939   -0.000601337   -0.000728388
      6        8           0.000716088    0.000372316    0.000025826
      7        6           0.000852224    0.000682378    0.001163460
      8        1           0.000083936    0.000269223    0.000106019
      9        1           0.000140541   -0.000012154    0.000298607
     10        6          -0.000704052    0.000124825   -0.000571178
     11        1           0.000142453    0.000021578   -0.000018839
     12        1           0.000037417    0.000041244   -0.000231943
     13        8          -0.006588022    0.000230562    0.001616094
     14        6           0.000880003   -0.000803680   -0.000117059
     15        1           0.000082998   -0.000096614   -0.000009109
     16        1           0.000094540   -0.000062551   -0.000000477
     17        6           0.000333358   -0.000545003   -0.000272303
     18        1          -0.000023248   -0.000029220   -0.000045054
     19        1           0.000025622   -0.000084154   -0.000021478
 -------------------------------------------------------------------
 Cartesian Forces:  Max     0.006588022 RMS     0.001088890

 GradGradGradGradGradGradGradGradGradGradGradGradGradGradGradGradGradGrad
 Berny optimization.
 FormGI is forming the generalized inverse of G from B-inverse, IUseBI=4.
 Internal  Forces:  Max     0.020195291 RMS     0.003406353
 Search for a local minimum.
 Step number   1 out of a maximum of  102
 All quantities printed in internal units (Hartrees-Bohrs-Radians)
 Mixed Optimization -- RFO/linear search
 Second derivative matrix not updated -- first step.
 ITU=  0
     Eigenvalues ---    0.00434   0.00896   0.01712   0.01758   0.02681
     Eigenvalues ---    0.03425   0.04739   0.04867   0.04892   0.04903
     Eigenvalues ---    0.05898   0.06014   0.06105   0.06277   0.10419
     Eigenvalues ---    0.11140   0.11228   0.11275   0.11677   0.11855
     Eigenvalues ---    0.12005   0.14048   0.14128   0.14326   0.15735
     Eigenvalues ---    0.16000   0.16724   0.21755   0.22089   0.22105
     Eigenvalues ---    0.22152   0.25000   0.27920   0.29883   0.33634
     Eigenvalues ---    0.33731   0.33734   0.33755   0.33833   0.33869
     Eigenvalues ---    0.34129   0.34170   0.35128   0.36597   0.39876
     Eigenvalues ---    0.43682   0.44930   0.45876   0.46460   0.47793
     Eigenvalues ---    0.61742
 RFO step:  Lambda=-8.02025662D-03 EMin= 4.34311121D-03
 Linear search not attempted -- first point.
 Iteration  1 RMS(Cart)=  0.19915219 RMS(Int)=  0.01161954
 Iteration  2 RMS(Cart)=  0.02494564 RMS(Int)=  0.00051040
 Iteration  3 RMS(Cart)=  0.00044777 RMS(Int)=  0.00048054
 Iteration  4 RMS(Cart)=  0.00000051 RMS(Int)=  0.00048054
 Variable       Old X    -DE/DX   Delta X   Delta X   Delta X     New X
                                 (Linear)    (Quad)   (Total)
    R1        3.20260   0.00018   0.00000   0.00043   0.00043   3.20303
    R2        2.93288  -0.00024   0.00000  -0.00038  -0.00038   2.93250
    R3        3.17981   0.00260   0.00000   0.00695   0.00695   3.18676
    R4        3.15422   0.00066   0.00000   0.00161   0.00161   3.15583
    R5        2.64060   0.00102   0.00000   0.00193   0.00193   2.64253
    R6        1.88861   0.00043   0.00000   0.00090   0.00090   1.88950
    R7        2.64556   0.00032   0.00000   0.00080   0.00079   2.64636
    R8        2.64271   0.00536   0.00000   0.01149   0.01149   2.65421
    R9        2.07781  -0.00004   0.00000  -0.00012  -0.00012   2.07769
   R10        2.07613  -0.00026   0.00000  -0.00074  -0.00074   2.07540
   R11        2.88197   0.00450   0.00000   0.01467   0.01467   2.89663
   R12        2.07745   0.00000   0.00000   0.00000   0.00000   2.07746
   R13        2.07552  -0.00012   0.00000  -0.00035  -0.00035   2.07517
   R14        2.63616  -0.00091   0.00000  -0.00192  -0.00192   2.63424
   R15        2.07044   0.00012   0.00000   0.00034   0.00034   2.07078
   R16        2.07786  -0.00001   0.00000  -0.00004  -0.00004   2.07782
   R17        2.90150  -0.00037   0.00000  -0.00134  -0.00134   2.90016
   R18        2.07951   0.00004   0.00000   0.00010   0.00010   2.07962
   R19        2.07113  -0.00002   0.00000  -0.00004  -0.00004   2.07109
    A1        2.02865   0.00053   0.00000   0.00323   0.00323   2.03189
    A2        1.65758  -0.00129   0.00000  -0.00613  -0.00615   1.65143
    A3        1.86665  -0.00006   0.00000  -0.00104  -0.00109   1.86556
    A4        2.05836   0.00173   0.00000   0.01012   0.01013   2.06849
    A5        2.01764   0.00027   0.00000   0.00213   0.00214   2.01978
    A6        1.78777  -0.00168   0.00000  -0.01132  -0.01133   1.77644
    A7        1.91900   0.00070   0.00000   0.00334   0.00333   1.92234
    A8        1.91802   0.00099   0.00000   0.00658   0.00657   1.92458
    A9        2.19017   0.02020   0.00000   0.07827   0.07827   2.26844
   A10        1.91774  -0.00369   0.00000   0.01338   0.01068   1.92842
   A11        1.88312  -0.00596   0.00000  -0.04705  -0.04574   1.83738
   A12        1.99834   0.01533   0.00000   0.07123   0.07015   2.06850
   A13        1.88034   0.00136   0.00000  -0.00998  -0.00992   1.87042
   A14        1.88721  -0.00150   0.00000   0.01557   0.01338   1.90059
   A15        1.89373  -0.00622   0.00000  -0.04836  -0.04730   1.84643
   A16        1.89404  -0.00240   0.00000  -0.00283  -0.00340   1.89064
   A17        1.87675  -0.00239   0.00000  -0.01735  -0.01710   1.85965
   A18        1.97689   0.00932   0.00000   0.04352   0.04332   2.02022
   A19        1.87966   0.00081   0.00000  -0.00660  -0.00670   1.87296
   A20        1.94089  -0.00172   0.00000   0.00786   0.00731   1.94820
   A21        1.89217  -0.00399   0.00000  -0.02780  -0.02748   1.86468
   A22        1.85928   0.00012   0.00000   0.00072   0.00072   1.86000
   A23        1.92272   0.00041   0.00000   0.00143   0.00143   1.92415
   A24        1.92552   0.00011   0.00000   0.00068   0.00068   1.92620
   A25        1.86749  -0.00071   0.00000  -0.00295  -0.00295   1.86453
   A26        1.88575  -0.00009   0.00000   0.00005   0.00005   1.88579
   A27        1.94639   0.00013   0.00000   0.00108   0.00109   1.94748
   A28        1.91638   0.00016   0.00000  -0.00027  -0.00028   1.91610
   A29        1.86429   0.00047   0.00000   0.00095   0.00093   1.86522
   A30        1.93133  -0.00034   0.00000  -0.00091  -0.00091   1.93042
   A31        1.92469   0.00007   0.00000   0.00083   0.00084   1.92553
   A32        1.91531  -0.00013   0.00000  -0.00018  -0.00017   1.91514
   A33        1.94402  -0.00011   0.00000  -0.00039  -0.00039   1.94362
   A34        1.88473   0.00004   0.00000  -0.00031  -0.00031   1.88442
    D1       -2.35527  -0.00122   0.00000  -0.01708  -0.01708  -2.37235
    D2       -0.18148   0.00025   0.00000  -0.00753  -0.00752  -0.18901
    D3        1.64449  -0.00198   0.00000  -0.02176  -0.02175   1.62275
    D4       -0.20780  -0.00015   0.00000   0.00842   0.00843  -0.19937
    D5        1.94338   0.00038   0.00000   0.01269   0.01269   1.95608
    D6       -2.10313   0.00053   0.00000   0.01298   0.01293  -2.09020
    D7        1.25906   0.00355   0.00000   0.06652   0.06651   1.32557
    D8       -1.03051   0.00264   0.00000   0.06124   0.06125  -0.96927
    D9        2.99053   0.00156   0.00000   0.05571   0.05572   3.04625
   D10        0.47755   0.00000   0.00000   0.00512   0.00514   0.48269
   D11       -1.60650   0.00007   0.00000   0.00529   0.00530  -1.60120
   D12        2.59254   0.00020   0.00000   0.00571   0.00572   2.59826
   D13        2.61671  -0.00009   0.00000  -0.00716  -0.00717   2.60955
   D14       -1.58598   0.00013   0.00000  -0.00577  -0.00578  -1.59176
   D15        0.49802  -0.00004   0.00000  -0.00748  -0.00750   0.49052
   D16       -1.36525   0.00046   0.00000   0.11213   0.11160  -1.25365
   D17        2.87237   0.00427   0.00000   0.14366   0.14335   3.01572
   D18        0.76220   0.00656   0.00000   0.19322   0.19406   0.95626
   D19        1.04403  -0.00198   0.00000  -0.11216  -0.11289   0.93114
   D20        3.07266  -0.00353   0.00000  -0.13055  -0.13125   2.94141
   D21       -1.12028  -0.00444   0.00000  -0.15042  -0.15136  -1.27164
   D22       -3.09511   0.00260   0.00000  -0.03439  -0.03380  -3.12892
   D23       -1.06648   0.00105   0.00000  -0.05278  -0.05216  -1.11865
   D24        1.02376   0.00014   0.00000  -0.07266  -0.07227   0.95149
   D25       -1.06027   0.00009   0.00000  -0.06361  -0.06329  -1.12355
   D26        0.96836  -0.00146   0.00000  -0.08200  -0.08165   0.88671
   D27        3.05861  -0.00237   0.00000  -0.10187  -0.10176   2.95685
   D28        1.36057   0.00057   0.00000   0.00818   0.00854   1.36911
   D29       -0.77794  -0.00182   0.00000  -0.02603  -0.02625  -0.80419
   D30       -2.84120   0.00066   0.00000  -0.00537  -0.00551  -2.84671
   D31       -0.62657   0.00041   0.00000   0.00368   0.00369  -0.62289
   D32        1.46780   0.00020   0.00000   0.00304   0.00305   1.47085
   D33       -2.72923   0.00009   0.00000   0.00229   0.00230  -2.72693
   D34       -2.73024   0.00029   0.00000   0.00318   0.00318  -2.72706
   D35       -0.63587   0.00008   0.00000   0.00254   0.00254  -0.63333
   D36        1.45028  -0.00003   0.00000   0.00179   0.00179   1.45207
   D37        1.46331   0.00021   0.00000   0.00261   0.00261   1.46592
   D38       -2.72550   0.00000   0.00000   0.00197   0.00197  -2.72353
   D39       -0.63935  -0.00010   0.00000   0.00122   0.00122  -0.63813
         Item               Value     Threshold  Converged?
 Maximum Force            0.020195     0.000450     NO 
 RMS     Force            0.003406     0.000300     NO 
 Maximum Displacement     0.973003     0.001800     NO 
 RMS     Displacement     0.214863     0.001200     NO 
 Predicted change in Energy=-4.804224D-03
 GradGradGradGradGradGradGradGradGradGradGradGradGradGradGradGradGradGrad

                          Input orientation:                          
 ---------------------------------------------------------------------
 Center     Atomic      Atomic             Coordinates (Angstroms)
 Number     Number       Type             X           Y           Z
 ---------------------------------------------------------------------
      1         14           0        0.403473    0.381245   -0.147018
      2          8           0        1.155330   -0.180817    1.264268
      3          8           0       -0.206220    1.806864   -0.083669
      4          1           0       -2.144348    1.438731    0.668160
      5          8           0        1.749655    0.124303   -1.129657
      6          8           0       -0.629135   -0.826572   -0.660614
      7          6           0       -1.883406   -1.214145   -0.161274
      8          1           0       -1.771701   -1.722891    0.806988
      9          1           0       -2.262364   -1.956980   -0.875939
     10          6           0       -2.982726   -0.152791   -0.040460
     11          1           0       -3.095549    0.340634   -1.016349
     12          1           0       -3.917345   -0.692230    0.162970
     13          8           0       -2.819356    0.773991    0.987922
     14          6           0        2.876605   -0.152891   -0.345918
     15          1           0        3.560865   -0.816199   -0.886855
     16          1           0        3.416860    0.775450   -0.110791
     17          6           0        2.368640   -0.800602    0.949357
     18          1           0        2.222883   -1.880066    0.792573
     19          1           0        3.085743   -0.671641    1.768069
 ---------------------------------------------------------------------
                    Distance matrix (angstroms):
                    1          2          3          4          5
     1  Si   0.000000
     2  O    1.694972   0.000000
     3  O    1.551814   2.760730   0.000000
     4  H    2.876488   3.723729   2.111186   0.000000
     5  O    1.686359   2.485397   2.783981   4.485881   0.000000
     6  O    1.669994   2.703051   2.728865   3.032014   2.604382
     7  C    2.788420   3.511959   3.456222   2.791738   3.991033
     8  H    3.173152   3.339852   3.962722   3.186532   4.422971
     9  H    3.620125   4.406345   4.361414   3.732160   4.526854
    10  C    3.429708   4.338965   3.398691   1.933381   4.864008
    11  H    3.605626   4.852123   3.371638   2.224448   4.851355
    12  H    4.462949   5.215979   4.480932   2.817753   5.869626
    13  O    3.439326   4.097091   3.007260   0.999881   5.077608
    14  C    2.537960   2.357173   3.662407   5.363915   1.400392
    15  H    3.456928   3.289017   4.660096   6.328683   2.055231
    16  H    3.039278   2.814205   3.767129   5.654533   2.059528
    17  C    2.541787   1.398364   3.807351   5.045864   2.358154
    18  H    3.050674   2.061459   4.501310   5.486583   2.817163
    19  H    3.459870   2.054560   4.517626   5.746070   3.288689
                    6          7          8          9         10
     6  O    0.000000
     7  C    1.404546   0.000000
     8  H    2.064630   1.099468   0.000000
     9  H    1.997905   1.098253   1.768556   0.000000
    10  C    2.525463   1.532832   2.156377   2.114721   0.000000
    11  H    2.751748   2.148903   3.055366   2.448048   1.099343
    12  H    3.392443   2.124721   2.465930   2.327635   1.098131
    13  O    3.174357   2.479786   2.713805   3.352972   1.393982
    14  C    3.583725   4.880374   5.039924   5.472171   5.867288
    15  H    4.196116   5.506806   5.668108   5.933927   6.631371
    16  H    4.386212   5.661612   5.831397   6.348638   6.466938
    17  C    3.402842   4.414115   4.244209   5.110295   5.480558
    18  H    3.369808   4.267889   3.997701   4.786155   5.547593
    19  H    4.441038   5.358088   5.061972   6.102878   6.353448
                   11         12         13         14         15
    11  H    0.000000
    12  H    1.770015   0.000000
    13  O    2.069102   2.008963   0.000000
    14  C    6.029897   6.834297   5.923023   0.000000
    15  H    6.757431   7.552557   6.837449   1.095811   0.000000
    16  H    6.589429   7.484624   6.332264   1.099535   1.776614
    17  C    5.918089   6.335910   5.421820   1.534697   2.189364
    18  H    6.040647   6.285678   5.701434   2.169481   2.396348
    19  H    6.854637   7.184706   6.129329   2.186728   2.700973
                   16         17         18         19
    16  H    0.000000
    17  C    2.169474   0.000000
    18  H    3.048510   1.100486   0.000000
    19  H    2.394541   1.095973   1.776629   0.000000
 Stoichiometry    C4H9O5Si(1-)
 Framework group  C1[X(C4H9O5Si)]
 Deg. of freedom    51
 Full point group                 C1      NOp   1
 Largest Abelian subgroup         C1      NOp   1
 Largest concise Abelian subgroup C1      NOp   1
                         Standard orientation:                         
 ---------------------------------------------------------------------
 Center     Atomic      Atomic             Coordinates (Angstroms)
 Number     Number       Type             X           Y           Z
 ---------------------------------------------------------------------
      1         14           0        0.380088    0.390085   -0.210208
      2          8           0        1.114623   -0.063835    1.248335
      3          8           0       -0.293653    1.787729   -0.238305
      4          1           0       -2.234686    1.370521    0.479632
      5          8           0        1.764382    0.144800   -1.141536
      6          8           0       -0.582679   -0.888424   -0.687048
      7          6           0       -1.832598   -1.306747   -0.201808
      8          1           0       -1.726765   -1.759470    0.794520
      9          1           0       -2.157340   -2.101833   -0.886308
     10          6           0       -2.980841   -0.291924   -0.166502
     11          1           0       -3.086891    0.145072   -1.169669
     12          1           0       -3.896216   -0.862343    0.039901
     13          8           0       -2.888663    0.692933    0.815713
     14          6           0        2.879170   -0.040010   -0.314377
     15          1           0        3.607573   -0.698262   -0.801138
     16          1           0        3.370753    0.922891   -0.114015
     17          6           0        2.362820   -0.642891    0.999096
     18          1           0        2.269583   -1.734512    0.895463
     19          1           0        3.049353   -0.439437    1.828816
 ---------------------------------------------------------------------
 Rotational constants (GHZ):           2.4643270           0.7302267           0.7004572
 Standard basis: def2TZVPP (5D, 7F)
 There are   507 symmetry adapted cartesian basis functions of A   symmetry.
 There are   447 symmetry adapted basis functions of A   symmetry.
   447 basis functions,   681 primitive gaussians,   507 cartesian basis functions
    44 alpha electrons       44 beta electrons
       nuclear repulsion energy       701.7765334244 Hartrees.
 NAtoms=   19 NActive=   19 NUniq=   19 SFac= 1.00D+00 NAtFMM=   60 NAOKFM=F Big=F
 Integral buffers will be    131072 words long.
 Raffenetti 2 integral format.
 Two-electron integral symmetry is turned on.
 Nuclear repulsion after empirical dispersion term =      701.7667811538 Hartrees.
 One-electron integrals computed using PRISM.
   1 Symmetry operations used in ECPInt.
 ECPInt:  NShTT=   14028 NPrTT=   39320 LenC2=   13129 LenP2D=   28538.
 LDataN:  DoStor=T MaxTD1= 6 Len=  172
 NBasis=   447 RedAO= T EigKep=  3.07D-04  NBF=   447
 NBsUse=   447 1.00D-06 EigRej= -1.00D+00 NBFU=   447
 Initial guess from the checkpoint file:  "QbiLmL_to_PbiL2_IRCforward_ReactantOpt.chk"
 B after Tr=    -0.000000    0.000000   -0.000000
         Rot=    0.999818   -0.015684    0.005939   -0.009138 Ang=  -2.19 deg.
 ExpMin= 7.01D-02 ExpMax= 4.48D+04 ExpMxC= 1.53D+03 IAcc=3 IRadAn=         5 AccDes= 0.00D+00
 Harris functional with IExCor= 4639 and IRadAn=       5 diagonalized for initial guess.
 HarFok:  IExCor= 4639 AccDes= 0.00D+00 IRadAn=         5 IDoV= 1 UseB2=F ITyADJ=14
 ICtDFT=  3500011 ScaDFX=  1.000000  1.000000  1.000000  1.000000
 FoFCou: FMM=F IPFlag=           0 FMFlag=      100000 FMFlg1=           0
         NFxFlg=           0 DoJE=T BraDBF=F KetDBF=T FulRan=T
         wScrn=  0.000000 ICntrl=       500 IOpCl=  0 I1Cent=   200000004 NGrid=           0
         NMat0=    1 NMatS0=      1 NMatT0=    0 NMatD0=    1 NMtDS0=    0 NMtDT0=    0
 Petite list used in FoFCou.
 Requested convergence on RMS density matrix=1.00D-08 within 128 cycles.
 Requested convergence on MAX density matrix=1.00D-06.
 Requested convergence on             energy=1.00D-06.
 No special actions if energy rises.
 Integral accuracy reduced to 1.0D-05 until final iterations.
 Initial convergence to 1.0D-05 achieved.  Increase integral accuracy.
 SCF Done:  E(RwB97XD) =  -823.733800843     A.U. after   13 cycles
            NFock= 13  Conv=0.61D-08     -V/T= 2.0037
   1 Symmetry operations used in ECPInt.
 ECPInt:  NShTT=   14028 NPrTT=   39320 LenC2=   13129 LenP2D=   28538.
 LDataN:  DoStor=T MaxTD1= 7 Len=  274
 Calling FoFJK, ICntrl=      2127 FMM=F ISym2X=0 I1Cent= 0 IOpClX= 0 NMat=1 NMatS=1 NMatT=0.
 ***** Axes restored to original set *****
 -------------------------------------------------------------------
 Center     Atomic                   Forces (Hartrees/Bohr)
 Number     Number              X              Y              Z
 -------------------------------------------------------------------
      1       14          -0.007182827    0.009906405    0.001063579
      2        8           0.001633445   -0.000764217    0.000571920
      3        8          -0.007305701   -0.006289684    0.002477564
      4        1          -0.005690485   -0.018708121    0.009169701
      5        8           0.002281720   -0.001121242   -0.000713061
      6        8          -0.006880751    0.000696477    0.002773801
      7        6           0.004685526   -0.001809019   -0.004303401
      8        1           0.000302909    0.002381787    0.000700432
      9        1          -0.001804865   -0.001589917    0.001554857
     10        6           0.003572601   -0.004042775   -0.005468367
     11        1           0.000639852    0.000224699    0.000714517
     12        1           0.001042186   -0.000611834   -0.000468501
     13        8           0.016068262    0.022961192   -0.007757206
     14        6          -0.001165237   -0.000181141   -0.000684938
     15        1           0.000048231   -0.000158017    0.000055385
     16        1           0.000147790    0.000052947   -0.000063366
     17        6          -0.000377508   -0.000799792    0.000241651
     18        1           0.000031689   -0.000085725   -0.000054750
     19        1          -0.000046836   -0.000062024    0.000190183
 -------------------------------------------------------------------
 Cartesian Forces:  Max     0.022961192 RMS     0.005542063

 GradGradGradGradGradGradGradGradGradGradGradGradGradGradGradGradGradGrad
 Berny optimization.
 Using GEDIIS/GDIIS optimizer.
 FormGI is forming the generalized inverse of G from B-inverse, IUseBI=4.
 Internal  Forces:  Max     0.044689509 RMS     0.008574238
 Search for a local minimum.
 Step number   2 out of a maximum of  102
 All quantities printed in internal units (Hartrees-Bohrs-Radians)
 Mixed Optimization -- RFO/linear search
 Update second derivatives using D2CorX and points    2    1
 DE=  4.45D-03 DEPred=-4.80D-03 R=-9.25D-01
 Trust test=-9.25D-01 RLast= 4.32D-01 DXMaxT set to 1.50D-01
 ITU= -1  0
 Use linear search instead of GDIIS.
     Eigenvalues ---    0.00466   0.00897   0.01467   0.01954   0.02655
     Eigenvalues ---    0.03093   0.04426   0.04888   0.04901   0.05062
     Eigenvalues ---    0.05900   0.06105   0.06208   0.06278   0.10420
     Eigenvalues ---    0.11094   0.11208   0.11264   0.11944   0.11991
     Eigenvalues ---    0.12299   0.14126   0.14248   0.14424   0.15668
     Eigenvalues ---    0.16001   0.16794   0.21574   0.22034   0.22154
     Eigenvalues ---    0.23722   0.27903   0.29693   0.33634   0.33731
     Eigenvalues ---    0.33733   0.33754   0.33831   0.33866   0.34129
     Eigenvalues ---    0.34170   0.35075   0.36489   0.39575   0.42690
     Eigenvalues ---    0.43680   0.44921   0.46395   0.46895   0.61641
     Eigenvalues ---    0.77720
 RFO step:  Lambda=-2.19173015D-03 EMin= 4.66162021D-03
 Quartic linear search produced a step of -0.75360.
 Iteration  1 RMS(Cart)=  0.12764648 RMS(Int)=  0.00773889
 Iteration  2 RMS(Cart)=  0.01133162 RMS(Int)=  0.00025803
 Iteration  3 RMS(Cart)=  0.00012079 RMS(Int)=  0.00024594
 Iteration  4 RMS(Cart)=  0.00000004 RMS(Int)=  0.00024594
 Variable       Old X    -DE/DX   Delta X   Delta X   Delta X     New X
                                 (Linear)    (Quad)   (Total)
    R1        3.20303   0.00160  -0.00033   0.00140   0.00107   3.20410
    R2        2.93250  -0.00281   0.00028  -0.00152  -0.00123   2.93127
    R3        3.18676   0.00221  -0.00524   0.00785   0.00261   3.18937
    R4        3.15583  -0.00607  -0.00122  -0.00228  -0.00350   3.15234
    R5        2.64253  -0.00024  -0.00145   0.00190   0.00045   2.64297
    R6        1.88950  -0.01921  -0.00067  -0.00927  -0.00995   1.87955
    R7        2.64636  -0.00076  -0.00060   0.00031  -0.00028   2.64608
    R8        2.65421  -0.01856  -0.00866   0.00093  -0.00774   2.64647
    R9        2.07769  -0.00046   0.00009  -0.00045  -0.00036   2.07733
   R10        2.07540   0.00069   0.00056  -0.00020   0.00036   2.07576
   R11        2.89663  -0.01164  -0.01105   0.00418  -0.00687   2.88976
   R12        2.07746  -0.00060  -0.00000  -0.00044  -0.00045   2.07701
   R13        2.07517  -0.00067   0.00027  -0.00084  -0.00057   2.07459
   R14        2.63424   0.00509   0.00144   0.00090   0.00235   2.63659
   R15        2.07078   0.00010  -0.00025   0.00040   0.00014   2.07092
   R16        2.07782   0.00011   0.00003   0.00004   0.00007   2.07789
   R17        2.90016   0.00010   0.00101  -0.00079   0.00022   2.90038
   R18        2.07962   0.00009  -0.00008   0.00016   0.00009   2.07970
   R19        2.07109   0.00010   0.00003   0.00004   0.00007   2.07116
    A1        2.03189   0.00152  -0.00244   0.00432   0.00181   2.03370
    A2        1.65143  -0.00116   0.00463  -0.00552  -0.00088   1.65055
    A3        1.86556   0.00074   0.00082  -0.00227  -0.00143   1.86413
    A4        2.06849   0.00657  -0.00764   0.02095   0.01331   2.08179
    A5        2.01978  -0.00892  -0.00161  -0.01143  -0.01306   2.00672
    A6        1.77644   0.00277   0.00854  -0.00648   0.00207   1.77851
    A7        1.92234   0.00058  -0.00251   0.00285   0.00034   1.92268
    A8        1.92458   0.00038  -0.00495   0.00498   0.00005   1.92463
    A9        2.26844  -0.04469  -0.05898   0.02901  -0.02997   2.23846
   A10        1.92842   0.01400  -0.00805   0.00379  -0.00285   1.92557
   A11        1.83738   0.01590   0.03447  -0.00994   0.02385   1.86122
   A12        2.06850  -0.04455  -0.05287   0.01155  -0.04079   2.02770
   A13        1.87042  -0.00339   0.00748   0.00189   0.00929   1.87971
   A14        1.90059   0.00939  -0.01008   0.00811  -0.00090   1.89969
   A15        1.84643   0.01174   0.03565  -0.01808   0.01705   1.86347
   A16        1.89064   0.00123   0.00256  -0.01278  -0.01000   1.88064
   A17        1.85965   0.00701   0.01289   0.00218   0.01494   1.87460
   A18        2.02022  -0.01753  -0.03265   0.01831  -0.01435   2.00586
   A19        1.87296  -0.00106   0.00505   0.00083   0.00603   1.87898
   A20        1.94820   0.00461  -0.00551  -0.00297  -0.00834   1.93985
   A21        1.86468   0.00697   0.02071  -0.00609   0.01445   1.87913
   A22        1.86000  -0.00170  -0.00054  -0.00199  -0.00253   1.85747
   A23        1.92415   0.00004  -0.00108   0.00170   0.00062   1.92478
   A24        1.92620  -0.00010  -0.00051   0.00042  -0.00009   1.92610
   A25        1.86453   0.00019   0.00223  -0.00253  -0.00031   1.86423
   A26        1.88579   0.00001  -0.00004  -0.00014  -0.00018   1.88562
   A27        1.94748  -0.00037  -0.00082   0.00076  -0.00007   1.94741
   A28        1.91610   0.00022   0.00021  -0.00020   0.00002   1.91612
   A29        1.86522   0.00008  -0.00070   0.00089   0.00020   1.86543
   A30        1.93042  -0.00002   0.00069  -0.00109  -0.00041   1.93001
   A31        1.92553  -0.00009  -0.00063   0.00079   0.00015   1.92568
   A32        1.91514  -0.00030   0.00013  -0.00023  -0.00011   1.91503
   A33        1.94362   0.00036   0.00030  -0.00008   0.00023   1.94385
   A34        1.88442  -0.00003   0.00023  -0.00031  -0.00007   1.88435
    D1       -2.37235  -0.00722   0.01287  -0.02773  -0.01487  -2.38722
    D2       -0.18901   0.00059   0.00567  -0.00426   0.00141  -0.18760
    D3        1.62275   0.00326   0.01639  -0.01331   0.00308   1.62583
    D4       -0.19937  -0.00059  -0.00635   0.00438  -0.00199  -0.20136
    D5        1.95608   0.00346  -0.00957   0.01534   0.00579   1.96187
    D6       -2.09020  -0.00149  -0.00975   0.00908  -0.00062  -2.09081
    D7        1.32557   0.00322  -0.05012   0.07261   0.02252   1.34809
    D8       -0.96927   0.00785  -0.04615   0.07819   0.03199  -0.93728
    D9        3.04625   0.00310  -0.04199   0.06389   0.02190   3.06815
   D10        0.48269  -0.00048  -0.00387   0.00348  -0.00041   0.48228
   D11       -1.60120  -0.00016  -0.00399   0.00383  -0.00017  -1.60137
   D12        2.59826  -0.00005  -0.00431   0.00440   0.00008   2.59834
   D13        2.60955   0.00010   0.00540  -0.00341   0.00200   2.61155
   D14       -1.59176   0.00008   0.00435  -0.00224   0.00212  -1.58964
   D15        0.49052   0.00040   0.00565  -0.00376   0.00191   0.49244
   D16       -1.25365   0.00550  -0.08410   0.00786  -0.07596  -1.32960
   D17        3.01572  -0.00588  -0.10803   0.00923  -0.09869   2.91703
   D18        0.95626  -0.00641  -0.14624   0.03313  -0.11351   0.84276
   D19        0.93114   0.00158   0.08507   0.10949   0.19503   1.12618
   D20        2.94141   0.00449   0.09891   0.10537   0.20466  -3.13711
   D21       -1.27164   0.00773   0.11406   0.11024   0.22479  -1.04685
   D22       -3.12892  -0.00737   0.02547   0.13230   0.15749  -2.97143
   D23       -1.11865  -0.00446   0.03931   0.12818   0.16712  -0.95153
   D24        0.95149  -0.00122   0.05446   0.13305   0.18724   1.13873
   D25       -1.12355  -0.00090   0.04769   0.12910   0.17668  -0.94687
   D26        0.88671   0.00201   0.06153   0.12499   0.18631   1.07303
   D27        2.95685   0.00524   0.07668   0.12985   0.20644  -3.11989
   D28        1.36911  -0.00987  -0.00643  -0.08349  -0.09011   1.27899
   D29       -0.80419  -0.00127   0.01978  -0.07824  -0.05837  -0.86256
   D30       -2.84671  -0.00666   0.00415  -0.07399  -0.06973  -2.91644
   D31       -0.62289   0.00008  -0.00278   0.00183  -0.00095  -0.62384
   D32        1.47085  -0.00006  -0.00230   0.00092  -0.00138   1.46947
   D33       -2.72693  -0.00007  -0.00173   0.00034  -0.00140  -2.72833
   D34       -2.72706   0.00012  -0.00240   0.00092  -0.00148  -2.72854
   D35       -0.63333  -0.00002  -0.00191   0.00001  -0.00191  -0.63524
   D36        1.45207  -0.00003  -0.00135  -0.00057  -0.00192   1.45015
   D37        1.46592   0.00020  -0.00197   0.00073  -0.00123   1.46469
   D38       -2.72353   0.00006  -0.00148  -0.00018  -0.00166  -2.72519
   D39       -0.63813   0.00005  -0.00092  -0.00076  -0.00168  -0.63981
         Item               Value     Threshold  Converged?
 Maximum Force            0.044690     0.000450     NO 
 RMS     Force            0.008574     0.000300     NO 
 Maximum Displacement     0.607020     0.001800     NO 
 RMS     Displacement     0.130244     0.001200     NO 
 Predicted change in Energy=-1.096320D-03
 GradGradGradGradGradGradGradGradGradGradGradGradGradGradGradGradGradGrad

                          Input orientation:                          
 ---------------------------------------------------------------------
 Center     Atomic      Atomic             Coordinates (Angstroms)
 Number     Number       Type             X           Y           Z
 ---------------------------------------------------------------------
      1         14           0        0.338297    0.349107   -0.147400
      2          8           0        1.083295   -0.215310    1.267260
      3          8           0       -0.335287    1.744032   -0.066326
      4          1           0       -1.823127    1.381422    0.462431
      5          8           0        1.709848    0.149544   -1.110466
      6          8           0       -0.648688   -0.878883   -0.695679
      7          6           0       -1.904392   -1.264363   -0.210006
      8          1           0       -1.794598   -1.829302    0.726581
      9          1           0       -2.337319   -1.940907   -0.959300
     10          6           0       -2.917911   -0.140075    0.007238
     11          1           0       -3.146546    0.299238   -0.973969
     12          1           0       -3.839360   -0.597999    0.389945
     13          8           0       -2.522460    0.840293    0.917815
     14          6           0        2.831051   -0.104990   -0.311218
     15          1           0        3.546381   -0.736408   -0.850272
     16          1           0        3.336554    0.836049   -0.050506
     17          6           0        2.321061   -0.791230    0.963396
     18          1           0        2.211714   -1.871713    0.785149
     19          1           0        3.019390   -0.655113    1.797089
 ---------------------------------------------------------------------
                    Distance matrix (angstroms):
                    1          2          3          4          5
     1  Si   0.000000
     2  O    1.695538   0.000000
     3  O    1.551163   2.762218   0.000000
     4  H    2.471704   3.412417   1.620104   0.000000
     5  O    1.687743   2.485814   2.795568   4.058749   0.000000
     6  O    1.668145   2.700596   2.715509   2.798126   2.606224
     7  C    2.763486   3.494152   3.396053   2.731109   3.984055
     8  H    3.171521   3.343586   3.940432   3.221698   4.423993
     9  H    3.614176   4.431236   4.287693   3.650149   4.557675
    10  C    3.296377   4.195588   3.197689   1.928913   4.769622
    11  H    3.581876   4.814501   3.288529   2.232892   4.860618
    12  H    4.317240   5.014844   4.239318   2.826403   5.796875
    13  O    3.091905   3.773311   2.563007   0.994616   4.743784
    14  C    2.539068   2.357630   3.674854   4.946648   1.400243
    15  H    3.458927   3.289724   4.672741   5.919461   2.055594
    16  H    3.039086   2.814079   3.782473   5.213717   2.059363
    17  C    2.542752   1.398600   3.813669   4.705919   2.357868
    18  H    3.051455   2.061415   4.503980   5.192974   2.816151
    19  H    3.460889   2.054899   4.525712   5.420217   3.288807
                    6          7          8          9         10
     6  O    0.000000
     7  C    1.400452   0.000000
     8  H    2.058939   1.099275   0.000000
     9  H    2.012180   1.098444   1.774598   0.000000
    10  C    2.487831   1.529195   2.152388   2.124683   0.000000
    11  H    2.775736   2.138091   3.041433   2.381872   1.099107
    12  H    3.381991   2.132623   2.410495   2.424869   1.097828
    13  O    3.011636   2.466488   2.773642   3.360493   1.395225
    14  C    3.585429   4.876353   5.044493   5.522921   5.757882
    15  H    4.200333   5.513584   5.675115   6.006716   6.548130
    16  H    4.386273   5.648423   5.834096   6.382024   6.330441
    17  C    3.402884   4.410803   4.251155   5.169045   5.365171
    18  H    3.370528   4.278030   4.006964   4.872534   5.469622
    19  H    4.440581   5.351939   5.069436   6.159974   6.222569
                   11         12         13         14         15
    11  H    0.000000
    12  H    1.773495   0.000000
    13  O    2.064236   2.020286   0.000000
    14  C    6.027795   6.725256   5.573523   0.000000
    15  H    6.773709   7.490425   6.514825   1.095885   0.000000
    16  H    6.570505   7.331045   5.938493   1.099572   1.776591
    17  C    5.902307   6.190070   5.111129   1.534816   2.189477
    18  H    6.043052   6.196291   5.457561   2.169542   2.396843
    19  H    6.827028   7.001840   5.807018   2.187022   2.700527
                   16         17         18         19
    16  H    0.000000
    17  C    2.169623   0.000000
    18  H    3.048862   1.100532   0.000000
    19  H    2.395363   1.096009   1.776648   0.000000
 Stoichiometry    C4H9O5Si(1-)
 Framework group  C1[X(C4H9O5Si)]
 Deg. of freedom    51
 Full point group                 C1      NOp   1
 Largest Abelian subgroup         C1      NOp   1
 Largest concise Abelian subgroup C1      NOp   1
                         Standard orientation:                         
 ---------------------------------------------------------------------
 Center     Atomic      Atomic             Coordinates (Angstroms)
 Number     Number       Type             X           Y           Z
 ---------------------------------------------------------------------
      1         14           0        0.323630    0.355884   -0.224580
      2          8           0        1.072176   -0.057074    1.239659
      3          8           0       -0.408414    1.722787   -0.266925
      4          1           0       -1.886931    1.342261    0.275224
      5          8           0        1.715243    0.135727   -1.153783
      6          8           0       -0.603903   -0.954232   -0.678436
      7          6           0       -1.848971   -1.351219   -0.174975
      8          1           0       -1.728507   -1.831374    0.806527
      9          1           0       -2.243178   -2.105371   -0.869551
     10          6           0       -2.911219   -0.256956   -0.062481
     11          1           0       -3.144581    0.089361   -1.079164
     12          1           0       -3.817941   -0.720380    0.347787
     13          8           0       -2.569276    0.811473    0.767089
     14          6           0        2.835105   -0.003707   -0.324839
     15          1           0        3.583325   -0.646620   -0.802117
     16          1           0        3.297453    0.976369   -0.138448
     17          6           0        2.336831   -0.602992    0.997371
     18          1           0        2.274938   -1.698205    0.908774
     19          1           0        3.017513   -0.368620    1.823796
 ---------------------------------------------------------------------
 Rotational constants (GHZ):           2.4733282           0.7796624           0.7432761
 Standard basis: def2TZVPP (5D, 7F)
 There are   507 symmetry adapted cartesian basis functions of A   symmetry.
 There are   447 symmetry adapted basis functions of A   symmetry.
   447 basis functions,   681 primitive gaussians,   507 cartesian basis functions
    44 alpha electrons       44 beta electrons
       nuclear repulsion energy       711.8225517941 Hartrees.
 NAtoms=   19 NActive=   19 NUniq=   19 SFac= 1.00D+00 NAtFMM=   60 NAOKFM=F Big=F
 Integral buffers will be    131072 words long.
 Raffenetti 2 integral format.
 Two-electron integral symmetry is turned on.
 Nuclear repulsion after empirical dispersion term =      711.8129055618 Hartrees.
 One-electron integrals computed using PRISM.
   1 Symmetry operations used in ECPInt.
 ECPInt:  NShTT=   14028 NPrTT=   39320 LenC2=   13206 LenP2D=   28799.
 LDataN:  DoStor=T MaxTD1= 6 Len=  172
 NBasis=   447 RedAO= T EigKep=  2.98D-04  NBF=   447
 NBsUse=   447 1.00D-06 EigRej= -1.00D+00 NBFU=   447
 Lowest energy guess from the checkpoint file:  "QbiLmL_to_PbiL2_IRCforward_ReactantOpt.chk"
 B after Tr=     0.000000   -0.000000   -0.000000
[...]
 ,0.00846427,0.00078392,0.00670360,0.00554919,0.01404071,0.00348735,-0.
 00853056,-0.00451956,-0.00128089,-0.00075525,-0.07139296,0.10551145,0.
 06747909,0.00969396,-0.11288571,-0.00736991,0.01803262,-0.02511063,0.0
 0810203,-0.00125881,0.00333616,-0.00285216,-0.00063014,-0.00046672,-0.
 00864615,-0.05999415,0.24447941,-0.09301817,-0.06925894,-0.03401515,-0
 .01681780,-0.00786204,-0.01483099,0.01462499,-0.00223722,-0.00166627,-
 0.00942538,-0.00291250,-0.00038983,-0.02470552,-0.01352593,0.00155224,
 0.42501441,-0.05804194,-0.13098652,-0.05043080,-0.00444546,0.00558642,
 -0.00213240,-0.00519946,-0.02574610,-0.01576897,-0.01126359,-0.0028428
 3,0.00006219,-0.01213360,0.00074592,0.00028102,0.15732073,0.22308915,-
 0.02510785,-0.04675974,-0.05814269,-0.01820346,-0.00420817,-0.00244565
 ,-0.00225823,-0.01158690,0.00653202,-0.00289057,-0.00067900,-0.0009815
 5,0.00953615,0.00420935,0.00378363,-0.03889632,0.04417973,0.13043595,-
 0.03050376,-0.02380713,-0.00629669,0.00699641,0.00074878,0.00330662,-0
 .00328108,0.01103971,0.00451699,0.00977473,0.00108863,0.00077500,0.006
 19352,0.00140752,-0.00065087,-0.21521378,-0.04400408,0.05172659,0.4647
 3008,-0.02165171,-0.01453544,0.00065590,0.00242575,0.00025979,0.001380
 48,0.00079451,0.00370987,0.00108097,0.00478345,-0.00004225,-0.00094147
 ,-0.00059859,0.00121843,-0.00058288,-0.03209110,-0.07918191,0.00631559
 ,0.03560501,0.53840942,-0.00301415,0.00464176,0.00352634,-0.00386101,-
 0.00114066,-0.00421769,0.00064176,-0.00253746,-0.00297018,0.00084717,0
 .00020855,0.00221802,-0.00133851,-0.00124349,0.00128100,0.05411090,0.0
 0974114,-0.08781824,0.01382667,0.03472548,0.57822916,0.00256529,0.0033
 2207,0.00574085,0.00027169,0.00023711,-0.00080198,0.00032661,-0.000580
 65,-0.00095336,-0.00025741,0.00020191,0.00000864,-0.00132878,-0.000313
 01,-0.00046861,-0.01770905,-0.01023633,0.03759274,-0.04795338,-0.00091
 476,-0.01045680,0.06257404,-0.00068976,0.00137550,0.00259199,0.0001934
 1,-0.00029721,-0.00020329,0.00050711,0.00017785,-0.00074616,-0.0003312
 6,-0.00064404,0.00036232,-0.00028472,-0.00019487,-0.00019968,-0.005261
 38,0.00060990,0.01039880,0.00002309,-0.05439928,0.01982447,0.00231692,
 0.05253371,-0.00216014,-0.00383754,-0.00328088,0.00116896,0.00007397,0
 .00099435,-0.00034866,0.00077937,0.00099001,0.00008382,0.00043223,-0.0
 0028044,0.00100142,0.00027516,0.00021523,0.01569972,0.00671627,-0.0056
 8913,-0.00854472,0.02465404,-0.28683576,-0.00199716,-0.02991658,0.3155
 7423,0.00153349,0.00235843,0.00245621,-0.00103700,0.00005181,-0.000683
 31,0.00102718,-0.00152290,-0.00083764,-0.00155274,-0.00031133,-0.00021
 317,-0.00155829,-0.00027645,0.00020618,-0.03178090,-0.03596289,-0.0067
 5912,-0.05267510,-0.04274518,-0.02564491,0.00120815,-0.00152579,-0.002
 16062,0.08045282,0.00280877,0.00187887,0.00144572,-0.00081402,0.000231
 46,-0.00037438,-0.00057766,-0.00062622,-0.00036343,0.00093265,0.001166
 24,0.00017848,-0.00106208,-0.00003954,0.00017172,-0.01519463,-0.004998
 04,0.00092132,-0.04447996,-0.23409974,-0.08963163,0.00184909,0.0037989
 8,0.00090304,0.05889468,0.25532536,0.00186667,0.00069443,-0.00033805,-
 0.00017220,0.00014796,0.00013211,-0.00041083,-0.00005224,0.00034971,-0
 .00007782,0.00039662,-0.00032285,0.00001256,0.00005826,0.00001266,0.00
 652741,0.01278746,0.00906064,-0.02739125,-0.09347064,-0.10029266,-0.00
 637975,-0.02796461,-0.01229063,0.02386651,0.09945334,0.09814382,-0.003
 42912,0.00420743,0.00134853,-0.00034042,-0.00044058,-0.00077115,-0.001
 58016,0.00149562,0.00091744,0.00695584,-0.03260786,-0.02372101,0.00004
 017,-0.00057126,0.00015275,-0.04176159,0.01703383,-0.00512304,-0.11947
 097,0.03829304,-0.02539324,0.00118446,0.00383176,-0.00105796,0.0052827
 9,-0.00850701,0.00105842,0.55897104,-0.00111787,0.01544168,0.00506092,
 0.00001429,-0.00209673,-0.00083520,0.01252301,-0.00242856,-0.00059679,
 -0.01114728,-0.02363005,-0.01464788,-0.00001286,-0.00210588,-0.0005713
 2,-0.01732614,0.00600019,-0.00363063,0.05166634,-0.12572688,0.02788460
 ,0.00348650,-0.00347182,-0.00115052,0.01652667,-0.01829056,0.00875917,
 0.06297335,0.50142117,-0.00303719,0.00446007,0.00363888,0.00092341,-0.
 00111152,0.00008720,0.00941737,-0.00041379,-0.00162397,-0.01040229,-0.
 00955633,-0.00601291,0.00072774,-0.00061009,-0.00103934,0.01051241,-0.
 00719974,0.00333259,-0.02641661,0.02436743,-0.09496625,-0.02400496,0.0
 2586300,-0.01294644,0.01080089,-0.01518376,0.00393563,-0.01843027,-0.0
 0955519,0.54454525,-0.00082534,0.00003372,-0.00057133,0.00019220,-0.00
 013013,0.00019111,0.00055796,-0.00005299,0.00031313,-0.00050336,0.0000
 9140,-0.00088917,0.00024805,-0.00003195,-0.00000366,0.00326863,-0.0012
 8147,0.00067515,0.00067306,0.01045751,-0.02365155,-0.00283511,0.002989
 18,-0.00187678,0.00026362,-0.00023196,0.00052466,-0.05768188,-0.013017
 04,0.03567308,0.05530191,0.00003360,-0.00058899,0.00001810,0.00000056,
 0.00010703,-0.00011034,-0.00076663,0.00008769,0.00037338,0.00217257,0.
 00124725,-0.00033642,0.00002017,0.00010387,-0.00000902,-0.00106263,0.0
 0194982,-0.00239544,-0.00347417,-0.00589428,0.02439438,0.00379773,-0.0
 0273661,0.00087686,-0.00078587,0.00031044,-0.00044990,-0.01209438,-0.0
 6867184,0.06474537,0.00820132,0.07762683,0.00032800,-0.00065426,-0.001
 32155,-0.00018611,0.00019762,0.00018599,-0.00206146,0.00010528,0.00101
 110,0.00419504,0.00077196,-0.00012658,-0.00022484,0.00009366,0.0003693
 6,-0.00018253,-0.00239714,0.00286447,0.00442108,0.00676802,-0.01273791
 ,-0.00086475,0.00169511,0.00031500,-0.00091969,0.00123798,-0.00012152,
 0.03051673,0.06608863,-0.24967890,-0.03753640,-0.05956858,0.28771560,0
 .00239077,0.00194371,0.00099005,-0.00078301,0.00004703,-0.00042855,-0.
 00068915,-0.00049013,-0.00022090,0.00298446,0.00052353,0.00054000,-0.0
 0075771,-0.00013243,0.00014947,-0.00625773,0.00372134,-0.00235220,-0.0
 1886279,-0.01366356,0.00606259,0.00049027,0.00018132,-0.00092452,0.000
 47337,0.00106474,0.00097218,-0.24951350,-0.08780775,0.01914954,-0.0039
 3146,-0.00106349,0.00117573,0.27050106,0.00047501,-0.00288612,-0.00080
 831,-0.00007632,0.00043254,0.00017041,-0.00283151,0.00074973,0.0002576
 9,0.00619449,-0.00282688,-0.00187783,-0.00011642,0.00047522,0.00008810
 ,0.00559690,-0.00081934,0.00167066,0.01748040,0.00828636,-0.00332578,-
 0.00094322,0.00010324,0.00044880,0.00039329,0.00112994,-0.00071613,-0.
 08588598,-0.08418565,0.01367936,-0.01012460,-0.00280880,0.00258687,0.1
 0116782,0.10783393,-0.00013133,-0.00023700,-0.00041270,0.00000951,0.00
 010617,0.00000433,-0.00127237,0.00025005,0.00039711,0.00263375,-0.0031
 8889,-0.00128635,-0.00006699,0.00000420,0.00013280,-0.00115228,0.00097
 588,0.00098962,-0.00933939,-0.00382992,0.00097470,0.00041476,-0.000385
 45,-0.00023684,0.00093332,-0.00047689,0.00047823,0.02450041,0.01548155
 ,-0.05302581,0.02733287,0.01154615,-0.00156181,-0.02003220,-0.00193349
 ,0.05472056,0.00461514,-0.02232280,-0.00736552,-0.00258729,0.00384344,
 -0.00024047,-0.04962522,-0.00037014,0.00136060,-0.31834940,-0.07528275
 ,0.00574484,-0.00305828,0.00304052,0.00192633,0.00793107,0.00323432,0.
 00105790,0.00208114,0.02104450,0.01641494,0.00134113,-0.00199582,0.001
 42593,-0.00200865,0.00496070,-0.00059398,-0.09899465,-0.01700941,-0.00
 464732,0.00536671,0.00503834,0.00127996,0.00350652,-0.03133833,-0.0238
 4943,0.44859431,-0.00094287,-0.01604956,-0.00558643,-0.00054644,0.0026
 7064,0.00042426,-0.02120186,0.01049081,0.00143332,-0.10197412,-0.07207
 538,-0.01543734,-0.00053034,0.00222774,0.00095129,0.00935605,0.0089766
 3,0.00188354,-0.00464496,-0.03790445,-0.02343395,-0.00212330,0.0031467
 4,-0.00051429,0.00528049,-0.00554836,0.00041945,0.01227970,-0.19206056
 ,-0.08945288,0.00307283,-0.00076319,-0.01691025,-0.00533496,-0.0255051
 3,-0.01832737,0.10733032,0.32216998,0.00059430,-0.00583742,-0.00323643
 ,-0.00020706,0.00075186,0.00051154,-0.00742147,0.00087999,0.00833536,-
 0.01428200,-0.02124847,-0.03385778,-0.00043715,0.00096910,0.00076203,0
 .00295301,0.00263957,0.00192750,-0.00035904,-0.00143684,0.00366892,0.0
 0200174,-0.00133732,0.00348967,-0.00107448,0.00171853,0.00124228,0.015
 99827,-0.09229363,-0.13627842,-0.00017145,-0.03910999,-0.02688047,-0.0
 0507593,-0.01024743,-0.00118617,0.00744529,0.16454788,0.18150494,-0.04
 650569,0.00073950,0.02718804,-0.03350378,0.00114959,0.02049061,0.00519
 518,-0.00144625,-0.00433899,-0.00193748,-0.00028896,-0.00004974,-0.204
 88310,0.04145679,-0.04396919,0.00494441,0.00321399,-0.00211238,-0.0020
 2125,-0.00104435,0.00087707,0.00043954,0.00006744,-0.00042885,0.000377
 30,0.00036361,0.00010561,0.00017738,0.00000317,-0.00019778,-0.00013277
 ,0.00002330,-0.00002249,0.00035288,0.00005987,0.00000426,0.00138431,0.
 00027501,0.00002663,0.55148616,0.00966820,0.00423109,-0.01186108,0.014
 01256,0.00623445,-0.00406585,-0.00053504,-0.00035829,0.00022941,0.0003
 8284,0.00004046,-0.00009253,0.05118732,-0.08331196,0.01666986,-0.00384
 970,-0.00244069,0.00224750,0.00048155,-0.00048363,0.00015845,-0.000329
 79,-0.00008199,0.00019127,-0.00025136,-0.00015117,0.00002994,0.0000237
 3,0.00002077,0.00001063,0.00003995,0.00000356,0.00000636,-0.00007347,-
 0.00000647,0.00001024,-0.00027919,-0.00006386,0.00004936,0.01164689,0.
 53678936,0.00587100,-0.00633923,0.01182662,0.02119248,0.00655655,-0.03
 187746,0.00327709,-0.00114667,-0.00430958,-0.00097219,-0.00018076,-0.0
 0020997,-0.06250225,0.02526729,-0.09679984,0.00265057,0.00206833,-0.00
 131778,-0.00078035,-0.00001240,0.00025268,0.00019654,0.00001341,-0.000
 19672,0.00021615,0.00015710,0.00003579,0.00001218,-0.00009357,-0.00012
 398,-0.00004793,0.00002402,0.00000574,0.00011904,0.00004377,0.00001462
 ,0.00065597,0.00019658,0.00008303,-0.04910166,0.07661932,0.49965081,0.
 00220606,0.00368396,-0.00377164,0.00051995,-0.00088614,0.00179092,-0.0
 0199459,0.00055659,0.00133212,0.00071604,0.00016172,0.00010326,-0.0325
 3514,0.01944797,0.01537478,-0.00094814,-0.00092719,-0.00003208,0.00038
 950,0.00006886,-0.00010655,-0.00004633,-0.00000095,0.00004956,-0.00010
 542,-0.00009486,-0.00001810,0.00000963,0.00012806,0.00014622,0.0000243
 9,-0.00000264,-0.00003834,-0.00006840,-0.00003613,-0.00000725,-0.00048
 706,-0.00021517,-0.00012392,-0.09921571,0.05444229,0.08019906,0.124117
 46,-0.00194348,-0.00243959,0.00380058,-0.00342596,-0.00004751,0.003662
 59,0.00085773,0.00003530,-0.00073760,-0.00036156,-0.00007573,-0.000038
 99,0.01640947,-0.00317178,-0.00237286,0.00052503,0.00039587,-0.0002082
 0,-0.00025288,-0.00007241,0.00007071,0.00005605,0.00000554,-0.00004105
 ,0.00004857,0.00005032,0.00000837,-0.00000032,-0.00005403,-0.00007258,
 -0.00001675,0.00000456,0.00001516,0.00004419,0.00001819,0.00000303,0.0
 0025205,0.00009622,0.00004862,0.05723292,-0.11709194,-0.09225583,-0.07
 063275,0.12422765,-0.00245316,0.00174852,-0.00273180,0.00430169,0.0025
 9216,-0.00354795,0.00023599,-0.00028794,0.00068252,-0.00019640,-0.0000
 1926,-0.00000024,-0.01117033,0.00971036,0.01479335,0.00049443,0.000180
 31,0.00034611,-0.00023566,-0.00010932,0.00003278,-0.00001791,-0.000009
 52,-0.00001038,0.00004068,0.00004195,0.00002339,-0.00000122,-0.0000082
 3,-0.00004030,-0.00000601,-0.00000717,0.00001820,0.00004030,0.00000887
 ,-0.00000038,0.00014239,0.00002672,0.00003052,0.08576355,-0.09129902,-
 0.17796384,-0.09124816,0.09795071,0.18519919,0.00283245,-0.00144936,-0
 .00781570,0.00122547,0.00034414,0.00089598,-0.00033224,0.00084628,0.00
 087976,0.00016132,-0.00001556,0.00000317,-0.03879290,-0.01336462,-0.01
 496449,-0.00221658,-0.00086240,0.00096387,0.00056456,-0.00000943,-0.00
 009996,-0.00015893,-0.00004672,0.00012062,-0.00014925,-0.00009682,-0.0
 0000135,-0.00001819,-0.00013706,-0.00003114,0.00002261,0.00000755,0.00
 000824,-0.00008103,0.00000992,0.00000795,-0.00011948,0.00011252,0.0000
 4818,-0.10876793,-0.09856841,-0.02670091,0.00985605,0.01074295,0.00432
 209,0.13648274,0.00158173,0.00000853,-0.00018034,-0.00074536,0.0022270
 0,0.00059934,-0.00053528,0.00026475,0.00027521,0.00018259,0.00000770,0
 .00001707,0.00669928,0.01749793,0.00374927,-0.00016606,0.00011602,-0.0
 0011236,0.00025952,0.00012086,-0.00009618,0.00000629,-0.00000173,0.000
 01638,-0.00000192,-0.00001682,-0.00000973,0.00000441,-0.00002345,0.000
 01939,0.00000634,0.00000277,-0.00000760,-0.00003373,-0.00000816,-0.000
 00248,-0.00014136,0.00002168,-0.00000324,-0.10015020,-0.20670288,-0.05
 438124,-0.00817733,-0.01314946,-0.00449320,0.10883993,0.21894058,0.002
 35380,0.00022369,-0.00377792,-0.00096441,-0.00186925,0.00120724,-0.000
 53954,0.00024337,0.00042850,0.00021536,0.00002153,0.00001488,-0.018937
 36,-0.00443740,-0.00049984,-0.00097587,-0.00054505,0.00039022,0.000308
 24,0.00000664,-0.00005045,-0.00007791,-0.00001307,0.00006684,-0.000071
 54,-0.00005053,-0.00001019,-0.00000263,-0.00001158,0.00001361,0.000015
 31,-0.00000279,0.00000098,-0.00004031,-0.00000610,-0.00000109,-0.00015
 591,-0.00000682,-0.00000056,-0.02889966,-0.05618327,-0.07130987,-0.010
 54402,-0.02077258,-0.00568109,0.04395241,0.05647537,0.07408251,-0.0325
 1508,0.02649561,-0.02738993,-0.18624848,0.06212382,0.04548731,0.003569
 02,-0.00335014,0.00294561,-0.00133505,-0.00009821,-0.00006388,-0.02076
 074,0.02674575,-0.01689137,0.00501605,0.00109281,0.00343309,-0.0019105
 2,-0.00087220,0.00094877,-0.00013544,-0.00003027,-0.00011601,0.0003509
 0,0.00027914,0.00014429,0.00011682,0.00006833,-0.00034935,-0.00003051,
 -0.00004036,0.00015142,0.00031112,0.00002140,0.00001986,0.00102083,0.0
 0006985,0.00018615,-0.07086529,-0.02882643,0.02494438,-0.00211628,-0.0
 1036226,0.01033613,-0.00200997,-0.00740859,0.01242350,0.54625694,0.021
 92968,-0.01099369,0.01316885,0.05395164,-0.09891699,-0.02485123,-0.000
 64812,0.00105925,0.00013721,0.00087210,0.00003379,0.00021688,0.0130136
 6,-0.00681624,0.01129094,-0.00322959,-0.00241070,-0.00398282,0.0011726
 8,0.00032080,-0.00033430,0.00023301,0.00013326,0.00018691,-0.00033638,
 -0.00021697,-0.00014288,-0.00000794,0.00016555,0.00018044,0.00001974,0
 .00000709,-0.00005997,-0.00014092,-0.00004203,0.00000137,-0.00058335,-
 0.00023599,-0.00024915,-0.01879428,-0.11954684,0.03813217,0.00344860,0
 .01012954,-0.01747574,-0.00620143,-0.01857223,0.02405754,-0.00674422,0
 .54826896,-0.00643177,0.00225802,0.01524419,0.06342220,-0.03231212,-0.
 10363006,-0.00269042,0.00360678,-0.00273759,0.00106395,0.00024787,-0.0
 0002056,-0.00961262,0.01820671,-0.03022593,-0.00261436,-0.00155244,-0.
 00434525,0.00128840,0.00051630,-0.00044376,0.00011086,0.00007075,0.000
 17266,-0.00018466,-0.00017003,-0.00006187,-0.00003682,0.00020647,0.000
 27428,0.00003718,-0.00000040,-0.00007142,-0.00013243,-0.00004772,-0.00
 000789,-0.00071193,-0.00033331,-0.00016589,0.00580188,0.04597945,-0.12
 357706,0.00615957,0.01125564,-0.01191673,-0.00284339,-0.00642310,0.006
 90602,0.09234970,0.01935909,0.49511293,0.00169335,0.00193214,0.0049146
 0,-0.00398415,0.03650078,0.01361382,-0.00113412,0.00028713,-0.00094179
 ,0.00035545,0.00013572,-0.00000809,0.00182391,-0.00019400,-0.00024339,
 0.00048058,-0.00072887,-0.00000339,-0.00028872,-0.00012013,0.00014182,
 0.00002137,0.00003544,-0.00003802,0.00000379,0.00000695,-0.00000972,0.
 00005517,0.00017850,0.00006909,0.00000318,-0.00000668,-0.00001704,0.00
 002669,-0.00003044,-0.00000449,-0.00024946,-0.00020576,-0.00007452,-0.
 00339353,-0.00806209,-0.00225669,0.00020003,-0.00011827,0.00023402,0.0
 0047246,-0.00091084,0.00204148,-0.06306244,-0.05511437,-0.02193670,0.0
 7094205,-0.00359210,-0.00084567,-0.00619201,0.01694687,-0.01501072,-0.
 00938391,0.00151723,-0.00046723,0.00084568,-0.00067536,-0.00018771,-0.
 00002694,0.00104297,0.00153993,0.00091263,0.00064669,0.00127398,0.0011
 4095,-0.00021854,-0.00000488,0.00002809,-0.00005637,-0.00004389,-0.000
 05638,0.00010999,0.00007093,0.00004659,-0.00002530,-0.00024245,-0.0001
 3998,-0.00001826,0.00000928,0.00002870,0.00003603,0.00004718,0.0000053
 6,0.00044766,0.00032003,0.00013049,-0.00829699,-0.01740898,-0.00642878
 ,-0.00040061,0.00130739,0.00063030,-0.00049997,-0.00118778,0.00343616,
 -0.05329052,-0.25094859,-0.05769512,0.04799216,0.28102443,-0.00212237,
 0.00077606,-0.00411343,0.00980000,-0.01877676,-0.00263867,0.00077474,-
 0.00050013,0.00059634,-0.00034493,-0.00007872,-0.00000009,-0.00069853,
 -0.00190635,0.00132700,0.00066440,0.00047677,0.00047916,-0.00034374,-0
 .00015691,0.00021483,0.00001525,-0.00002661,-0.00007523,0.00006359,0.0
 0005826,0.00003579,0.00003647,-0.00006404,-0.00009256,-0.00001988,0.00
 001176,0.00000878,0.00004972,0.00001341,0.00000606,0.00023235,0.000115
 40,0.00004034,0.00914471,0.02571013,0.00684518,-0.00027403,-0.00042541
 ,0.00153986,0.00092666,0.00397600,-0.00330650,-0.02159017,-0.06088747,
 -0.07180176,0.01113942,0.07246178,0.07639552,0.00010497,-0.00291424,0.
 00627451,-0.03541690,0.01258427,-0.01106986,-0.00095991,0.00137291,-0.
 00069349,0.00051664,0.00008192,-0.00000452,0.00241138,-0.00138038,0.00
 111693,-0.00142552,-0.00052974,-0.00124685,0.00077835,0.00023837,-0.00
 030500,0.00000189,0.00002099,0.00010342,-0.00010604,-0.00010133,-0.000
 02333,-0.00000283,0.00000720,0.00009716,0.00001811,0.00000168,-0.00002
 256,-0.00009236,-0.00001615,-0.00000096,-0.00036166,-0.00005699,-0.000
 02656,0.00686937,-0.00110984,0.00302751,-0.00052204,0.00094526,-0.0005
 8239,0.00102881,0.00069057,-0.00010093,-0.17565188,-0.00284052,-0.1230
 3861,-0.00396561,-0.00166557,-0.00745365,0.20677522,-0.00008129,-0.000
 54776,-0.00068501,0.01711459,-0.00068789,0.00850961,0.00051775,-0.0004
 8108,0.00009084,-0.00020576,-0.00006436,0.00000032,0.00124013,-0.00202
 044,0.00377746,0.00053244,0.00068222,0.00059583,-0.00009150,0.00001962
 ,0.00006582,-0.00000927,-0.00001326,-0.00003795,0.00005615,0.00002488,
 0.00000453,-0.00000224,-0.00006090,-0.00002983,-0.00000684,0.00000352,
 0.00000242,0.00001073,0.00001224,-0.00000251,0.00013129,0.00008601,0.0
 0002807,0.01378894,0.00032902,0.01175995,-0.00056429,-0.00016810,0.000
 81950,0.00034848,0.00045469,-0.00056584,-0.00587350,-0.05141797,-0.003
 17284,-0.02157738,0.00075476,-0.02077715,-0.00532844,0.05309481,0.0031
 9004,0.00003153,-0.00302613,0.01736017,-0.00186607,0.01494159,-0.00034
 863,-0.00016165,0.00060534,0.00015933,0.00001078,0.00000971,-0.0012741
 9,0.00466974,-0.00346461,-0.00044148,-0.00008215,0.00059838,0.00018873
 ,0.00006953,-0.00006550,-0.00005817,-0.00001756,0.00002446,-0.00003438
 ,-0.00003679,-0.00001228,-0.00000385,-0.00002274,0.00000143,0.00001167
 ,0.00000003,0.00000494,-0.00004158,-0.00000516,0.00000104,-0.00012195,
 0.00000420,0.00000958,-0.02028160,-0.00441016,-0.01102838,0.00100860,0
 .00010970,-0.00077322,0.00032800,0.00058144,0.00152671,-0.12696950,0.0
 0125217,-0.16870431,-0.00662041,0.00025639,-0.00546062,0.13394919,-0.0
 0038322,0.17481186\\0.00001498,-0.00000680,0.00000118,0.00000444,-0.00
 001353,-0.00001931,-0.00000186,-0.00000357,0.00000871,0.00001431,0.000
 00757,0.00000519,0.00000584,-0.00001452,0.00000914,0.00000854,0.000015
 59,-0.00000917,-0.00000678,-0.00001631,0.00000193,-0.00000073,0.000005
 26,-0.00000162,0.00000471,-0.00000373,0.00000197,0.00000448,-0.0000049
 0,-0.00000636,-0.00000391,-0.00000099,0.00000391,0.00000086,0.00001568
 ,0.00001162,-0.00003082,0.00000262,0.00000600,-0.00000108,0.00001763,-
 0.00001430,-0.00000180,-0.00000109,-0.00000371,0.00000090,-0.00000085,
 -0.00000448,-0.00001474,0.00000376,0.00001420,0.00000052,-0.00000286,-
 0.00000004,0.00000214,0.00000103,-0.00000487\\\@
 The archive entry for this job was punched.


 LET US PLACE AT THE END OF EVERY CHAPTER.....THE
 TWO LETTERS USED BY THE ROMAN JUDGES WHEN THEY DID
 NOT UNDERSTAND A PLEADING.
 N. L. -NON LIQUET- IT IS NOT CLEAR.
                                              -- VOLTAIRE
 Job cpu time:       0 days  3 hours 23 minutes 34.3 seconds.
 Elapsed time:       0 days  0 hours 50 minutes 55.3 seconds.
 File lengths (MBytes):  RWF=    318 Int=      0 D2E=      0 Chk=     17 Scr=      1
 Normal termination of Gaussian 16 at Sun Mar 10 21:38:44 2024.
