 Entering Gaussian System, Link 0=/opt/software/gaussian/g16.c01/g16
 Initial command:
 /opt/software/gaussian/g16.c01/l1.exe "/scratch/arhender/18220286/Gau-30826.inp" -scrdir="/scratch/arhender/18220286/"
 Entering Link 1 = /opt/software/gaussian/g16.c01/l1.exe PID=     30827.
  
 Copyright (c) 1988-2019, Gaussian, Inc.  All Rights Reserved.
  
 This is part of the Gaussian(R) 16 program.  It is based on
 the Gaussian(R) 09 system (copyright 2009, Gaussian, Inc.),
 the Gaussian(R) 03 system (copyright 2003, Gaussian, Inc.),
 the Gaussian(R) 98 system (copyright 1998, Gaussian, Inc.),
 the Gaussian(R) 94 system (copyright 1995, Gaussian, Inc.),
 the Gaussian 92(TM) system (copyright 1992, Gaussian, Inc.),
 the Gaussian 90(TM) system (copyright 1990, Gaussian, Inc.),
 the Gaussian 88(TM) system (copyright 1988, Gaussian, Inc.),
 the Gaussian 86(TM) system (copyright 1986, Carnegie Mellon
 University), and the Gaussian 82(TM) system (copyright 1983,
 Carnegie Mellon University). Gaussian is a federally registered
 trademark of Gaussian, Inc.
  
 This software contains proprietary and confidential information,
 including trade secrets, belonging to Gaussian, Inc.
  
 This software is provided under written license and may be
 used, copied, transmitted, or stored only in accord with that
 written license.
  
 The following legend is applicable only to US Government
 contracts under FAR:
  
                    RESTRICTED RIGHTS LEGEND
  
 Use, reproduction and disclosure by the US Government is
 subject to restrictions as set forth in subparagraphs (a)
 and (c) of the Commercial Computer Software - Restricted
 Rights clause in FAR 52.227-19.
  
 Gaussian, Inc.
 340 Quinnipiac St., Bldg. 40, Wallingford CT 06492
  
  
 ---------------------------------------------------------------
 Warning -- This program may not be used in any manner that
 competes with the business of Gaussian, Inc. or will provide
 assistance to any competitor of Gaussian, Inc.  The licensee
 of this program is prohibited from giving any competitor of
 Gaussian, Inc. access to this program.  By using this program,
 the user acknowledges that Gaussian, Inc. is engaged in the
 business of creating and licensing software in the field of
 computational chemistry and represents and warrants to the
 licensee that it is not a competitor of Gaussian, Inc. and that
 it will not use this program in any manner prohibited above.
 ---------------------------------------------------------------
  

 Cite this work as:
 Gaussian 16, Revision C.01,
 M. J. Frisch, G. W. Trucks, H. B. Schlegel, G. E. Scuseria, 
 M. A. Robb, J. R. Cheeseman, G. Scalmani, V. Barone, 
 G. A. Petersson, H. Nakatsuji, X. Li, M. Caricato, A. V. Marenich, 
 J. Bloino, B. G. Janesko, R. Gomperts, B. Mennucci, H. P. Hratchian, 
 J. V. Ortiz, A. F. Izmaylov, J. L. Sonnenberg, D. Williams-Young, 
 F. Ding, F. Lipparini, F. Egidi, J. Goings, B. Peng, A. Petrone, 
 T. Henderson, D. Ranasinghe, V. G. Zakrzewski, J. Gao, N. Rega, 
 G. Zheng, W. Liang, M. Hada, M. Ehara, K. Toyota, R. Fukuda, 
 J. Hasegawa, M. Ishida, T. Nakajima, Y. Honda, O. Kitao, H. Nakai, 
 T. Vreven, K. Throssell, J. A. Montgomery, Jr., J. E. Peralta, 
 F. Ogliaro, M. J. Bearpark, J. J. Heyd, E. N. Brothers, K. N. Kudin, 
 V. N. Staroverov, T. A. Keith, R. Kobayashi, J. Normand, 
 K. Raghavachari, A. P. Rendell, J. C. Burant, S. S. Iyengar, 
 J. Tomasi, M. Cossi, J. M. Millam, M. Klene, C. Adamo, R. Cammi, 
 J. W. Ochterski, R. L. Martin, K. Morokuma, O. Farkas, 
 J. B. Foresman, and D. J. Fox, Gaussian, Inc., Wallingford CT, 2019.
 
 ******************************************
 Gaussian 16:  ES64L-G16RevC.01  3-Jul-2019
                29-Mar-2024 
 ******************************************
 %chk=IRCReverse_HBiL2toPBiL2_ProductOpt.chk
 %mem=1600MB
 %nprocs=4
 Will use up to    4 processors via shared memory.
 ---------------------------------------------
 # opt freq wb97xd/def2tzvpp geom=connectivity
 ---------------------------------------------
 1/18=20,19=15,26=3,38=1,57=2/1,3;
 2/9=110,12=2,17=6,18=5,40=1/2;
 3/5=44,7=202,11=2,25=1,30=1,71=1,74=-58/1,2,3;
 4//1;
 5/5=2,38=5/2;
 6/7=2,8=2,9=2,10=2,28=1/1;
 7//1,2,3,16;
 1/18=20,19=15,26=3/3(2);
 2/9=110/2;
 99//99;
 2/9=110/2;
 3/5=44,7=202,11=2,25=1,30=1,71=1,74=-58/1,2,3;
 4/5=5,16=3,69=1/1;
 5/5=2,38=5/2;
 7//1,2,3,16;
 1/18=20,19=15,26=3/3(-5);
 2/9=110/2;
 6/7=2,8=2,9=2,10=2,19=2,28=1/1;
 99/9=1/99;
 ----------------------------------------------------------------------
 Take TS opt from hydroxyl loss of HbiL2moL collapse deprotonated and r
  eprotonate free ligand hydroxyl
 ----------------------------------------------------------------------
 Symbolic Z-matrix:
 Charge = -2 Multiplicity = 1
 Si                   -0.01944  -0.48051  -0.02731 
 O                    -1.17862  -0.02599  -1.2265 
 O                     1.13558  -0.11527   1.22437 
 O                     1.28839  -0.29091  -1.20618 
 O                    -0.02156  -2.19545  -0.11743 
 O                    -1.25537  -0.30515   1.19526 
 C                    -2.50122   0.0047    0.68856 
 H                    -3.12789  -0.90677   0.58388 
 H                    -3.03581   0.69551   1.36274 
 C                    -2.26722   0.64468  -0.68272 
 H                    -3.15329   0.53462  -1.33273 
 H                    -2.0033    1.70412  -0.54746 
 C                     2.30088   0.51741  -0.70022 
 H                     3.25006   0.33589  -1.23616 
 H                     2.00439   1.57506  -0.76153 
 C                     2.41669   0.14153   0.77839 
 H                     3.06277  -0.75603   0.89548 
 H                     2.87406   0.9583    1.36 
 O                     0.06162   2.54688   0.08047 
 H                     0.12314   2.18596   0.97188 
 H                     0.66923  -2.39249  -0.74718 
 
 Add virtual bond connecting atoms O19        and H12        Dist= 4.38D+00.
 Add virtual bond connecting atoms O19        and H15        Dist= 4.40D+00.

 GradGradGradGradGradGradGradGradGradGradGradGradGradGradGradGradGradGrad
 Berny optimization.
 Initialization pass.
                           ----------------------------
                           !    Initial Parameters    !
                           ! (Angstroms and Degrees)  !
 --------------------------                            --------------------------
 ! Name  Definition              Value          Derivative Info.                !
 --------------------------------------------------------------------------------
 ! R1    R(1,2)                  1.7287         estimate D2E/DX2                !
 ! R2    R(1,3)                  1.7419         estimate D2E/DX2                !
 ! R3    R(1,4)                  1.7709         estimate D2E/DX2                !
 ! R4    R(1,5)                  1.7173         estimate D2E/DX2                !
 ! R5    R(1,6)                  1.7473         estimate D2E/DX2                !
 ! R6    R(2,10)                 1.3894         estimate D2E/DX2                !
 ! R7    R(3,16)                 1.3806         estimate D2E/DX2                !
 ! R8    R(4,13)                 1.3909         estimate D2E/DX2                !
 ! R9    R(5,21)                 0.9553         estimate D2E/DX2                !
 ! R10   R(6,7)                  1.3802         estimate D2E/DX2                !
 ! R11   R(7,8)                  1.1111         estimate D2E/DX2                !
 ! R12   R(7,9)                  1.1034         estimate D2E/DX2                !
 ! R13   R(7,10)                 1.5313         estimate D2E/DX2                !
 ! R14   R(10,11)                1.1044         estimate D2E/DX2                !
 ! R15   R(10,12)                1.1002         estimate D2E/DX2                !
 ! R16   R(12,19)                2.317          estimate D2E/DX2                !
 ! R17   R(13,14)                1.105          estimate D2E/DX2                !
 ! R18   R(13,15)                1.1001         estimate D2E/DX2                !
 ! R19   R(13,16)                1.53           estimate D2E/DX2                !
 ! R20   R(15,19)                2.3298         estimate D2E/DX2                !
 ! R21   R(16,17)                1.1121         estimate D2E/DX2                !
 ! R22   R(16,18)                1.1021         estimate D2E/DX2                !
 ! R23   R(19,20)                0.9637         estimate D2E/DX2                !
 ! A1    A(2,1,3)              152.6211         estimate D2E/DX2                !
 ! A2    A(2,1,4)               90.3024         estimate D2E/DX2                !
 ! A3    A(2,1,5)              103.0226         estimate D2E/DX2                !
 ! A4    A(2,1,6)               89.1224         estimate D2E/DX2                !
 ! A5    A(3,1,4)               88.0633         estimate D2E/DX2                !
 ! A6    A(3,1,5)              104.3541         estimate D2E/DX2                !
 ! A7    A(3,1,6)               86.8581         estimate D2E/DX2                !
 ! A8    A(4,1,5)               94.1804         estimate D2E/DX2                !
 ! A9    A(5,1,6)               97.8202         estimate D2E/DX2                !
 ! A10   A(1,2,10)             112.3827         estimate D2E/DX2                !
 ! A11   A(1,3,16)             114.9719         estimate D2E/DX2                !
 ! A12   A(1,4,13)             110.9568         estimate D2E/DX2                !
 ! A13   A(1,5,21)             103.8671         estimate D2E/DX2                !
 ! A14   A(1,6,7)              113.8378         estimate D2E/DX2                !
 ! A15   A(6,7,8)              111.0728         estimate D2E/DX2                !
 ! A16   A(6,7,9)              110.7054         estimate D2E/DX2                !
 ! A17   A(6,7,10)             106.5384         estimate D2E/DX2                !
 ! A18   A(8,7,9)              107.3315         estimate D2E/DX2                !
 ! A19   A(8,7,10)             110.163          estimate D2E/DX2                !
 ! A20   A(9,7,10)             111.072          estimate D2E/DX2                !
 ! A21   A(2,10,7)             105.5731         estimate D2E/DX2                !
 ! A22   A(2,10,11)            110.4961         estimate D2E/DX2                !
 ! A23   A(2,10,12)            108.9652         estimate D2E/DX2                !
 ! A24   A(7,10,11)            111.2724         estimate D2E/DX2                !
 ! A25   A(7,10,12)            109.2101         estimate D2E/DX2                !
 ! A26   A(11,10,12)           111.1487         estimate D2E/DX2                !
 ! A27   A(10,12,19)           126.6822         estimate D2E/DX2                !
 ! A28   A(4,13,14)            110.6943         estimate D2E/DX2                !
 ! A29   A(4,13,15)            110.0147         estimate D2E/DX2                !
 ! A30   A(4,13,16)            105.3003         estimate D2E/DX2                !
 ! A31   A(14,13,15)           111.2464         estimate D2E/DX2                !
 ! A32   A(14,13,16)           111.3046         estimate D2E/DX2                !
 ! A33   A(15,13,16)           108.0859         estimate D2E/DX2                !
 ! A34   A(13,15,19)           127.2735         estimate D2E/DX2                !
 ! A35   A(3,16,13)            106.7162         estimate D2E/DX2                !
 ! A36   A(3,16,17)            110.7909         estimate D2E/DX2                !
 ! A37   A(3,16,18)            110.6384         estimate D2E/DX2                !
 ! A38   A(13,16,17)           110.121          estimate D2E/DX2                !
 ! A39   A(13,16,18)           111.0601         estimate D2E/DX2                !
 ! A40   A(17,16,18)           107.5471         estimate D2E/DX2                !
 ! A41   A(12,19,15)           119.5713         estimate D2E/DX2                !
 ! A42   A(12,19,20)            99.8666         estimate D2E/DX2                !
 ! A43   A(15,19,20)            97.172          estimate D2E/DX2                !
 ! A44   L(4,1,6,2,-1)         179.4247         estimate D2E/DX2                !
 ! A45   L(4,1,6,2,-2)         192.1851         estimate D2E/DX2                !
 ! D1    D(3,1,2,10)           -61.7818         estimate D2E/DX2                !
 ! D2    D(4,1,2,10)          -148.1526         estimate D2E/DX2                !
 ! D3    D(5,1,2,10)           117.4863         estimate D2E/DX2                !
 ! D4    D(6,1,2,10)            19.6623         estimate D2E/DX2                !
 ! D5    D(2,1,3,16)           -86.4735         estimate D2E/DX2                !
 ! D6    D(4,1,3,16)             0.4419         estimate D2E/DX2                !
 ! D7    D(5,1,3,16)            94.2627         estimate D2E/DX2                !
 ! D8    D(6,1,3,16)          -168.4634         estimate D2E/DX2                !
 ! D9    D(2,1,4,13)           128.8514         estimate D2E/DX2                !
 ! D10   D(3,1,4,13)           -23.8123         estimate D2E/DX2                !
 ! D11   D(5,1,4,13)          -128.0678         estimate D2E/DX2                !
 ! D12   D(2,1,5,21)            91.6845         estimate D2E/DX2                !
 ! D13   D(3,1,5,21)           -88.663          estimate D2E/DX2                !
 ! D14   D(4,1,5,21)             0.4046         estimate D2E/DX2                !
 ! D15   D(6,1,5,21)          -177.4047         estimate D2E/DX2                !
 ! D16   D(2,1,6,7)              3.5728         estimate D2E/DX2                !
 ! D17   D(3,1,6,7)            156.4796         estimate D2E/DX2                !
 ! D18   D(5,1,6,7)            -99.452          estimate D2E/DX2                !
 ! D19   D(1,2,10,7)           -34.8604         estimate D2E/DX2                !
 ! D20   D(1,2,10,11)         -155.2756         estimate D2E/DX2                !
 ! D21   D(1,2,10,12)           82.3303         estimate D2E/DX2                !
 ! D22   D(1,3,16,13)           20.251          estimate D2E/DX2                !
 ! D23   D(1,3,16,17)          -99.6318         estimate D2E/DX2                !
 ! D24   D(1,3,16,18)          141.1847         estimate D2E/DX2                !
 ! D25   D(1,4,13,14)          158.5736         estimate D2E/DX2                !
 ! D26   D(1,4,13,15)          -78.068          estimate D2E/DX2                !
 ! D27   D(1,4,13,16)           38.1758         estimate D2E/DX2                !
 ! D28   D(1,6,7,8)             97.0932         estimate D2E/DX2                !
 ! D29   D(1,6,7,9)           -143.7674         estimate D2E/DX2                !
 ! D30   D(1,6,7,10)           -22.8907         estimate D2E/DX2                !
 ! D31   D(6,7,10,2)            35.8677         estimate D2E/DX2                !
 ! D32   D(6,7,10,11)          155.7732         estimate D2E/DX2                !
 ! D33   D(6,7,10,12)          -81.1574         estimate D2E/DX2                !
 ! D34   D(8,7,10,2)           -84.7024         estimate D2E/DX2                !
 ! D35   D(8,7,10,11)           35.203          estimate D2E/DX2                !
 ! D36   D(8,7,10,12)          158.2724         estimate D2E/DX2                !
 ! D37   D(9,7,10,2)           156.5093         estimate D2E/DX2                !
 ! D38   D(9,7,10,11)          -83.5852         estimate D2E/DX2                !
 ! D39   D(9,7,10,12)           39.4842         estimate D2E/DX2                !
 ! D40   D(2,10,12,19)         -36.3615         estimate D2E/DX2                !
 ! D41   D(7,10,12,19)          78.4956         estimate D2E/DX2                !
 ! D42   D(11,10,12,19)       -158.3614         estimate D2E/DX2                !
 ! D43   D(10,12,19,15)         39.1516         estimate D2E/DX2                !
 ! D44   D(10,12,19,20)        -64.9942         estimate D2E/DX2                !
 ! D45   D(4,13,15,19)          53.9108         estimate D2E/DX2                !
 ! D46   D(14,13,15,19)        176.9458         estimate D2E/DX2                !
 ! D47   D(16,13,15,19)        -60.5705         estimate D2E/DX2                !
 ! D48   D(4,13,16,3)          -36.5648         estimate D2E/DX2                !
 ! D49   D(4,13,16,17)          83.7491         estimate D2E/DX2                !
 ! D50   D(4,13,16,18)        -157.229          estimate D2E/DX2                !
 ! D51   D(14,13,16,3)        -156.56           estimate D2E/DX2                !
 ! D52   D(14,13,16,17)        -36.2462         estimate D2E/DX2                !
 ! D53   D(14,13,16,18)         82.7757         estimate D2E/DX2                !
 ! D54   D(15,13,16,3)          80.9919         estimate D2E/DX2                !
 ! D55   D(15,13,16,17)       -158.6943         estimate D2E/DX2                !
 ! D56   D(15,13,16,18)        -39.6724         estimate D2E/DX2                !
 ! D57   D(13,15,19,12)        -55.3727         estimate D2E/DX2                !
 ! D58   D(13,15,19,20)         50.2899         estimate D2E/DX2                !
 --------------------------------------------------------------------------------
 Trust Radius=3.00D-01 FncErr=1.00D-07 GrdErr=1.00D-06 EigMax=2.50D+02 EigMin=1.00D-04
 Number of steps in this run=    126 maximum allowed number of steps=    126.
 GradGradGradGradGradGradGradGradGradGradGradGradGradGradGradGradGradGrad

                          Input orientation:                          
 ---------------------------------------------------------------------
 Center     Atomic      Atomic             Coordinates (Angstroms)
 Number     Number       Type             X           Y           Z
 ---------------------------------------------------------------------
      1         14           0       -0.019438   -0.480505   -0.027314
      2          8           0       -1.178616   -0.025990   -1.226501
      3          8           0        1.135578   -0.115268    1.224370
      4          8           0        1.288394   -0.290907   -1.206179
      5          8           0       -0.021559   -2.195450   -0.117425
      6          8           0       -1.255366   -0.305146    1.195264
      7          6           0       -2.501220    0.004698    0.688555
      8          1           0       -3.127886   -0.906771    0.583879
      9          1           0       -3.035812    0.695509    1.362742
     10          6           0       -2.267216    0.644681   -0.682723
     11          1           0       -3.153290    0.534618   -1.332728
     12          1           0       -2.003299    1.704122   -0.547461
     13          6           0        2.300879    0.517407   -0.700216
     14          1           0        3.250060    0.335885   -1.236160
     15          1           0        2.004394    1.575056   -0.761530
     16          6           0        2.416690    0.141526    0.778392
     17          1           0        3.062765   -0.756032    0.895483
     18          1           0        2.874056    0.958299    1.360002
     19          8           0        0.061621    2.546879    0.080465
     20          1           0        0.123139    2.185960    0.971879
     21          1           0        0.669229   -2.392488   -0.747184
 ---------------------------------------------------------------------
                    Distance matrix (angstroms):
                    1          2          3          4          5
     1  Si   0.000000
     2  O    1.728678   0.000000
     3  O    1.741888   3.371978   0.000000
     4  O    1.770902   2.481276   2.441674   0.000000
     5  O    1.717312   2.697293   2.732496   2.555122   0.000000
     6  O    1.747274   2.439009   2.398648   3.498263   2.611260
     7  C    2.628142   2.327587   3.678014   4.247184   3.411594
     8  H    3.196515   2.802303   4.383358   4.804906   3.435373
     9  H    3.523319   3.267096   4.251706   5.125537   4.431056
    10  C    2.597713   1.389440   3.974108   3.713717   3.664544
    11  H    3.543389   2.055457   5.035424   4.519520   4.328738
    12  H    2.996473   2.033343   4.037588   3.905034   4.395325
    13  C    2.613904   3.560778   2.337143   1.390862   3.618419
    14  H    3.580142   4.443447   3.275482   2.059587   4.285174
    15  H    2.976626   3.593202   2.748788   2.047483   4.328518
    16  C    2.640228   4.119937   1.380611   2.323483   3.494138
    17  H    3.229155   4.798447   2.057376   2.789573   3.551192
    18  H    3.516690   4.907441   2.047742   3.264985   4.529184
    19  O    3.030386   3.141019   3.090134   3.348650   4.747185
    20  H    2.851096   3.379373   2.526744   3.498089   4.517109
    21  H    2.155958   3.040492   3.047989   2.238456   0.955305
                    6          7          8          9         10
     6  O    0.000000
     7  C    1.380185   0.000000
     8  H    2.059630   1.111055   0.000000
     9  H    2.049231   1.103420   1.783930   0.000000
    10  C    2.335133   1.531254   2.179917   2.185692   0.000000
    11  H    3.270789   2.188971   2.398256   2.702822   1.104422
    12  H    2.762906   2.159561   3.059639   2.394214   1.100165
    13  C    4.112945   5.025108   5.757488   5.724315   4.569901
    14  H    5.159613   6.073832   6.747958   6.811447   5.553556
    15  H    4.241490   4.986916   5.857464   5.539839   4.372466
    16  C    3.722539   4.920633   5.646157   5.511637   4.932241
    17  H    4.351945   5.619560   6.200321   6.286330   5.732489
    18  H    4.321523   5.500344   6.332785   5.915708   5.541097
    19  O    3.333358   3.660685   4.728010   3.829608   3.102305
    20  H    2.855834   3.424242   4.503853   3.514710   3.290448
    21  H    3.440082   4.226061   4.289192   5.264489   4.225075
                   11         12         13         14         15
    11  H    0.000000
    12  H    1.818478   0.000000
    13  C    5.490749   4.467390   0.000000
    14  H    6.407161   5.472126   1.105048   0.000000
    15  H    5.292493   4.015481   1.100129   1.820028   0.000000
    16  C    5.969592   4.871950   1.530026   2.188767   2.143911
    17  H    6.728302   5.813729   2.179076   2.402346   3.049559
    18  H    6.615074   5.289920   2.183441   2.696078   2.374363
    19  O    4.047464   2.316986   3.121297   4.097333   2.329756
    20  H    4.332797   2.657499   3.212868   4.251570   2.630025
    21  H    4.849996   4.895356   3.336462   3.787322   4.186201
                   16         17         18         19         20
    16  C    0.000000
    17  H    1.112085   0.000000
    18  H    1.102076   1.786147   0.000000
    19  O    3.437903   4.536556   3.474276   0.000000
    20  H    3.078559   4.159634   3.037324   0.963673   0.000000
    21  H    3.435437   3.332470   4.530924   5.044952   4.920933
                   21
    21  H    0.000000
 Stoichiometry    C4H10O6Si(2-)
 Framework group  C1[X(C4H10O6Si)]
 Deg. of freedom    57
 Full point group                 C1      NOp   1
 Largest Abelian subgroup         C1      NOp   1
 Largest concise Abelian subgroup C1      NOp   1
                         Standard orientation:                         
 ---------------------------------------------------------------------
 Center     Atomic      Atomic             Coordinates (Angstroms)
 Number     Number       Type             X           Y           Z
 ---------------------------------------------------------------------
      1         14           0       -0.024032   -0.501226   -0.025512
      2          8           0       -1.174915   -0.055020   -1.235758
      3          8           0        1.124624   -0.127209    1.229428
      4          8           0        1.291199   -0.326344   -1.198404
      5          8           0       -0.030318   -2.216937   -0.099361
      6          8           0       -1.266619   -0.310945    1.188052
      7          6           0       -2.508630   -0.002591    0.671103
      8          1           0       -3.137164   -0.913330    0.571391
      9          1           0       -3.045271    0.696026    1.335548
     10          6           0       -2.264844    0.623704   -0.704784
     11          1           0       -3.147391    0.509845   -1.358919
     12          1           0       -1.998826    1.683671   -0.578027
     13          6           0        2.302910    0.484024   -0.694181
     14          1           0        3.254715    0.294873   -1.222783
     15          1           0        2.009685    1.541833   -0.767270
     16          6           0        2.409025    0.121900    0.788582
     17          1           0        3.051944   -0.776233    0.917983
     18          1           0        2.865209    0.942934    1.365100
     19          8           0        0.064678    2.526818    0.054019
     20          1           0        0.119983    2.174222    0.949164
     21          1           0        0.663606   -2.421802   -0.723146
 ---------------------------------------------------------------------
 Rotational constants (GHZ):           1.4540061           0.9012154           0.7783772
 Standard basis: def2TZVPP (5D, 7F)
 There are   558 symmetry adapted cartesian basis functions of A   symmetry.
 There are   492 symmetry adapted basis functions of A   symmetry.
   492 basis functions,   749 primitive gaussians,   558 cartesian basis functions
    49 alpha electrons       49 beta electrons
       nuclear repulsion energy       867.6283171631 Hartrees.
 NAtoms=   21 NActive=   21 NUniq=   21 SFac= 1.00D+00 NAtFMM=   60 NAOKFM=F Big=F
 Integral buffers will be    131072 words long.
 Raffenetti 2 integral format.
 Two-electron integral symmetry is turned on.
 Nuclear repulsion after empirical dispersion term =      867.6155505242 Hartrees.
 One-electron integrals computed using PRISM.
   1 Symmetry operations used in ECPInt.
 ECPInt:  NShTT=   17020 NPrTT=   47563 LenC2=   16260 LenP2D=   35228.
 LDataN:  DoStor=T MaxTD1= 6 Len=  172
 NBasis=   492 RedAO= T EigKep=  2.56D-04  NBF=   492
 NBsUse=   492 1.00D-06 EigRej= -1.00D+00 NBFU=   492
 ExpMin= 7.01D-02 ExpMax= 4.48D+04 ExpMxC= 1.53D+03 IAcc=3 IRadAn=         5 AccDes= 0.00D+00
 Harris functional with IExCor= 4639 and IRadAn=       5 diagonalized for initial guess.
 HarFok:  IExCor= 4639 AccDes= 0.00D+00 IRadAn=         5 IDoV= 1 UseB2=F ITyADJ=14
 ICtDFT=  3500011 ScaDFX=  1.000000  1.000000  1.000000  1.000000
 FoFCou: FMM=F IPFlag=           0 FMFlag=      100000 FMFlg1=           0
         NFxFlg=           0 DoJE=T BraDBF=F KetDBF=T FulRan=T
         wScrn=  0.000000 ICntrl=       500 IOpCl=  0 I1Cent=   200000004 NGrid=           0
         NMat0=    1 NMatS0=      1 NMatT0=    0 NMatD0=    1 NMtDS0=    0 NMtDT0=    0
 Petite list used in FoFCou.
 Requested convergence on RMS density matrix=1.00D-08 within 128 cycles.
 Requested convergence on MAX density matrix=1.00D-06.
 Requested convergence on             energy=1.00D-06.
 No special actions if energy rises.
 Integral accuracy reduced to 1.0D-05 until final iterations.
 Initial convergence to 1.0D-05 achieved.  Increase integral accuracy.
 SCF Done:  E(RwB97XD) =  -899.437437361     A.U. after   16 cycles
            NFock= 16  Conv=0.41D-08     -V/T= 2.0035

 **********************************************************************

            Population analysis using the SCF Density.

 **********************************************************************

 Orbital symmetries:
       Occupied  (A) (A) (A) (A) (A) (A) (A) (A) (A) (A) (A) (A)
                 (A) (A) (A) (A) (A) (A) (A) (A) (A) (A) (A) (A)
                 (A) (A) (A) (A) (A) (A) (A) (A) (A) (A) (A) (A)
                 (A) (A) (A) (A) (A) (A) (A) (A) (A) (A) (A) (A)
                 (A)
       Virtual   (A) (A) (A) (A) (A) (A) (A) (A) (A) (A) (A) (A)
                 (A) (A) (A) (A) (A) (A) (A) (A) (A) (A) (A) (A)
                 (A) (A) (A) (A) (A) (A) (A) (A) (A) (A) (A) (A)
                 (A) (A) (A) (A) (A) (A) (A) (A) (A) (A) (A) (A)
                 (A) (A) (A) (A) (A) (A) (A) (A) (A) (A) (A) (A)
                 (A) (A) (A) (A) (A) (A) (A) (A) (A) (A) (A) (A)
                 (A) (A) (A) (A) (A) (A) (A) (A) (A) (A) (A) (A)
                 (A) (A) (A) (A) (A) (A) (A) (A) (A) (A) (A) (A)
                 (A) (A) (A) (A) (A) (A) (A) (A) (A) (A) (A) (A)
                 (A) (A) (A) (A) (A) (A) (A) (A) (A) (A) (A) (A)
                 (A) (A) (A) (A) (A) (A) (A) (A) (A) (A) (A) (A)
                 (A) (A) (A) (A) (A) (A) (A) (A) (A) (A) (A) (A)
                 (A) (A) (A) (A) (A) (A) (A) (A) (A) (A) (A) (A)
                 (A) (A) (A) (A) (A) (A) (A) (A) (A) (A) (A) (A)
                 (A) (A) (A) (A) (A) (A) (A) (A) (A) (A) (A) (A)
                 (A) (A) (A) (A) (A) (A) (A) (A) (A) (A) (A) (A)
                 (A) (A) (A) (A) (A) (A) (A) (A) (A) (A) (A) (A)
                 (A) (A) (A) (A) (A) (A) (A) (A) (A) (A) (A) (A)
                 (A) (A) (A) (A) (A) (A) (A) (A) (A) (A) (A) (A)
                 (A) (A) (A) (A) (A) (A) (A) (A) (A) (A) (A) (A)
                 (A) (A) (A) (A) (A) (A) (A) (A) (A) (A) (A) (A)
                 (A) (A) (A) (A) (A) (A) (A) (A) (A) (A) (A) (A)
                 (A) (A) (A) (A) (A) (A) (A) (A) (A) (A) (A) (A)
                 (A) (A) (A) (A) (A) (A) (A) (A) (A) (A) (A) (A)
                 (A) (A) (A) (A) (A) (A) (A) (A) (A) (A) (A) (A)
                 (A) (A) (A) (A) (A) (A) (A) (A) (A) (A) (A) (A)
                 (A) (A) (A) (A) (A) (A) (A) (A) (A) (A) (A) (A)
                 (A) (A) (A) (A) (A) (A) (A) (A) (A) (A) (A) (A)
                 (A) (A) (A) (A) (A) (A) (A) (A) (A) (A) (A) (A)
                 (A) (A) (A) (A) (A) (A) (A) (A) (A) (A) (A) (A)
                 (A) (A) (A) (A) (A) (A) (A) (A) (A) (A) (A) (A)
                 (A) (A) (A) (A) (A) (A) (A) (A) (A) (A) (A) (A)
                 (A) (A) (A) (A) (A) (A) (A) (A) (A) (A) (A) (A)
                 (A) (A) (A) (A) (A) (A) (A) (A) (A) (A) (A) (A)
                 (A) (A) (A) (A) (A) (A) (A) (A) (A) (A) (A) (A)
                 (A) (A) (A) (A) (A) (A) (A) (A) (A) (A) (A) (A)
                 (A) (A) (A) (A) (A) (A) (A) (A) (A) (A) (A)
 The electronic state is 1-A.
 Alpha  occ. eigenvalues --  -65.98551 -18.91178 -18.90982 -18.90632 -18.90394
 Alpha  occ. eigenvalues --  -18.90169 -18.77403 -10.03471 -10.03320 -10.01819
 Alpha  occ. eigenvalues --  -10.01514  -5.09446  -3.44137  -3.43953  -3.43848
 Alpha  occ. eigenvalues --   -0.82716  -0.80439  -0.76572  -0.75851  -0.74536
 Alpha  occ. eigenvalues --   -0.58826  -0.52336  -0.50289  -0.40312  -0.38024
 Alpha  occ. eigenvalues --   -0.31917  -0.28442  -0.27321  -0.26720  -0.26432
 Alpha  occ. eigenvalues --   -0.24458  -0.21868  -0.20770  -0.18930  -0.18093
 Alpha  occ. eigenvalues --   -0.16228  -0.13406  -0.09802  -0.09697  -0.08499
 Alpha  occ. eigenvalues --   -0.07670  -0.06871  -0.06704  -0.05828  -0.03742
 Alpha  occ. eigenvalues --   -0.03032  -0.01348   0.06270   0.06642
 Alpha virt. eigenvalues --    0.37125   0.37818   0.39874   0.41270   0.41967
 Alpha virt. eigenvalues --    0.42660   0.42946   0.44994   0.47137   0.48417
 Alpha virt. eigenvalues --    0.49609   0.50078   0.51487   0.52711   0.53420
 Alpha virt. eigenvalues --    0.54734   0.55380   0.56060   0.56261   0.57172
 Alpha virt. eigenvalues --    0.57425   0.61715   0.62908   0.65780   0.66582
 Alpha virt. eigenvalues --    0.67347   0.68085   0.69291   0.70144   0.70375
 Alpha virt. eigenvalues --    0.71814   0.72733   0.74397   0.74843   0.74876
 Alpha virt. eigenvalues --    0.75405   0.75759   0.76982   0.77360   0.78464
 Alpha virt. eigenvalues --    0.79143   0.79356   0.80798   0.81704   0.82529
 Alpha virt. eigenvalues --    0.83501   0.84302   0.84759   0.85999   0.86894
 Alpha virt. eigenvalues --    0.87458   0.89121   0.90115   0.91976   0.93511
 Alpha virt. eigenvalues --    0.94699   0.95331   0.96661   0.98156   0.99049
 Alpha virt. eigenvalues --    0.99709   1.01710   1.03456   1.04431   1.05984
 Alpha virt. eigenvalues --    1.07527   1.07854   1.08958   1.09423   1.11724
 Alpha virt. eigenvalues --    1.12345   1.14313   1.14622   1.16344   1.17010
 Alpha virt. eigenvalues --    1.17917   1.18831   1.19632   1.20469   1.21292
 Alpha virt. eigenvalues --    1.22725   1.23307   1.25341   1.26052   1.27453
 Alpha virt. eigenvalues --    1.31077   1.32182   1.33873   1.35341   1.35702
 Alpha virt. eigenvalues --    1.36651   1.37411   1.38819   1.39079   1.41236
 Alpha virt. eigenvalues --    1.42242   1.43564   1.44367   1.44838   1.46327
 Alpha virt. eigenvalues --    1.48195   1.49240   1.49500   1.50783   1.52181
 Alpha virt. eigenvalues --    1.53305   1.54391   1.56169   1.56732   1.57143
 Alpha virt. eigenvalues --    1.58420   1.59458   1.61208   1.62716   1.64069
 Alpha virt. eigenvalues --    1.65174   1.66143   1.66581   1.68136   1.69164
 Alpha virt. eigenvalues --    1.70290   1.71798   1.73070   1.74271   1.76683
 Alpha virt. eigenvalues --    1.76775   1.77820   1.79549   1.80762   1.81756
 Alpha virt. eigenvalues --    1.84366   1.85292   1.85694   1.89296   1.90854
 Alpha virt. eigenvalues --    1.92070   1.92918   1.94160   1.95119   1.96793
 Alpha virt. eigenvalues --    1.97985   2.00200   2.03970   2.05074   2.06789
 Alpha virt. eigenvalues --    2.14751   2.16073   2.17655   2.18524   2.22056
 Alpha virt. eigenvalues --    2.22873   2.24925   2.26286   2.28092   2.28740
 Alpha virt. eigenvalues --    2.29678   2.31571   2.33341   2.35645   2.38212
 Alpha virt. eigenvalues --    2.38784   2.39703   2.41762   2.42817   2.45027
 Alpha virt. eigenvalues --    2.46413   2.47725   2.48688   2.48874   2.50119
 Alpha virt. eigenvalues --    2.52435   2.53820   2.54758   2.60327   2.61018
 Alpha virt. eigenvalues --    2.61484   2.63792   2.67723   2.70175   2.71203
 Alpha virt. eigenvalues --    2.72023   2.73953   2.77039   2.78925   2.80652
 Alpha virt. eigenvalues --    2.84484   2.87391   2.89463   2.89956   2.96940
 Alpha virt. eigenvalues --    2.98228   2.98651   3.00074   3.01265   3.01835
 Alpha virt. eigenvalues --    3.02185   3.03645   3.04436   3.13659   3.15985
 Alpha virt. eigenvalues --    3.16972   3.17331   3.19461   3.21308   3.21757
 Alpha virt. eigenvalues --    3.23518   3.23798   3.24521   3.25003   3.26024
 Alpha virt. eigenvalues --    3.29274   3.31633   3.33594   3.34039   3.34731
 Alpha virt. eigenvalues --    3.35498   3.37351   3.37737   3.38592   3.40711
 Alpha virt. eigenvalues --    3.42468   3.43291   3.45067   3.45572   3.48568
 Alpha virt. eigenvalues --    3.49959   3.51316   3.52920   3.53900   3.54221
 Alpha virt. eigenvalues --    3.54566   3.58000   3.58280   3.59185   3.60451
 Alpha virt. eigenvalues --    3.62035   3.64705   3.66232   3.68393   3.69031
 Alpha virt. eigenvalues --    3.70736   3.71735   3.73859   3.74741   3.76702
 Alpha virt. eigenvalues --    3.78870   3.81330   3.82527   3.83193   3.85399
 Alpha virt. eigenvalues --    3.85959   3.88965   3.91209   3.91879   3.92365
 Alpha virt. eigenvalues --    3.94157   3.95162   3.96328   3.98557   3.99859
 Alpha virt. eigenvalues --    4.01946   4.03325   4.04551   4.05435   4.06495
 Alpha virt. eigenvalues --    4.08204   4.10145   4.10999   4.13519   4.14078
 Alpha virt. eigenvalues --    4.14605   4.15321   4.15850   4.19387   4.20067
 Alpha virt. eigenvalues --    4.21697   4.23097   4.25664   4.26950   4.28918
 Alpha virt. eigenvalues --    4.31429   4.32642   4.34817   4.36978   4.37653
 Alpha virt. eigenvalues --    4.38383   4.41220   4.42768   4.43656   4.46373
 Alpha virt. eigenvalues --    4.47402   4.49060   4.49642   4.50416   4.51127
 Alpha virt. eigenvalues --    4.54809   4.55056   4.56490   4.57271   4.58848
 Alpha virt. eigenvalues --    4.61295   4.61802   4.63322   4.66407   4.66911
 Alpha virt. eigenvalues --    4.70321   4.71327   4.72535   4.73815   4.76153
 Alpha virt. eigenvalues --    4.77133   4.79247   4.87152   4.90902   4.93423
 Alpha virt. eigenvalues --    4.94089   4.96384   4.98175   5.00107   5.02225
 Alpha virt. eigenvalues --    5.05363   5.06550   5.11384   5.12458   5.13929
 Alpha virt. eigenvalues --    5.14233   5.16163   5.18121   5.20891   5.22960
 Alpha virt. eigenvalues --    5.25117   5.28100   5.29478   5.30226   5.31365
 Alpha virt. eigenvalues --    5.33350   5.37483   5.40817   5.43180   5.44414
 Alpha virt. eigenvalues --    5.45115   5.47429   5.50248   5.52167   5.53537
 Alpha virt. eigenvalues --    5.55130   5.56128   5.60234   5.63583   5.65131
 Alpha virt. eigenvalues --    5.65917   5.67928   5.70406   5.70958   5.71819
 Alpha virt. eigenvalues --    5.75574   5.77378   5.80383   5.82751   5.83807
 Alpha virt. eigenvalues --    5.84411   5.86872   5.87604   5.87972   5.90042
 Alpha virt. eigenvalues --    5.92204   5.93341   5.95487   5.97414   5.97552
 Alpha virt. eigenvalues --    5.98622   6.00071   6.01397   6.02407   6.04414
 Alpha virt. eigenvalues --    6.05732   6.07156   6.10504   6.11899   6.18603
 Alpha virt. eigenvalues --    6.36419   6.37260   6.38297   6.42035   6.46027
 Alpha virt. eigenvalues --    6.49506   6.51335   6.51981   6.53690   6.56563
 Alpha virt. eigenvalues --    6.58876   6.65562   6.73362   6.86781   6.90715
 Alpha virt. eigenvalues --    6.94242   6.95589   6.97500   6.98510   6.99284
 Alpha virt. eigenvalues --    7.01399   7.03051   7.06019   7.07560   7.08337
 Alpha virt. eigenvalues --    7.11947   7.12889   7.16367   7.18964   7.21262
 Alpha virt. eigenvalues --    7.21734   7.23036   7.23804   7.27436   7.36287
 Alpha virt. eigenvalues --    7.38965   7.41592   7.44187   7.48120   7.49640
 Alpha virt. eigenvalues --    7.54590   7.60440   7.64464   7.65914   7.67546
 Alpha virt. eigenvalues --    7.74308   7.80050   7.87351   7.88571   7.94259
 Alpha virt. eigenvalues --    7.98377   8.07715  12.41635  23.65915  23.66631
 Alpha virt. eigenvalues --   23.80220  23.81526  44.10625  44.24454  44.52557
 Alpha virt. eigenvalues --   44.61396  44.64354  44.77012
          Condensed to atoms (all electrons):
               1          2          3          4          5          6
     1  Si  11.668887   0.354183   0.337725   0.318523   0.470253   0.339744
     2  O    0.354183   8.053119  -0.000996  -0.044305  -0.040796  -0.040629
     3  O    0.337725  -0.000996   8.065454  -0.032563  -0.041911  -0.047007
     4  O    0.318523  -0.044305  -0.032563   8.175900  -0.069314   0.006086
     5  O    0.470253  -0.040796  -0.041911  -0.069314   7.903736  -0.033845
     6  O    0.339744  -0.040629  -0.047007   0.006086  -0.033845   8.083756
     7  C   -0.065173  -0.119139  -0.000212  -0.003953   0.002208   0.368773
     8  H    0.012813   0.012921  -0.000109  -0.000125   0.002151  -0.068082
     9  H   -0.006640   0.007385   0.000309   0.000134  -0.000548  -0.044568
    10  C   -0.085853   0.354002  -0.001323   0.004695  -0.009647  -0.097196
    11  H   -0.003989  -0.045599  -0.000157  -0.000442  -0.000100   0.007677
    12  H    0.012416  -0.041625   0.000766  -0.000055  -0.000235   0.006912
    13  C   -0.072728   0.004035  -0.080299   0.337407  -0.008081  -0.001406
    14  H   -0.006488  -0.000801   0.005805  -0.044736  -0.000100  -0.000059
    15  H   -0.001078   0.001934   0.005040  -0.030809  -0.000549   0.000443
    16  C   -0.015136  -0.006362   0.343634  -0.132733  -0.000542   0.000013
    17  H   -0.005156   0.000010  -0.068140   0.016842   0.001747   0.000293
    18  H   -0.003264   0.000186  -0.044571   0.009628  -0.000453   0.000344
    19  O    0.100435  -0.016323  -0.016993  -0.005042  -0.000037  -0.008639
    20  H   -0.061405   0.004388   0.011138   0.003081   0.000062   0.008128
    21  H   -0.059945  -0.000403  -0.001526   0.019460   0.305206   0.004831
               7          8          9         10         11         12
     1  Si  -0.065173   0.012813  -0.006640  -0.085853  -0.003989   0.012416
     2  O   -0.119139   0.012921   0.007385   0.354002  -0.045599  -0.041625
     3  O   -0.000212  -0.000109   0.000309  -0.001323  -0.000157   0.000766
     4  O   -0.003953  -0.000125   0.000134   0.004695  -0.000442  -0.000055
     5  O    0.002208   0.002151  -0.000548  -0.009647  -0.000100  -0.000235
     6  O    0.368773  -0.068082  -0.044568  -0.097196   0.007677   0.006912
     7  C    5.019644   0.314709   0.324827   0.020445   0.023325  -0.020077
     8  H    0.314709   0.942748  -0.120655  -0.042939  -0.029284   0.019833
     9  H    0.324827  -0.120655   0.867463   0.003158   0.015113  -0.019734
    10  C    0.020445  -0.042939   0.003158   5.361711   0.226141   0.228108
    11  H    0.023325  -0.029284   0.015113   0.226141   0.919608  -0.064018
    12  H   -0.020077   0.019833  -0.019734   0.228108  -0.064018   0.774883
    13  C    0.005722  -0.000204   0.000107  -0.019389   0.000365   0.009736
    14  H   -0.000193  -0.000001   0.000001   0.000357  -0.000012  -0.000087
    15  H   -0.002132  -0.000014   0.000017   0.010250  -0.000109  -0.005923
    16  C   -0.006925   0.000255   0.000040   0.009541  -0.000213  -0.003804
    17  H    0.000203  -0.000016   0.000003  -0.000079  -0.000002  -0.000039
    18  H   -0.000065   0.000002  -0.000004   0.000322  -0.000000  -0.000034
    19  O    0.032586   0.000077  -0.001366  -0.104349   0.002953   0.099124
    20  H    0.000371   0.000266   0.000701   0.003948  -0.000472  -0.005757
    21  H    0.000978  -0.000525   0.000068  -0.000746   0.000121   0.000019
              13         14         15         16         17         18
     1  Si  -0.072728  -0.006488  -0.001078  -0.015136  -0.005156  -0.003264
     2  O    0.004035  -0.000801   0.001934  -0.006362   0.000010   0.000186
     3  O   -0.080299   0.005805   0.005040   0.343634  -0.068140  -0.044571
     4  O    0.337407  -0.044736  -0.030809  -0.132733   0.016842   0.009628
     5  O   -0.008081  -0.000100  -0.000549  -0.000542   0.001747  -0.000453
     6  O   -0.001406  -0.000059   0.000443   0.000013   0.000293   0.000344
     7  C    0.005722  -0.000193  -0.002132  -0.006925   0.000203  -0.000065
     8  H   -0.000204  -0.000001  -0.000014   0.000255  -0.000016   0.000002
     9  H    0.000107   0.000001   0.000017   0.000040   0.000003  -0.000004
    10  C   -0.019389   0.000357   0.010250   0.009541  -0.000079   0.000322
    11  H    0.000365  -0.000012  -0.000109  -0.000213  -0.000002  -0.000000
    12  H    0.009736  -0.000087  -0.005923  -0.003804  -0.000039  -0.000034
    13  C    5.467193   0.205934   0.209641  -0.044993  -0.040832  -0.011554
    14  H    0.205934   0.938169  -0.061729   0.032165  -0.030900   0.014593
    15  H    0.209641  -0.061729   0.768765  -0.008466   0.022338  -0.013706
    16  C   -0.044993   0.032165  -0.008466   5.064446   0.306196   0.344100
    17  H   -0.040832  -0.030900   0.022338   0.306196   0.950856  -0.110351
    18  H   -0.011554   0.014593  -0.013706   0.344100  -0.110351   0.826493
    19  O   -0.120755   0.003516   0.103181   0.064090   0.000131  -0.000075
    20  H    0.015977  -0.000988  -0.011870  -0.014108   0.000625   0.002586
    21  H    0.004109  -0.000793   0.000197  -0.004259   0.002649  -0.000099
              19         20         21
     1  Si   0.100435  -0.061405  -0.059945
     2  O   -0.016323   0.004388  -0.000403
     3  O   -0.016993   0.011138  -0.001526
     4  O   -0.005042   0.003081   0.019460
     5  O   -0.000037   0.000062   0.305206
     6  O   -0.008639   0.008128   0.004831
     7  C    0.032586   0.000371   0.000978
     8  H    0.000077   0.000266  -0.000525
     9  H   -0.001366   0.000701   0.000068
    10  C   -0.104349   0.003948  -0.000746
    11  H    0.002953  -0.000472   0.000121
    12  H    0.099124  -0.005757   0.000019
    13  C   -0.120755   0.015977   0.004109
    14  H    0.003516  -0.000988  -0.000793
    15  H    0.103181  -0.011870   0.000197
    16  C    0.064090  -0.014108  -0.004259
    17  H    0.000131   0.000625   0.002649
    18  H   -0.000075   0.002586  -0.000099
    19  O    8.499940   0.271491   0.000245
    20  H    0.271491   0.644787  -0.000203
    21  H    0.000245  -0.000203   0.609384
 Mulliken charges:
               1
     1  Si   0.771876
     2  O   -0.435185
     3  O   -0.434063
     4  O   -0.527678
     5  O   -0.479208
     6  O   -0.485568
     7  C    0.104078
     8  H   -0.043822
     9  H   -0.025808
    10  C    0.138845
    11  H   -0.050906
    12  H    0.009591
    13  C    0.140016
    14  H   -0.053653
    15  H    0.014581
    16  C    0.073060
    17  H   -0.046380
    18  H   -0.014076
    19  O   -0.904189
    20  H    0.127255
    21  H    0.121233
 Sum of Mulliken charges =  -2.00000
 Mulliken charges with hydrogens summed into heavy atoms:
               1
     1  Si   0.771876
     2  O   -0.435185
     3  O   -0.434063
     4  O   -0.527678
     5  O   -0.357975
     6  O   -0.485568
     7  C    0.034449
    10  C    0.097529
    13  C    0.100944
    16  C    0.012604
    19  O   -0.776934
 Electronic spatial extent (au):  <R**2>=           1782.9042
 Charge=             -2.0000 electrons
 Dipole moment (field-independent basis, Debye):
    X=              0.6231    Y=             -5.0729    Z=             -0.0190  Tot=              5.1111
 Quadrupole moment (field-independent basis, Debye-Ang):
   XX=            -94.0454   YY=           -114.4325   ZZ=            -92.1146
   XY=             -2.7621   XZ=             -0.0387   YZ=              3.0359
 Traceless Quadrupole moment (field-independent basis, Debye-Ang):
   XX=              6.1522   YY=            -14.2350   ZZ=              8.0829
   XY=             -2.7621   XZ=             -0.0387   YZ=              3.0359
 Octapole moment (field-independent basis, Debye-Ang**2):
  XXX=             -0.0639  YYY=            -71.7146  ZZZ=             -0.0255  XYY=              5.4103
  XXY=             -2.6076  XXZ=             -0.4859  XZZ=              0.2951  YZZ=              0.3400
  YYZ=             -4.6670  XYZ=              0.7975
 Hexadecapole moment (field-independent basis, Debye-Ang**3):
 XXXX=          -1532.4665 YYYY=           -942.6768 ZZZZ=           -449.9027 XXXY=             -1.4781
 XXXZ=              1.3279 YYYX=            -24.2433 YYYZ=             15.3755 ZZZX=             -0.9470
 ZZZY=              6.4733 XXYY=           -351.6044 XXZZ=           -335.5770 YYZZ=           -175.1885
 XXYZ=              7.2613 YYXZ=             -5.0283 ZZXY=             -0.7758
 N-N= 8.676155505242D+02 E-N=-3.894592288550D+03  KE= 8.963321410859D+02
   1 Symmetry operations used in ECPInt.
 ECPInt:  NShTT=   17020 NPrTT=   47563 LenC2=   16260 LenP2D=   35228.
 LDataN:  DoStor=T MaxTD1= 7 Len=  274
 Calling FoFJK, ICntrl=      2127 FMM=F ISym2X=0 I1Cent= 0 IOpClX= 0 NMat=1 NMatS=1 NMatT=0.
 ***** Axes restored to original set *****
 -------------------------------------------------------------------
 Center     Atomic                   Forces (Hartrees/Bohr)
 Number     Number              X              Y              Z
 -------------------------------------------------------------------
      1       14          -0.000039488   -0.002153677   -0.000081707
      2        8           0.000417474    0.000023510    0.000196672
      3        8          -0.000404871    0.000164746   -0.000305763
      4        8           0.000072016   -0.000995468    0.000050890
      5        8          -0.000016745   -0.000997998    0.000003854
      6        8          -0.000041795   -0.000789486   -0.000105273
      7        6           0.000093265   -0.000077564   -0.000062284
      8        1           0.000001162   -0.000003455   -0.000004391
      9        1          -0.000001083    0.000000102   -0.000000652
     10        6           0.000527878    0.000423234    0.000318357
     11        1           0.000002953    0.000010344   -0.000002397
     12        1           0.000005043    0.000021133   -0.000008864
     13        6          -0.000553224    0.000171876   -0.000088314
     14        1          -0.000004031    0.000007598   -0.000005155
     15        1           0.000008275   -0.000019184   -0.000020600
     16        6          -0.000298885    0.000438541   -0.000101037
     17        1          -0.000002907   -0.000004079    0.000001216
     18        1          -0.000002333    0.000005358    0.000000021
     19        8           0.000558467    0.001799473    0.005217946
     20        1          -0.000332669    0.001992186   -0.004999694
     21        1           0.000011499   -0.000017189   -0.000002824
 -------------------------------------------------------------------
 Cartesian Forces:  Max     0.005217946 RMS     0.001045355

 GradGradGradGradGradGradGradGradGradGradGradGradGradGradGradGradGradGrad
 Berny optimization.
 FormGI is forming the generalized inverse of G from B-inverse, IUseBI=4.
 Internal  Forces:  Max     0.005391159 RMS     0.000877349
 Search for a local minimum.
 Step number   1 out of a maximum of  126
 All quantities printed in internal units (Hartrees-Bohrs-Radians)
 Mixed Optimization -- En-DIIS/RFO-DIIS
 Second derivative matrix not updated -- first step.
 ITU=  0
     Eigenvalues ---    0.00477   0.00990   0.01178   0.01613   0.02532
     Eigenvalues ---    0.02787   0.02855   0.02921   0.04279   0.04595
     Eigenvalues ---    0.04866   0.04956   0.05093   0.05296   0.06047
     Eigenvalues ---    0.06099   0.06460   0.06656   0.07489   0.08686
     Eigenvalues ---    0.08958   0.09399   0.10471   0.11167   0.11248
     Eigenvalues ---    0.11294   0.12723   0.12845   0.13286   0.13642
     Eigenvalues ---    0.15332   0.16000   0.16200   0.17982   0.19748
     Eigenvalues ---    0.20888   0.26106   0.27232   0.28201   0.29610
     Eigenvalues ---    0.30154   0.30439   0.32380   0.32489   0.33052
     Eigenvalues ---    0.33130   0.33198   0.33307   0.33454   0.33493
     Eigenvalues ---    0.33885   0.43379   0.44452   0.45608   0.47056
     Eigenvalues ---    0.54691   0.56496
 RFO step:  Lambda=-9.31902827D-04 EMin= 4.76609116D-03
 Linear search not attempted -- first point.
 Iteration  1 RMS(Cart)=  0.03554069 RMS(Int)=  0.00073700
 Iteration  2 RMS(Cart)=  0.00105663 RMS(Int)=  0.00025362
 Iteration  3 RMS(Cart)=  0.00000055 RMS(Int)=  0.00025362
 Variable       Old X    -DE/DX   Delta X   Delta X   Delta X     New X
                                 (Linear)    (Quad)   (Total)
    R1        3.26673  -0.00061   0.00000  -0.00185  -0.00165   3.26508
    R2        3.29169  -0.00037   0.00000  -0.00233  -0.00250   3.28919
    R3        3.34652  -0.00061   0.00000  -0.00127  -0.00112   3.34540
    R4        3.24525   0.00101   0.00000   0.00298   0.00298   3.24823
    R5        3.30187  -0.00021   0.00000  -0.00114  -0.00141   3.30046
    R6        2.62566   0.00016   0.00000   0.00109   0.00124   2.62690
    R7        2.60898   0.00012   0.00000  -0.00034  -0.00073   2.60825
    R8        2.62835   0.00042   0.00000   0.00089   0.00106   2.62941
    R9        1.80527   0.00001   0.00000   0.00002   0.00002   1.80529
   R10        2.60817   0.00001   0.00000  -0.00060  -0.00094   2.60723
   R11        2.09959   0.00000   0.00000   0.00001   0.00001   2.09959
   R12        2.08516   0.00000   0.00000   0.00000   0.00000   2.08516
   R13        2.89365   0.00043   0.00000   0.00092   0.00095   2.89460
   R14        2.08705  -0.00000   0.00000  -0.00001  -0.00001   2.08705
   R15        2.07901   0.00186   0.00000   0.00598   0.00601   2.08502
   R16        4.37847   0.00086   0.00000   0.04021   0.04036   4.41883
   R17        2.08824  -0.00000   0.00000  -0.00001  -0.00001   2.08823
   R18        2.07894   0.00182   0.00000   0.00530   0.00534   2.08428
   R19        2.89133   0.00010   0.00000   0.00113   0.00103   2.89236
   R20        4.40260   0.00092   0.00000   0.03305   0.03324   4.43584
   R21        2.10154   0.00000   0.00000   0.00001   0.00001   2.10155
   R22        2.08262   0.00000   0.00000   0.00001   0.00001   2.08263
   R23        1.82108  -0.00539   0.00000  -0.00984  -0.00984   1.81124
    A1        2.66374  -0.00163   0.00000  -0.01475  -0.01486   2.64888
    A2        1.57607  -0.00070   0.00000  -0.00214  -0.00208   1.57399
    A3        1.79808   0.00087   0.00000   0.00739   0.00741   1.80550
    A4        1.55548   0.00011   0.00000   0.00064   0.00081   1.55629
    A5        1.53699   0.00023   0.00000   0.00064   0.00061   1.53761
    A6        1.82132   0.00077   0.00000   0.00736   0.00744   1.82877
    A7        1.51596  -0.00034   0.00000  -0.00337  -0.00372   1.51225
    A8        1.64376   0.00055   0.00000   0.00144   0.00152   1.64528
    A9        1.70728   0.00022   0.00000   0.00123   0.00133   1.70861
   A10        1.96145   0.00025   0.00000  -0.00014  -0.00050   1.96095
   A11        2.00664  -0.00017   0.00000   0.00027   0.00039   2.00703
   A12        1.93656   0.00004   0.00000   0.00143   0.00118   1.93774
   A13        1.81282   0.00003   0.00000   0.00017   0.00017   1.81299
   A14        1.98684  -0.00021   0.00000  -0.00037  -0.00035   1.98649
   A15        1.93859  -0.00013   0.00000  -0.00195  -0.00183   1.93675
   A16        1.93217   0.00004   0.00000   0.00125   0.00109   1.93327
   A17        1.85945   0.00014   0.00000   0.00184   0.00190   1.86134
   A18        1.87329   0.00002   0.00000  -0.00030  -0.00029   1.87300
   A19        1.92271   0.00009   0.00000  -0.00166  -0.00172   1.92099
   A20        1.93857  -0.00017   0.00000   0.00077   0.00081   1.93938
   A21        1.84260  -0.00058   0.00000  -0.00170  -0.00160   1.84099
   A22        1.92852  -0.00003   0.00000  -0.00740  -0.00724   1.92129
   A23        1.90180   0.00023   0.00000   0.01763   0.01707   1.91888
   A24        1.94207  -0.00018   0.00000  -0.00826  -0.00858   1.93349
   A25        1.90608   0.00143   0.00000   0.01191   0.01210   1.91818
   A26        1.93991  -0.00082   0.00000  -0.01089  -0.01071   1.92920
   A27        2.21102   0.00240   0.00000   0.01863   0.01796   2.22898
   A28        1.93198  -0.00032   0.00000  -0.00767  -0.00756   1.92442
   A29        1.92012   0.00071   0.00000   0.01533   0.01493   1.93505
   A30        1.83784  -0.00033   0.00000  -0.00076  -0.00071   1.83712
   A31        1.94162  -0.00054   0.00000  -0.01159  -0.01143   1.93019
   A32        1.94263   0.00024   0.00000  -0.00742  -0.00769   1.93494
   A33        1.88646   0.00029   0.00000   0.01353   0.01363   1.90008
   A34        2.22134   0.00238   0.00000   0.01868   0.01859   2.23993
   A35        1.86255   0.00007   0.00000   0.00386   0.00380   1.86635
   A36        1.93367  -0.00021   0.00000  -0.00356  -0.00344   1.93023
   A37        1.93100   0.00016   0.00000   0.00185   0.00175   1.93276
   A38        1.92197   0.00013   0.00000  -0.00319  -0.00321   1.91877
   A39        1.93836  -0.00016   0.00000   0.00160   0.00164   1.94000
   A40        1.87705   0.00001   0.00000  -0.00064  -0.00064   1.87641
   A41        2.08691  -0.00356   0.00000  -0.01738  -0.01840   2.06851
   A42        1.74300  -0.00032   0.00000  -0.00292  -0.00270   1.74030
   A43        1.69597  -0.00030   0.00000  -0.00336  -0.00303   1.69294
   A44        3.13155  -0.00059   0.00000  -0.00151  -0.00128   3.13027
   A45        3.35426   0.00069   0.00000   0.00268   0.00291   3.35718
    D1       -1.07830   0.00035   0.00000   0.00720   0.00760  -1.07070
    D2       -2.58575   0.00102   0.00000   0.00824   0.00851  -2.57724
    D3        2.05052   0.00059   0.00000   0.00709   0.00727   2.05780
    D4        0.34317   0.00033   0.00000   0.00556   0.00559   0.34877
    D5       -1.50925   0.00072   0.00000   0.01229   0.01228  -1.49697
    D6        0.00771  -0.00014   0.00000   0.01089   0.01100   0.01871
    D7        1.64519   0.00048   0.00000   0.01241   0.01261   1.65780
    D8       -2.94024   0.00060   0.00000   0.01267   0.01285  -2.92739
    D9        2.24888  -0.00166   0.00000  -0.01870  -0.01888   2.23000
   D10       -0.41560  -0.00005   0.00000  -0.00403  -0.00409  -0.41970
   D11       -2.23520  -0.00083   0.00000  -0.01142  -0.01158  -2.24678
   D12        1.60020  -0.00023   0.00000  -0.00068  -0.00069   1.59951
   D13       -1.54746  -0.00013   0.00000  -0.00092  -0.00103  -1.54849
   D14        0.00706   0.00030   0.00000   0.00061   0.00051   0.00758
   D15       -3.09630   0.00007   0.00000   0.00131   0.00152  -3.09478
   D16        0.06236   0.00003   0.00000  -0.00689  -0.00702   0.05534
   D17        2.73108  -0.00159   0.00000  -0.02142  -0.02164   2.70944
   D18       -1.73577  -0.00086   0.00000  -0.01445  -0.01463  -1.75040
   D19       -0.60843  -0.00033   0.00000  -0.00235  -0.00230  -0.61073
   D20       -2.71007   0.00025   0.00000   0.01258   0.01274  -2.69733
   D21        1.43693   0.00114   0.00000   0.01927   0.01957   1.45650
   D22        0.35345   0.00031   0.00000  -0.01399  -0.01407   0.33938
   D23       -1.73890   0.00023   0.00000  -0.01048  -0.01056  -1.74946
   D24        2.46414   0.00025   0.00000  -0.00859  -0.00868   2.45545
   D25        2.76763   0.00001   0.00000  -0.01747  -0.01754   2.75009
   D26       -1.36254  -0.00041   0.00000  -0.02683  -0.02697  -1.38952
   D27        0.66629   0.00009   0.00000  -0.00399  -0.00394   0.66236
   D28        1.69460  -0.00017   0.00000   0.00407   0.00420   1.69880
   D29       -2.50921  -0.00020   0.00000   0.00325   0.00337  -2.50585
   D30       -0.39952  -0.00030   0.00000   0.00604   0.00615  -0.39336
   D31        0.62601   0.00030   0.00000  -0.00237  -0.00235   0.62366
   D32        2.71876  -0.00018   0.00000  -0.01682  -0.01659   2.70217
   D33       -1.41646  -0.00036   0.00000  -0.02788  -0.02757  -1.44404
   D34       -1.47834   0.00032   0.00000  -0.00020  -0.00032  -1.47866
   D35        0.61441  -0.00017   0.00000  -0.01465  -0.01455   0.59986
   D36        2.76238  -0.00034   0.00000  -0.02571  -0.02554   2.73684
   D37        2.73160   0.00035   0.00000   0.00074   0.00063   2.73224
   D38       -1.45884  -0.00014   0.00000  -0.01371  -0.01360  -1.47244
   D39        0.68913  -0.00032   0.00000  -0.02477  -0.02459   0.66454
   D40       -0.63463  -0.00041   0.00000   0.03597   0.03651  -0.59812
   D41        1.37001  -0.00020   0.00000   0.04995   0.05089   1.42090
   D42       -2.76393   0.00000   0.00000   0.04045   0.04116  -2.72276
   D43        0.68333  -0.00180   0.00000  -0.09944  -0.09879   0.58454
   D44       -1.13436  -0.00010   0.00000  -0.08799  -0.08775  -1.22211
   D45        0.94092   0.00101   0.00000   0.00163   0.00125   0.94217
   D46        3.08829   0.00072   0.00000  -0.00538  -0.00588   3.08240
   D47       -1.05715   0.00086   0.00000  -0.01294  -0.01370  -1.07085
   D48       -0.63818  -0.00019   0.00000   0.01131   0.01126  -0.62692
   D49        1.46170  -0.00033   0.00000   0.00755   0.00759   1.46929
   D50       -2.74416  -0.00033   0.00000   0.00572   0.00577  -2.73840
   D51       -2.73249   0.00027   0.00000   0.02501   0.02483  -2.70765
   D52       -0.63262   0.00013   0.00000   0.02125   0.02117  -0.61145
   D53        1.44471   0.00013   0.00000   0.01942   0.01934   1.46405
   D54        1.41357   0.00060   0.00000   0.03512   0.03491   1.44849
   D55       -2.76974   0.00047   0.00000   0.03136   0.03125  -2.73849
   D56       -0.69241   0.00046   0.00000   0.02953   0.02942  -0.66299
   D57       -0.96644   0.00178   0.00000   0.07595   0.07551  -0.89093
   D58        0.87772   0.00018   0.00000   0.06536   0.06530   0.94302
         Item               Value     Threshold  Converged?
 Maximum Force            0.005391     0.000450     NO 
 RMS     Force            0.000877     0.000300     NO 
 Maximum Displacement     0.278864     0.001800     NO 
 RMS     Displacement     0.035621     0.001200     NO 
 Predicted change in Energy=-4.892575D-04
 GradGradGradGradGradGradGradGradGradGradGradGradGradGradGradGradGradGrad

                          Input orientation:                          
 ---------------------------------------------------------------------
 Center     Atomic      Atomic             Coordinates (Angstroms)
 Number     Number       Type             X           Y           Z
 ---------------------------------------------------------------------
      1         14           0       -0.021052   -0.509579   -0.028817
      2          8           0       -1.175158   -0.026571   -1.220476
      3          8           0        1.127692   -0.149208    1.228195
      4          8           0        1.287247   -0.300615   -1.202993
      5          8           0       -0.022591   -2.224678   -0.142922
      6          8           0       -1.256205   -0.349465    1.195566
      7          6           0       -2.497281   -0.014477    0.694519
      8          1           0       -3.133614   -0.917046    0.572466
      9          1           0       -3.025069    0.669004    1.381419
     10          6           0       -2.257258    0.647174   -0.665955
     11          1           0       -3.143954    0.540152   -1.315615
     12          1           0       -2.005977    1.712429   -0.526460
     13          6           0        2.292424    0.513778   -0.690700
     14          1           0        3.244401    0.325012   -1.219122
     15          1           0        2.011981    1.577904   -0.764852
     16          6           0        2.404804    0.133409    0.787587
     17          1           0        3.063518   -0.755341    0.901455
     18          1           0        2.848440    0.952584    1.376417
     19          8           0        0.070901    2.631002    0.030899
     20          1           0        0.140714    2.333528    0.939355
     21          1           0        0.669141   -2.412913   -0.774354
 ---------------------------------------------------------------------
                    Distance matrix (angstroms):
                    1          2          3          4          5
     1  Si   0.000000
     2  O    1.727805   0.000000
     3  O    1.740563   3.363651   0.000000
     4  O    1.770311   2.477669   2.441118   0.000000
     5  O    1.718891   2.705773   2.740564   2.557625   0.000000
     6  O    1.746526   2.438870   2.392516   3.496372   2.613385
     7  C    2.626795   2.327093   3.666523   4.243239   3.422045
     8  H    3.196188   2.800560   4.379302   4.803775   3.449659
     9  H    3.521639   3.267392   4.235371   5.120099   4.439807
    10  C    2.597045   1.390096   3.959787   3.708130   3.676253
    11  H    3.536991   2.050947   5.019277   4.511664   4.331559
    12  H    3.020745   2.048424   4.045292   3.918592   4.425126
    13  C    2.614865   3.549192   2.340579   1.391425   3.627465
    14  H    3.574430   4.433522   3.270276   2.054781   4.281632
    15  H    3.005421   3.597192   2.781567   2.060593   4.357283
    16  C    2.639077   4.107803   1.380226   2.323730   3.509797
    17  H    3.231157   4.795839   2.054648   2.791168   3.574037
    18  H    3.513770   4.887938   2.048630   3.265147   4.543809
    19  O    3.142494   3.190814   3.206227   3.405344   4.859690
    20  H    3.007788   3.459257   2.687291   3.583700   4.687776
    21  H    2.157515   3.048785   3.056932   2.242228   0.955318
                    6          7          8          9         10
     6  O    0.000000
     7  C    1.379686   0.000000
     8  H    2.057928   1.111058   0.000000
     9  H    2.049561   1.103421   1.783744   0.000000
    10  C    2.336805   1.531758   2.179099   2.186721   0.000000
    11  H    3.265126   2.183218   2.385033   2.702726   1.104419
    12  H    2.789075   2.171261   3.064856   2.401518   1.103344
    13  C    4.110469   5.013896   5.751934   5.709072   4.551705
    14  H    5.151805   6.061698   6.740295   6.796131   5.538776
    15  H    4.270718   4.999888   5.872848   5.550175   4.370634
    16  C    3.715186   4.905198   5.641260   5.488444   4.910353
    17  H    4.348706   5.613749   6.207965   6.271364   5.721406
    18  H    4.310005   5.475118   6.318767   5.880352   5.507514
    19  O    3.464223   3.746265   4.811533   3.906196   3.137117
    20  H    3.035701   3.540069   4.628398   3.603921   3.342317
    21  H    3.441709   4.235128   4.302614   5.271883   4.235528
                   11         12         13         14         15
    11  H    0.000000
    12  H    1.814384   0.000000
    13  C    5.472241   4.465422   0.000000
    14  H    6.392705   5.474594   1.105044   0.000000
    15  H    5.288094   4.027271   1.102955   1.815202   0.000000
    16  C    5.947909   4.865698   1.530570   2.183693   2.156605
    17  H    6.717619   5.816237   2.177202   2.386782   3.053906
    18  H    6.582242   5.269124   2.185103   2.699528   2.382377
    19  O    4.064486   2.338343   3.152540   4.117189   2.347345
    20  H    4.369226   2.672576   3.255522   4.280892   2.641387
    21  H    4.853169   4.923023   3.347771   3.784973   4.210692
                   16         17         18         19         20
    16  C    0.000000
    17  H    1.112091   0.000000
    18  H    1.102080   1.785736   0.000000
    19  O    3.501093   4.602276   3.513151   0.000000
    20  H    3.160643   4.252685   3.070799   0.958466   0.000000
    21  H    3.454843   3.359899   4.549915   5.142704   5.073927
                   21
    21  H    0.000000
 Stoichiometry    C4H10O6Si(2-)
 Framework group  C1[X(C4H10O6Si)]
 Deg. of freedom    57
 Full point group                 C1      NOp   1
 Largest Abelian subgroup         C1      NOp   1
 Largest concise Abelian subgroup C1      NOp   1
                         Standard orientation:                         
 ---------------------------------------------------------------------
 Center     Atomic      Atomic             Coordinates (Angstroms)
 Number     Number       Type             X           Y           Z
 ---------------------------------------------------------------------
      1         14           0       -0.027520   -0.521743   -0.034232
      2          8           0       -1.169369   -0.019225   -1.229627
      3          8           0        1.114466   -0.181521    1.234497
      4          8           0        1.290835   -0.311053   -1.196793
      5          8           0       -0.040385   -2.235631   -0.164661
      6          8           0       -1.270487   -0.364381    1.182578
      7          6           0       -2.505433   -0.015785    0.675703
      8          1           0       -3.147237   -0.912578    0.540429
      9          1           0       -3.033402    0.664927    1.365208
     10          6           0       -2.250715    0.656975   -0.676627
     11          1           0       -3.133341    0.562460   -1.333725
     12          1           0       -1.992918    1.719035   -0.525172
     13          6           0        2.297966    0.491236   -0.669456
     14          1           0        3.252444    0.300665   -1.192692
     15          1           0        2.025631    1.557997   -0.735521
     16          6           0        2.396760    0.096098    0.805926
     17          1           0        3.048297   -0.798385    0.916132
     18          1           0        2.841848    0.906465    1.405744
     19          8           0        0.086264    2.617393    0.056037
     20          1           0        0.147276    2.310843    0.962105
     21          1           0        0.654624   -2.422831   -0.792793
 ---------------------------------------------------------------------
 Rotational constants (GHZ):           1.4098957           0.9060373           0.7679718
 Standard basis: def2TZVPP (5D, 7F)
 There are   558 symmetry adapted cartesian basis functions of A   symmetry.
 There are   492 symmetry adapted basis functions of A   symmetry.
   492 basis functions,   749 primitive gaussians,   558 cartesian basis functions
    49 alpha electrons       49 beta electrons
       nuclear repulsion energy       864.5207455725 Hartrees.
 NAtoms=   21 NActive=   21 NUniq=   21 SFac= 1.00D+00 NAtFMM=   60 NAOKFM=F Big=F
 Integral buffers will be    131072 words long.
 Raffenetti 2 integral format.
 Two-electron integral symmetry is turned on.
 Nuclear repulsion after empirical dispersion term =      864.5080519293 Hartrees.
 One-electron integrals computed using PRISM.
   1 Symmetry operations used in ECPInt.
 ECPInt:  NShTT=   17020 NPrTT=   47563 LenC2=   16248 LenP2D=   35167.
 LDataN:  DoStor=T MaxTD1= 6 Len=  172
 NBasis=   492 RedAO= T EigKep=  2.66D-04  NBF=   492
 NBsUse=   492 1.00D-06 EigRej= -1.00D+00 NBFU=   492
 Initial guess from the checkpoint file:  "IRCReverse_HBiL2toPBiL2_ProductOpt.chk"
 B after Tr=    -0.000000    0.000000   -0.000000
         Rot=    0.999947   -0.009972    0.000865    0.002237 Ang=  -1.18 deg.
 ExpMin= 7.01D-02 ExpMax= 4.48D+04 ExpMxC= 1.53D+03 IAcc=3 IRadAn=         5 AccDes= 0.00D+00
 Harris functional with IExCor= 4639 and IRadAn=       5 diagonalized for initial guess.
 HarFok:  IExCor= 4639 AccDes= 0.00D+00 IRadAn=         5 IDoV= 1 UseB2=F ITyADJ=14
 ICtDFT=  3500011 ScaDFX=  1.000000  1.000000  1.000000  1.000000
 FoFCou: FMM=F IPFlag=           0 FMFlag=      100000 FMFlg1=           0
         NFxFlg=           0 DoJE=T BraDBF=F KetDBF=T FulRan=T
         wScrn=  0.000000 ICntrl=       500 IOpCl=  0 I1Cent=   200000004 NGrid=           0
         NMat0=    1 NMatS0=      1 NMatT0=    0 NMatD0=    1 NMtDS0=    0 NMtDT0=    0
 Petite list used in FoFCou.
 Requested convergence on RMS density matrix=1.00D-08 within 128 cycles.
 Requested convergence on MAX density matrix=1.00D-06.
 Requested convergence on             energy=1.00D-06.
 No special actions if energy rises.
 Integral accuracy reduced to 1.0D-05 until final iterations.
 Initial convergence to 1.0D-05 achieved.  Increase integral accuracy.
 SCF Done:  E(RwB97XD) =  -899.438041573     A.U. after   14 cycles
            NFock= 14  Conv=0.41D-08     -V/T= 2.0035
   1 Symmetry operations used in ECPInt.
 ECPInt:  NShTT=   17020 NPrTT=   47563 LenC2=   16248 LenP2D=   35167.
 LDataN:  DoStor=T MaxTD1= 7 Len=  274
 Calling FoFJK, ICntrl=      2127 FMM=F ISym2X=0 I1Cent= 0 IOpClX= 0 NMat=1 NMatS=1 NMatT=0.
 ***** Axes restored to original set *****
 -------------------------------------------------------------------
 Center     Atomic                   Forces (Hartrees/Bohr)
 Number     Number              X              Y              Z
 -------------------------------------------------------------------
      1       14           0.000426394   -0.004684838   -0.000213898
      2        8           0.000979011    0.001933690    0.001992211
      3        8          -0.001242666    0.001817651   -0.001283749
      4        8          -0.000309280    0.000163496    0.001006612
      5        8          -0.000092923    0.000519148    0.000032781
      6        8           0.000188910   -0.000136472   -0.000351789
      7        6          -0.000361582    0.000112794   -0.000085059
      8        1          -0.000077884    0.000169336   -0.000039097
      9        1           0.000087084   -0.000034469    0.000022388
     10        6          -0.001826410    0.000432760   -0.000663832
     11        1          -0.000242683    0.000293673   -0.000107323
     12        1           0.001759380   -0.002534380    0.000015724
     13        6           0.001239795    0.000316136   -0.001265911
     14        1           0.000364135    0.000164779   -0.000022455
     15        1          -0.001568263   -0.002360278    0.000787154
     16        6           0.000487646    0.000289349   -0.000120317
     17        1           0.000073800    0.000205265    0.000035163
     18        1          -0.000207835    0.000002757   -0.000085198
     19        8           0.000323729    0.004555027    0.000269243
     20        1          -0.000059607   -0.001227025    0.000084904
     21        1           0.000059247    0.000001599   -0.000007552
 -------------------------------------------------------------------
 Cartesian Forces:  Max     0.004684838 RMS     0.001179836

 GradGradGradGradGradGradGradGradGradGradGradGradGradGradGradGradGradGrad
 Berny optimization.
 Using GEDIIS/GDIIS optimizer.
 FormGI is forming the generalized inverse of G from B-inverse, IUseBI=4.
 Internal  Forces:  Max     0.003265893 RMS     0.000679598
 Search for a local minimum.
 Step number   2 out of a maximum of  126
 All quantities printed in internal units (Hartrees-Bohrs-Radians)
 Mixed Optimization -- En-DIIS/RFO-DIIS
 Swapping is turned off.
 Update second derivatives using D2CorX and points    1    2
 DE= -6.04D-04 DEPred=-4.89D-04 R= 1.23D+00
 TightC=F SS=  1.41D+00  RLast= 2.25D-01 DXNew= 5.0454D-01 6.7409D-01
 Trust test= 1.23D+00 RLast= 2.25D-01 DXMaxT set to 5.05D-01
 ITU=  1  0
     Eigenvalues ---    0.00539   0.00953   0.01025   0.01578   0.02518
     Eigenvalues ---    0.02640   0.02787   0.02929   0.03698   0.04560
     Eigenvalues ---    0.04677   0.04889   0.05310   0.05461   0.06038
     Eigenvalues ---    0.06102   0.06387   0.06647   0.07484   0.08663
     Eigenvalues ---    0.08745   0.09299   0.10730   0.11126   0.11240
     Eigenvalues ---    0.11304   0.12084   0.12601   0.13144   0.13583
     Eigenvalues ---    0.13908   0.16000   0.16147   0.17806   0.19820
     Eigenvalues ---    0.21401   0.26016   0.27151   0.28235   0.29598
     Eigenvalues ---    0.30076   0.30422   0.32381   0.32489   0.33071
     Eigenvalues ---    0.33128   0.33197   0.33307   0.33453   0.33792
     Eigenvalues ---    0.35027   0.43464   0.44426   0.45692   0.47067
     Eigenvalues ---    0.56494   0.57715
 En-DIIS/RFO-DIIS/Sim-DIIS IScMMF=       -3 using points:     2    1
 RFO step:  Lambda=-9.43441280D-04.
 DidBck=F Rises=F RFO-DIIS coefs:    1.67732   -0.67732
 Iteration  1 RMS(Cart)=  0.03556935 RMS(Int)=  0.00083173
 Iteration  2 RMS(Cart)=  0.00110561 RMS(Int)=  0.00045127
 Iteration  3 RMS(Cart)=  0.00000174 RMS(Int)=  0.00045127
 Iteration  4 RMS(Cart)=  0.00000000 RMS(Int)=  0.00045127
 Variable       Old X    -DE/DX   Delta X   Delta X   Delta X     New X
                                 (Linear)    (Quad)   (Total)
    R1        3.26508  -0.00083  -0.00112  -0.00378  -0.00460   3.26047
    R2        3.28919  -0.00074  -0.00170  -0.00501  -0.00691   3.28228
    R3        3.34540  -0.00053  -0.00076  -0.00171  -0.00254   3.34286
    R4        3.24823  -0.00052   0.00202  -0.00150   0.00052   3.24876
    R5        3.30046  -0.00002  -0.00096  -0.00029  -0.00176   3.29870
    R6        2.62690  -0.00039   0.00084   0.00063   0.00144   2.62834
    R7        2.60825   0.00059  -0.00049   0.00145   0.00035   2.60860
    R8        2.62941  -0.00005   0.00072   0.00028   0.00118   2.63059
    R9        1.80529   0.00005   0.00002   0.00014   0.00016   1.80545
   R10        2.60723   0.00051  -0.00064   0.00115  -0.00004   2.60718
   R11        2.09959  -0.00009   0.00000  -0.00039  -0.00039   2.09921
   R12        2.08516  -0.00005   0.00000  -0.00022  -0.00022   2.08494
   R13        2.89460  -0.00001   0.00065  -0.00069   0.00009   2.89470
   R14        2.08705   0.00023  -0.00000   0.00100   0.00100   2.08805
   R15        2.08502  -0.00046   0.00407   0.00026   0.00437   2.08939
   R16        4.41883   0.00063   0.02734   0.03912   0.06682   4.48565
   R17        2.08823   0.00030  -0.00000   0.00130   0.00130   2.08953
   R18        2.08428  -0.00040   0.00362  -0.00136   0.00238   2.08667
   R19        2.89236  -0.00053   0.00070  -0.00118  -0.00074   2.89162
   R20        4.43584   0.00065   0.02251   0.02233   0.04542   4.48126
   R21        2.10155  -0.00011   0.00001  -0.00051  -0.00050   2.10104
   R22        2.08263  -0.00013   0.00000  -0.00056  -0.00056   2.08207
   R23        1.81124   0.00047  -0.00667  -0.00126  -0.00793   1.80331
    A1        2.64888  -0.00223  -0.01006  -0.03060  -0.04068   2.60820
    A2        1.57399  -0.00029  -0.00141  -0.00138  -0.00300   1.57098
    A3        1.80550   0.00105   0.00502   0.01486   0.01980   1.82530
    A4        1.55629  -0.00042   0.00055  -0.00385  -0.00295   1.55334
    A5        1.53761  -0.00019   0.00041  -0.00244  -0.00204   1.53557
    A6        1.82877   0.00118   0.00504   0.01576   0.02089   1.84966
    A7        1.51225   0.00004  -0.00252   0.00041  -0.00271   1.50953
    A8        1.64528   0.00051   0.00103   0.00103   0.00239   1.64766
    A9        1.70861   0.00032   0.00090   0.00099   0.00216   1.71077
   A10        1.96095   0.00085  -0.00034   0.00551   0.00460   1.96555
   A11        2.00703   0.00040   0.00027   0.00395   0.00439   2.01142
   A12        1.93774   0.00041   0.00080   0.00513   0.00545   1.94320
   A13        1.81299  -0.00003   0.00011  -0.00022  -0.00011   1.81288
   A14        1.98649   0.00024  -0.00024   0.00282   0.00248   1.98898
   A15        1.93675   0.00027  -0.00124   0.00249   0.00142   1.93817
   A16        1.93327   0.00002   0.00074  -0.00117  -0.00070   1.93257
   A17        1.86134  -0.00037   0.00128  -0.00089   0.00057   1.86191
   A18        1.87300  -0.00005  -0.00020  -0.00022  -0.00039   1.87261
   A19        1.92099   0.00013  -0.00117  -0.00055  -0.00191   1.91908
   A20        1.93938   0.00001   0.00055   0.00037   0.00102   1.94040
   A21        1.84099  -0.00027  -0.00109  -0.00354  -0.00444   1.83655
   A22        1.92129   0.00042  -0.00490   0.00296  -0.00157   1.91971
   A23        1.91888  -0.00057   0.01156   0.00275   0.01325   1.93212
   A24        1.93349   0.00006  -0.00581   0.00050  -0.00592   1.92757
   A25        1.91818   0.00050   0.00820   0.00177   0.01067   1.92885
   A26        1.92920  -0.00014  -0.00726  -0.00428  -0.01139   1.91780
   A27        2.22898   0.00277   0.01217   0.02450   0.03597   2.26496
   A28        1.92442   0.00008  -0.00512   0.00470  -0.00043   1.92399
   A29        1.93505   0.00026   0.01011   0.00267   0.01252   1.94757
   A30        1.83712   0.00010  -0.00048  -0.00118  -0.00145   1.83568
   A31        1.93019   0.00024  -0.00774  -0.00163  -0.00904   1.92115
   A32        1.93494   0.00044  -0.00521   0.00082  -0.00465   1.93029
   A33        1.90008  -0.00114   0.00923  -0.00543   0.00354   1.90362
   A34        2.23993   0.00264   0.01259   0.01912   0.03178   2.27171
   A35        1.86635  -0.00044   0.00258   0.00075   0.00300   1.86936
   A36        1.93023   0.00010  -0.00233   0.00169  -0.00034   1.92989
   A37        1.93276   0.00020   0.00119  -0.00177  -0.00069   1.93206
   A38        1.91877   0.00027  -0.00217   0.00005  -0.00206   1.91670
   A39        1.94000  -0.00008   0.00111  -0.00061   0.00058   1.94058
   A40        1.87641  -0.00004  -0.00043  -0.00008  -0.00054   1.87587
   A41        2.06851  -0.00327  -0.01246  -0.04686  -0.05989   2.00863
   A42        1.74030  -0.00054  -0.00183  -0.01767  -0.02040   1.71990
   A43        1.69294  -0.00048  -0.00205  -0.01736  -0.02004   1.67290
   A44        3.13027  -0.00072  -0.00087  -0.00523  -0.00595   3.12432
   A45        3.35718   0.00072   0.00197   0.00142   0.00399   3.36117
    D1       -1.07070  -0.00014   0.00515  -0.00124   0.00465  -1.06605
    D2       -2.57724   0.00055   0.00576   0.00294   0.00940  -2.56785
    D3        2.05780   0.00007   0.00493   0.00189   0.00727   2.06506
[...]

            Population analysis using the SCF Density.

 **********************************************************************

 Orbital symmetries:
       Occupied  (A) (A) (A) (A) (A) (A) (A) (A) (A) (A) (A) (A)
                 (A) (A) (A) (A) (A) (A) (A) (A) (A) (A) (A) (A)
                 (A) (A) (A) (A) (A) (A) (A) (A) (A) (A) (A) (A)
                 (A) (A) (A) (A) (A) (A) (A) (A) (A) (A) (A) (A)
                 (A)
       Virtual   (A) (A) (A) (A) (A) (A) (A) (A) (A) (A) (A) (A)
                 (A) (A) (A) (A) (A) (A) (A) (A) (A) (A) (A) (A)
                 (A) (A) (A) (A) (A) (A) (A) (A) (A) (A) (A) (A)
                 (A) (A) (A) (A) (A) (A) (A) (A) (A) (A) (A) (A)
                 (A) (A) (A) (A) (A) (A) (A) (A) (A) (A) (A) (A)
                 (A) (A) (A) (A) (A) (A) (A) (A) (A) (A) (A) (A)
                 (A) (A) (A) (A) (A) (A) (A) (A) (A) (A) (A) (A)
                 (A) (A) (A) (A) (A) (A) (A) (A) (A) (A) (A) (A)
                 (A) (A) (A) (A) (A) (A) (A) (A) (A) (A) (A) (A)
                 (A) (A) (A) (A) (A) (A) (A) (A) (A) (A) (A) (A)
                 (A) (A) (A) (A) (A) (A) (A) (A) (A) (A) (A) (A)
                 (A) (A) (A) (A) (A) (A) (A) (A) (A) (A) (A) (A)
                 (A) (A) (A) (A) (A) (A) (A) (A) (A) (A) (A) (A)
                 (A) (A) (A) (A) (A) (A) (A) (A) (A) (A) (A) (A)
                 (A) (A) (A) (A) (A) (A) (A) (A) (A) (A) (A) (A)
                 (A) (A) (A) (A) (A) (A) (A) (A) (A) (A) (A) (A)
                 (A) (A) (A) (A) (A) (A) (A) (A) (A) (A) (A) (A)
                 (A) (A) (A) (A) (A) (A) (A) (A) (A) (A) (A) (A)
                 (A) (A) (A) (A) (A) (A) (A) (A) (A) (A) (A) (A)
                 (A) (A) (A) (A) (A) (A) (A) (A) (A) (A) (A) (A)
                 (A) (A) (A) (A) (A) (A) (A) (A) (A) (A) (A) (A)
                 (A) (A) (A) (A) (A) (A) (A) (A) (A) (A) (A) (A)
                 (A) (A) (A) (A) (A) (A) (A) (A) (A) (A) (A) (A)
                 (A) (A) (A) (A) (A) (A) (A) (A) (A) (A) (A) (A)
                 (A) (A) (A) (A) (A) (A) (A) (A) (A) (A) (A) (A)
                 (A) (A) (A) (A) (A) (A) (A) (A) (A) (A) (A) (A)
                 (A) (A) (A) (A) (A) (A) (A) (A) (A) (A) (A) (A)
                 (A) (A) (A) (A) (A) (A) (A) (A) (A) (A) (A) (A)
                 (A) (A) (A) (A) (A) (A) (A) (A) (A) (A) (A) (A)
                 (A) (A) (A) (A) (A) (A) (A) (A) (A) (A) (A) (A)
                 (A) (A) (A) (A) (A) (A) (A) (A) (A) (A) (A) (A)
                 (A) (A) (A) (A) (A) (A) (A) (A) (A) (A) (A) (A)
                 (A) (A) (A) (A) (A) (A) (A) (A) (A) (A) (A) (A)
                 (A) (A) (A) (A) (A) (A) (A) (A) (A) (A) (A) (A)
                 (A) (A) (A) (A) (A) (A) (A) (A) (A) (A) (A) (A)
                 (A) (A) (A) (A) (A) (A) (A) (A) (A) (A) (A) (A)
                 (A) (A) (A) (A) (A) (A) (A) (A) (A) (A) (A)
 The electronic state is 1-A.
 Alpha  occ. eigenvalues --  -66.11190 -19.05435 -19.05200 -19.04399 -19.03486
 Alpha  occ. eigenvalues --  -19.02974 -18.81692 -10.16557 -10.16263 -10.16168
 Alpha  occ. eigenvalues --  -10.15789  -5.22319  -3.56924  -3.56866  -3.56746
 Alpha  occ. eigenvalues --   -0.96665  -0.94188  -0.90281  -0.89648  -0.87920
 Alpha  occ. eigenvalues --   -0.66076  -0.64054  -0.63800  -0.53980  -0.52130
 Alpha  occ. eigenvalues --   -0.45591  -0.42333  -0.41210  -0.40222  -0.39748
 Alpha  occ. eigenvalues --   -0.38383  -0.35397  -0.34928  -0.32286  -0.31878
 Alpha  occ. eigenvalues --   -0.30498  -0.25529  -0.23744  -0.22781  -0.21755
 Alpha  occ. eigenvalues --   -0.21019  -0.20305  -0.19742  -0.18018  -0.16054
 Alpha  occ. eigenvalues --   -0.15688  -0.12849   0.01216   0.01216
 Alpha virt. eigenvalues --    0.26022   0.26869   0.28203   0.29370   0.30273
 Alpha virt. eigenvalues --    0.30703   0.31107   0.33248   0.34497   0.35174
 Alpha virt. eigenvalues --    0.35723   0.37424   0.37908   0.39084   0.40558
 Alpha virt. eigenvalues --    0.41425   0.41830   0.42568   0.43859   0.44351
 Alpha virt. eigenvalues --    0.45777   0.47196   0.50082   0.51450   0.52158
 Alpha virt. eigenvalues --    0.52793   0.53718   0.55193   0.56503   0.57120
 Alpha virt. eigenvalues --    0.58209   0.59545   0.60315   0.61148   0.61744
 Alpha virt. eigenvalues --    0.62578   0.62901   0.63615   0.64889   0.65074
 Alpha virt. eigenvalues --    0.65849   0.66114   0.67521   0.68502   0.69682
 Alpha virt. eigenvalues --    0.70180   0.72655   0.73095   0.74443   0.74570
 Alpha virt. eigenvalues --    0.75349   0.77037   0.78117   0.79112   0.79223
 Alpha virt. eigenvalues --    0.82214   0.82364   0.82752   0.83773   0.84276
 Alpha virt. eigenvalues --    0.84276   0.85652   0.88612   0.89522   0.91753
 Alpha virt. eigenvalues --    0.92847   0.93307   0.94068   0.95870   0.97347
 Alpha virt. eigenvalues --    0.98223   0.99839   1.01048   1.01508   1.02219
 Alpha virt. eigenvalues --    1.03008   1.03986   1.05159   1.06259   1.07162
 Alpha virt. eigenvalues --    1.08151   1.08783   1.10912   1.11880   1.12473
 Alpha virt. eigenvalues --    1.12473   1.14117   1.14518   1.18431   1.19895
 Alpha virt. eigenvalues --    1.20109   1.21273   1.22820   1.23268   1.24674
 Alpha virt. eigenvalues --    1.26393   1.27179   1.28982   1.29461   1.30583
 Alpha virt. eigenvalues --    1.32382   1.33372   1.35073   1.35547   1.36674
 Alpha virt. eigenvalues --    1.39086   1.39504   1.40301   1.41536   1.43263
 Alpha virt. eigenvalues --    1.44887   1.45644   1.46451   1.46984   1.48642
 Alpha virt. eigenvalues --    1.51423   1.51829   1.53704   1.54987   1.55285
 Alpha virt. eigenvalues --    1.57228   1.58122   1.58795   1.59278   1.60866
 Alpha virt. eigenvalues --    1.61354   1.64637   1.65510   1.65954   1.67427
 Alpha virt. eigenvalues --    1.67747   1.70911   1.74012   1.75642   1.76064
 Alpha virt. eigenvalues --    1.77982   1.79730   1.80712   1.81279   1.82332
 Alpha virt. eigenvalues --    1.85506   1.87749   1.89959   1.91210   1.96247
 Alpha virt. eigenvalues --    1.96247   1.99136   2.00277   2.02878   2.03724
 Alpha virt. eigenvalues --    2.05100   2.09226   2.10645   2.11784   2.15345
 Alpha virt. eigenvalues --    2.16168   2.17957   2.20036   2.21177   2.22758
 Alpha virt. eigenvalues --    2.25028   2.25681   2.25681   2.26294   2.27146
 Alpha virt. eigenvalues --    2.28102   2.28282   2.31923   2.32819   2.33598
 Alpha virt. eigenvalues --    2.35595   2.38346   2.40101   2.44092   2.46709
 Alpha virt. eigenvalues --    2.50928   2.52311   2.53285   2.53900   2.55828
 Alpha virt. eigenvalues --    2.58697   2.61338   2.64501   2.66133   2.68935
 Alpha virt. eigenvalues --    2.69464   2.70359   2.71303   2.74569   2.81472
 Alpha virt. eigenvalues --    2.83086   2.83695   2.85415   2.86682   2.87875
 Alpha virt. eigenvalues --    2.88313   2.89281   2.89982   2.98501   3.00122
 Alpha virt. eigenvalues --    3.01474   3.02568   3.03792   3.03792   3.04308
 Alpha virt. eigenvalues --    3.04674   3.05162   3.07211   3.09897   3.11157
 Alpha virt. eigenvalues --    3.12644   3.14743   3.16272   3.18650   3.19864
 Alpha virt. eigenvalues --    3.21322   3.22059   3.22183   3.23103   3.24238
 Alpha virt. eigenvalues --    3.26560   3.28359   3.31710   3.32226   3.34103
 Alpha virt. eigenvalues --    3.35416   3.36704   3.37051   3.38821   3.39077
 Alpha virt. eigenvalues --    3.40570   3.42023   3.42919   3.43788   3.44846
 Alpha virt. eigenvalues --    3.47280   3.48262   3.49063   3.53197   3.54571
 Alpha virt. eigenvalues --    3.56634   3.57417   3.60028   3.60607   3.61556
 Alpha virt. eigenvalues --    3.64250   3.67341   3.67421   3.67421   3.68295
 Alpha virt. eigenvalues --    3.70290   3.73034   3.73905   3.75690   3.77965
 Alpha virt. eigenvalues --    3.78432   3.79988   3.80710   3.83719   3.85270
 Alpha virt. eigenvalues --    3.86777   3.87702   3.88767   3.89427   3.92518
 Alpha virt. eigenvalues --    3.94092   3.94690   3.95227   3.98061   3.98773
 Alpha virt. eigenvalues --    3.99761   4.00050   4.00050   4.00816   4.01788
 Alpha virt. eigenvalues --    4.03925   4.06352   4.07371   4.10245   4.10534
 Alpha virt. eigenvalues --    4.16940   4.18026   4.19180   4.20434   4.23019
 Alpha virt. eigenvalues --    4.23727   4.24368   4.28402   4.29262   4.31488
 Alpha virt. eigenvalues --    4.35589   4.36556   4.37194   4.38007   4.39540
 Alpha virt. eigenvalues --    4.40426   4.42095   4.43827   4.44102   4.44341
 Alpha virt. eigenvalues --    4.44341   4.49109   4.49999   4.50906   4.51176
 Alpha virt. eigenvalues --    4.54994   4.58455   4.58719   4.60991   4.61916
 Alpha virt. eigenvalues --    4.64113   4.70603   4.73875   4.78782   4.79063
 Alpha virt. eigenvalues --    4.80311   4.81157   4.82537   4.87951   4.90133
 Alpha virt. eigenvalues --    4.91815   4.94916   4.95415   4.97990   5.00476
 Alpha virt. eigenvalues --    5.01179   5.03457   5.04057   5.05764   5.07974
 Alpha virt. eigenvalues --    5.11091   5.12746   5.14953   5.16194   5.17430
 Alpha virt. eigenvalues --    5.20206   5.24220   5.25123   5.27693   5.28930
 Alpha virt. eigenvalues --    5.31997   5.33395   5.35964   5.36732   5.37526
 Alpha virt. eigenvalues --    5.39063   5.43638   5.49934   5.51406   5.51497
 Alpha virt. eigenvalues --    5.52480   5.55069   5.56707   5.57409   5.62258
 Alpha virt. eigenvalues --    5.65898   5.65898   5.65938   5.68034   5.68823
 Alpha virt. eigenvalues --    5.71426   5.71868   5.72826   5.73777   5.74924
 Alpha virt. eigenvalues --    5.77890   5.79421   5.81312   5.83385   5.85387
 Alpha virt. eigenvalues --    5.86914   5.88647   5.90668   5.91554   5.91554
 Alpha virt. eigenvalues --    5.91884   5.94747   5.96672   5.98590   6.00923
 Alpha virt. eigenvalues --    6.21707   6.22322   6.28173   6.29930   6.32721
 Alpha virt. eigenvalues --    6.33747   6.38512   6.38622   6.40025   6.41703
 Alpha virt. eigenvalues --    6.48451   6.49892   6.60422   6.74088   6.75265
 Alpha virt. eigenvalues --    6.75265   6.82706   6.86708   6.88504   6.88583
 Alpha virt. eigenvalues --    6.88583   6.90848   6.92224   6.92785   6.94486
 Alpha virt. eigenvalues --    6.96165   6.97712   7.02455   7.06624   7.07587
 Alpha virt. eigenvalues --    7.11168   7.13205   7.13205   7.17238   7.20735
 Alpha virt. eigenvalues --    7.24342   7.26426   7.30722   7.32962   7.40078
 Alpha virt. eigenvalues --    7.41607   7.44279   7.49053   7.57473   7.60821
 Alpha virt. eigenvalues --    7.63588   7.67388   7.72653   7.78091   7.78873
 Alpha virt. eigenvalues --    7.86720   7.94875  12.66707  23.51683  23.53138
 Alpha virt. eigenvalues --   23.67492  23.67936  43.72049  44.08988  44.36047
 Alpha virt. eigenvalues --   44.37578  44.48281  44.63488
          Condensed to atoms (all electrons):
               1          2          3          4          5          6
     1  Si  11.483975   0.369824   0.386115   0.359024   0.455610   0.414784
     2  O    0.369824   7.987949  -0.013976  -0.041350  -0.023066  -0.034706
     3  O    0.386115  -0.013976   7.973228  -0.037730  -0.019875  -0.046344
     4  O    0.359024  -0.041350  -0.037730   8.148027  -0.065435   0.003648
     5  O    0.455610  -0.023066  -0.019875  -0.065435   7.829785  -0.044246
     6  O    0.414784  -0.034706  -0.046344   0.003648  -0.044246   8.029533
     7  C   -0.064768  -0.081712   0.000635  -0.002551  -0.008693   0.351747
     8  H    0.010121   0.006311  -0.000460  -0.000038   0.006066  -0.059091
     9  H   -0.003072   0.004570   0.000144   0.000062  -0.000625  -0.045606
    10  C   -0.054853   0.340974  -0.000232   0.002569  -0.004679  -0.096467
    11  H   -0.001491  -0.043257  -0.000186  -0.000180   0.000173   0.006963
    12  H    0.002464  -0.056445   0.000496   0.000058  -0.000233   0.010888
    13  C   -0.041820   0.005370  -0.074912   0.343263   0.001580  -0.002665
    14  H   -0.001690  -0.000379   0.005269  -0.044623  -0.000127   0.000024
    15  H   -0.000001   0.005585   0.006459  -0.052993  -0.000683   0.000014
    16  C   -0.047251  -0.005859   0.330688  -0.099804  -0.005738   0.003882
    17  H   -0.001576  -0.000187  -0.054989   0.011253   0.000705  -0.000136
    18  H    0.000721   0.000170  -0.046220   0.008237  -0.000290   0.000242
    19  O    0.000000   0.000000   0.000000   0.000000   0.000000   0.000000
    20  H    0.000000   0.000000   0.000000   0.000000   0.000000   0.000000
    21  H   -0.034659   0.000944  -0.000202   0.014461   0.313755   0.004171
               7          8          9         10         11         12
     1  Si  -0.064768   0.010121  -0.003072  -0.054853  -0.001491   0.002464
     2  O   -0.081712   0.006311   0.004570   0.340974  -0.043257  -0.056445
     3  O    0.000635  -0.000460   0.000144  -0.000232  -0.000186   0.000496
     4  O   -0.002551  -0.000038   0.000062   0.002569  -0.000180   0.000058
     5  O   -0.008693   0.006066  -0.000625  -0.004679   0.000173  -0.000233
     6  O    0.351747  -0.059091  -0.045606  -0.096467   0.006963   0.010888
     7  C    4.737372   0.394927   0.368400   0.295510  -0.013573  -0.051307
     8  H    0.394927   0.790705  -0.085079  -0.075824  -0.013998   0.018274
     9  H    0.368400  -0.085079   0.772845  -0.015642   0.010689  -0.020125
    10  C    0.295510  -0.075824  -0.015642   4.771644   0.363050   0.395265
    11  H   -0.013573  -0.013998   0.010689   0.363050   0.759956  -0.078044
    12  H   -0.051307   0.018274  -0.020125   0.395265  -0.078044   0.765180
    13  C   -0.000885  -0.000218   0.000028   0.001073  -0.000008  -0.000966
    14  H   -0.000039  -0.000004   0.000000   0.000041  -0.000005  -0.000021
    15  H    0.000342  -0.000000   0.000001   0.000218   0.000027   0.000052
    16  C   -0.001264   0.000131   0.000073  -0.000823  -0.000065   0.000754
    17  H    0.000065  -0.000003   0.000002  -0.000067  -0.000002   0.000021
    18  H    0.000012   0.000004  -0.000004   0.000225   0.000001  -0.000020
    19  O    0.000000   0.000000   0.000000   0.000000   0.000000   0.000000
    20  H    0.000000   0.000000   0.000000   0.000000   0.000000   0.000000
    21  H    0.000551  -0.000664   0.000072  -0.000200   0.000041  -0.000031
              13         14         15         16         17         18
     1  Si  -0.041820  -0.001690  -0.000001  -0.047251  -0.001576   0.000721
     2  O    0.005370  -0.000379   0.005585  -0.005859  -0.000187   0.000170
     3  O   -0.074912   0.005269   0.006459   0.330688  -0.054989  -0.046220
     4  O    0.343263  -0.044623  -0.052993  -0.099804   0.011253   0.008237
     5  O    0.001580  -0.000127  -0.000683  -0.005738   0.000705  -0.000290
     6  O   -0.002665   0.000024   0.000014   0.003882  -0.000136   0.000242
     7  C   -0.000885  -0.000039   0.000342  -0.001264   0.000065   0.000012
     8  H   -0.000218  -0.000004  -0.000000   0.000131  -0.000003   0.000004
     9  H    0.000028   0.000000   0.000001   0.000073   0.000002  -0.000004
    10  C    0.001073   0.000041   0.000218  -0.000823  -0.000067   0.000225
    11  H   -0.000008  -0.000005   0.000027  -0.000065  -0.000002   0.000001
    12  H   -0.000966  -0.000021   0.000052   0.000754   0.000021  -0.000020
    13  C    4.690650   0.360923   0.399109   0.323120  -0.051161  -0.022500
    14  H    0.360923   0.775838  -0.078603  -0.014966  -0.018421   0.009177
    15  H    0.399109  -0.078603   0.782649  -0.078455   0.017833  -0.010691
    16  C    0.323120  -0.014966  -0.078455   4.759848   0.385635   0.377441
    17  H   -0.051161  -0.018421   0.017833   0.385635   0.770226  -0.073575
    18  H   -0.022500   0.009177  -0.010691   0.377441  -0.073575   0.740684
    19  O    0.000000   0.000000   0.000000   0.000000   0.000000   0.000000
    20  H    0.000000   0.000000   0.000000   0.000000   0.000000   0.000000
    21  H    0.000297  -0.000785   0.000645  -0.001755   0.001322  -0.000095
              19         20         21
     1  Si   0.000000   0.000000  -0.034659
     2  O    0.000000   0.000000   0.000944
     3  O    0.000000   0.000000  -0.000202
     4  O    0.000000   0.000000   0.014461
     5  O    0.000000   0.000000   0.313755
     6  O    0.000000   0.000000   0.004171
     7  C    0.000000   0.000000   0.000551
     8  H    0.000000   0.000000  -0.000664
     9  H    0.000000   0.000000   0.000072
    10  C    0.000000   0.000000  -0.000200
    11  H    0.000000   0.000000   0.000041
    12  H    0.000000   0.000000  -0.000031
    13  C    0.000000   0.000000   0.000297
    14  H    0.000000   0.000000  -0.000785
    15  H    0.000000   0.000000   0.000645
    16  C    0.000000   0.000000  -0.001755
    17  H    0.000000   0.000000   0.001322
    18  H    0.000000   0.000000  -0.000095
    19  O    8.806742   0.257969   0.000000
    20  H    0.257969   0.677320   0.000000
    21  H    0.000000   0.000000   0.555249
 Mulliken charges:
               1
     1  Si   0.768542
     2  O   -0.420759
     3  O   -0.407909
     4  O   -0.545897
     5  O   -0.433985
     6  O   -0.496634
     7  C    0.075232
     8  H    0.008838
     9  H    0.013269
    10  C    0.078218
    11  H    0.009910
    12  H    0.013740
    13  C    0.069722
    14  H    0.008391
    15  H    0.008490
    16  C    0.074411
    17  H    0.013056
    18  H    0.016480
    19  O   -1.064711
    20  H    0.064711
    21  H    0.146884
 Sum of Mulliken charges =  -2.00000
 Mulliken charges with hydrogens summed into heavy atoms:
               1
     1  Si   0.768542
     2  O   -0.420759
     3  O   -0.407909
     4  O   -0.545897
     5  O   -0.287101
     6  O   -0.496634
     7  C    0.097340
    10  C    0.101868
    13  C    0.086604
    16  C    0.103947
    19  O   -1.000000
 Electronic spatial extent (au):  <R**2>=         213572.2193
 Charge=             -2.0000 electrons
 Dipole moment (field-independent basis, Debye):
    X=           -317.4329    Y=             -1.1217    Z=              1.4347  Tot=            317.4381
 Quadrupole moment (field-independent basis, Debye-Ang):
   XX=         -26276.2948   YY=            -83.9480   ZZ=            -87.5468
   XY=             23.7731   XZ=             59.3977   YZ=              3.5113
 Traceless Quadrupole moment (field-independent basis, Debye-Ang):
   XX=         -17460.3649   YY=           8731.9819   ZZ=           8728.3831
   XY=             23.7731   XZ=             59.3977   YZ=              3.5113
 Octapole moment (field-independent basis, Debye-Ang**2):
  XXX=       -1903790.4010  YYY=             -1.8807  ZZZ=              4.7084  XYY=            -62.3574
  XXY=           1139.7942  XXZ=           4659.0342  XZZ=            -10.2060  YZZ=              3.3522
  YYZ=              2.0639  XYZ=             13.1712
 Hexadecapole moment (field-independent basis, Debye-Ang**3):
 XXXX=     -140324240.1077 YYYY=          -1188.0230 ZZZZ=           -384.3245 XXXY=          91326.2429
 XXXZ=         346112.9596 YYYX=             18.6504 YYYZ=              5.8491 ZZZX=              4.5050
 ZZZY=              4.3844 XXYY=         -51188.7430 XXZZ=         -50380.7457 YYZZ=           -264.6591
 XXYZ=           2719.8883 YYXZ=              1.7971 ZZXY=            -15.5931
 N-N= 7.523226099682D+02 E-N=-3.651902129921D+03  KE= 8.965177423043D+02


 WORK FAITHFULLY FOR EIGHT HOURS A DAY AND DON'T WORRY.
 IN TIME YOU MAY BECOME BOSS AND WORK TWELVE HOURS A DAY
 AND HAVE ALL THE WORRY.
 Error termination request processed by link 9999.
 Error termination via Lnk1e in /opt/software/gaussian/g16.c01/l9999.exe at Sat Mar 30 21:58:46 2024.
 Job cpu time:       3 days 18 hours 16 minutes 58.3 seconds.
 Elapsed time:       0 days 22 hours 53 minutes 22.7 seconds.
 File lengths (MBytes):  RWF=    153 Int=      0 D2E=      0 Chk=     18 Scr=      1
